<event>
12    3  0.2422421E-007  0.4204034E+03  0.7818608E-02  0.1036935E+00
          1   -1    0    0  501    0  0.00000000000E+00  0.00000000000E+00  0.40167706198E+03  0.40167706198E+03  0.00000000000E+00 0. -1.
         -2   -1    0    0    0  501 -0.00000000000E+00 -0.00000000000E+00 -0.56307724959E+03  0.56307724959E+03  0.00000000000E+00 0.  1.
        -24    2    1    2    0    0  0.16542463609E+03  0.17254546079E+03  0.95591711908E+02  0.26948458470E+03  0.79667557658E+02 0.  0.
    5000000    2    1    2    0    0 -0.16542463609E+03 -0.17254546079E+03 -0.25699189952E+03  0.69526972686E+03  0.60018156454E+03 0.  0.
        -24    2    4    4    0    0  0.17482065829E+03 -0.17313561621E+03 -0.58890077882E+00  0.26165904425E+03  0.89033164973E+02 0.  0.
         24    2    4    4    0    0 -0.34024529439E+03  0.59015542103E+00 -0.25640299874E+03  0.43361068262E+03  0.80675384602E+02 0.  0.
         11    1    5    5    0    0  0.51476653085E+02 -0.22854630384E+02  0.31621013753E+02  0.64591550946E+02  0.00000000000E+00 0. -1.
        -12    1    5    5    0    0  0.12334400521E+03 -0.15028098582E+03 -0.32209914532E+02  0.19706749330E+03  0.00000000000E+00 0.  1.
         13    1    3    3    0    0  0.10781823797E+03  0.13226658230E+03  0.10216052920E+03  0.19888688986E+03  0.00000000000E+00 0. -1.
        -14    1    3    3    0    0  0.57606398121E+02  0.40278878486E+02 -0.65688172894E+01  0.70597694843E+02  0.00000000000E+00 0.  1.
          2    1    6    6  502    0 -0.12072354457E+03  0.37748847932E+02 -0.81346010998E+02  0.15038724427E+03  0.00000000000E+00 0. -1.
         -1    1    6    6    0  502 -0.21952174981E+03 -0.37158692511E+02 -0.17505698774E+03  0.28322343834E+03  0.00000000000E+00 0.  1.
<mgrwt>
<rscale>  0 0.42040335E+03</rscale>
<asrwt>0</asrwt>
<pdfrwt beam="1">  1        1 0.61796472E-01 0.42040335E+03</pdfrwt>
<pdfrwt beam="2">  1       -2 0.86627268E-01 0.42040335E+03</pdfrwt>
<totfact> 0.62707386E+01</totfact>
</mgrwt>
</event>
<event>
12    3  0.2422421E-007  0.4982531E+03  0.7818608E-02  0.1014236E+00
         -2   -1    0    0    0  501 -0.00000000000E+00  0.00000000000E+00  0.24129369358E+03  0.24129369358E+03  0.00000000000E+00 0.  1.
          1   -1    0    0  501    0  0.00000000000E+00 -0.00000000000E+00 -0.12377661180E+04  0.12377661180E+04  0.00000000000E+00 0. -1.
        -24    2    1    2    0    0  0.32641893408E+03 -0.52981626817E+02 -0.59351967092E+03  0.68418115127E+03  0.80510090522E+02 0.  0.
    5000000    2    1    2    0    0 -0.32641893408E+03  0.52981626817E+02 -0.40295275354E+03  0.79487866035E+03  0.60008731847E+03 0.  0.
        -24    2    4    4    0    0 -0.48166490823E+03  0.74148513902E+02 -0.22227945491E+03  0.54143467248E+03  0.79020646378E+02 0.  0.
         24    2    4    4    0    0  0.15524597415E+03 -0.21166887085E+02 -0.18067329863E+03  0.25344398787E+03  0.83914626579E+02 0.  0.
         11    1    5    5    0    0 -0.29023806884E+03  0.82797268062E+02 -0.14457056018E+03  0.33465530188E+03  0.00000000000E+00 0. -1.
        -12    1    5    5    0    0 -0.19142683939E+03 -0.86487541600E+01 -0.77708894729E+02  0.20677937060E+03  0.00000000000E+00 0.  1.
         13    1    3    3    0    0  0.13077450282E+03 -0.54340571666E+02 -0.20469511512E+03  0.24890752996E+03  0.00000000000E+00 0. -1.
        -14    1    3    3    0    0  0.19564443126E+03  0.13589448489E+01 -0.38882455579E+03  0.43527362130E+03  0.00000000000E+00 0.  1.
          4    1    6    6  502    0  0.75232221381E+02  0.17035393863E+02 -0.13042949455E+03  0.15153199275E+03  0.00000000000E+00 0. -1.
         -3    1    6    6    0  502  0.80013752767E+02 -0.38202280948E+02 -0.50243804072E+02  0.10191199512E+03  0.00000000000E+00 0.  1.
<mgrwt>
<rscale>  0 0.49825305E+03</rscale>
<asrwt>0</asrwt>
<pdfrwt beam="1">  1        1 0.19042556E+00 0.49825305E+03</pdfrwt>
<pdfrwt beam="2">  1       -2 0.37122106E-01 0.49825305E+03</pdfrwt>
<totfact> 0.63252023E+01</totfact>
</mgrwt>
</event>
<event>
12    3  0.2422421E-007  0.8106752E+03  0.7818608E-02  0.9544693E-01
         -2   -1    0    0    0  501 -0.00000000000E+00  0.00000000000E+00  0.13150287426E+04  0.13150287426E+04  0.00000000000E+00 0.  1.
          1   -1    0    0  501    0  0.00000000000E+00 -0.00000000000E+00 -0.54134108667E+03  0.54134108667E+03  0.00000000000E+00 0. -1.
        -24    2    1    2    0    0 -0.42385380382E+03 -0.58544587464E+03  0.48251277997E+03  0.87286482796E+03  0.81703769212E+02 0.  0.
    5000000    2    1    2    0    0  0.42385380382E+03  0.58544587464E+03  0.29117487601E+03  0.98350500136E+03  0.60008362762E+03 0.  0.
        -24    2    4    4    0    0 -0.11999386571E+03  0.86714175827E+02  0.15516811114E+03  0.22885317500E+03  0.79867120251E+02 0.  0.
         24    2    4    4    0    0  0.54384766954E+03  0.49873169881E+03  0.13600676487E+03  0.75465182636E+03  0.80609824917E+02 0.  0.
         13    1    5    5    0    0 -0.98752352776E+02  0.36456642687E+02  0.65782936647E+02  0.12413101437E+03  0.00000000000E+00 0. -1.
        -14    1    5    5    0    0 -0.21241512939E+02  0.50257533141E+02  0.89385174489E+02  0.10472216063E+03  0.00000000000E+00 0.  1.
         13    1    3    3    0    0 -0.21217929260E+02 -0.20548674017E+02  0.41163165950E+02  0.50664136793E+02  0.00000000000E+00 0. -1.
        -14    1    3    3    0    0 -0.40263587456E+03 -0.56489720062E+03  0.44134961402E+03  0.82220069116E+03  0.00000000000E+00 0.  1.
          4    1    6    6  502    0  0.17534675417E+03  0.14603375515E+03  0.60661080854E+01  0.22827426379E+03  0.00000000000E+00 0. -1.
         -3    1    6    6    0  502  0.36850091537E+03  0.35269794366E+03  0.12994065679E+03  0.52637756257E+03  0.00000000000E+00 0.  1.
<mgrwt>
<rscale>  0 0.81067516E+03</rscale>
<asrwt>0</asrwt>
<pdfrwt beam="1">  1        1 0.83283244E-01 0.81067516E+03</pdfrwt>
<pdfrwt beam="2">  1       -2 0.20231211E+00 0.81067516E+03</pdfrwt>
<totfact> 0.45423836E+00</totfact>
</mgrwt>
</event>
<event>
12    3  0.2422421E-007  0.1124752E+04  0.7818608E-02  0.9181397E-01
          1   -1    0    0  501    0  0.00000000000E+00  0.00000000000E+00  0.25007994605E+04  0.25007994605E+04  0.00000000000E+00 0. -1.
         -2   -1    0    0    0  501 -0.00000000000E+00 -0.00000000000E+00 -0.52234912541E+03  0.52234912541E+03  0.00000000000E+00 0.  1.
        -24    2    1    2    0    0  0.10163400224E+04 -0.30789055606E+03  0.87735082771E+03  0.13798760139E+04  0.81053705294E+02 0.  0.
    5000000    2    1    2    0    0 -0.10163400224E+04  0.30789055606E+03  0.11010995074E+04  0.16432725721E+04  0.60015080215E+03 0.  0.
        -24    2    4    4    0    0 -0.10515598191E+04  0.23789800894E+03  0.10885023953E+04  0.15341235644E+04  0.79524402002E+02 0.  0.
         24    2    4    4    0    0  0.35219796720E+02  0.69992547121E+02  0.12597112115E+02  0.10914900767E+03  0.74936158879E+02 0.  0.
         11    1    5    5    0    0 -0.61721368980E+03  0.15350652679E+03  0.69354628949E+03  0.94102255462E+03  0.00000000000E+00 0. -1.
        -12    1    5    5    0    0 -0.43434612930E+03  0.84391482145E+02  0.39495610579E+03  0.59310100977E+03  0.00000000000E+00 0.  1.
         13    1    3    3    0    0  0.27792315183E+03 -0.58152526537E+02  0.26826777215E+03  0.39062845805E+03  0.00000000000E+00 0. -1.
        -14    1    3    3    0    0  0.73841687055E+03 -0.24973802952E+03  0.60908305556E+03  0.98924755581E+03  0.00000000000E+00 0.  1.
          4    1    6    6  502    0  0.18832388793E+02 -0.13060279768E+02 -0.28588058829E+01  0.23095509225E+02  0.00000000000E+00 0. -1.
         -3    1    6    6    0  502  0.16387407927E+02  0.83052826889E+02  0.15455917998E+02  0.86053498442E+02  0.00000000000E+00 0.  1.
<mgrwt>
<rscale>  0 0.11247522E+04</rscale>
<asrwt>0</asrwt>
<pdfrwt beam="1">  1        1 0.38473837E+00 0.11247522E+04</pdfrwt>
<pdfrwt beam="2">  1       -2 0.80361406E-01 0.11247522E+04</pdfrwt>
<totfact> 0.16224412E+00</totfact>
</mgrwt>
</event>
<event>
12    3  0.2422421E-007  0.4461215E+03  0.7818608E-02  0.1028885E+00
         -2   -1    0    0    0  501 -0.00000000000E+00  0.00000000000E+00  0.16227006638E+03  0.16227006638E+03  0.00000000000E+00 0.  1.
          1   -1    0    0  501    0  0.00000000000E+00 -0.00000000000E+00 -0.19615842098E+04  0.19615842098E+04  0.00000000000E+00 0. -1.
        -24    2    1    2    0    0 -0.38337281998E+03 -0.59626095951E+02 -0.47148427469E+03  0.61597537447E+03  0.81229614395E+02 0.  0.
    5000000    2    1    2    0    0  0.38337281998E+03  0.59626095951E+02 -0.13278298687E+04  0.15078789017E+04  0.60003052550E+03 0.  0.
        -24    2    4    4    0    0  0.28500064625E+03 -0.10288207098E+03 -0.12484448340E+04  0.12872054021E+04  0.80455917066E+02 0.  0.
         24    2    4    4    0    0  0.98372173732E+02  0.16250816693E+03 -0.79385034671E+02  0.22067349963E+03  0.79428085858E+02 0.  0.
         11    1    3    3    0    0 -0.19299045256E+03 -0.16335715227E+02 -0.17531638752E+03  0.26124319341E+03  0.00000000000E+00 0. -1.
        -12    1    3    3    0    0 -0.19038236742E+03 -0.43290380724E+02 -0.29616788716E+03  0.35473218106E+03  0.00000000000E+00 0.  1.
         13    1    5    5    0    0  0.45660704050E+02 -0.12466369117E+02 -0.10040467528E+03  0.11100184265E+03  0.00000000000E+00 0. -1.
        -14    1    5    5    0    0  0.23933994220E+03 -0.90415701866E+02 -0.11480401588E+04  0.11762035594E+04  0.00000000000E+00 0.  1.
          4    1    6    6  502    0  0.77906721664E+02  0.67900990222E+02 -0.15016157143E+02  0.10442933845E+03  0.00000000000E+00 0. -1.
         -3    1    6    6    0  502  0.20465452067E+02  0.94607176713E+02 -0.64368877528E+02  0.11624416118E+03  0.00000000000E+00 0.  1.
<mgrwt>
<rscale>  0 0.44612149E+03</rscale>
<asrwt>0</asrwt>
<pdfrwt beam="1">  1        1 0.30178220E+00 0.44612149E+03</pdfrwt>
<pdfrwt beam="2">  1       -2 0.24964625E-01 0.44612149E+03</pdfrwt>
<totfact> 0.43199088E+01</totfact>
</mgrwt>
</event>
<event>
12    3  0.2422421E-007  0.1503741E+04  0.7818608E-02  0.8881969E-01
          1   -1    0    0  501    0  0.00000000000E+00  0.00000000000E+00  0.31040001214E+04  0.31040001214E+04  0.00000000000E+00 0. -1.
         -4   -1    0    0    0  501 -0.00000000000E+00 -0.00000000000E+00 -0.12968212441E+04  0.12968212441E+04  0.00000000000E+00 0.  1.
        -24    2    1    2    0    0 -0.14018964418E+04 -0.52067331033E+03  0.22743571975E+04  0.27230814897E+04  0.77831921157E+02 0.  0.
    5000000    2    1    2    0    0  0.14018964418E+04  0.52067331033E+03 -0.46717832015E+03  0.16777398758E+04  0.60011763720E+03 0.  0.
        -24    2    4    4    0    0  0.64333678284E+03  0.34768332428E+03 -0.51057529231E+03  0.89442419178E+03  0.67391361325E+02 0.  0.
         24    2    4    4    0    0  0.75855965896E+03  0.17298998605E+03  0.43396972159E+02  0.78331568404E+03  0.79761345303E+02 0.  0.
         11    1    3    3    0    0 -0.10623491081E+04 -0.39943236147E+03  0.16644856517E+04  0.20146077345E+04  0.00000000000E+00 0. -1.
        -12    1    3    3    0    0 -0.33954733366E+03 -0.12124094886E+03  0.60987154575E+03  0.70847375518E+03  0.00000000000E+00 0.  1.
         13    1    5    5    0    0  0.58071586227E+03  0.32359642082E+03 -0.48374538462E+03  0.82216491861E+03  0.00000000000E+00 0. -1.
        -14    1    5    5    0    0  0.62620920573E+02  0.24086903459E+02 -0.26829907694E+02  0.72259273167E+02  0.00000000000E+00 0.  1.
          4    1    6    6  502    0  0.47264519380E+03  0.13584294745E+03  0.54463511063E+02  0.49478587250E+03  0.00000000000E+00 0. -1.
         -3    1    6    6    0  502  0.28591446516E+03  0.37147038606E+02 -0.11066538904E+02  0.28852981154E+03  0.00000000000E+00 0.  1.
<mgrwt>
<rscale>  0 0.15037414E+04</rscale>
<asrwt>0</asrwt>
<pdfrwt beam="1">  1        1 0.47753848E+00 0.15037414E+04</pdfrwt>
<pdfrwt beam="2">  1       -4 0.19951096E+00 0.15037414E+04</pdfrwt>
<totfact> 0.30059567E-02</totfact>
</mgrwt>
</event>
<event>
12    3  0.2422421E-007  0.1203387E+04  0.7818608E-02  0.9109897E-01
         -4   -1    0    0    0  501 -0.00000000000E+00  0.00000000000E+00  0.10749772029E+04  0.10749772029E+04  0.00000000000E+00 0.  1.
          3   -1    0    0  501    0  0.00000000000E+00 -0.00000000000E+00 -0.14913794967E+04  0.14913794967E+04  0.00000000000E+00 0. -1.
        -24    2    1    2    0    0  0.11933829848E+04 -0.80362100998E+01 -0.17106673338E+03  0.12081843071E+04  0.78854064336E+02 0.  0.
    5000000    2    1    2    0    0 -0.11933829848E+04  0.80362100998E+01 -0.24533556046E+03  0.13581723925E+04  0.60017929101E+03 0.  0.
        -24    2    4    4    0    0 -0.70651313842E+03  0.87889318845E+02  0.13640651285E+03  0.72896620553E+03  0.76809146077E+02 0.  0.
         24    2    4    4    0    0 -0.48686984641E+03 -0.79853108745E+02 -0.38174207331E+03  0.62920618698E+03  0.82186670909E+02 0.  0.
         11    1    5    5    0    0 -0.59241692568E+03  0.46963117392E+02  0.12442352276E+03  0.60716106697E+03  0.00000000000E+00 0. -1.
        -12    1    5    5    0    0 -0.11409621275E+03  0.40926201452E+02  0.11982990091E+02  0.12180513856E+03  0.00000000000E+00 0.  1.
         13    1    3    3    0    0  0.68594113017E+03 -0.81105444766E+01 -0.13749840868E+03  0.69963335211E+03  0.00000000000E+00 0. -1.
        -14    1    3    3    0    0  0.50744185467E+03  0.74334376827E-01 -0.33568324705E+02  0.50855095499E+03  0.00000000000E+00 0.  1.
          4    1    6    6  502    0 -0.14403429345E+03  0.69428617908E+01 -0.83829736490E+02  0.16679779896E+03  0.00000000000E+00 0. -1.
         -3    1    6    6    0  502 -0.34283555297E+03 -0.86795970536E+02 -0.29791233682E+03  0.46240838801E+03  0.00000000000E+00 0.  1.
<mgrwt>
<rscale>  0 0.12033871E+04</rscale>
<asrwt>0</asrwt>
<pdfrwt beam="1">  1        3 0.22944300E+00 0.12033871E+04</pdfrwt>
<pdfrwt beam="2">  1       -4 0.16538111E+00 0.12033871E+04</pdfrwt>
<totfact> 0.48222526E-02</totfact>
</mgrwt>
</event>
<event>
12    3  0.2422421E-007  0.5827826E+03  0.7818608E-02  0.9941785E-01
          1   -1    0    0  501    0  0.00000000000E+00  0.00000000000E+00  0.23813556838E+04  0.23813556838E+04  0.00000000000E+00 0. -1.
         -2   -1    0    0    0  501 -0.00000000000E+00 -0.00000000000E+00 -0.61170709465E+03  0.61170709465E+03  0.00000000000E+00 0.  1.
        -24    2    1    2    0    0  0.22079073109E+03 -0.47912121772E+03 -0.40899667403E+03  0.67257267412E+03  0.82280218826E+02 0.  0.
    5000000    2    1    2    0    0 -0.22079073109E+03  0.47912121772E+03  0.21786452632E+04  0.23204901043E+04  0.59989453513E+03 0.  0.
        -24    2    4    4    0    0  0.47821456465E+02  0.30584546626E+03  0.17553050509E+04  0.17840167465E+04  0.76102493110E+02 0.  0.
         24    2    4    4    0    0 -0.26861218755E+03  0.17327575145E+03  0.42334021230E+03  0.53647335776E+03  0.80060819925E+02 0.  0.
         11    1    3    3    0    0  0.25532656745E+02 -0.49018726936E+02 -0.78811777975E+02  0.96260316322E+02  0.00000000000E+00 0. -1.
        -12    1    3    3    0    0  0.19525807434E+03 -0.43010249078E+03 -0.33018489605E+03  0.57631235780E+03  0.00000000000E+00 0.  1.
         13    1    5    5    0    0  0.57569241130E+02  0.22454115349E+03  0.11437178326E+04  0.11669719053E+04  0.00000000000E+00 0. -1.
        -14    1    5    5    0    0 -0.97477846656E+01  0.81304312773E+02  0.61158721824E+03  0.61704484123E+03  0.00000000000E+00 0.  1.
          4    1    6    6  502    0 -0.88437231041E+02  0.27864927770E+02  0.80600514477E+02  0.12285780792E+03  0.00000000000E+00 0. -1.
         -1    1    6    6    0  502 -0.18017495651E+03  0.14541082368E+03  0.34273969783E+03  0.41361554983E+03  0.00000000000E+00 0.  1.
<mgrwt>
<rscale>  0 0.58278258E+03</rscale>
<asrwt>0</asrwt>
<pdfrwt beam="1">  1        1 0.36636241E+00 0.58278258E+03</pdfrwt>
<pdfrwt beam="2">  1       -2 0.94108785E-01 0.58278258E+03</pdfrwt>
<totfact> 0.14969422E+00</totfact>
</mgrwt>
</event>
<event>
12    3  0.2422421E-007  0.6626432E+03  0.7818608E-02  0.9783340E-01
         -2   -1    0    0    0  501 -0.00000000000E+00  0.00000000000E+00  0.79267557218E+03  0.79267557218E+03  0.00000000000E+00 0.  1.
          1   -1    0    0  501    0  0.00000000000E+00 -0.00000000000E+00 -0.68447469158E+03  0.68447469158E+03  0.00000000000E+00 0. -1.
        -24    2    1    2    0    0  0.48626039568E+03 -0.30222170574E+03  0.26078404535E+03  0.63415827550E+03  0.79757559237E+02 0.  0.
    5000000    2    1    2    0    0 -0.48626039568E+03  0.30222170574E+03 -0.15258316474E+03  0.84299198826E+03  0.59963883986E+03 0.  0.
        -24    2    4    4    0    0  0.77707611580E+02  0.24813059386E+01  0.10140728805E+03  0.15101862343E+03  0.80489482396E+02 0.  0.
         24    2    4    4    0    0 -0.56396800726E+03  0.29974039980E+03 -0.25399045279E+03  0.69197336482E+03  0.80073510172E+02 0.  0.
         11    1    5    5    0    0  0.44435244660E+02  0.40487468959E+02  0.43657398216E+02  0.74294646709E+02  0.00000000000E+00 0. -1.
        -12    1    5    5    0    0  0.33272366920E+02 -0.38006163020E+02  0.57749889836E+02  0.76723976722E+02  0.00000000000E+00 0.  1.
         13    1    3    3    0    0  0.40122047907E+03 -0.27136015849E+03  0.24320695059E+03  0.54199984249E+03  0.00000000000E+00 0. -1.
        -14    1    3    3    0    0  0.85039916615E+02 -0.30861547252E+02  0.17577094752E+02  0.92158433019E+02  0.00000000000E+00 0.  1.
          4    1    6    6  502    0 -0.30915154432E+03  0.18583591485E+03 -0.10551246020E+03  0.37582248983E+03  0.00000000000E+00 0. -1.
         -3    1    6    6    0  502 -0.25481646294E+03  0.11390448495E+03 -0.14847799259E+03  0.31615087500E+03  0.00000000000E+00 0.  1.
<mgrwt>
<rscale>  0 0.66264323E+03</rscale>
<asrwt>0</asrwt>
<pdfrwt beam="1">  1        1 0.10530380E+00 0.66264323E+03</pdfrwt>
<pdfrwt beam="2">  1       -2 0.12195009E+00 0.66264323E+03</pdfrwt>
<totfact> 0.12970459E+01</totfact>
</mgrwt>
</event>
<event>
12    3  0.2422421E-007  0.5689903E+03  0.7818608E-02  0.9971915E-01
         -2   -1    0    0    0  501 -0.00000000000E+00  0.00000000000E+00  0.11194046684E+04  0.11194046684E+04  0.00000000000E+00 0.  1.
          1   -1    0    0  501    0  0.00000000000E+00 -0.00000000000E+00 -0.33984633624E+03  0.33984633624E+03  0.00000000000E+00 0. -1.
        -24    2    1    2    0    0 -0.59272444490E+02  0.45932127598E+03  0.36853535764E+03  0.59740094889E+03  0.81119212614E+02 0.  0.
    5000000    2    1    2    0    0  0.59272444490E+02 -0.45932127598E+03  0.41102297453E+03  0.86185005578E+03  0.59946340656E+03 0.  0.
        -24    2    4    4    0    0  0.13945734126E+03 -0.52636781704E+03  0.46875211754E+03  0.72280897041E+03  0.78821514631E+02 0.  0.
         24    2    4    4    0    0 -0.80184896775E+02  0.67046541062E+02 -0.57729143004E+02  0.13904108536E+03  0.71238424517E+02 0.  0.
         11    1    3    3    0    0  0.13766555984E+02  0.18842264222E+03  0.13261366700E+03  0.23082243141E+03  0.00000000000E+00 0. -1.
        -12    1    3    3    0    0 -0.73039000474E+02  0.27089863375E+03  0.23592169064E+03  0.36657851748E+03  0.00000000000E+00 0.  1.
         13    1    5    5    0    0  0.12462189749E+03 -0.33159244059E+03  0.31849811004E+03  0.47636667609E+03  0.00000000000E+00 0. -1.
        -14    1    5    5    0    0  0.14835443780E+02 -0.19477537645E+03  0.15025400750E+03  0.24644229433E+03  0.00000000000E+00 0.  1.
          2    1    6    6  502    0 -0.58959954023E+01  0.39088888879E+02 -0.42820199148E+02  0.58277555291E+02  0.00000000000E+00 0. -1.
         -1    1    6    6    0  502 -0.74288901373E+02  0.27957652183E+02 -0.14908943856E+02  0.80763530072E+02  0.00000000000E+00 0.  1.
<mgrwt>
<rscale>  0 0.56899032E+03</rscale>
<asrwt>0</asrwt>
<pdfrwt beam="1">  1        1 0.52284052E-01 0.56899032E+03</pdfrwt>
<pdfrwt beam="2">  1       -2 0.17221610E+00 0.56899032E+03</pdfrwt>
<totfact> 0.13888636E+01</totfact>
</mgrwt>
</event>
<event>
12    3  0.2422421E-007  0.1393561E+04  0.7818608E-02  0.8958493E-01
          1   -1    0    0  501    0  0.00000000000E+00  0.00000000000E+00  0.14147158519E+04  0.14147158519E+04  0.00000000000E+00 0. -1.
         -2   -1    0    0    0  501 -0.00000000000E+00 -0.00000000000E+00 -0.17965391919E+04  0.17965391919E+04  0.00000000000E+00 0.  1.
        -24    2    1    2    0    0 -0.13749251269E+04  0.88253852703E+02 -0.86986065914E+03  0.16312621570E+04  0.78427109011E+02 0.  0.
    5000000    2    1    2    0    0  0.13749251269E+04 -0.88253852703E+02  0.48803731909E+03  0.15799928868E+04  0.59999104185E+03 0.  0.
        -24    2    4    4    0    0  0.12474791078E+04 -0.50165438716E+01  0.23126246470E+03  0.12708110008E+04  0.72449859249E+02 0.  0.
         24    2    4    4    0    0  0.12744601916E+03 -0.83237308832E+02  0.25677485439E+03  0.30918188600E+03  0.80555418222E+02 0.  0.
         11    1    5    5    0    0  0.92618669821E+03 -0.35405968752E+02  0.17243798459E+03  0.94276733137E+03  0.00000000000E+00 0. -1.
        -12    1    5    5    0    0  0.32129240955E+03  0.30389424881E+02  0.58824480106E+02  0.32804366940E+03  0.00000000000E+00 0.  1.
         13    1    3    3    0    0 -0.71603481472E+03  0.77299004111E+01 -0.46197193665E+03  0.85216411418E+03  0.00000000000E+00 0. -1.
        -14    1    3    3    0    0 -0.65889031220E+03  0.80523952292E+02 -0.40788872249E+03  0.77909804283E+03  0.00000000000E+00 0.  1.
          4    1    6    6  502    0  0.90787149383E+01 -0.23255796714E+02  0.10339726290E+03  0.10636845924E+03  0.00000000000E+00 0. -1.
         -3    1    6    6    0  502  0.11836730422E+03 -0.59981512118E+02  0.15337759149E+03  0.20281342676E+03  0.00000000000E+00 0.  1.
<mgrwt>
<rscale>  0 0.13935606E+04</rscale>
<asrwt>0</asrwt>
<pdfrwt beam="1">  1        1 0.21764859E+00 0.13935606E+04</pdfrwt>
<pdfrwt beam="2">  1       -2 0.27639065E+00 0.13935606E+04</pdfrwt>
<totfact> 0.27813211E-01</totfact>
</mgrwt>
</event>
<event>
12    3  0.2422421E-007  0.6700239E+03  0.7818608E-02  0.9769915E-01
         -2   -1    0    0    0  501 -0.00000000000E+00  0.00000000000E+00  0.13073122136E+03  0.13073122136E+03  0.00000000000E+00 0.  1.
          1   -1    0    0  501    0  0.00000000000E+00 -0.00000000000E+00 -0.35796898651E+04  0.35796898651E+04  0.00000000000E+00 0. -1.
        -24    2    1    2    0    0 -0.26350832339E+03 -0.46992719764E+03 -0.16848217679E+04  0.17707075175E+04  0.80700157038E+02 0.  0.
    5000000    2    1    2    0    0  0.26350832339E+03  0.46992719764E+03 -0.17641368759E+04  0.19397135690E+04  0.60003467015E+03 0.  0.
        -24    2    4    4    0    0  0.19323819889E+03  0.60091634010E+03 -0.13497515693E+04  0.14921465099E+04  0.78933254785E+02 0.  0.
         24    2    4    4    0    0  0.70270124495E+02 -0.13098914245E+03 -0.41438530653E+03  0.44756705912E+03  0.80653854867E+02 0.  0.
         11    1    3    3    0    0 -0.10841328653E+03 -0.23540449784E+03 -0.92136704746E+03  0.95712379265E+03  0.00000000000E+00 0. -1.
        -12    1    3    3    0    0 -0.15509503686E+03 -0.23452269980E+03 -0.76345472041E+03  0.81358372482E+03  0.00000000000E+00 0.  1.
         11    1    5    5    0    0  0.98716465319E+02  0.33282419814E+03 -0.65086733210E+03  0.73766196281E+03  0.00000000000E+00 0. -1.
        -12    1    5    5    0    0  0.94521733570E+02  0.26809214196E+03 -0.69888423724E+03  0.75448454707E+03  0.00000000000E+00 0.  1.
          2    1    6    6  502    0  0.85357507251E+02 -0.87420368081E+02 -0.28015488189E+03  0.30563864717E+03  0.00000000000E+00 0. -1.
         -1    1    6    6    0  502 -0.15087382756E+02 -0.43568774372E+02 -0.13423042464E+03  0.14192841194E+03  0.00000000000E+00 0.  1.
<mgrwt>
<rscale>  0 0.67002393E+03</rscale>
<asrwt>0</asrwt>
<pdfrwt beam="1">  1        1 0.55072152E+00 0.67002393E+03</pdfrwt>
<pdfrwt beam="2">  1       -2 0.20112495E-01 0.67002393E+03</pdfrwt>
<totfact> 0.44052343E+00</totfact>
</mgrwt>
</event>
<event>
12    3  0.2422421E-007  0.1192504E+04  0.7818608E-02  0.9119443E-01
         -2   -1    0    0    0  501 -0.00000000000E+00  0.00000000000E+00  0.16506026648E+04  0.16506026648E+04  0.00000000000E+00 0.  1.
          1   -1    0    0  501    0  0.00000000000E+00 -0.00000000000E+00 -0.91421827443E+03  0.91421827443E+03  0.00000000000E+00 0. -1.
        -24    2    1    2    0    0 -0.53080912966E+03  0.10184643932E+04  0.46139932261E+03  0.12402488596E+04  0.79371572725E+02 0.  0.
    5000000    2    1    2    0    0  0.53080912966E+03 -0.10184643932E+04  0.27498506778E+03  0.13245720797E+04  0.59987194837E+03 0.  0.
        -24    2    4    4    0    0  0.51253049484E+03 -0.50619770677E+03 -0.25076670085E+02  0.72538397404E+03  0.81421397267E+02 0.  0.
         24    2    4    4    0    0  0.18278634818E+02 -0.51226668640E+03  0.30006173787E+03  0.59918810562E+03  0.78981471909E+02 0.  0.
         11    1    3    3    0    0 -0.40180847748E+03  0.83847446543E+03  0.37115076024E+03  0.10011205565E+04  0.00000000000E+00 0. -1.
        -12    1    3    3    0    0 -0.12900065218E+03  0.17998992773E+03  0.90248562373E+02  0.23912830313E+03  0.00000000000E+00 0.  1.
         13    1    5    5    0    0  0.41845436213E+03 -0.40788215469E+03 -0.52022964035E+02  0.58666710671E+03  0.00000000000E+00 0. -1.
        -14    1    5    5    0    0  0.94076132707E+02 -0.98315552072E+02  0.26946293950E+02  0.13871686733E+03  0.00000000000E+00 0.  1.
          4    1    6    6  502    0 -0.67544200402E+01 -0.18843265120E+03  0.15219380092E+03  0.24231268903E+03  0.00000000000E+00 0. -1.
         -3    1    6    6    0  502  0.25033054859E+02 -0.32383403520E+03  0.14786793694E+03  0.35687541659E+03  0.00000000000E+00 0.  1.
<mgrwt>
<rscale>  0 0.11925039E+04</rscale>
<asrwt>0</asrwt>
<pdfrwt beam="1">  1        1 0.14064897E+00 0.11925039E+04</pdfrwt>
<pdfrwt beam="2">  1       -2 0.25393887E+00 0.11925039E+04</pdfrwt>
<totfact> 0.92391363E-01</totfact>
</mgrwt>
</event>
<event>
12    3  0.2422421E-007  0.7239178E+03  0.7818608E-02  0.9677182E-01
          1   -1    0    0  501    0  0.00000000000E+00  0.00000000000E+00  0.23954255053E+04  0.23954255053E+04  0.00000000000E+00 0. -1.
         -2   -1    0    0    0  501 -0.00000000000E+00 -0.00000000000E+00 -0.33559427056E+03  0.33559427056E+03  0.00000000000E+00 0.  1.
        -24    2    1    2    0    0  0.65212677437E+03  0.11769630412E+03  0.25185977502E+03  0.71413891748E+03  0.86251361381E+02 0.  0.
    5000000    2    1    2    0    0 -0.65212677437E+03 -0.11769630412E+03  0.18079714597E+04  0.20168808584E+04  0.59993820336E+03 0.  0.
        -24    2    4    4    0    0  0.13780288831E+02 -0.82998060734E+02  0.37384063847E+02  0.12322732602E+03  0.81907455115E+02 0.  0.
         24    2    4    4    0    0 -0.66590706320E+03 -0.34698243385E+02  0.17705873959E+04  0.18936535323E+04  0.79421591723E+02 0.  0.
         11    1    5    5    0    0  0.12871073731E+01 -0.96870474721E+02  0.39117276113E+02  0.10447825998E+03  0.00000000000E+00 0. -1.
        -12    1    5    5    0    0  0.12493181457E+02  0.13872413987E+02 -0.17332122656E+01  0.18749066044E+02  0.00000000000E+00 0.  1.
         13    1    3    3    0    0  0.31359712904E+03  0.61188451131E+02  0.16730445640E+03  0.36066323215E+03  0.00000000000E+00 0. -1.
        -14    1    3    3    0    0  0.33852964532E+03  0.56507852988E+02  0.84555318621E+02  0.35347568533E+03  0.00000000000E+00 0.  1.
          4    1    6    6  502    0 -0.23791320046E+03 -0.41553470751E+02  0.57065225197E+03  0.61965585171E+03  0.00000000000E+00 0. -1.
         -3    1    6    6    0  502 -0.42799386274E+03  0.68552273659E+01  0.11999351439E+04  0.12739976806E+04  0.00000000000E+00 0.  1.
<mgrwt>
<rscale>  0 0.72391781E+03</rscale>
<asrwt>0</asrwt>
<pdfrwt beam="1">  1        1 0.36852699E+00 0.72391781E+03</pdfrwt>
<pdfrwt beam="2">  1       -2 0.51629890E-01 0.72391781E+03</pdfrwt>
<totfact> 0.52607437E+00</totfact>
</mgrwt>
</event>
<event>
12    3  0.2422421E-007  0.4730672E+03  0.7818608E-02  0.1021058E+00
         -2   -1    0    0    0  501 -0.00000000000E+00  0.00000000000E+00  0.35688332229E+03  0.35688332229E+03  0.00000000000E+00 0.  1.
          1   -1    0    0  501    0  0.00000000000E+00 -0.00000000000E+00 -0.93274188567E+03  0.93274188567E+03  0.00000000000E+00 0. -1.
        -24    2    1    2    0    0 -0.23685970500E+03 -0.33960717693E+03 -0.25882691761E+03  0.49467613284E+03  0.79230982905E+02 0.  0.
    5000000    2    1    2    0    0  0.23685970500E+03  0.33960717693E+03 -0.31703164578E+03  0.79494907512E+03  0.59999951094E+03 0.  0.
        -24    2    4    4    0    0  0.10549587122E+03  0.36420407424E+03  0.55235488216E+02  0.39134654915E+03  0.79543546805E+02 0.  0.
         24    2    4    4    0    0  0.13136383378E+03 -0.24596897310E+02 -0.37226713399E+03  0.40360252597E+03  0.80316347856E+02 0.  0.
         11    1    3    3    0    0 -0.16121981642E+03 -0.25717977841E+03 -0.22489128839E+03  0.37776892305E+03  0.00000000000E+00 0. -1.
        -12    1    3    3    0    0 -0.75639888576E+02 -0.82427398520E+02 -0.33935629216E+02  0.11690720979E+03  0.00000000000E+00 0.  1.
         13    1    5    5    0    0  0.84730624665E+02  0.30312154138E+03  0.75599818495E+02  0.32369318832E+03  0.00000000000E+00 0. -1.
        -14    1    5    5    0    0  0.20765246559E+02  0.61082532855E+02 -0.20364330279E+02  0.67653360836E+02  0.00000000000E+00 0.  1.
          2    1    6    6  502    0  0.86518157139E+02  0.19377210885E+02 -0.16888849743E+03  0.19074640857E+03  0.00000000000E+00 0. -1.
         -1    1    6    6    0  502  0.44845676637E+02 -0.43974108195E+02 -0.20337863656E+03  0.21285611740E+03  0.00000000000E+00 0.  1.
<mgrwt>
<rscale>  0 0.47306723E+03</rscale>
<asrwt>0</asrwt>
<pdfrwt beam="1">  1        1 0.14349875E+00 0.47306723E+03</pdfrwt>
<pdfrwt beam="2">  1       -2 0.54905128E-01 0.47306723E+03</pdfrwt>
<totfact> 0.49220888E+01</totfact>
</mgrwt>
</event>
<event>
12    3  0.2422421E-007  0.1004231E+04  0.7818608E-02  0.9303917E-01
         -2   -1    0    0    0  501 -0.00000000000E+00  0.00000000000E+00  0.13382954535E+04  0.13382954535E+04  0.00000000000E+00 0.  1.
          1   -1    0    0  501    0  0.00000000000E+00 -0.00000000000E+00 -0.85501537706E+03  0.85501537706E+03  0.00000000000E+00 0. -1.
        -24    2    1    2    0    0  0.88168951470E+03 -0.40868377495E+03  0.65259310540E+02  0.97721115263E+03  0.79271880190E+02 0.  0.
    5000000    2    1    2    0    0 -0.88168951470E+03  0.40868377495E+03  0.41802076593E+03  0.12160996780E+04  0.59979849763E+03 0.  0.
        -24    2    4    4    0    0 -0.70985673339E+03  0.17458401734E+03  0.51650119422E+03  0.89873732776E+03  0.81111895783E+02 0.  0.
         24    2    4    4    0    0 -0.17183278131E+03  0.23409975760E+03 -0.98480428285E+02  0.31736235020E+03  0.81800154816E+02 0.  0.
         11    1    3    3    0    0  0.35650409967E+03 -0.13115124206E+03  0.22266716824E+01  0.37986942420E+03  0.00000000000E+00 0. -1.
        -12    1    3    3    0    0  0.52518541503E+03 -0.27753253288E+03  0.63032638858E+02  0.59734172843E+03  0.00000000000E+00 0.  1.
         13    1    5    5    0    0 -0.50693797401E+03  0.14892886114E+03  0.40545358478E+03  0.66600189533E+03  0.00000000000E+00 0. -1.
        -14    1    5    5    0    0 -0.20291875938E+03  0.25655156205E+02  0.11104760944E+03  0.23273543244E+03  0.00000000000E+00 0.  1.
          2    1    6    6  502    0 -0.38062689509E+01 -0.69139574470E+01 -0.25904926943E+01  0.83066926815E+01  0.00000000000E+00 0. -1.
         -1    1    6    6    0  502 -0.16802651236E+03  0.24101371505E+03 -0.95889935591E+02  0.30905565752E+03  0.00000000000E+00 0.  1.
<mgrwt>
<rscale>  0 0.10042306E+04</rscale>
<asrwt>0</asrwt>
<pdfrwt beam="1">  1        1 0.13154083E+00 0.10042306E+04</pdfrwt>
<pdfrwt beam="2">  1       -2 0.20589161E+00 0.10042306E+04</pdfrwt>
<totfact> 0.21091054E+00</totfact>
</mgrwt>
</event>
<event>
12    3  0.2422421E-007  0.6159469E+03  0.7818608E-02  0.9872863E-01
          1   -1    0    0  501    0  0.00000000000E+00  0.00000000000E+00  0.90609755529E+03  0.90609755529E+03  0.00000000000E+00 0. -1.
         -2   -1    0    0    0  501 -0.00000000000E+00 -0.00000000000E+00 -0.53148427094E+03  0.53148427094E+03  0.00000000000E+00 0.  1.
        -24    2    1    2    0    0  0.47676250378E+03 -0.10187257128E+02 -0.15369444099E+03  0.50678638034E+03  0.76185227539E+02 0.  0.
    5000000    2    1    2    0    0 -0.47676250378E+03  0.10187257128E+02  0.52830772534E+03  0.93079544589E+03  0.59988735961E+03 0.  0.
        -24    2    4    4    0    0  0.17727185143E+02  0.21161479052E+03  0.15816874095E+03  0.27619166620E+03  0.78545612249E+02 0.  0.
         24    2    4    4    0    0 -0.49448968892E+03 -0.20142753340E+03  0.37013898439E+03  0.65460377969E+03  0.80063330945E+02 0.  0.
         11    1    5    5    0    0  0.16861554964E+02  0.14416050441E+02 -0.18130645354E+01  0.22258071551E+02  0.00000000000E+00 0. -1.
        -12    1    5    5    0    0  0.86563017886E+00  0.19719874008E+03  0.15998180548E+03  0.25393359465E+03  0.00000000000E+00 0.  1.
         11    1    3    3    0    0  0.68065692216E+02  0.12602572109E+02  0.91581875536E+00  0.69228621281E+02  0.00000000000E+00 0. -1.
        -12    1    3    3    0    0  0.40869681156E+03 -0.22789829237E+02 -0.15461025974E+03  0.43755775906E+03  0.00000000000E+00 0.  1.
          2    1    6    6  502    0 -0.21460019280E+03 -0.85376123899E+02  0.11260257147E+03  0.25694681236E+03  0.00000000000E+00 0. -1.
         -1    1    6    6    0  502 -0.27988949612E+03 -0.11605140950E+03  0.25753641292E+03  0.39765696733E+03  0.00000000000E+00 0.  1.
<mgrwt>
<rscale>  0 0.61594688E+03</rscale>
<asrwt>0</asrwt>
<pdfrwt beam="1">  1        1 0.13939962E+00 0.61594688E+03</pdfrwt>
<pdfrwt beam="2">  1       -2 0.81766811E-01 0.61594688E+03</pdfrwt>
<totfact> 0.21523479E+01</totfact>
</mgrwt>
</event>
<event>
12    3  0.2422421E-007  0.4011157E+03  0.7818608E-02  0.1043394E+00
          1   -1    0    0  501    0  0.00000000000E+00  0.00000000000E+00  0.36394569538E+04  0.36394569538E+04  0.00000000000E+00 0. -1.
         -2   -1    0    0    0  501 -0.00000000000E+00 -0.00000000000E+00 -0.97957753558E+02  0.97957753558E+02  0.00000000000E+00 0.  1.
        -24    2    1    2    0    0  0.33654842886E+03 -0.96419843682E+02  0.21779095040E+04  0.22072749098E+04  0.78810458113E+02 0.  0.
    5000000    2    1    2    0    0 -0.33654842886E+03  0.96419843682E+02  0.13635896963E+04  0.15301397976E+04  0.59949087512E+03 0.  0.
        -24    2    4    4    0    0 -0.31202242737E+03 -0.17415245976E+02  0.25023162967E+03  0.40813561019E+03  0.79356926881E+02 0.  0.
         24    2    4    4    0    0 -0.24526001492E+02  0.11383508966E+03  0.11133580666E+04  0.11220041874E+04  0.75942477127E+02 0.  0.
         11    1    3    3    0    0  0.12524657214E+03 -0.35076095931E+02  0.10572166867E+04  0.10651873821E+04  0.00000000000E+00 0. -1.
        -12    1    3    3    0    0  0.21130185672E+03 -0.61343747751E+02  0.11206928173E+04  0.11420875277E+04  0.00000000000E+00 0.  1.
         11    1    5    5    0    0 -0.22822222701E+03  0.21045677232E+02  0.16333993143E+03  0.28143958256E+03  0.00000000000E+00 0. -1.
        -12    1    5    5    0    0 -0.83800200353E+02 -0.38460923209E+02  0.86891698235E+02  0.12669602762E+03  0.00000000000E+00 0.  1.
          2    1    6    6  502    0  0.24311261291E+01  0.10075005848E+03  0.65925286276E+03  0.66691140470E+03  0.00000000000E+00 0. -1.
         -1    1    6    6    0  502 -0.26957127621E+02  0.13085031183E+02  0.45410520383E+03  0.45509278275E+03  0.00000000000E+00 0.  1.
<mgrwt>
<rscale>  0 0.40111573E+03</rscale>
<asrwt>0</asrwt>
<pdfrwt beam="1">  1        1 0.55991635E+00 0.40111573E+03</pdfrwt>
<pdfrwt beam="2">  1       -2 0.15070426E-01 0.40111573E+03</pdfrwt>
<totfact> 0.69615510E+00</totfact>
</mgrwt>
</event>
<event>
12    3  0.2422421E-007  0.9313910E+03  0.7818608E-02  0.9387170E-01
          1   -1    0    0  501    0  0.00000000000E+00  0.00000000000E+00  0.70082623495E+03  0.70082623495E+03  0.00000000000E+00 0. -1.
         -2   -1    0    0    0  501 -0.00000000000E+00 -0.00000000000E+00 -0.13396326489E+04  0.13396326489E+04  0.00000000000E+00 0.  1.
        -24    2    1    2    0    0 -0.34538885296E+03 -0.76722641369E+03 -0.39754262304E+02  0.84596565532E+03  0.78407008574E+02 0.  0.
    5000000    2    1    2    0    0  0.34538885296E+03  0.76722641369E+03 -0.59905215168E+03  0.11944932286E+04  0.60001730230E+03 0.  0.
        -24    2    4    4    0    0  0.48847602557E+03  0.66085293679E+03 -0.40678776886E+03  0.92043826564E+03  0.79967995768E+02 0.  0.
         24    2    4    4    0    0 -0.14308717260E+03  0.10637347690E+03 -0.19226438282E+03  0.27405496293E+03  0.79694882236E+02 0.  0.
         13    1    3    3    0    0 -0.14564742036E+02 -0.89542639447E+02 -0.98269553979E+01  0.91250123518E+02  0.00000000000E+00 0. -1.
        -14    1    3    3    0    0 -0.33082411093E+03 -0.67768377424E+03 -0.29927306906E+02  0.75471553180E+03  0.00000000000E+00 0.  1.
         13    1    5    5    0    0  0.25800688806E+03  0.38264442136E+03 -0.26623454018E+03  0.53278995662E+03  0.00000000000E+00 0. -1.
        -14    1    5    5    0    0  0.23046913750E+03  0.27820851543E+03 -0.14055322869E+03  0.38764830903E+03  0.00000000000E+00 0.  1.
          2    1    6    6  502    0 -0.13620536814E+03  0.11894874444E+03 -0.17544814451E+03  0.25195784871E+03  0.00000000000E+00 0. -1.
         -3    1    6    6    0  502 -0.68818044655E+01 -0.12575267534E+02 -0.16816238306E+02  0.22097114224E+02  0.00000000000E+00 0.  1.
<mgrwt>
<rscale>  0 0.93139105E+03</rscale>
<asrwt>0</asrwt>
<pdfrwt beam="1">  1        1 0.10781942E+00 0.93139105E+03</pdfrwt>
<pdfrwt beam="2">  1       -2 0.20609733E+00 0.93139105E+03</pdfrwt>
<totfact> 0.29062731E+00</totfact>
</mgrwt>
</event>
<event>
12    3  0.2422421E-007  0.4448328E+03  0.7818608E-02  0.1029274E+00
          1   -1    0    0  501    0  0.00000000000E+00  0.00000000000E+00  0.31629946858E+03  0.31629946858E+03  0.00000000000E+00 0. -1.
         -2   -1    0    0    0  501 -0.00000000000E+00 -0.00000000000E+00 -0.12342569617E+04  0.12342569617E+04  0.00000000000E+00 0.  1.
        -24    2    1    2    0    0  0.59094722703E+01 -0.31937865578E+03  0.81114454904E+02  0.34215001362E+03  0.91920777822E+02 0.  0.
    5000000    2    1    2    0    0 -0.59094722703E+01  0.31937865578E+03 -0.99907194806E+03  0.12084064167E+04  0.60005305006E+03 0.  0.
        -24    2    4    4    0    0  0.20488585834E+03  0.44775163309E+02 -0.10479536379E+03  0.24686041974E+03  0.77297919537E+02 0.  0.
         24    2    4    4    0    0 -0.21079533061E+03  0.27460349247E+03 -0.89427658427E+03  0.96154599696E+03  0.70698978858E+02 0.  0.
         13    1    3    3    0    0  0.65797283708E+01 -0.94943139678E+02  0.68688998982E+02  0.11736980522E+03  0.00000000000E+00 0. -1.
        -14    1    3    3    0    0 -0.67025610049E+00 -0.22443551611E+03  0.12425455922E+02  0.22478020840E+03  0.00000000000E+00 0.  1.
         13    1    5    5    0    0  0.18990021869E+03  0.15385590535E+02 -0.89555251129E+02  0.21052066991E+03  0.00000000000E+00 0. -1.
        -14    1    5    5    0    0  0.14985639645E+02  0.29389572773E+02 -0.15240112658E+02  0.36339749823E+02  0.00000000000E+00 0.  1.
          2    1    6    6  502    0 -0.13896527306E+03  0.16843333822E+03 -0.46842927057E+03  0.51682406878E+03  0.00000000000E+00 0. -1.
         -1    1    6    6    0  502 -0.71830057554E+02  0.10617015425E+03 -0.42584731370E+03  0.44472192819E+03  0.00000000000E+00 0.  1.
<mgrwt>
<rscale>  0 0.44483281E+03</rscale>
<asrwt>0</asrwt>
<pdfrwt beam="1">  1        1 0.48661456E-01 0.44483281E+03</pdfrwt>
<pdfrwt beam="2">  1       -2 0.18988569E+00 0.44483281E+03</pdfrwt>
<totfact> 0.11761691E+01</totfact>
</mgrwt>
</event>
<event>
12    3  0.2422421E-007  0.7117709E+03  0.7818608E-02  0.9697311E-01
          1   -1    0    0  501    0  0.00000000000E+00  0.00000000000E+00  0.26427724561E+04  0.26427724561E+04  0.00000000000E+00 0. -1.
         -2   -1    0    0    0  501 -0.00000000000E+00 -0.00000000000E+00 -0.28310283722E+03  0.28310283722E+03  0.00000000000E+00 0.  1.
        -24    2    1    2    0    0 -0.22985205811E+02 -0.60240425844E+03  0.26111055505E+03  0.66148009306E+03  0.77187960741E+02 0.  0.
    5000000    2    1    2    0    0  0.22985205811E+02  0.60240425844E+03  0.20985590638E+04  0.22643952003E+04  0.60009688242E+03 0.  0.
        -24    2    4    4    0    0 -0.16018372681E+03  0.59572401746E+03  0.18067225504E+04  0.19106827145E+04  0.76916383682E+02 0.  0.
         24    2    4    4    0    0  0.18316893263E+03  0.66802409776E+01  0.29183651348E+03  0.35371248579E+03  0.79677402750E+02 0.  0.
         11    1    5    5    0    0 -0.74893063771E+02  0.39483111972E+03  0.12337503284E+04  0.12975517164E+04  0.00000000000E+00 0. -1.
        -12    1    5    5    0    0 -0.85290663043E+02  0.20089289774E+03  0.57297222199E+03  0.61313099802E+03  0.00000000000E+00 0.  1.
         13    1    3    3    0    0  0.24020773561E+01 -0.32258825697E+03  0.17816825313E+03  0.36852799070E+03  0.00000000000E+00 0. -1.
        -14    1    3    3    0    0 -0.25387283167E+02 -0.27981600147E+03  0.82942301917E+02  0.29295210235E+03  0.00000000000E+00 0.  1.
          4    1    6    6  502    0  0.45627584322E+01 -0.18888926910E+02  0.28128376797E+02  0.34187949713E+02  0.00000000000E+00 0. -1.
         -3    1    6    6    0  502  0.17860617419E+03  0.25569167887E+02  0.26370813668E+03  0.31952453608E+03  0.00000000000E+00 0.  1.
<mgrwt>
<rscale>  0 0.71177090E+03</rscale>
<asrwt>0</asrwt>
<pdfrwt beam="1">  1        1 0.40658036E+00 0.71177090E+03</pdfrwt>
<pdfrwt beam="2">  1       -2 0.43554285E-01 0.71177090E+03</pdfrwt>
<totfact> 0.50320019E+00</totfact>
</mgrwt>
</event>
<event>
12    3  0.2422421E-007  0.5514634E+03  0.7818608E-02  0.1001156E+00
         -2   -1    0    0    0  501 -0.00000000000E+00  0.00000000000E+00  0.32742342435E+03  0.32742342435E+03  0.00000000000E+00 0.  1.
          1   -1    0    0  501    0  0.00000000000E+00 -0.00000000000E+00 -0.20539663407E+04  0.20539663407E+04  0.00000000000E+00 0. -1.
        -24    2    1    2    0    0  0.44666893536E+03  0.11369344905E+03  0.29821910788E+02  0.46902169733E+03  0.81563889270E+02 0.  0.
    5000000    2    1    2    0    0 -0.44666893536E+03 -0.11369344905E+03 -0.17563648271E+04  0.19123680677E+04  0.59991239545E+03 0.  0.
        -24    2    4    4    0    0 -0.50230121056E+03  0.80142813801E+01 -0.16416692593E+04  0.17186754877E+04  0.79979624953E+02 0.  0.
         24    2    4    4    0    0  0.55632275198E+02 -0.12170773043E+03 -0.11469556781E+03  0.19369257994E+03  0.80336919031E+02 0.  0.
         11    1    3    3    0    0  0.14724740914E+03  0.16265531202E+02 -0.22463392069E+02  0.14983648082E+03  0.00000000000E+00 0. -1.
        -12    1    3    3    0    0  0.29942152622E+03  0.97427917846E+02  0.52285302857E+02  0.31918521651E+03  0.00000000000E+00 0.  1.
         13    1    5    5    0    0 -0.25288986119E+03  0.29998617227E+02 -0.93046230858E+03  0.96468300836E+03  0.00000000000E+00 0. -1.
        -14    1    5    5    0    0 -0.24941134937E+03 -0.21984335847E+02 -0.71120695071E+03  0.75399247938E+03  0.00000000000E+00 0.  1.
          2    1    6    6  502    0  0.11124167376E+02 -0.11438121446E+02 -0.61297991688E+02  0.63340520262E+02  0.00000000000E+00 0. -1.
         -1    1    6    6    0  502  0.44508107823E+02 -0.11026960898E+03 -0.53397576121E+02  0.13035205968E+03  0.00000000000E+00 0.  1.
<mgrwt>
<rscale>  0 0.55146339E+03</rscale>
<asrwt>0</asrwt>
<pdfrwt beam="1">  1        1 0.31599482E+00 0.55146339E+03</pdfrwt>
<pdfrwt beam="2">  1       -2 0.50372835E-01 0.55146339E+03</pdfrwt>
<totfact> 0.96770218E+00</totfact>
</mgrwt>
</event>
<event>
12    3  0.2422421E-007  0.5916699E+03  0.7818608E-02  0.9922841E-01
          1   -1    0    0  501    0  0.00000000000E+00  0.00000000000E+00  0.25544837733E+04  0.25544837733E+04  0.00000000000E+00 0. -1.
         -2   -1    0    0    0  501 -0.00000000000E+00 -0.00000000000E+00 -0.17155349404E+03  0.17155349404E+03  0.00000000000E+00 0.  1.
        -24    2    1    2    0    0 -0.40279955860E+03  0.18187376157E+03  0.37758870903E+03  0.58662598361E+03  0.78938342442E+02 0.  0.
    5000000    2    1    2    0    0  0.40279955860E+03 -0.18187376157E+03  0.20053415702E+04  0.21394112837E+04  0.60030015665E+03 0.  0.
        -24    2    4    4    0    0  0.11026189535E+03  0.20943459767E+03  0.63079962140E+03  0.67842056374E+03  0.79534663431E+02 0.  0.
         24    2    4    4    0    0  0.29253766325E+03 -0.39130835924E+03  0.13745419488E+04  0.14609907199E+04  0.80173551368E+02 0.  0.
         11    1    5    5    0    0  0.22754670096E+01  0.67094542454E+02  0.12333212041E+03  0.14041961153E+03  0.00000000000E+00 0. -1.
        -12    1    5    5    0    0  0.10798642834E+03  0.14234005522E+03  0.50746750099E+03  0.53800095222E+03  0.00000000000E+00 0.  1.
         13    1    3    3    0    0 -0.27941704869E+03  0.84938245808E+02  0.24473731136E+03  0.38103115919E+03  0.00000000000E+00 0. -1.
        -14    1    3    3    0    0 -0.12338250990E+03  0.96935515762E+02  0.13285139767E+03  0.20559482442E+03  0.00000000000E+00 0.  1.
          4    1    6    6  502    0  0.19030889876E+03 -0.25821247629E+03  0.10091017594E+04  0.10588567045E+04  0.00000000000E+00 0. -1.
         -3    1    6    6    0  502  0.10222876449E+03 -0.13309588294E+03  0.36544018941E+03  0.40213401545E+03  0.00000000000E+00 0.  1.
<mgrwt>
<rscale>  0 0.59166991E+03</rscale>
<asrwt>0</asrwt>
<pdfrwt beam="1">  1        1 0.39299748E+00 0.59166991E+03</pdfrwt>
<pdfrwt beam="2">  1       -2 0.26392847E-01 0.59166991E+03</pdfrwt>
<totfact> 0.15261295E+01</totfact>
</mgrwt>
</event>
<event>
12    3  0.2422421E-007  0.3937299E+03  0.7818608E-02  0.1045973E+00
          1   -1    0    0  501    0  0.00000000000E+00  0.00000000000E+00  0.14921539787E+03  0.14921539787E+03  0.00000000000E+00 0. -1.
         -2   -1    0    0    0  501 -0.00000000000E+00 -0.00000000000E+00 -0.12633305126E+04  0.12633305126E+04  0.00000000000E+00 0.  1.
        -24    2    1    2    0    0  0.15861576440E+03 -0.85158825908E+02 -0.48913683697E+03  0.52764501642E+03  0.82118400663E+02 0.  0.
    5000000    2    1    2    0    0 -0.15861576440E+03  0.85158825908E+02 -0.62497827773E+03  0.88490089402E+03  0.60003396424E+03 0.  0.
        -24    2    4    4    0    0 -0.19655441569E+03 -0.20330902173E+03 -0.16816337283E+03  0.33797882839E+03  0.77347086761E+02 0.  0.
         24    2    4    4    0    0  0.37938651289E+02  0.28846784764E+03 -0.45681490490E+03  0.54692206563E+03  0.76097622489E+02 0.  0.
         11    1    5    5    0    0 -0.60851521095E+01 -0.37767705804E+02 -0.79780870707E+01  0.39077852439E+02  0.00000000000E+00 0. -1.
        -12    1    5    5    0    0 -0.19046926358E+03 -0.16554131593E+03 -0.16018528576E+03  0.29890097595E+03  0.00000000000E+00 0.  1.
         13    1    3    3    0    0  0.10371263259E+03 -0.94893677018E+02 -0.31889132185E+03  0.34850078228E+03  0.00000000000E+00 0. -1.
        -14    1    3    3    0    0  0.54903131810E+02  0.97348511099E+01 -0.17024551512E+03  0.17914423415E+03  0.00000000000E+00 0.  1.
          4    1    6    6  502    0  0.97611525819E+01  0.26094882774E+03 -0.38960847595E+03  0.46902487709E+03  0.00000000000E+00 0. -1.
         -3    1    6    6    0  502  0.28177498707E+02  0.27519019899E+02 -0.67206428953E+02  0.77897188539E+02  0.00000000000E+00 0.  1.
<mgrwt>
<rscale>  0 0.39372993E+03</rscale>
<asrwt>0</asrwt>
<pdfrwt beam="1">  1        1 0.22956216E-01 0.39372993E+03</pdfrwt>
<pdfrwt beam="2">  1       -2 0.19435854E+00 0.39372993E+03</pdfrwt>
<totfact> 0.29026233E+01</totfact>
</mgrwt>
</event>
<event>
12    3  0.2422421E-007  0.9178168E+03  0.7818608E-02  0.9403580E-01
         -2   -1    0    0    0  501 -0.00000000000E+00  0.00000000000E+00  0.53310772309E+03  0.53310772309E+03  0.00000000000E+00 0.  1.
          1   -1    0    0  501    0  0.00000000000E+00 -0.00000000000E+00 -0.16011188612E+04  0.16011188612E+04  0.00000000000E+00 0. -1.
        -24    2    1    2    0    0 -0.21545016614E+03  0.79566758807E+03 -0.47290675916E+03  0.95363040840E+03  0.79148393367E+02 0.  0.
    5000000    2    1    2    0    0  0.21545016614E+03 -0.79566758807E+03 -0.59510437891E+03  0.11805961758E+04  0.60012700642E+03 0.  0.
        -24    2    4    4    0    0  0.40585955396E+03 -0.43966278428E+03 -0.40712810131E+03  0.72824813220E+03  0.81035237736E+02 0.  0.
         24    2    4    4    0    0 -0.19040938781E+03 -0.35600480378E+03 -0.18797627761E+03  0.45234804365E+03  0.79300166247E+02 0.  0.
         11    1    5    5    0    0  0.21744176504E+03 -0.17811587255E+03 -0.17666512677E+03  0.33198908454E+03  0.00000000000E+00 0. -1.
        -12    1    5    5    0    0  0.18841778892E+03 -0.26154691173E+03 -0.23046297453E+03  0.39625904765E+03  0.00000000000E+00 0.  1.
         11    1    3    3    0    0 -0.19963549999E+03  0.63813096807E+03 -0.36213617943E+03  0.76039994590E+03  0.00000000000E+00 0. -1.
        -12    1    3    3    0    0 -0.15814666153E+02  0.15753662000E+03 -0.11077057972E+03  0.19323046250E+03  0.00000000000E+00 0.  1.
          2    1    6    6  502    0 -0.52129641182E+02 -0.67233552847E+02 -0.73176634698E+02  0.11221706637E+03  0.00000000000E+00 0. -1.
         -1    1    6    6    0  502 -0.13827974663E+03 -0.28877125094E+03 -0.11479964291E+03  0.34013097728E+03  0.00000000000E+00 0.  1.
<mgrwt>
<rscale>  0 0.91781683E+03</rscale>
<asrwt>0</asrwt>
<pdfrwt beam="1">  1        1 0.24632598E+00 0.91781683E+03</pdfrwt>
<pdfrwt beam="2">  1       -2 0.82016574E-01 0.91781683E+03</pdfrwt>
<totfact> 0.64666470E+00</totfact>
</mgrwt>
</event>
<event>
12    3  0.2422421E-007  0.4398023E+03  0.7818608E-02  0.1030807E+00
         -2   -1    0    0    0  501 -0.00000000000E+00  0.00000000000E+00  0.44516840740E+03  0.44516840740E+03  0.00000000000E+00 0.  1.
          1   -1    0    0  501    0  0.00000000000E+00 -0.00000000000E+00 -0.58572291817E+03  0.58572291817E+03  0.00000000000E+00 0. -1.
        -24    2    1    2    0    0 -0.32195437471E+03 -0.15507405191E+00 -0.10892815639E+03  0.34919774810E+03  0.80119164844E+02 0.  0.
    5000000    2    1    2    0    0  0.32195437471E+03  0.15507405191E+00 -0.31626354382E+02  0.68169357747E+03  0.60004271834E+03 0.  0.
        -24    2    4    4    0    0  0.31307687098E+03  0.17732297910E+03 -0.20421366188E+03  0.42165082944E+03  0.81398011084E+02 0.  0.
         24    2    4    4    0    0  0.88775037374E+01 -0.17716790505E+03  0.17258730750E+03  0.26004274803E+03  0.79803354814E+02 0.  0.
         11    1    5    5    0    0  0.79126788726E+02  0.74741856717E+01 -0.51306788734E+02  0.94600733168E+02  0.00000000000E+00 0. -1.
        -12    1    5    5    0    0  0.23395008225E+03  0.16984879343E+03 -0.15290687315E+03  0.32705009627E+03  0.00000000000E+00 0.  1.
         11    1    3    3    0    0 -0.24782129435E+03  0.33919842960E+02 -0.84801552276E+02  0.26411598390E+03  0.00000000000E+00 0. -1.
        -12    1    3    3    0    0 -0.74133080361E+02 -0.34074917012E+02 -0.24126604118E+02  0.85081764200E+02  0.00000000000E+00 0.  1.
          2    1    6    6  502    0 -0.65490121851E+01 -0.11710350573E+03  0.60564945212E+02  0.13200088335E+03  0.00000000000E+00 0. -1.
         -1    1    6    6    0  502  0.15426515923E+02 -0.60064399319E+02  0.11202236229E+03  0.12804186468E+03  0.00000000000E+00 0.  1.
<mgrwt>
<rscale>  0 0.43980233E+03</rscale>
<asrwt>0</asrwt>
<pdfrwt beam="1">  1        1 0.90111217E-01 0.43980233E+03</pdfrwt>
<pdfrwt beam="2">  1       -2 0.68487448E-01 0.43980233E+03</pdfrwt>
<totfact> 0.63247499E+01</totfact>
</mgrwt>
</event>
<event>
12    3  0.2422421E-007  0.9623234E+03  0.7818608E-02  0.9350861E-01
         -2   -1    0    0    0  501 -0.00000000000E+00  0.00000000000E+00  0.81015644621E+03  0.81015644621E+03  0.00000000000E+00 0.  1.
          1   -1    0    0  501    0  0.00000000000E+00 -0.00000000000E+00 -0.13718056618E+04  0.13718056618E+04  0.00000000000E+00 0. -1.
        -24    2    1    2    0    0  0.86733218896E+03  0.11735228406E+03 -0.68398750945E+03  0.11137566521E+04  0.81106611344E+02 0.  0.
    5000000    2    1    2    0    0 -0.86733218896E+03 -0.11735228406E+03  0.12233829382E+03  0.10682054560E+04  0.60004962580E+03 0.  0.
        -24    2    4    4    0    0 -0.12995760330E+03  0.19895829454E+03  0.68444964238E+02  0.26015422867E+03  0.80759692579E+02 0.  0.
         24    2    4    4    0    0 -0.73737458566E+03 -0.31631057860E+03  0.53893329581E+02  0.80805122729E+03  0.79174700714E+02 0.  0.
         11    1    5    5    0    0 -0.40602625208E+02  0.31292215390E+02  0.45941622263E+02  0.68836099352E+02  0.00000000000E+00 0. -1.
        -12    1    5    5    0    0 -0.89354978089E+02  0.16766607915E+03  0.22503341975E+02  0.19131812932E+03  0.00000000000E+00 0.  1.
         13    1    3    3    0    0  0.68370458646E+03  0.12561608962E+03 -0.54423479916E+03  0.88284929639E+03  0.00000000000E+00 0. -1.
        -14    1    3    3    0    0  0.18362760250E+03 -0.82638055553E+01 -0.13975271029E+03  0.23090735570E+03  0.00000000000E+00 0.  1.
          2    1    6    6  502    0 -0.96234284535E+02 -0.20747637975E+02  0.24519211859E+02  0.10145291396E+03  0.00000000000E+00 0. -1.
         -1    1    6    6    0  502 -0.64114030113E+03 -0.29556294063E+03  0.29374117721E+02  0.70659831332E+03  0.00000000000E+00 0.  1.
<mgrwt>
<rscale>  0 0.96232336E+03</rscale>
<asrwt>0</asrwt>
<pdfrwt beam="1">  1        1 0.21104702E+00 0.96232336E+03</pdfrwt>
<pdfrwt beam="2">  1       -2 0.12463945E+00 0.96232336E+03</pdfrwt>
<totfact> 0.34162179E+00</totfact>
</mgrwt>
</event>
<event>
12    3  0.2422421E-007  0.4373495E+03  0.7818608E-02  0.1031563E+00
          1   -1    0    0  501    0  0.00000000000E+00  0.00000000000E+00  0.15365114741E+04  0.15365114741E+04  0.00000000000E+00 0. -1.
         -2   -1    0    0    0  501 -0.00000000000E+00 -0.00000000000E+00 -0.13556062309E+03  0.13556062309E+03  0.00000000000E+00 0.  1.
        -24    2    1    2    0    0 -0.25018951157E+03  0.90978555351E+01  0.40657014423E+03  0.48406974182E+03  0.79665990844E+02 0.  0.
    5000000    2    1    2    0    0  0.25018951157E+03 -0.90978555351E+01  0.99438070678E+03  0.11880023554E+04  0.59989919459E+03 0.  0.
        -24    2    4    4    0    0 -0.12427107602E+03 -0.15157284830E+03  0.52373070481E+03  0.56470030475E+03  0.78580877690E+02 0.  0.
         24    2    4    4    0    0  0.37446058759E+03  0.14247499277E+03  0.47065000196E+03  0.62330205062E+03  0.80462206900E+02 0.  0.
         11    1    3    3    0    0 -0.14677770495E+03  0.42611882214E+02  0.21469342258E+03  0.26353886407E+03  0.00000000000E+00 0. -1.
        -12    1    3    3    0    0 -0.10341180662E+03 -0.33514026679E+02  0.19187672164E+03  0.22053087775E+03  0.00000000000E+00 0.  1.
         13    1    5    5    0    0 -0.55999671312E+02 -0.11301868614E+03  0.25079852306E+03  0.28072955985E+03  0.00000000000E+00 0. -1.
        -14    1    5    5    0    0 -0.68271404706E+02 -0.38554162161E+02  0.27293218175E+03  0.28397074490E+03  0.00000000000E+00 0.  1.
          2    1    6    6  502    0  0.36983815830E+03  0.12476859533E+03  0.44792280056E+03  0.59412313620E+03  0.00000000000E+00 0. -1.
         -1    1    6    6    0  502  0.46224292888E+01  0.17706397437E+02  0.22727201408E+02  0.29178914417E+02  0.00000000000E+00 0.  1.
<mgrwt>
<rscale>  0 0.43734947E+03</rscale>
<asrwt>0</asrwt>
<pdfrwt beam="1">  1        1 0.23638637E+00 0.43734947E+03</pdfrwt>
<pdfrwt beam="2">  1       -2 0.20855482E-01 0.43734947E+03</pdfrwt>
<totfact> 0.11368680E+02</totfact>
</mgrwt>
</event>
<event>
12    3  0.2422421E-007  0.5936777E+03  0.7818608E-02  0.9918610E-01
         -2   -1    0    0    0  501 -0.00000000000E+00  0.00000000000E+00  0.43227074605E+03  0.43227074605E+03  0.00000000000E+00 0.  1.
          1   -1    0    0  501    0  0.00000000000E+00 -0.00000000000E+00 -0.11456837782E+04  0.11456837782E+04  0.00000000000E+00 0. -1.
        -24    2    1    2    0    0 -0.52340593981E+03  0.12779664426E+03 -0.51021670021E+03  0.74629964460E+03  0.79726521570E+02 0.  0.
    5000000    2    1    2    0    0  0.52340593981E+03 -0.12779664426E+03 -0.20319633199E+03  0.83165487970E+03  0.60006277128E+03 0.  0.
        -24    2    4    4    0    0  0.74042112908E+02 -0.16977244392E+03 -0.30149193118E+03  0.36301728533E+03  0.81112561799E+02 0.  0.
         24    2    4    4    0    0  0.44936382690E+03  0.41975799664E+02  0.98295599189E+02  0.46863759437E+03  0.79179248241E+02 0.  0.
         11    1    5    5    0    0  0.77060324580E+02 -0.12783998415E+03 -0.17656825119E+03  0.23120921803E+03  0.00000000000E+00 0. -1.
        -12    1    5    5    0    0 -0.30182116717E+01 -0.41932459773E+02 -0.12492367998E+03  0.13180806730E+03  0.00000000000E+00 0.  1.
         13    1    3    3    0    0 -0.45092309190E+03  0.85141829218E+02 -0.40902804365E+03  0.61472327626E+03  0.00000000000E+00 0. -1.
        -14    1    3    3    0    0 -0.72482847916E+02  0.42654815037E+02 -0.10118865656E+03  0.13157636834E+03  0.00000000000E+00 0.  1.
          2    1    6    6  502    0  0.11689082469E+03 -0.64603838828E+01  0.56740317641E+02  0.13009483119E+03  0.00000000000E+00 0. -1.
         -1    1    6    6    0  502  0.33247300222E+03  0.48436183547E+02  0.41555281548E+02  0.33854276318E+03  0.00000000000E+00 0.  1.
<mgrwt>
<rscale>  0 0.59367767E+03</rscale>
<asrwt>0</asrwt>
<pdfrwt beam="1">  1        1 0.17625904E+00 0.59367767E+03</pdfrwt>
<pdfrwt beam="2">  1       -2 0.66503192E-01 0.59367767E+03</pdfrwt>
<totfact> 0.22316913E+01</totfact>
</mgrwt>
</event>
<event>
12    3  0.2422421E-007  0.3241741E+03  0.7818608E-02  0.1073744E+00
          1   -1    0    0  501    0  0.00000000000E+00  0.00000000000E+00  0.69255182211E+03  0.69255182211E+03  0.00000000000E+00 0. -1.
         -2   -1    0    0    0  501 -0.00000000000E+00 -0.00000000000E+00 -0.37041768197E+03  0.37041768197E+03  0.00000000000E+00 0.  1.
        -24    2    1    2    0    0 -0.26507205207E+03 -0.66447406160E+02 -0.73699421337E+02  0.29411924887E+03  0.79975479238E+02 0.  0.
    5000000    2    1    2    0    0  0.26507205207E+03  0.66447406160E+02  0.39583356148E+03  0.76885025520E+03  0.59980668215E+03 0.  0.
        -24    2    4    4    0    0  0.25850523088E+03  0.95951560312E+02  0.53306019499E+03  0.60534712052E+03  0.79122111455E+02 0.  0.
         24    2    4    4    0    0  0.65668211872E+01 -0.29504154152E+02 -0.13722663351E+03  0.16350313468E+03  0.83597295718E+02 0.  0.
         11    1    3    3    0    0 -0.46315717314E+02  0.13200891630E+02  0.48880760417E+01  0.48407669822E+02  0.00000000000E+00 0. -1.
        -12    1    3    3    0    0 -0.21875633475E+03 -0.79648297790E+02 -0.78587497379E+02  0.24571157905E+03  0.00000000000E+00 0.  1.
         11    1    5    5    0    0  0.90831796264E+01  0.26391384648E+02  0.53719142601E+02  0.60537225056E+02  0.00000000000E+00 0. -1.
        -12    1    5    5    0    0  0.24942205125E+03  0.69560175663E+02  0.47934105239E+03  0.54480989547E+03  0.00000000000E+00 0.  1.
          2    1    6    6  502    0 -0.21166780579E+02  0.16484270475E+02 -0.16825638186E+02  0.31668057622E+02  0.00000000000E+00 0. -1.
         -1    1    6    6    0  502  0.27733601766E+02 -0.45988424627E+02 -0.12040099533E+03  0.13183507706E+03  0.00000000000E+00 0.  1.
<mgrwt>
<rscale>  0 0.32417412E+03</rscale>
<asrwt>0</asrwt>
<pdfrwt beam="1">  1        1 0.10654643E+00 0.32417412E+03</pdfrwt>
<pdfrwt beam="2">  1       -2 0.56987336E-01 0.32417412E+03</pdfrwt>
<totfact> 0.74378180E+01</totfact>
</mgrwt>
</event>
<event>
12    3  0.2422421E-007  0.3353766E+03  0.7818608E-02  0.1068782E+00
         -2   -1    0    0    0  501 -0.00000000000E+00  0.00000000000E+00  0.36447280661E+03  0.36447280661E+03  0.00000000000E+00 0.  1.
          1   -1    0    0  501    0  0.00000000000E+00 -0.00000000000E+00 -0.66625759252E+03  0.66625759252E+03  0.00000000000E+00 0. -1.
        -24    2    1    2    0    0  0.28032067594E+03  0.89972549350E+02 -0.17146863415E+03  0.34972635405E+03  0.78944849249E+02 0.  0.
    5000000    2    1    2    0    0 -0.28032067594E+03 -0.89972549350E+02 -0.13031615175E+03  0.68100404509E+03  0.60009121725E+03 0.  0.
        -24    2    4    4    0    0 -0.15505866297E+03  0.55808778667E+02 -0.33917461282E+03  0.38537152018E+03  0.79460567863E+02 0.  0.
         24    2    4    4    0    0 -0.12526201297E+03 -0.14578132802E+03  0.20885846107E+03  0.29563252490E+03  0.82667802248E+02 0.  0.
         11    1    5    5    0    0 -0.15819470426E+03  0.42281928648E+02 -0.27800330694E+03  0.32264402150E+03  0.00000000000E+00 0. -1.
        -12    1    5    5    0    0  0.31360412862E+01  0.13526850019E+02 -0.61171305889E+02  0.62727498679E+02  0.00000000000E+00 0.  1.
         13    1    3    3    0    0  0.12420082147E+03  0.77581154377E+01 -0.98837288728E+02  0.15891772102E+03  0.00000000000E+00 0. -1.
        -14    1    3    3    0    0  0.15611985447E+03  0.82214433912E+02 -0.72631345426E+02  0.19080863303E+03  0.00000000000E+00 0.  1.
          2    1    6    6  502    0 -0.84659408561E+02 -0.10084994127E+03  0.82156649157E+02  0.15520193656E+03  0.00000000000E+00 0. -1.
         -1    1    6    6    0  502 -0.40602604404E+02 -0.44931386751E+02  0.12670181192E+03  0.14043058834E+03  0.00000000000E+00 0.  1.
<mgrwt>
<rscale>  0 0.33537664E+03</rscale>
<asrwt>0</asrwt>
<pdfrwt beam="1">  1        1 0.10250117E+00 0.33537664E+03</pdfrwt>
<pdfrwt beam="2">  1       -2 0.56072740E-01 0.33537664E+03</pdfrwt>
<totfact> 0.81234933E+01</totfact>
</mgrwt>
</event>
<event>
12    3  0.3402960E-007  0.6100560E+03  0.7818608E-02  0.9884760E-01
          1   -1    0    0  501    0  0.00000000000E+00  0.00000000000E+00  0.20700886858E+04  0.20700886858E+04  0.00000000000E+00 0. -1.
         -2   -1    0    0    0  501 -0.00000000000E+00 -0.00000000000E+00 -0.24987566227E+03  0.24987566227E+03  0.00000000000E+00 0.  1.
        -24    2    1    2    0    0  0.49926621182E+03  0.31603484442E+03  0.73890762122E+03  0.94941008277E+03  0.79058582182E+02 0.  0.
    5000000    2    1    2    0    0 -0.49926621182E+03 -0.31603484442E+03  0.10813054023E+04  0.13705542653E+04  0.60004403831E+03 0.  0.
        -24    2    4    4    0    0 -0.87505189395E+02 -0.12128315577E+03  0.82422260726E+03  0.84137112530E+03  0.78712782431E+02 0.  0.
         24    2    4    4    0    0 -0.41176102243E+03 -0.19475168865E+03  0.25708279504E+03  0.52918314000E+03  0.80423083285E+02 0.  0.
         11    1    3    3    0    0  0.26080438839E+03  0.12622816602E+03  0.32514699365E+03  0.43551469134E+03  0.00000000000E+00 0. -1.
        -12    1    3    3    0    0  0.23846182344E+03  0.18980667840E+03  0.41376062757E+03  0.51389539143E+03  0.00000000000E+00 0.  1.
         13    1    5    5    0    0 -0.60731223193E+02 -0.12294138712E+03  0.59564675889E+03  0.61122657624E+03  0.00000000000E+00 0. -1.
        -14    1    5    5    0    0 -0.26773966202E+02  0.16582313519E+01  0.22857584838E+03  0.23014454905E+03  0.00000000000E+00 0.  1.
          2    1    6    6  502    0 -0.21667180534E+03 -0.14365533136E+03  0.12832652168E+03  0.28991588716E+03  0.00000000000E+00 0. -1.
         -1    1    6    6    0  502 -0.19508921709E+03 -0.51096357290E+02  0.12875627335E+03  0.23926725284E+03  0.00000000000E+00 0.  1.
<mgrwt>
<rscale>  0 0.61005596E+03</rscale>
<asrwt>0</asrwt>
<pdfrwt beam="1">  1        1 0.31847517E+00 0.61005596E+03</pdfrwt>
<pdfrwt beam="2">  1       -2 0.38442411E-01 0.61005596E+03</pdfrwt>
<totfact> 0.15937033E+01</totfact>
</mgrwt>
</event>
<event>
12    3  0.2422421E-007  0.6573947E+03  0.7818608E-02  0.9793002E-01
          1   -1    0    0  501    0  0.00000000000E+00  0.00000000000E+00  0.65748676235E+03  0.65748676235E+03  0.00000000000E+00 0. -1.
         -2   -1    0    0    0  501 -0.00000000000E+00 -0.00000000000E+00 -0.72594998640E+03  0.72594998640E+03  0.00000000000E+00 0.  1.
        -24    2    1    2    0    0 -0.51033688800E+03 -0.20147285675E+03  0.70089547864E+02  0.55873569759E+03  0.78980907743E+02 0.  0.
    5000000    2    1    2    0    0  0.51033688800E+03  0.20147285675E+03 -0.13855277192E+03  0.82470105116E+03  0.59991657913E+03 0.  0.
        -24    2    4    4    0    0  0.15101571254E+03 -0.17298247707E+03 -0.17314558258E+03  0.29837766464E+03  0.79505692744E+02 0.  0.
         24    2    4    4    0    0  0.35932117545E+03  0.37445533382E+03  0.34592810661E+02  0.52632338652E+03  0.80567614413E+02 0.  0.
         13    1    5    5    0    0  0.12720573070E+03 -0.96817328169E+02 -0.13798604576E+03  0.21117538157E+03  0.00000000000E+00 0. -1.
        -14    1    5    5    0    0  0.23809981843E+02 -0.76165148900E+02 -0.35159536818E+02  0.87202283064E+02  0.00000000000E+00 0.  1.
         13    1    3    3    0    0 -0.10616120017E+03 -0.18574057794E+02  0.36688339757E+02  0.11384739926E+03  0.00000000000E+00 0. -1.
        -14    1    3    3    0    0 -0.40417568783E+03 -0.18289879895E+03  0.33401208107E+02  0.44488829834E+03  0.00000000000E+00 0.  1.
          2    1    6    6  502    0  0.21120014491E+03  0.16927475228E+03 -0.17328996309E+01  0.27067036393E+03  0.00000000000E+00 0. -1.
         -1    1    6    6    0  502  0.14812103055E+03  0.20518058154E+03  0.36325710292E+02  0.25565302259E+03  0.00000000000E+00 0.  1.
<mgrwt>
<rscale>  0 0.65739472E+03</rscale>
<asrwt>0</asrwt>
<pdfrwt beam="1">  1        1 0.10115181E+00 0.65739472E+03</pdfrwt>
<pdfrwt beam="2">  1       -2 0.11168461E+00 0.65739472E+03</pdfrwt>
<totfact> 0.17090745E+01</totfact>
</mgrwt>
</event>
<event>
12    3  0.2422421E-007  0.1823478E+04  0.7818608E-02  0.8693913E-01
         -2   -1    0    0    0  501 -0.00000000000E+00  0.00000000000E+00  0.16547879501E+04  0.16547879501E+04  0.00000000000E+00 0.  1.
          1   -1    0    0  501    0  0.00000000000E+00 -0.00000000000E+00 -0.26124284297E+04  0.26124284297E+04  0.00000000000E+00 0. -1.
        -24    2    1    2    0    0 -0.15873637792E+04  0.87178327891E+03 -0.14218715650E+04  0.23039310672E+04  0.81546074191E+02 0.  0.
    5000000    2    1    2    0    0  0.15873637792E+04 -0.87178327891E+03  0.46423108539E+03  0.19632853127E+04  0.59937372759E+03 0.  0.
        -24    2    4    4    0    0  0.11490291463E+04 -0.48443046293E+03  0.63456074297E+02  0.12510962569E+04  0.79210592861E+02 0.  0.
         24    2    4    4    0    0  0.43833463288E+03 -0.38735281598E+03  0.40077501109E+03  0.71218905581E+03  0.66431824175E+02 0.  0.
         11    1    3    3    0    0 -0.78647881313E+03  0.47289962900E+03 -0.74449202121E+03  0.11817154278E+04  0.00000000000E+00 0. -1.
        -12    1    3    3    0    0 -0.80088496608E+03  0.39888364991E+03 -0.67737954379E+03  0.11222156394E+04  0.00000000000E+00 0.  1.
         11    1    5    5    0    0  0.10750969683E+04 -0.45644238633E+03  0.40103025432E+02  0.11686665033E+04  0.00000000000E+00 0. -1.
        -12    1    5    5    0    0  0.73932178057E+02 -0.27988076605E+02  0.23353048865E+02  0.82429753582E+02  0.00000000000E+00 0.  1.
          4    1    6    6  502    0  0.13902187868E+03 -0.15773291124E+03  0.16566140499E+03  0.26767602646E+03  0.00000000000E+00 0. -1.
         -3    1    6    6    0  502  0.29931275421E+03 -0.22961990475E+03  0.23511360610E+03  0.44451302935E+03  0.00000000000E+00 0.  1.
<mgrwt>
<rscale>  0 0.18234776E+04</rscale>
<asrwt>0</asrwt>
<pdfrwt beam="1">  1        1 0.40191207E+00 0.18234776E+04</pdfrwt>
<pdfrwt beam="2">  1       -2 0.25458276E+00 0.18234776E+04</pdfrwt>
<totfact> 0.54061702E-02</totfact>
</mgrwt>
</event>
<event>
12    3  0.2422421E-007  0.5807511E+03  0.7818608E-02  0.9946166E-01
         -2   -1    0    0    0  501 -0.00000000000E+00  0.00000000000E+00  0.33604487638E+03  0.33604487638E+03  0.00000000000E+00 0.  1.
          1   -1    0    0  501    0  0.00000000000E+00 -0.00000000000E+00 -0.40968206344E+04  0.40968206344E+04  0.00000000000E+00 0. -1.
        -24    2    1    2    0    0  0.28457628105E+03  0.32935636832E+03  0.13859648178E+03  0.46363532702E+03  0.79306081785E+02 0.  0.
    5000000    2    1    2    0    0 -0.28457628105E+03 -0.32935636832E+03 -0.38993722398E+04  0.39692301838E+04  0.60018756249E+03 0.  0.
        -24    2    4    4    0    0 -0.37826861672E+03 -0.42319292522E+03 -0.33467941095E+04  0.33954672967E+04  0.77381863052E+02 0.  0.
         24    2    4    4    0    0  0.93692335667E+02  0.93836556904E+02 -0.55257813029E+03  0.57376288714E+03  0.79231984738E+02 0.  0.
         11    1    3    3    0    0  0.19568053520E+03  0.26847129325E+03  0.83174632730E+02  0.34247003764E+03  0.00000000000E+00 0. -1.
        -12    1    3    3    0    0  0.88895745853E+02  0.60885075070E+02  0.55421849049E+02  0.12116528937E+03  0.00000000000E+00 0.  1.
         13    1    5    5    0    0 -0.30800625782E+03 -0.33418686486E+03 -0.28406289799E+04  0.28767554149E+04  0.00000000000E+00 0. -1.
        -14    1    5    5    0    0 -0.70262358897E+02 -0.89006060365E+02 -0.50616512959E+03  0.51871188175E+03  0.00000000000E+00 0.  1.
          4    1    6    6  502    0  0.59024378446E+02  0.61130806887E+01 -0.18554249011E+03  0.19480057146E+03  0.00000000000E+00 0. -1.
         -3    1    6    6    0  502  0.34667957221E+02  0.87723476215E+02 -0.36703564018E+03  0.37896231567E+03  0.00000000000E+00 0.  1.
<mgrwt>
<rscale>  0 0.58075113E+03</rscale>
<asrwt>0</asrwt>
<pdfrwt beam="1">  1        1 0.63028007E+00 0.58075113E+03</pdfrwt>
<pdfrwt beam="2">  1       -2 0.51699214E-01 0.58075113E+03</pdfrwt>
<totfact> 0.28548134E-01</totfact>
</mgrwt>
</event>
<event>
12    3  0.2422421E-007  0.1319688E+04  0.7818608E-02  0.9014097E-01
         -2   -1    0    0    0  501 -0.00000000000E+00  0.00000000000E+00  0.12637082341E+04  0.12637082341E+04  0.00000000000E+00 0.  1.
          1   -1    0    0  501    0  0.00000000000E+00 -0.00000000000E+00 -0.23579754088E+04  0.23579754088E+04  0.00000000000E+00 0. -1.
        -24    2    1    2    0    0 -0.77345924707E+03  0.98904501227E+03 -0.16908606187E+04  0.21076676746E+04  0.82487281053E+02 0.  0.
    5000000    2    1    2    0    0  0.77345924707E+03 -0.98904501227E+03  0.59659344395E+03  0.15140159683E+04  0.59989280009E+03 0.  0.
        -24    2    4    4    0    0  0.28665530004E+03 -0.81322593292E+03  0.41058048255E+03  0.95818447331E+03  0.77675435145E+02 0.  0.
         24    2    4    4    0    0  0.48680394702E+03 -0.17581907935E+03  0.18601296140E+03  0.55583149495E+03  0.80357933422E+02 0.  0.
         11    1    3    3    0    0 -0.12633685677E+03  0.21432277586E+03 -0.34185406807E+03  0.42279954764E+03  0.00000000000E+00 0. -1.
        -12    1    3    3    0    0 -0.64712239029E+03  0.77472223641E+03 -0.13490065506E+04  0.16848681269E+04  0.00000000000E+00 0.  1.
         13    1    5    5    0    0  0.26355504183E+03 -0.77480544743E+03  0.37176328146E+03  0.89888412985E+03  0.00000000000E+00 0. -1.
        -14    1    5    5    0    0  0.23100258212E+02 -0.38420485488E+02  0.38817201092E+02  0.59300343466E+02  0.00000000000E+00 0.  1.
          4    1    6    6  502    0  0.28760309341E+03 -0.11360153069E+03  0.69956712557E+02  0.31704067365E+03  0.00000000000E+00 0. -1.
         -3    1    6    6    0  502  0.19920085361E+03 -0.62217548663E+02  0.11605624884E+03  0.23879082130E+03  0.00000000000E+00 0.  1.
<mgrwt>
<rscale>  0 0.13196877E+04</rscale>
<asrwt>0</asrwt>
<pdfrwt beam="1">  1        1 0.36276545E+00 0.13196877E+04</pdfrwt>
<pdfrwt beam="2">  1       -2 0.19441665E+00 0.13196877E+04</pdfrwt>
<totfact> 0.20761153E-01</totfact>
</mgrwt>
</event>
<event>
12    3  0.2422421E-007  0.1497105E+04  0.7818608E-02  0.8886380E-01
         -2   -1    0    0    0  501 -0.00000000000E+00  0.00000000000E+00  0.15557980175E+04  0.15557980175E+04  0.00000000000E+00 0.  1.
          1   -1    0    0  501    0  0.00000000000E+00 -0.00000000000E+00 -0.14536413028E+04  0.14536413028E+04  0.00000000000E+00 0. -1.
        -24    2    1    2    0    0 -0.98269124807E+03  0.10503190234E+04 -0.66496344236E+02  0.14418356981E+04  0.74941821098E+02 0.  0.
    5000000    2    1    2    0    0  0.98269124807E+03 -0.10503190234E+04  0.16865305901E+03  0.15676036222E+04  0.60007093074E+03 0.  0.
        -24    2    4    4    0    0 -0.59464303517E+02 -0.61442572362E+02  0.33799240460E+02  0.12243319441E+03  0.80847420154E+02 0.  0.
         24    2    4    4    0    0  0.10421555516E+04 -0.98887645108E+03  0.13485381855E+03  0.14451704278E+04  0.79794634698E+02 0.  0.
         11    1    5    5    0    0  0.50202153437E+01  0.15978771557E+02  0.25633273403E+01  0.16943858758E+02  0.00000000000E+00 0. -1.
        -12    1    5    5    0    0 -0.64484518861E+02 -0.77421343919E+02  0.31235913119E+02  0.10548933565E+03  0.00000000000E+00 0.  1.
         13    1    3    3    0    0 -0.22438023669E+03  0.27359479801E+03  0.62118080116E+01  0.35389149563E+03  0.00000000000E+00 0. -1.
        -14    1    3    3    0    0 -0.75831101138E+03  0.77672422543E+03 -0.72708152247E+02  0.10879442025E+04  0.00000000000E+00 0.  1.
          4    1    6    6  502    0  0.36013102152E+03 -0.31253921411E+03  0.75964260916E+02  0.48285161484E+03  0.00000000000E+00 0. -1.
         -3    1    6    6    0  502  0.68202453007E+03 -0.67633723697E+03  0.58889557639E+02  0.96231881293E+03  0.00000000000E+00 0.  1.
<mgrwt>
<rscale>  0 0.14971052E+04</rscale>
<asrwt>0</asrwt>
<pdfrwt beam="1">  1        1 0.22363712E+00 0.14971052E+04</pdfrwt>
<pdfrwt beam="2">  1       -2 0.23935354E+00 0.14971052E+04</pdfrwt>
<totfact> 0.43566102E-01</totfact>
</mgrwt>
</event>
<event>
12    3  0.2422421E-007  0.1518490E+04  0.7818608E-02  0.8872249E-01
          1   -1    0    0  501    0  0.00000000000E+00  0.00000000000E+00  0.22085028281E+04  0.22085028281E+04  0.00000000000E+00 0. -1.
         -2   -1    0    0    0  501 -0.00000000000E+00 -0.00000000000E+00 -0.11523042503E+04  0.11523042503E+04  0.00000000000E+00 0.  1.
        -24    2    1    2    0    0 -0.13562212470E+04 -0.57171596140E+03  0.40604705012E+02  0.14745202234E+04  0.79786814917E+02 0.  0.
    5000000    2    1    2    0    0  0.13562212470E+04  0.57171596140E+03  0.10155938728E+04  0.18862868549E+04  0.60037652625E+03 0.  0.
        -24    2    4    4    0    0  0.29103321052E+03  0.38203500012E+03  0.45003195980E+03  0.66289410768E+03  0.79049112623E+02 0.  0.
         24    2    4    4    0    0  0.10651880365E+04  0.18968096128E+03  0.56556191299E+03  0.12233927473E+04  0.78899407112E+02 0.  0.
         11    1    3    3    0    0 -0.68661387252E+03 -0.28625224050E+03  0.60319787550E+02  0.74633600469E+03  0.00000000000E+00 0. -1.
        -12    1    3    3    0    0 -0.66960737452E+03 -0.28546372090E+03 -0.19715082538E+02  0.72818421875E+03  0.00000000000E+00 0.  1.
         13    1    5    5    0    0  0.29028530711E+03  0.38344581430E+03  0.43717102882E+03  0.64993442783E+03  0.00000000000E+00 0. -1.
        -14    1    5    5    0    0  0.74790340764E+00 -0.14108141815E+01  0.12860930982E+02  0.12959679853E+02  0.00000000000E+00 0.  1.
          2    1    6    6  502    0  0.66414239668E+03  0.13731260340E+03  0.39148840294E+03  0.78307282149E+03  0.00000000000E+00 0. -1.
         -1    1    6    6    0  502  0.40104563983E+03  0.52368357878E+02  0.17407351005E+03  0.44031992578E+03  0.00000000000E+00 0.  1.
<mgrwt>
<rscale>  0 0.15184901E+04</rscale>
<asrwt>0</asrwt>
<pdfrwt beam="1">  1        1 0.33976967E+00 0.15184901E+04</pdfrwt>
<pdfrwt beam="2">  1       -2 0.17727758E+00 0.15184901E+04</pdfrwt>
<totfact> 0.33619171E-01</totfact>
</mgrwt>
</event>
<event>
12    3  0.2422421E-007  0.8724153E+03  0.7818608E-02  0.9460736E-01
         -2   -1    0    0    0  501 -0.00000000000E+00  0.00000000000E+00  0.14270250735E+04  0.14270250735E+04  0.00000000000E+00 0.  1.
          1   -1    0    0  501    0  0.00000000000E+00 -0.00000000000E+00 -0.71701506373E+03  0.71701506373E+03  0.00000000000E+00 0. -1.
        -24    2    1    2    0    0  0.71108410789E+03 -0.33534738353E+03 -0.18346282586E+03  0.81124375815E+03  0.79745536104E+02 0.  0.
    5000000    2    1    2    0    0 -0.71108410789E+03  0.33534738353E+03  0.89347283560E+03  0.13327963790E+04  0.59996166871E+03 0.  0.
        -24    2    4    4    0    0 -0.57688279346E+02  0.29406543596E+03  0.41848178715E+03  0.52006053243E+03  0.74387720804E+02 0.  0.
         24    2    4    4    0    0 -0.65339582854E+03  0.41281947569E+02  0.47499104845E+03  0.81273584662E+03  0.79326870156E+02 0.  0.
         11    1    3    3    0    0  0.44377888160E+03 -0.23120291321E+03 -0.82679139796E+02  0.50717878800E+03  0.00000000000E+00 0. -1.
        -12    1    3    3    0    0  0.26730522628E+03 -0.10414447032E+03 -0.10078368606E+03  0.30406497015E+03  0.00000000000E+00 0.  1.
         11    1    5    5    0    0 -0.90411118527E+01  0.55366623690E+02  0.13557999438E+03  0.14672811454E+03  0.00000000000E+00 0. -1.
        -12    1    5    5    0    0 -0.48647167494E+02  0.23869881228E+03  0.28290179278E+03  0.37333241788E+03  0.00000000000E+00 0.  1.
          2    1    6    6  502    0 -0.19557941034E+03  0.41995257738E+02  0.17119693809E+03  0.26329318075E+03  0.00000000000E+00 0. -1.
         -1    1    6    6    0  502 -0.45781641820E+03 -0.71331016861E+00  0.30379411036E+03  0.54944266587E+03  0.00000000000E+00 0.  1.
<mgrwt>
<rscale>  0 0.87241532E+03</rscale>
<asrwt>0</asrwt>
<pdfrwt beam="1">  1        1 0.11031001E+00 0.87241532E+03</pdfrwt>
<pdfrwt beam="2">  1       -2 0.21954232E+00 0.87241532E+03</pdfrwt>
<totfact> 0.23209232E+00</totfact>
</mgrwt>
</event>
<event>
12    3  0.2422421E-007  0.6857421E+03  0.7818608E-02  0.9741931E-01
          1   -1    0    0  501    0  0.00000000000E+00  0.00000000000E+00  0.44985564377E+03  0.44985564377E+03  0.00000000000E+00 0. -1.
         -2   -1    0    0    0  501 -0.00000000000E+00 -0.00000000000E+00 -0.12613174791E+04  0.12613174791E+04  0.00000000000E+00 0.  1.
        -24    2    1    2    0    0  0.49205555702E+03 -0.36236207680E+03 -0.16468123514E+03  0.63804033615E+03  0.80935872435E+02 0.  0.
    5000000    2    1    2    0    0 -0.49205555702E+03  0.36236207680E+03 -0.64678060020E+03  0.10731327867E+04  0.59988656201E+03 0.  0.
        -24    2    4    4    0    0 -0.56168794994E+03  0.34043262525E+03 -0.69027263214E+03  0.95611323699E+03  0.79299998885E+02 0.  0.
         24    2    4    4    0    0  0.69632392920E+02  0.21929451547E+02  0.43492031944E+02  0.11701954974E+03  0.80451520748E+02 0.  0.
         11    1    5    5    0    0 -0.49700869181E+03  0.29803324565E+03 -0.64234298666E+03  0.86512771760E+03  0.00000000000E+00 0. -1.
        -12    1    5    5    0    0 -0.64679258132E+02  0.42399379604E+02 -0.47929645478E+02  0.90985519392E+02  0.00000000000E+00 0.  1.
         11    1    3    3    0    0  0.88532411164E+02 -0.32489673393E+02 -0.37960415073E+02  0.10165903706E+03  0.00000000000E+00 0. -1.
        -12    1    3    3    0    0  0.40352314586E+03 -0.32987240341E+03 -0.12672082007E+03  0.53638129908E+03  0.00000000000E+00 0.  1.
          2    1    6    6  502    0  0.82946327795E+02  0.15671024527E+02  0.16112167760E+02  0.85937630025E+02  0.00000000000E+00 0. -1.
         -1    1    6    6    0  502 -0.13313934875E+02  0.62584270206E+01  0.27379864184E+02  0.31081919718E+02  0.00000000000E+00 0.  1.
<mgrwt>
<rscale>  0 0.68574215E+03</rscale>
<asrwt>0</asrwt>
<pdfrwt beam="1">  1        1 0.69208560E-01 0.68574215E+03</pdfrwt>
<pdfrwt beam="2">  1       -2 0.19404884E+00 0.68574215E+03</pdfrwt>
<totfact> 0.67305229E+00</totfact>
</mgrwt>
</event>
<event>
12    3  0.2422421E-007  0.6443932E+03  0.7818608E-02  0.9817357E-01
          1   -1    0    0  501    0  0.00000000000E+00  0.00000000000E+00  0.25024496487E+04  0.25024496487E+04  0.00000000000E+00 0. -1.
         -2   -1    0    0    0  501 -0.00000000000E+00 -0.00000000000E+00 -0.21122198115E+03  0.21122198115E+03  0.00000000000E+00 0.  1.
        -24    2    1    2    0    0  0.36064905543E+03  0.44210884871E+03  0.13016909463E+04  0.14234988023E+04  0.80134543203E+02 0.  0.
    5000000    2    1    2    0    0 -0.36064905543E+03 -0.44210884871E+03  0.98953672118E+03  0.12901728275E+04  0.59986250681E+03 0.  0.
        -24    2    4    4    0    0  0.75818046013E+02 -0.15721704135E+03  0.28339314870E+02  0.19389310143E+03  0.79535173487E+02 0.  0.
         24    2    4    4    0    0 -0.43646710144E+03 -0.28489180736E+03  0.96119740631E+03  0.10962797261E+04  0.79132240264E+02 0.  0.
         13    1    3    3    0    0  0.21033780801E+03  0.31766947706E+03  0.85519679520E+03  0.93622510576E+03  0.00000000000E+00 0. -1.
        -14    1    3    3    0    0  0.15031124742E+03  0.12443937166E+03  0.44649415112E+03  0.48727369650E+03  0.00000000000E+00 0.  1.
         13    1    5    5    0    0  0.67588444374E+02 -0.50419833525E+02  0.18498657052E+02  0.86328197817E+02  0.00000000000E+00 0. -1.
        -14    1    5    5    0    0  0.82296016390E+01 -0.10679720783E+03  0.98406578181E+01  0.10756490361E+03  0.00000000000E+00 0.  1.
          2    1    6    6  502    0 -0.18052932835E+03 -0.11872291422E+03  0.31923163307E+03  0.38547996616E+03  0.00000000000E+00 0. -1.
         -1    1    6    6    0  502 -0.25593777309E+03 -0.16616889314E+03  0.64196577324E+03  0.71079975996E+03  0.00000000000E+00 0.  1.
<mgrwt>
<rscale>  0 0.64439321E+03</rscale>
<asrwt>0</asrwt>
<pdfrwt beam="1">  1        1 0.38499223E+00 0.64439321E+03</pdfrwt>
<pdfrwt beam="2">  1       -2 0.32495691E-01 0.64439321E+03</pdfrwt>
<totfact> 0.11175534E+01</totfact>
</mgrwt>
</event>
<event>
12    3  0.2422421E-007  0.1075550E+04  0.7818608E-02  0.9229355E-01
         -2   -1    0    0    0  501 -0.00000000000E+00  0.00000000000E+00  0.15442516736E+04  0.15442516736E+04  0.00000000000E+00 0.  1.
          1   -1    0    0  501    0  0.00000000000E+00 -0.00000000000E+00 -0.13261005592E+04  0.13261005592E+04  0.00000000000E+00 0. -1.
        -24    2    1    2    0    0  0.34839450265E+03 -0.94375189191E+03  0.10324634321E+04  0.14437396645E+04  0.79731532621E+02 0.  0.
    5000000    2    1    2    0    0 -0.34839450265E+03  0.94375189191E+03 -0.81431231770E+03  0.14266125683E+04  0.60006041889E+03 0.  0.
        -24    2    4    4    0    0 -0.46590521810E+03  0.50757160873E+03 -0.36050476980E+03  0.78158651448E+03  0.78849098447E+02 0.  0.
         24    2    4    4    0    0  0.11751071545E+03  0.43618028318E+03 -0.45380754790E+03  0.64502605382E+03  0.77815884600E+02 0.  0.
         11    1    3    3    0    0  0.36210311468E+02 -0.14693260767E+03  0.12375289925E+03  0.19548697636E+03  0.00000000000E+00 0. -1.
        -12    1    3    3    0    0  0.31218419118E+03 -0.79681928424E+03  0.90871053289E+03  0.12482526882E+04  0.00000000000E+00 0.  1.
         13    1    5    5    0    0 -0.36777787220E+03  0.40381854743E+03 -0.32048864172E+03  0.63327952123E+03  0.00000000000E+00 0. -1.
        -14    1    5    5    0    0 -0.98127345903E+02  0.10375306130E+03 -0.40016128082E+02  0.14830699326E+03  0.00000000000E+00 0.  1.
          4    1    6    6  502    0  0.10250392260E+03  0.42220973269E+03 -0.44715483088E+03  0.62347057293E+03  0.00000000000E+00 0. -1.
         -3    1    6    6    0  502  0.15006792855E+02  0.13970550488E+02 -0.66527170161E+01  0.21555480891E+02  0.00000000000E+00 0.  1.
<mgrwt>
<rscale>  0 0.10755504E+04</rscale>
<asrwt>0</asrwt>
<pdfrwt beam="1">  1        1 0.20401547E+00 0.10755504E+04</pdfrwt>
<pdfrwt beam="2">  1       -2 0.23757718E+00 0.10755504E+04</pdfrwt>
<totfact> 0.57730714E-01</totfact>
</mgrwt>
</event>
<event>
12    3  0.2422421E-007  0.4388895E+03  0.7818608E-02  0.1031088E+00
          1   -1    0    0  501    0  0.00000000000E+00  0.00000000000E+00  0.96790425840E+03  0.96790425840E+03  0.00000000000E+00 0. -1.
         -2   -1    0    0    0  501 -0.00000000000E+00 -0.00000000000E+00 -0.38775662737E+03  0.38775662737E+03  0.00000000000E+00 0.  1.
        -24    2    1    2    0    0  0.12391553817E+03 -0.25489895619E+03  0.62470247440E+03  0.69059825257E+03  0.79650652608E+02 0.  0.
    5000000    2    1    2    0    0 -0.12391553817E+03  0.25489895619E+03 -0.44554843375E+02  0.66506263320E+03  0.59999552794E+03 0.  0.
        -24    2    4    4    0    0  0.46022645108E+02 -0.13941237583E+03  0.11311312745E+03  0.20065603213E+03  0.76904936321E+02 0.  0.
         24    2    4    4    0    0 -0.16993818328E+03  0.39431133202E+03 -0.15766797083E+03  0.46440660107E+03  0.80336102715E+02 0.  0.
         11    1    5    5    0    0  0.44585561979E+02 -0.43846984626E+02  0.75278708224E+02  0.97863753810E+02  0.00000000000E+00 0. -1.
        -12    1    5    5    0    0  0.14370831287E+01 -0.95565391204E+02  0.37834419228E+02  0.10279227832E+03  0.00000000000E+00 0.  1.
         11    1    3    3    0    0  0.10720252434E+03 -0.21657763955E+03  0.44803760305E+03  0.50905397447E+03  0.00000000000E+00 0. -1.
        -12    1    3    3    0    0  0.16713013828E+02 -0.38321316640E+02  0.17666487135E+03  0.18154427810E+03  0.00000000000E+00 0.  1.
          2    1    6    6  502    0 -0.11391610336E+03  0.33838537129E+03 -0.11938567064E+03  0.37647639562E+03  0.00000000000E+00 0. -1.
         -1    1    6    6    0  502 -0.56022079924E+02  0.55925960725E+02 -0.38282300192E+02  0.87930205448E+02  0.00000000000E+00 0.  1.
<mgrwt>
<rscale>  0 0.43888951E+03</rscale>
<asrwt>0</asrwt>
<pdfrwt beam="1">  1        1 0.14890835E+00 0.43888951E+03</pdfrwt>
<pdfrwt beam="2">  1       -2 0.59654866E-01 0.43888951E+03</pdfrwt>
<totfact> 0.39088131E+01</totfact>
</mgrwt>
</event>
<event>
12    3  0.2422421E-007  0.2842645E+03  0.7818608E-02  0.1093382E+00
         -2   -1    0    0    0  501 -0.00000000000E+00  0.00000000000E+00  0.83986859715E+02  0.83986859715E+02  0.00000000000E+00 0.  1.
          1   -1    0    0  501    0  0.00000000000E+00 -0.00000000000E+00 -0.24071819924E+04  0.24071819924E+04  0.00000000000E+00 0. -1.
        -24    2    1    2    0    0 -0.19321453483E+03  0.12348511599E+03 -0.84886865287E+03  0.88299187288E+03  0.80723152834E+02 0.  0.
    5000000    2    1    2    0    0  0.19321453483E+03 -0.12348511599E+03 -0.14743264799E+04  0.16081769793E+04  0.60001183083E+03 0.  0.
        -24    2    4    4    0    0 -0.12108133981E+02  0.17369147435E+02  0.25195214494E+02  0.86244999805E+02  0.79718924772E+02 0.  0.
         24    2    4    4    0    0  0.20532266881E+03 -0.14085426342E+03 -0.14995216944E+04  0.15219319795E+04  0.75593098005E+02 0.  0.
         11    1    5    5    0    0  0.60905267737E+01  0.45777157497E+02  0.38910004157E+01  0.46344174921E+02  0.00000000000E+00 0. -1.
        -12    1    5    5    0    0 -0.18198660755E+02 -0.28408010062E+02  0.21304214078E+02  0.39900824884E+02  0.00000000000E+00 0.  1.
         11    1    3    3    0    0 -0.15791914734E+03  0.81724315091E+02 -0.51881944825E+03  0.54844410896E+03  0.00000000000E+00 0. -1.
        -12    1    3    3    0    0 -0.35295387482E+02  0.41760800898E+02 -0.33004920462E+03  0.33454776391E+03  0.00000000000E+00 0.  1.
          4    1    6    6  502    0  0.10702738054E+03 -0.10907738707E+03 -0.10221811916E+04  0.10335410611E+04  0.00000000000E+00 0. -1.
         -3    1    6    6    0  502  0.98295288269E+02 -0.31776876358E+02 -0.47734050273E+03  0.48839091834E+03  0.00000000000E+00 0.  1.
<mgrwt>
<rscale>  0 0.28426449E+03</rscale>
<asrwt>0</asrwt>
<pdfrwt beam="1">  1        1 0.37033568E+00 0.28426449E+03</pdfrwt>
<pdfrwt beam="2">  1       -2 0.12921056E-01 0.28426449E+03</pdfrwt>
<totfact> 0.70309766E+01</totfact>
</mgrwt>
</event>
<event>
12    3  0.2422421E-007  0.1064953E+04  0.7818608E-02  0.9240041E-01
         -2   -1    0    0    0  501 -0.00000000000E+00  0.00000000000E+00  0.21780092288E+04  0.21780092288E+04  0.00000000000E+00 0.  1.
          1   -1    0    0  501    0  0.00000000000E+00 -0.00000000000E+00 -0.63181934402E+03  0.63181934402E+03  0.00000000000E+00 0. -1.
        -24    2    1    2    0    0 -0.65307570155E+03  0.81381355769E+03  0.32651520059E+03  0.10962576755E+04  0.79801856213E+02 0.  0.
    5000000    2    1    2    0    0  0.65307570155E+03 -0.81381355769E+03  0.12196746842E+04  0.17135708974E+04  0.59993208472E+03 0.  0.
        -24    2    4    4    0    0  0.38967351288E+03 -0.25317454574E+03  0.18822087223E+03  0.50775889855E+03  0.80306942808E+02 0.  0.
         24    2    4    4    0    0  0.26340218867E+03 -0.56063901195E+03  0.10314538120E+04  0.12058119988E+04  0.79929940913E+02 0.  0.
         11    1    3    3    0    0 -0.12536259947E+03  0.11658114157E+03  0.70365510380E+02  0.18508984026E+03  0.00000000000E+00 0. -1.
        -12    1    3    3    0    0 -0.52771310208E+03  0.69723241613E+03  0.25614969021E+03  0.91116783526E+03  0.00000000000E+00 0.  1.
         13    1    5    5    0    0  0.23770597760E+03 -0.16122067232E+03  0.74068764976E+02  0.29661830509E+03  0.00000000000E+00 0. -1.
        -14    1    5    5    0    0  0.15196753528E+03 -0.91953873423E+02  0.11415210725E+03  0.21114059346E+03  0.00000000000E+00 0.  1.
          2    1    6    6  502    0  0.11570786917E+03 -0.24128720562E+03  0.52306786477E+03  0.58754388580E+03  0.00000000000E+00 0. -1.
         -1    1    6    6    0  502  0.14769431951E+03 -0.31935180633E+03  0.50838594722E+03  0.61826811300E+03  0.00000000000E+00 0.  1.
<mgrwt>
<rscale>  0 0.10649531E+04</rscale>
<asrwt>0</asrwt>
<pdfrwt beam="1">  1        1 0.97202977E-01 0.10649531E+04</pdfrwt>
<pdfrwt beam="2">  1       -2 0.33507834E+00 0.10649531E+04</pdfrwt>
<totfact> 0.53997393E-01</totfact>
</mgrwt>
</event>
<event>
12    3  0.2422421E-007  0.1001357E+04  0.7818608E-02  0.9307057E-01
         -2   -1    0    0    0  501 -0.00000000000E+00  0.00000000000E+00  0.19914157721E+04  0.19914157721E+04  0.00000000000E+00 0.  1.
          1   -1    0    0  501    0  0.00000000000E+00 -0.00000000000E+00 -0.69560613257E+03  0.69560613257E+03  0.00000000000E+00 0. -1.
        -24    2    1    2    0    0  0.27747341877E+03  0.95479203505E+03  0.11409858662E+04  0.15154588395E+04  0.78405478607E+02 0.  0.
    5000000    2    1    2    0    0 -0.27747341877E+03 -0.95479203505E+03  0.15482377327E+03  0.11715630651E+04  0.59997523818E+03 0.  0.
        -24    2    4    4    0    0 -0.52050526231E+02 -0.11345155312E+03  0.25135896608E+03  0.29159865787E+03  0.79170292757E+02 0.  0.
         24    2    4    4    0    0 -0.22542289254E+03 -0.84134048193E+03 -0.96535192814E+02  0.87996440723E+03  0.79680785223E+02 0.  0.
         11    1    3    3    0    0  0.37281601775E+02  0.10063057588E+03  0.16079918797E+03  0.19332048388E+03  0.00000000000E+00 0. -1.
        -12    1    3    3    0    0  0.24019181700E+03  0.85416145916E+03  0.98018667827E+03  0.13221383557E+04  0.00000000000E+00 0.  1.
         11    1    5    5    0    0 -0.15079906797E+02 -0.97943370984E+00  0.15954630465E+01  0.15195669835E+02  0.00000000000E+00 0. -1.
        -12    1    5    5    0    0 -0.36970619434E+02 -0.11247211941E+03  0.24976350304E+03  0.27640298804E+03  0.00000000000E+00 0.  1.
          2    1    6    6  502    0  0.34095508617E+01 -0.68848202669E+02 -0.51309061287E+01  0.69123268481E+02  0.00000000000E+00 0. -1.
         -1    1    6    6    0  502 -0.22883244341E+03 -0.77249227926E+03 -0.91404286685E+02  0.81084113875E+03  0.00000000000E+00 0.  1.
<mgrwt>
<rscale>  0 0.10013572E+04</rscale>
<asrwt>0</asrwt>
<pdfrwt beam="1">  1        1 0.10701633E+00 0.10013572E+04</pdfrwt>
<pdfrwt beam="2">  1       -2 0.30637166E+00 0.10013572E+04</pdfrwt>
<totfact> 0.70693705E-01</totfact>
</mgrwt>
</event>
<event>
12    3  0.2422421E-007  0.7198621E+03  0.7818608E-02  0.9683855E-01
          1   -1    0    0  501    0  0.00000000000E+00  0.00000000000E+00  0.91326704096E+03  0.91326704096E+03  0.00000000000E+00 0. -1.
         -2   -1    0    0    0  501 -0.00000000000E+00 -0.00000000000E+00 -0.63221672623E+03  0.63221672623E+03  0.00000000000E+00 0.  1.
        -24    2    1    2    0    0  0.59674950209E+03  0.14959693214E+03  0.29378190397E+03  0.68604820980E+03  0.76584128390E+02 0.  0.
    5000000    2    1    2    0    0 -0.59674950209E+03 -0.14959693214E+03 -0.12731589241E+02  0.85943555740E+03  0.59998181106E+03 0.  0.
        -24    2    4    4    0    0 -0.16367737352E+03 -0.30750914203E+03 -0.12509497887E+03  0.37853718567E+03  0.79306318579E+02 0.  0.
         24    2    4    4    0    0 -0.43307212857E+03  0.15791220989E+03  0.11236338963E+03  0.48089837172E+03  0.78421795535E+02 0.  0.
         11    1    5    5    0    0 -0.20658958311E+00 -0.56744938171E+02 -0.31513407927E+02  0.64908593934E+02  0.00000000000E+00 0. -1.
        -12    1    5    5    0    0 -0.16347078394E+03 -0.25076420386E+03 -0.93581570940E+02  0.31362859174E+03  0.00000000000E+00 0.  1.
         11    1    3    3    0    0  0.34185768520E+03  0.10360785567E+03  0.13285955582E+03  0.38112061904E+03  0.00000000000E+00 0. -1.
        -12    1    3    3    0    0  0.25489181689E+03  0.45989076466E+02  0.16092234815E+03  0.30492759076E+03  0.00000000000E+00 0.  1.
          2    1    6    6  502    0 -0.12560115069E+02  0.22272876371E+02  0.32278810548E+01  0.25773178471E+02  0.00000000000E+00 0. -1.
         -1    1    6    6    0  502 -0.42051201350E+03  0.13563933352E+03  0.10913550857E+03  0.45512519325E+03  0.00000000000E+00 0.  1.
<mgrwt>
<rscale>  0 0.71986215E+03</rscale>
<asrwt>0</asrwt>
<pdfrwt beam="1">  1        1 0.14050262E+00 0.71986215E+03</pdfrwt>
<pdfrwt beam="2">  1       -2 0.97264111E-01 0.71986215E+03</pdfrwt>
<totfact> 0.14076222E+01</totfact>
</mgrwt>
</event>
<event>
12    3  0.2422421E-007  0.1340750E+04  0.7818608E-02  0.8997860E-01
         -2   -1    0    0    0  501 -0.00000000000E+00  0.00000000000E+00  0.63183782742E+03  0.63183782742E+03  0.00000000000E+00 0.  1.
          1   -1    0    0  501    0  0.00000000000E+00 -0.00000000000E+00 -0.29039358002E+04  0.29039358002E+04  0.00000000000E+00 0. -1.
        -24    2    1    2    0    0 -0.10123474934E+04  0.78408377685E+03 -0.12491384171E+04  0.17905340402E+04  0.77656599516E+02 0.  0.
    5000000    2    1    2    0    0  0.10123474934E+04 -0.78408377685E+03 -0.10229595556E+04  0.17452395874E+04  0.59981676236E+03 0.  0.
        -24    2    4    4    0    0  0.72349800991E+03 -0.82381209983E+03 -0.70131356269E+03  0.13039579186E+04  0.79685595772E+02 0.  0.
         24    2    4    4    0    0  0.28884948352E+03  0.39728322982E+02 -0.32164599294E+03  0.44128166877E+03  0.79126497733E+02 0.  0.
         11    1    5    5    0    0  0.56716101439E+03 -0.61915924168E+03 -0.57021583911E+03  0.10149758056E+04  0.00000000000E+00 0. -1.
        -12    1    5    5    0    0  0.15633699552E+03 -0.20465285815E+03 -0.13109772358E+03  0.28898211302E+03  0.00000000000E+00 0.  1.
         13    1    3    3    0    0 -0.61275391272E+03  0.52079715591E+03 -0.77095821496E+03  0.11140348309E+04  0.00000000000E+00 0. -1.
        -14    1    3    3    0    0 -0.39959358070E+03  0.26328662094E+03 -0.47818020217E+03  0.67649920936E+03  0.00000000000E+00 0.  1.
          2    1    6    6  502    0  0.29376317919E+03  0.37323314363E+02 -0.31175074677E+03  0.42997484037E+03  0.00000000000E+00 0. -1.
         -1    1    6    6    0  502 -0.49136956723E+01  0.24050086188E+01 -0.98952461755E+01  0.11306828401E+02  0.00000000000E+00 0.  1.
<mgrwt>
<rscale>  0 0.13407497E+04</rscale>
<asrwt>0</asrwt>
<pdfrwt beam="1">  1        1 0.44675936E+00 0.13407497E+04</pdfrwt>
<pdfrwt beam="2">  1       -2 0.97205819E-01 0.13407497E+04</pdfrwt>
<totfact> 0.53007901E-01</totfact>
</mgrwt>
</event>
<event>
12    3  0.2422421E-007  0.9249883E+03  0.7818608E-02  0.9394873E-01
          1   -1    0    0  501    0  0.00000000000E+00  0.00000000000E+00  0.12986673375E+04  0.12986673375E+04  0.00000000000E+00 0. -1.
         -2   -1    0    0    0  501 -0.00000000000E+00 -0.00000000000E+00 -0.10211295727E+04  0.10211295727E+04  0.00000000000E+00 0.  1.
        -24    2    1    2    0    0  0.81925578369E+03  0.40225209645E+03  0.69587114878E+03  0.11501866375E+04  0.75537123753E+02 0.  0.
    5000000    2    1    2    0    0 -0.81925578369E+03 -0.40225209645E+03 -0.41833338398E+03  0.11696102728E+04  0.59999881828E+03 0.  0.
        -24    2    4    4    0    0 -0.13080390641E+03 -0.87841328025E+02  0.13999462507E+03  0.22508995134E+03  0.79001457615E+02 0.  0.
         24    2    4    4    0    0 -0.68845187728E+03 -0.31441076842E+03 -0.55832800905E+03  0.94452032148E+03  0.86996283673E+02 0.  0.
         11    1    3    3    0    0  0.38679407092E+03  0.15563719320E+03  0.34441879707E+03  0.54079284110E+03  0.00000000000E+00 0. -1.
        -12    1    3    3    0    0  0.43246171277E+03  0.24661490324E+03  0.35145235171E+03  0.60939379636E+03  0.00000000000E+00 0.  1.
         13    1    5    5    0    0  0.91251107408E+01 -0.17285488646E+02  0.15799276598E+02  0.25133103763E+02  0.00000000000E+00 0. -1.
        -14    1    5    5    0    0 -0.13992901715E+03 -0.70555839379E+02  0.12419534847E+03  0.19995684758E+03  0.00000000000E+00 0.  1.
          2    1    6    6  502    0 -0.29934525544E+03 -0.10610581212E+03 -0.27448199303E+03  0.41976944841E+03  0.00000000000E+00 0. -1.
         -1    1    6    6    0  502 -0.38910662184E+03 -0.20830495630E+03 -0.28384601601E+03  0.52475087307E+03  0.00000000000E+00 0.  1.
<mgrwt>
<rscale>  0 0.92498830E+03</rscale>
<asrwt>0</asrwt>
<pdfrwt beam="1">  1        1 0.19979498E+00 0.92498830E+03</pdfrwt>
<pdfrwt beam="2">  1       -2 0.15709686E+00 0.92498830E+03</pdfrwt>
<totfact> 0.21178440E+00</totfact>
</mgrwt>
</event>
<event>
12    3  0.2422421E-007  0.1014385E+04  0.7818608E-02  0.9292907E-01
          1   -1    0    0  501    0  0.00000000000E+00  0.00000000000E+00  0.11070930836E+04  0.11070930836E+04  0.00000000000E+00 0. -1.
         -2   -1    0    0    0  501 -0.00000000000E+00 -0.00000000000E+00 -0.10555717281E+04  0.10555717281E+04  0.00000000000E+00 0.  1.
        -24    2    1    2    0    0  0.38712370348E+02 -0.93893516269E+03  0.35408757860E+03  0.10074526528E+04  0.80529168083E+02 0.  0.
    5000000    2    1    2    0    0 -0.38712370348E+02  0.93893516269E+03 -0.30256622312E+03  0.11552121589E+04  0.59989242816E+03 0.  0.
        -24    2    4    4    0    0  0.16677914767E+03  0.49498848512E+02 -0.11202933551E+01  0.19048584406E+03  0.77576940065E+02 0.  0.
         24    2    4    4    0    0 -0.20549151802E+03  0.88943631418E+03 -0.30144592976E+03  0.96472631485E+03  0.80644237395E+02 0.  0.
         11    1    5    5    0    0  0.12133476966E+03  0.48415628631E+02  0.31687628244E+02  0.13442583534E+03  0.00000000000E+00 0. -1.
        -12    1    5    5    0    0  0.45444378008E+02  0.10832198816E+01 -0.32807921599E+02  0.56060008718E+02  0.00000000000E+00 0.  1.
         11    1    3    3    0    0  0.17190564329E+02 -0.40096317936E+03  0.19395427691E+03  0.44574123461E+03  0.00000000000E+00 0. -1.
        -12    1    3    3    0    0  0.21521806019E+02 -0.53797198334E+03  0.16013330170E+03  0.56171141817E+03  0.00000000000E+00 0.  1.
          4    1    6    6  502    0 -0.60539423609E+02  0.28629306766E+03 -0.13625379814E+03  0.32279070605E+03  0.00000000000E+00 0. -1.
         -3    1    6    6    0  502 -0.14495209441E+03  0.60314324652E+03 -0.16519213162E+03  0.64193560880E+03  0.00000000000E+00 0.  1.
<mgrwt>
<rscale>  0 0.10143847E+04</rscale>
<asrwt>0</asrwt>
<pdfrwt beam="1">  1        1 0.17032201E+00 0.10143847E+04</pdfrwt>
<pdfrwt beam="2">  1       -2 0.16239565E+00 0.10143847E+04</pdfrwt>
<totfact> 0.26410608E+00</totfact>
</mgrwt>
</event>
<event>
12    3  0.2422421E-007  0.7046287E+03  0.7818608E-02  0.9709349E-01
          1   -1    0    0  501    0  0.00000000000E+00  0.00000000000E+00  0.24241576699E+04  0.24241576699E+04  0.00000000000E+00 0. -1.
         -2   -1    0    0    0  501 -0.00000000000E+00 -0.00000000000E+00 -0.29628818646E+03  0.29628818646E+03  0.00000000000E+00 0.  1.
        -24    2    1    2    0    0 -0.15992084654E+03  0.61605103638E+03  0.33120513025E+03  0.72217576238E+03  0.82142783540E+02 0.  0.
    5000000    2    1    2    0    0  0.15992084654E+03 -0.61605103638E+03  0.17966643532E+04  0.19982700940E+04  0.59998917812E+03 0.  0.
        -24    2    4    4    0    0 -0.15188127780E+03 -0.21556251855E+03  0.26339918857E+03  0.38121183930E+03  0.80051308125E+02 0.  0.
         24    2    4    4    0    0  0.31180212434E+03 -0.40048851783E+03  0.15332651646E+04  0.16170582547E+04  0.79772904596E+02 0.  0.
         11    1    5    5    0    0 -0.13724608794E+03 -0.18115592606E+03  0.25734131823E+03  0.34333440298E+03  0.00000000000E+00 0. -1.
        -12    1    5    5    0    0 -0.14635189865E+02 -0.34406592487E+02  0.60578703380E+01  0.37877436318E+02  0.00000000000E+00 0.  1.
         13    1    3    3    0    0 -0.11916983820E+03  0.47890062802E+03  0.21699366671E+03  0.53910436211E+03  0.00000000000E+00 0. -1.
        -14    1    3    3    0    0 -0.40751008337E+02  0.13715040836E+03  0.11421146354E+03  0.18307140027E+03  0.00000000000E+00 0.  1.
          4    1    6    6  502    0  0.30921584950E+03 -0.39961983311E+03  0.15332153782E+04  0.16143295353E+04  0.00000000000E+00 0. -1.
         -3    1    6    6    0  502  0.25862748454E+01 -0.86868471770E+00  0.49786419538E-01  0.27287193703E+01  0.00000000000E+00 0.  1.
<mgrwt>
<rscale>  0 0.70462866E+03</rscale>
<asrwt>0</asrwt>
<pdfrwt beam="1">  1        1 0.37294732E+00 0.70462866E+03</pdfrwt>
<pdfrwt beam="2">  1       -2 0.45582799E-01 0.70462866E+03</pdfrwt>
<totfact> 0.64929642E+00</totfact>
</mgrwt>
</event>
<event>
12    3  0.2422421E-007  0.3913790E+03  0.7818608E-02  0.1046806E+00
         -2   -1    0    0    0  501 -0.00000000000E+00  0.00000000000E+00  0.64135881143E+02  0.64135881143E+02  0.00000000000E+00 0.  1.
          1   -1    0    0  501    0  0.00000000000E+00 -0.00000000000E+00 -0.26236524444E+04  0.26236524444E+04  0.00000000000E+00 0. -1.
        -24    2    1    2    0    0 -0.12436674771E+03 -0.11679372934E+03 -0.45599451483E+03  0.49374779630E+03  0.82146367220E+02 0.  0.
    5000000    2    1    2    0    0  0.12436674771E+03  0.11679372934E+03 -0.21035220485E+04  0.21940405293E+04  0.59991747148E+03 0.  0.
        -24    2    4    4    0    0  0.80209325125E+02  0.34308517105E+03 -0.98272334273E+03  0.10469961999E+04  0.79466369593E+02 0.  0.
         24    2    4    4    0    0  0.44157422589E+02 -0.22629144171E+03 -0.11207987057E+04  0.11470443293E+04  0.79770045395E+02 0.  0.
         13    1    5    5    0    0  0.64155139549E+02  0.25767104600E+03 -0.82797248910E+03  0.86951060522E+03  0.00000000000E+00 0. -1.
        -14    1    5    5    0    0  0.16054185576E+02  0.85414125052E+02 -0.15475085363E+03  0.17748559472E+03  0.00000000000E+00 0.  1.
         13    1    3    3    0    0 -0.11654997216E+03 -0.60335461350E+02 -0.34151149964E+03  0.36586113252E+03  0.00000000000E+00 0. -1.
        -14    1    3    3    0    0 -0.78167755504E+01 -0.56458267989E+02 -0.11448301520E+03  0.12788666378E+03  0.00000000000E+00 0.  1.
          4    1    6    6  502    0  0.62690803926E+02 -0.13401453803E+03 -0.61347691222E+03  0.63106572964E+03  0.00000000000E+00 0. -1.
         -3    1    6    6    0  502 -0.18533381337E+02 -0.92276903688E+02 -0.50732179352E+03  0.51597859971E+03  0.00000000000E+00 0.  1.
<mgrwt>
<rscale>  0 0.39137900E+03</rscale>
<asrwt>0</asrwt>
<pdfrwt beam="1">  1        1 0.40363889E+00 0.39137900E+03</pdfrwt>
<pdfrwt beam="2">  1       -2 0.98670575E-02 0.39137900E+03</pdfrwt>
<totfact> 0.75821971E+01</totfact>
</mgrwt>
</event>
<event>
12    3  0.2422421E-007  0.5970501E+03  0.7818608E-02  0.9911545E-01
         -2   -1    0    0    0  501 -0.00000000000E+00  0.00000000000E+00  0.16504161528E+03  0.16504161528E+03  0.00000000000E+00 0.  1.
          1   -1    0    0  501    0  0.00000000000E+00 -0.00000000000E+00 -0.35555162561E+04  0.35555162561E+04  0.00000000000E+00 0. -1.
        -24    2    1    2    0    0 -0.56760806421E+03 -0.28976722597E+00 -0.21872664155E+04  0.22611521038E+04  0.80594451948E+02 0.  0.
    5000000    2    1    2    0    0  0.56760806421E+03  0.28976722597E+00 -0.12032082253E+04  0.14594057676E+04  0.59998013503E+03 0.  0.
        -24    2    4    4    0    0  0.39757595628E+03 -0.11230903323E+03 -0.26781459537E+03  0.49882973027E+03  0.80165343849E+02 0.  0.
         24    2    4    4    0    0  0.17003210793E+03  0.11259880046E+03 -0.93539362994E+03  0.96057603729E+03  0.78458096442E+02 0.  0.
         11    1    5    5    0    0  0.82352866936E+02 -0.45450659751E+02 -0.31380359901E+02  0.99158883374E+02  0.00000000000E+00 0. -1.
        -12    1    5    5    0    0  0.31522308934E+03 -0.66858373480E+02 -0.23643423547E+03  0.39967084690E+03  0.00000000000E+00 0.  1.
         11    1    3    3    0    0 -0.98388090522E+02  0.24427635523E+02 -0.46648793269E+03  0.47737607510E+03  0.00000000000E+00 0. -1.
        -12    1    3    3    0    0 -0.46921997369E+03 -0.24717402749E+02 -0.17207784828E+04  0.17837760287E+04  0.00000000000E+00 0.  1.
          2    1    6    6  502    0  0.67329562517E+02  0.64160146392E+02 -0.58208247944E+03  0.58946569641E+03  0.00000000000E+00 0. -1.
         -1    1    6    6    0  502  0.10270254541E+03  0.48438654065E+02 -0.35331115050E+03  0.37111034088E+03  0.00000000000E+00 0.  1.
<mgrwt>
<rscale>  0 0.59705007E+03</rscale>
<asrwt>0</asrwt>
<pdfrwt beam="1">  1        1 0.54700248E+00 0.59705007E+03</pdfrwt>
<pdfrwt beam="2">  1       -2 0.25391019E-01 0.59705007E+03</pdfrwt>
<totfact> 0.30938358E+00</totfact>
</mgrwt>
</event>
<event>
12    3  0.2422421E-007  0.9696491E+03  0.7818608E-02  0.9342474E-01
          1   -1    0    0  501    0  0.00000000000E+00  0.00000000000E+00  0.15756609707E+04  0.15756609707E+04  0.00000000000E+00 0. -1.
         -2   -1    0    0    0  501 -0.00000000000E+00 -0.00000000000E+00 -0.64651199048E+03  0.64651199048E+03  0.00000000000E+00 0.  1.
        -24    2    1    2    0    0  0.44311579228E+03 -0.76645739154E+03  0.15578027076E+03  0.90240263539E+03  0.79085303275E+02 0.  0.
    5000000    2    1    2    0    0 -0.44311579228E+03  0.76645739154E+03  0.77336870949E+03  0.13197703258E+04  0.59990500387E+03 0.  0.
        -24    2    4    4    0    0 -0.44556998477E+03  0.84414476443E+03  0.69753421545E+03  0.11847518893E+04  0.77266181045E+02 0.  0.
         24    2    4    4    0    0  0.24541924978E+01 -0.77687372889E+02  0.75834494040E+02  0.13501843655E+03  0.80235632708E+02 0.  0.
         13    1    5    5    0    0 -0.11927066350E+03  0.15957779763E+03  0.15071159454E+03  0.24980902585E+03  0.00000000000E+00 0. -1.
        -14    1    5    5    0    0 -0.32629932127E+03  0.68456696680E+03  0.54682262091E+03  0.93494286341E+03  0.00000000000E+00 0.  1.
         13    1    3    3    0    0  0.24560234977E+03 -0.35440516187E+03  0.57466156550E+02  0.43500102543E+03  0.00000000000E+00 0. -1.
        -14    1    3    3    0    0  0.19751344250E+03 -0.41205222966E+03  0.98314114209E+02  0.46740160996E+03  0.00000000000E+00 0.  1.
          2    1    6    6  502    0 -0.23500782200E+02 -0.52016114420E+02  0.75334435973E+01  0.57573567683E+02  0.00000000000E+00 0. -1.
         -1    1    6    6    0  502  0.25954974698E+02 -0.25671258470E+02  0.68301050442E+02  0.77444868871E+02  0.00000000000E+00 0.  1.
<mgrwt>
<rscale>  0 0.96964912E+03</rscale>
<asrwt>0</asrwt>
<pdfrwt beam="1">  1        1 0.24240938E+00 0.96964912E+03</pdfrwt>
<pdfrwt beam="2">  1       -2 0.99463384E-01 0.96964912E+03</pdfrwt>
<totfact> 0.42785194E+00</totfact>
</mgrwt>
</event>
<event>
12    3  0.2422421E-007  0.3325229E+03  0.7818608E-02  0.1070026E+00
          1   -1    0    0  501    0  0.00000000000E+00  0.00000000000E+00  0.74875598896E+03  0.74875598896E+03  0.00000000000E+00 0. -1.
         -2   -1    0    0    0  501 -0.00000000000E+00 -0.00000000000E+00 -0.38481530214E+03  0.38481530214E+03  0.00000000000E+00 0.  1.
        -24    2    1    2    0    0 -0.25788490948E+03  0.20052670730E+03  0.29509691091E+03  0.44714398016E+03  0.78357930596E+02 0.  0.
    5000000    2    1    2    0    0  0.25788490948E+03 -0.20052670730E+03  0.68843775910E+02  0.68642731094E+03  0.59977279102E+03 0.  0.
        -24    2    4    4    0    0  0.58700975644E+02 -0.60088865520E+02  0.31398869001E+03  0.33343787013E+03  0.74400534157E+02 0.  0.
         24    2    4    4    0    0  0.19918393383E+03 -0.14043784178E+03 -0.24514491410E+03  0.35298944081E+03  0.71473698009E+02 0.  0.
         13    1    3    3    0    0 -0.15172416944E+03  0.14073739823E+03  0.13974000813E+03  0.24970884791E+03  0.00000000000E+00 0. -1.
        -14    1    3    3    0    0 -0.10616074004E+03  0.59789309073E+02  0.15535690278E+03  0.19743513225E+03  0.00000000000E+00 0.  1.
         13    1    5    5    0    0  0.52588147911E+02 -0.36419955669E+02  0.10447490124E+03  0.12250278144E+03  0.00000000000E+00 0. -1.
        -14    1    5    5    0    0  0.61128277333E+01 -0.23668909851E+02  0.20951378877E+03  0.21093508869E+03  0.00000000000E+00 0.  1.
          2    1    6    6  502    0  0.40526245272E+02 -0.82979242894E+01 -0.15516528238E+02  0.44181384676E+02  0.00000000000E+00 0. -1.
         -1    1    6    6    0  502  0.15865768856E+03 -0.13213991749E+03 -0.22962838587E+03  0.30880805613E+03  0.00000000000E+00 0.  1.
<mgrwt>
<rscale>  0 0.33252290E+03</rscale>
<asrwt>0</asrwt>
<pdfrwt beam="1">  1        1 0.11519323E+00 0.33252290E+03</pdfrwt>
<pdfrwt beam="2">  1       -2 0.59202354E-01 0.33252290E+03</pdfrwt>
<totfact> 0.61104976E+01</totfact>
</mgrwt>
</event>
<event>
12    3  0.2422421E-007  0.8812074E+03  0.7818608E-02  0.9449383E-01
          1   -1    0    0  501    0  0.00000000000E+00  0.00000000000E+00  0.21632593386E+04  0.21632593386E+04  0.00000000000E+00 0. -1.
         -2   -1    0    0    0  501 -0.00000000000E+00 -0.00000000000E+00 -0.68117168963E+03  0.68117168963E+03  0.00000000000E+00 0.  1.
        -24    2    1    2    0    0  0.82785618504E+03  0.15607885127E+03  0.15935428516E+04  0.18042837360E+04  0.79715176150E+02 0.  0.
    5000000    2    1    2    0    0 -0.82785618504E+03 -0.15607885127E+03 -0.11145520258E+03  0.10401472922E+04  0.59981468510E+03 0.  0.
        -24    2    4    4    0    0 -0.60355016709E+02 -0.11110029804E+03  0.16181941164E+03  0.22030641962E+03  0.79770873599E+02 0.  0.
         24    2    4    4    0    0 -0.76750116833E+03 -0.44978553232E+02 -0.27327461421E+03  0.81984087263E+03  0.79868191547E+02 0.  0.
         11    1    5    5    0    0 -0.76909862184E+02 -0.73050202576E+02  0.13131586632E+03  0.16880555603E+03  0.00000000000E+00 0. -1.
        -12    1    5    5    0    0  0.16554845475E+02 -0.38050095466E+02  0.30503545311E+02  0.51500863587E+02  0.00000000000E+00 0.  1.
         13    1    3    3    0    0  0.29398149065E+03  0.40069434322E+02  0.48805091621E+03  0.57116054943E+03  0.00000000000E+00 0. -1.
        -14    1    3    3    0    0  0.53387469439E+03  0.11600941695E+03  0.11054919353E+04  0.12331231866E+04  0.00000000000E+00 0.  1.
          4    1    6    6  502    0 -0.41269351257E+03 -0.58099758922E+02 -0.12532627188E+03  0.43519902542E+03  0.00000000000E+00 0. -1.
         -3    1    6    6    0  502 -0.35480765577E+03  0.13121205690E+02 -0.14794834233E+03  0.38464184721E+03  0.00000000000E+00 0.  1.
<mgrwt>
<rscale>  0 0.88120745E+03</rscale>
<asrwt>0</asrwt>
<pdfrwt beam="1">  1        1 0.33280913E+00 0.88120745E+03</pdfrwt>
<pdfrwt beam="2">  1       -2 0.10479565E+00 0.88120745E+03</pdfrwt>
<totfact> 0.15342143E+00</totfact>
</mgrwt>
</event>
<event>
12    3  0.2422421E-007  0.4688536E+03  0.7818608E-02  0.1022244E+00
         -2   -1    0    0    0  501 -0.00000000000E+00  0.00000000000E+00  0.24711150301E+03  0.24711150301E+03  0.00000000000E+00 0.  1.
          1   -1    0    0  501    0  0.00000000000E+00 -0.00000000000E+00 -0.10707642074E+04  0.10707642074E+04  0.00000000000E+00 0. -1.
        -24    2    1    2    0    0 -0.20480702534E+03  0.20051942673E+03 -0.57056569427E+02  0.30296019263E+03  0.79846528251E+02 0.  0.
    5000000    2    1    2    0    0  0.20480702534E+03 -0.20051942673E+03 -0.76659613496E+03  0.10149155178E+04  0.60019156605E+03 0.  0.
        -24    2    4    4    0    0  0.32523268254E+03  0.75385960463E+02 -0.31211392735E+03  0.46384136304E+03  0.79210893133E+02 0.  0.
         24    2    4    4    0    0 -0.12042565720E+03 -0.27590538720E+03 -0.45448220761E+03  0.55107415474E+03  0.80638237770E+02 0.  0.
         13    1    5    5    0    0  0.16816452963E+03  0.20861582098E+02 -0.10955009805E+03  0.20178141296E+03  0.00000000000E+00 0. -1.
        -14    1    5    5    0    0  0.15706815291E+03  0.54524378365E+02 -0.20256382929E+03  0.26205995008E+03  0.00000000000E+00 0.  1.
         13    1    3    3    0    0 -0.11007278203E+03  0.16053266721E+03 -0.40367685280E+02  0.19878708358E+03  0.00000000000E+00 0. -1.
        -14    1    3    3    0    0 -0.94734243315E+02  0.39986759526E+02 -0.16688884147E+02  0.10417310904E+03  0.00000000000E+00 0.  1.
          2    1    6    6  502    0 -0.81535392986E+02 -0.23176686886E+03 -0.31345068039E+03  0.39826527698E+03  0.00000000000E+00 0. -1.
         -1    1    6    6    0  502 -0.38890264213E+02 -0.44138518332E+02 -0.14103152722E+03  0.15280887776E+03  0.00000000000E+00 0.  1.
<mgrwt>
<rscale>  0 0.46885361E+03</rscale>
<asrwt>0</asrwt>
<pdfrwt beam="1">  1        1 0.16473296E+00 0.46885361E+03</pdfrwt>
<pdfrwt beam="2">  1       -2 0.38017154E-01 0.46885361E+03</pdfrwt>
<totfact> 0.80160985E+01</totfact>
</mgrwt>
</event>
<event>
12    3  0.2422421E-007  0.8767176E+03  0.7818608E-02  0.9455163E-01
          1   -1    0    0  501    0  0.00000000000E+00  0.00000000000E+00  0.28851472116E+04  0.28851472116E+04  0.00000000000E+00 0. -1.
         -2   -1    0    0    0  501 -0.00000000000E+00 -0.00000000000E+00 -0.42415702579E+03  0.42415702579E+03  0.00000000000E+00 0.  1.
        -24    2    1    2    0    0  0.52831596858E+03 -0.58394038867E+03  0.21189322396E+04  0.22619099840E+04  0.79112576358E+02 0.  0.
    5000000    2    1    2    0    0 -0.52831596858E+03  0.58394038867E+03  0.34205794627E+03  0.10473942534E+04  0.59993911630E+03 0.  0.
        -24    2    4    4    0    0 -0.42568854159E+02 -0.10177161560E+03  0.10604740317E+03  0.17066901106E+03  0.75579696552E+02 0.  0.
         24    2    4    4    0    0 -0.48574711442E+03  0.68571200427E+03  0.23601054310E+03  0.87672524233E+03  0.82431560204E+02 0.  0.
         11    1    5    5    0    0 -0.36962008525E+01 -0.79801720138E+02  0.96016660891E+02  0.12490466607E+03  0.00000000000E+00 0. -1.
        -12    1    5    5    0    0 -0.38872653307E+02 -0.21969895466E+02  0.10030742281E+02  0.45764344993E+02  0.00000000000E+00 0.  1.
         13    1    3    3    0    0  0.23087006605E+03 -0.27429643838E+03  0.10715219390E+04  0.11299109652E+04  0.00000000000E+00 0. -1.
        -14    1    3    3    0    0  0.29744590253E+03 -0.30964395029E+03  0.10474103006E+04  0.11319990189E+04  0.00000000000E+00 0.  1.
          2    1    6    6  502    0 -0.36112157419E+03  0.48344742250E+03  0.20410717847E+03  0.63701643775E+03  0.00000000000E+00 0. -1.
         -1    1    6    6    0  502 -0.12462554023E+03  0.20226458177E+03  0.31903364632E+02  0.23970880458E+03  0.00000000000E+00 0.  1.
<mgrwt>
<rscale>  0 0.87671759E+03</rscale>
<asrwt>0</asrwt>
<pdfrwt beam="1">  1        1 0.44386879E+00 0.87671759E+03</pdfrwt>
<pdfrwt beam="2">  1       -2 0.65254929E-01 0.87671759E+03</pdfrwt>
<totfact> 0.14355846E+00</totfact>
</mgrwt>
</event>
<event>
12    3  0.2422421E-007  0.3778148E+03  0.7818608E-02  0.1051744E+00
          1   -1    0    0  501    0  0.00000000000E+00  0.00000000000E+00  0.13366069782E+04  0.13366069782E+04  0.00000000000E+00 0. -1.
         -2   -1    0    0    0  501 -0.00000000000E+00 -0.00000000000E+00 -0.16872565219E+03  0.16872565219E+03  0.00000000000E+00 0.  1.
        -24    2    1    2    0    0 -0.81406004198E+02  0.25873788947E+03  0.44538533718E+03  0.52784729489E+03  0.81746163053E+02 0.  0.
    5000000    2    1    2    0    0  0.81406004198E+02 -0.25873788947E+03  0.72249598879E+03  0.97748533546E+03  0.59992073998E+03 0.  0.
        -24    2    4    4    0    0  0.65165086546E+02 -0.35048643337E+03  0.76494214431E+03  0.84791318218E+03  0.82055175988E+02 0.  0.
         24    2    4    4    0    0  0.16240917652E+02  0.91748543891E+02 -0.42446155519E+02  0.12957215328E+03  0.79408463493E+02 0.  0.
         11    1    3    3    0    0 -0.45167707788E+02  0.63842149025E+02  0.18287992988E+03  0.19889949867E+03  0.00000000000E+00 0. -1.
        -12    1    3    3    0    0 -0.36238296410E+02  0.19489574045E+03  0.26250540730E+03  0.32894779621E+03  0.00000000000E+00 0.  1.
         11    1    5    5    0    0  0.38468509529E+02 -0.14986832815E+03  0.24269197404E+03  0.28781892966E+03  0.00000000000E+00 0. -1.
        -12    1    5    5    0    0  0.26696577016E+02 -0.20061810522E+03  0.52225017027E+03  0.56009425253E+03  0.00000000000E+00 0.  1.
          4    1    6    6  502    0  0.48208111725E+02  0.60671865537E+02 -0.31605258305E+02  0.83689842014E+02  0.00000000000E+00 0. -1.
         -3    1    6    6    0  502 -0.31967194074E+02  0.31076678354E+02 -0.10840897214E+02  0.45882311263E+02  0.00000000000E+00 0.  1.
<mgrwt>
<rscale>  0 0.37781482E+03</rscale>
<asrwt>0</asrwt>
<pdfrwt beam="1">  1        1 0.20563184E+00 0.37781482E+03</pdfrwt>
<pdfrwt beam="2">  1       -2 0.25957794E-01 0.37781482E+03</pdfrwt>
<totfact> 0.10650878E+02</totfact>
</mgrwt>
</event>
<event>
12    3  0.2422421E-007  0.4498802E+03  0.7818608E-02  0.1027758E+00
          1   -1    0    0  501    0  0.00000000000E+00  0.00000000000E+00  0.30156398092E+04  0.30156398092E+04  0.00000000000E+00 0. -1.
         -2   -1    0    0    0  501 -0.00000000000E+00 -0.00000000000E+00 -0.78025781667E+02  0.78025781667E+02  0.00000000000E+00 0.  1.
        -24    2    1    2    0    0  0.14637836631E+03  0.20582571064E+03  0.13827339813E+04  0.14079464055E+04  0.81049172311E+02 0.  0.
    5000000    2    1    2    0    0 -0.14637836631E+03 -0.20582571064E+03  0.15548800463E+04  0.16857191854E+04  0.60017194585E+03 0.  0.
        -24    2    4    4    0    0 -0.92291208927E+02 -0.40827832235E+03  0.97890486917E+03  0.10676563367E+04  0.80165171581E+02 0.  0.
         24    2    4    4    0    0 -0.54087157379E+02  0.20245261171E+03  0.57597517709E+03  0.61806284870E+03  0.79635417577E+02 0.  0.
         13    1    5    5    0    0 -0.80650670033E+02 -0.18020803598E+03  0.43125556326E+03  0.47430035594E+03  0.00000000000E+00 0. -1.
        -14    1    5    5    0    0 -0.11640538894E+02 -0.22807028638E+03  0.54764930591E+03  0.59335598079E+03  0.00000000000E+00 0.  1.
         13    1    3    3    0    0  0.19857248281E+02 -0.30117625961E+01  0.14210673853E+03  0.14351900975E+03  0.00000000000E+00 0. -1.
        -14    1    3    3    0    0  0.12652111802E+03  0.20883747323E+03  0.12406272428E+04  0.12644273957E+04  0.00000000000E+00 0.  1.
          2    1    6    6  502    0 -0.32611368618E+02  0.10672570369E+03  0.41323499347E+03  0.42803859291E+03  0.00000000000E+00 0. -1.
         -1    1    6    6    0  502 -0.21475788761E+02  0.95726908027E+02  0.16274018361E+03  0.19002425578E+03  0.00000000000E+00 0.  1.
<mgrwt>
<rscale>  0 0.44988021E+03</rscale>
<asrwt>0</asrwt>
<pdfrwt beam="1">  1        1 0.46394450E+00 0.44988021E+03</pdfrwt>
<pdfrwt beam="2">  1       -2 0.12003969E-01 0.44988021E+03</pdfrwt>
<totfact> 0.29106861E+01</totfact>
</mgrwt>
</event>
<event>
12    3  0.2422421E-007  0.9261674E+03  0.7818608E-02  0.9393449E-01
          1   -1    0    0  501    0  0.00000000000E+00  0.00000000000E+00  0.21161501964E+04  0.21161501964E+04  0.00000000000E+00 0. -1.
         -2   -1    0    0    0  501 -0.00000000000E+00 -0.00000000000E+00 -0.54265752027E+03  0.54265752027E+03  0.00000000000E+00 0.  1.
        -24    2    1    2    0    0 -0.26814535053E+02  0.91330294465E+03  0.11854476833E+04  0.14988710172E+04  0.80540848888E+02 0.  0.
    5000000    2    1    2    0    0  0.26814535053E+02 -0.91330294465E+03  0.38804499276E+03  0.11599366994E+04  0.60002745124E+03 0.  0.
        -24    2    4    4    0    0 -0.70485341973E+02 -0.40185853204E+03  0.46924093011E+03  0.62713303940E+03  0.81549588674E+02 0.  0.
         24    2    4    4    0    0  0.97299877026E+02 -0.51144441261E+03 -0.81195937346E+02  0.53280366001E+03  0.79020925207E+02 0.  0.
         11    1    3    3    0    0 -0.25768994151E+02  0.47376767898E+03  0.67805782385E+03  0.82757613981E+03  0.00000000000E+00 0. -1.
        -12    1    3    3    0    0 -0.10455409024E+01  0.43953526567E+03  0.50738985950E+03  0.67129487742E+03  0.00000000000E+00 0.  1.
         13    1    5    5    0    0  0.13918286972E+02 -0.13718947672E+03  0.14337381006E+03  0.19892390668E+03  0.00000000000E+00 0. -1.
        -14    1    5    5    0    0 -0.84403628945E+02 -0.26466905532E+03  0.32586712005E+03  0.42820913272E+03  0.00000000000E+00 0.  1.
          2    1    6    6  502    0  0.22825969491E+02 -0.46909121985E+02  0.11181965319E+02  0.53352853316E+02  0.00000000000E+00 0. -1.
         -1    1    6    6    0  502  0.74473907535E+02 -0.46453529063E+03 -0.92377902665E+02  0.47945080670E+03  0.00000000000E+00 0.  1.
<mgrwt>
<rscale>  0 0.92616741E+03</rscale>
<asrwt>0</asrwt>
<pdfrwt beam="1">  1        1 0.32556157E+00 0.92616741E+03</pdfrwt>
<pdfrwt beam="2">  1       -2 0.83485773E-01 0.92616741E+03</pdfrwt>
<totfact> 0.27892308E+00</totfact>
</mgrwt>
</event>
<event>
12    3  0.2422421E-007  0.7597012E+03  0.7818608E-02  0.9620252E-01
          1   -1    0    0  501    0  0.00000000000E+00  0.00000000000E+00  0.22644967519E+04  0.22644967519E+04  0.00000000000E+00 0. -1.
         -2   -1    0    0    0  501 -0.00000000000E+00 -0.00000000000E+00 -0.32043013731E+03  0.32043013731E+03  0.00000000000E+00 0.  1.
        -24    2    1    2    0    0 -0.71238131314E+03  0.53038391568E+02  0.53953281511E+03  0.89880729559E+03  0.80365973773E+02 0.  0.
    5000000    2    1    2    0    0  0.71238131314E+03 -0.53038391568E+02  0.14045337994E+04  0.16861195936E+04  0.59998656967E+03 0.  0.
        -24    2    4    4    0    0  0.54992410630E+03  0.11239676409E+03  0.13058092950E+04  0.14235780178E+04  0.79918100485E+02 0.  0.
         24    2    4    4    0    0  0.16245720684E+03 -0.16543515566E+03  0.98724504477E+02  0.26254157574E+03  0.73623477421E+02 0.  0.
         13    1    5    5    0    0  0.28092612817E+03  0.43775352818E+02  0.75510371241E+03  0.80685648507E+03  0.00000000000E+00 0. -1.
        -14    1    5    5    0    0  0.26899797813E+03  0.68621411272E+02  0.55070558255E+03  0.61672153276E+03  0.00000000000E+00 0.  1.
         13    1    3    3    0    0 -0.52062792659E+03  0.35602834070E+02  0.34808832818E+03  0.62728501015E+03  0.00000000000E+00 0. -1.
        -14    1    3    3    0    0 -0.19175338655E+03  0.17435557498E+02  0.19144448693E+03  0.27152228545E+03  0.00000000000E+00 0.  1.
          4    1    6    6  502    0  0.16321502252E+02 -0.61833374630E+02  0.30546387085E+02  0.70871993184E+02  0.00000000000E+00 0. -1.
         -3    1    6    6    0  502  0.14613570458E+03 -0.10360178103E+03  0.68178117392E+02  0.19166958256E+03  0.00000000000E+00 0.  1.
<mgrwt>
<rscale>  0 0.75970123E+03</rscale>
<asrwt>0</asrwt>
<pdfrwt beam="1">  1        1 0.34838411E+00 0.75970123E+03</pdfrwt>
<pdfrwt beam="2">  1       -2 0.49296946E-01 0.75970123E+03</pdfrwt>
<totfact> 0.70445062E+00</totfact>
</mgrwt>
</event>
<event>
12    3  0.2726286E-007  0.6939600E+03  0.7818608E-02  0.9727617E-01
         -2   -1    0    0    0  501 -0.00000000000E+00  0.00000000000E+00  0.29382125154E+03  0.29382125154E+03  0.00000000000E+00 0.  1.
          1   -1    0    0  501    0  0.00000000000E+00 -0.00000000000E+00 -0.17207468368E+04  0.17207468368E+04  0.00000000000E+00 0. -1.
        -24    2    1    2    0    0 -0.58066257816E+03 -0.17600081191E+02 -0.56223177371E+03  0.81239178568E+03  0.79981582568E+02 0.  0.
    5000000    2    1    2    0    0  0.58066257816E+03  0.17600081191E+02 -0.86469381160E+03  0.12021763027E+04  0.60004473368E+03 0.  0.
        -24    2    4    4    0    0  0.65127638439E+03  0.10825673800E+03 -0.57072318542E+03  0.87615001476E+03  0.77675245798E+02 0.  0.
         24    2    4    4    0    0 -0.70613806232E+02 -0.90656656807E+02 -0.29397062619E+03  0.32602628794E+03  0.81666837281E+02 0.  0.
         11    1    5    5    0    0  0.38429309649E+03  0.10218758588E+03 -0.33534779218E+03  0.52017461341E+03  0.00000000000E+00 0. -1.
        -12    1    5    5    0    0  0.26698328791E+03  0.60691521164E+01 -0.23537539323E+03  0.35597540135E+03  0.00000000000E+00 0.  1.
         13    1    3    3    0    0 -0.13904653250E+03  0.29460623418E+02 -0.12826745065E+03  0.19145340276E+03  0.00000000000E+00 0. -1.
        -14    1    3    3    0    0 -0.44161604566E+03 -0.47060704609E+02 -0.43396432306E+03  0.62093838292E+03  0.00000000000E+00 0.  1.
          4    1    6    6  502    0 -0.67399844141E+02 -0.26010504594E+02 -0.11607203659E+03  0.13671870032E+03  0.00000000000E+00 0. -1.
         -3    1    6    6    0  502 -0.32139620914E+01 -0.64646152213E+02 -0.17789858960E+03  0.18930758762E+03  0.00000000000E+00 0.  1.
<mgrwt>
<rscale>  0 0.69396003E+03</rscale>
<asrwt>0</asrwt>
<pdfrwt beam="1">  1        1 0.26473028E+00 0.69396003E+03</pdfrwt>
<pdfrwt beam="2">  1       -2 0.45203270E-01 0.69396003E+03</pdfrwt>
<totfact> 0.19576165E+01</totfact>
</mgrwt>
</event>
<event>
12    3  0.2422421E-007  0.5441708E+03  0.7818608E-02  0.1002852E+00
         -2   -1    0    0    0  501 -0.00000000000E+00  0.00000000000E+00  0.49453665684E+03  0.49453665684E+03  0.00000000000E+00 0.  1.
          1   -1    0    0  501    0  0.00000000000E+00 -0.00000000000E+00 -0.70953040496E+03  0.70953040496E+03  0.00000000000E+00 0. -1.
        -24    2    1    2    0    0  0.18455694910E+02  0.43012208873E+03 -0.11513066609E+02  0.43803936565E+03  0.80001945407E+02 0.  0.
    5000000    2    1    2    0    0 -0.18455694910E+02 -0.43012208873E+03 -0.20348068151E+03  0.76602769614E+03  0.60004034833E+03 0.  0.
        -24    2    4    4    0    0  0.21868053610E+03 -0.12029280063E+03  0.84548501966E+02  0.27507433315E+03  0.78904403023E+02 0.  0.
         24    2    4    4    0    0 -0.23713623101E+03 -0.30982928810E+03 -0.28802918348E+03  0.49095336299E+03  0.76463156360E+02 0.  0.
         13    1    3    3    0    0 -0.15566492169E+02  0.35048749423E+03 -0.17205770155E+02  0.35125466234E+03  0.00000000000E+00 0. -1.
        -14    1    3    3    0    0  0.34022187079E+02  0.79634594501E+02  0.56927035461E+01  0.86784703310E+02  0.00000000000E+00 0.  1.
         13    1    5    5    0    0  0.16839281286E+03 -0.53989691008E+02  0.71934982042E+02  0.19090748492E+03  0.00000000000E+00 0. -1.
        -14    1    5    5    0    0  0.50287723244E+02 -0.66303109627E+02  0.12613519923E+02  0.84166848225E+02  0.00000000000E+00 0.  1.
          2    1    6    6  502    0 -0.10629461190E+03 -0.15803326307E+03 -0.18542410865E+03  0.26581037757E+03  0.00000000000E+00 0. -1.
         -3    1    6    6    0  502 -0.13084161911E+03 -0.15179602502E+03 -0.10260507483E+03  0.22514298542E+03  0.00000000000E+00 0.  1.
<mgrwt>
<rscale>  0 0.54417083E+03</rscale>
<asrwt>0</asrwt>
<pdfrwt beam="1">  1        1 0.10915852E+00 0.54417083E+03</pdfrwt>
<pdfrwt beam="2">  1       -2 0.76082563E-01 0.54417083E+03</pdfrwt>
<totfact> 0.37593514E+01</totfact>
</mgrwt>
</event>
<event>
12    3  0.2422421E-007  0.6888866E+03  0.7818608E-02  0.9736429E-01
         -2   -1    0    0    0  501 -0.00000000000E+00  0.00000000000E+00  0.53290014552E+03  0.53290014552E+03  0.00000000000E+00 0.  1.
          1   -1    0    0  501    0  0.00000000000E+00 -0.00000000000E+00 -0.92038048876E+03  0.92038048876E+03  0.00000000000E+00 0. -1.
        -24    2    1    2    0    0  0.56827410673E+03  0.16863515600E+02 -0.15418460969E+03  0.59440760899E+03  0.79546673232E+02 0.  0.
    5000000    2    1    2    0    0 -0.56827410673E+03 -0.16863515600E+02 -0.23329573355E+03  0.85887302529E+03  0.60001344630E+03 0.  0.
        -24    2    4    4    0    0 -0.58462035699E+03  0.17393121929E+03 -0.21058434493E+03  0.65023212905E+03  0.80143773693E+02 0.  0.
         24    2    4    4    0    0  0.16346250263E+02 -0.19079473489E+03 -0.22711388618E+02  0.20864089624E+03  0.79657928996E+02 0.  0.
         11    1    3    3    0    0  0.13025746981E+03 -0.15051499284E+02 -0.73363874304E+01  0.13132927569E+03  0.00000000000E+00 0. -1.
        -12    1    3    3    0    0  0.43801663691E+03  0.31915014884E+02 -0.14684822226E+03  0.46307833330E+03  0.00000000000E+00 0.  1.
         13    1    5    5    0    0 -0.28073668804E+03  0.41947182748E+02 -0.10017763894E+03  0.30101198231E+03  0.00000000000E+00 0. -1.
        -14    1    5    5    0    0 -0.30388366896E+03  0.13198403654E+03 -0.11040670599E+03  0.34922014674E+03  0.00000000000E+00 0.  1.
          4    1    6    6  502    0 -0.32465394041E+01 -0.56528910949E+02  0.28773762572E+02  0.63513677297E+02  0.00000000000E+00 0. -1.
         -3    1    6    6    0  502  0.19592789667E+02 -0.13426582394E+03 -0.51485151190E+02  0.14512721894E+03  0.00000000000E+00 0.  1.
<mgrwt>
<rscale>  0 0.68888662E+03</rscale>
<asrwt>0</asrwt>
<pdfrwt beam="1">  1        1 0.14159700E+00 0.68888662E+03</pdfrwt>
<pdfrwt beam="2">  1       -2 0.81984638E-01 0.68888662E+03</pdfrwt>
<totfact> 0.20659043E+01</totfact>
</mgrwt>
</event>
<event>
12    3  0.2422421E-007  0.5143380E+03  0.7818608E-02  0.1010103E+00
          1   -1    0    0  501    0  0.00000000000E+00  0.00000000000E+00  0.14306609527E+04  0.14306609527E+04  0.00000000000E+00 0. -1.
         -2   -1    0    0    0  501 -0.00000000000E+00 -0.00000000000E+00 -0.26304629848E+03  0.26304629848E+03  0.00000000000E+00 0.  1.
        -24    2    1    2    0    0  0.34296886699E+03 -0.55161337306E+02  0.25444176801E+02  0.35771172883E+03  0.81485323557E+02 0.  0.
    5000000    2    1    2    0    0 -0.34296886699E+03  0.55161337306E+02  0.11421704774E+04  0.13359955224E+04  0.59971678264E+03 0.  0.
        -24    2    4    4    0    0 -0.41216558648E+03 -0.15697782658E+03  0.83505549478E+03  0.94814663502E+03  0.84509487107E+02 0.  0.
         24    2    4    4    0    0  0.69196719493E+02  0.21213916388E+03  0.30711498265E+03  0.38784888734E+03  0.79472863298E+02 0.  0.
         13    1    3    3    0    0  0.22951032837E+03  0.12066732060E+01  0.64308729355E+01  0.22960357796E+03  0.00000000000E+00 0. -1.
        -14    1    3    3    0    0  0.11345853862E+03 -0.56368010512E+02  0.19013303866E+02  0.12810815087E+03  0.00000000000E+00 0.  1.
         13    1    5    5    0    0 -0.26686944015E+03 -0.71140437083E+02  0.45425312034E+03  0.53162595611E+03  0.00000000000E+00 0. -1.
        -14    1    5    5    0    0 -0.14529614634E+03 -0.85837389495E+02  0.38080237444E+03  0.41652067891E+03  0.00000000000E+00 0.  1.
          2    1    6    6  502    0 -0.24762840635E+01  0.52247378645E+02  0.30919772207E+02  0.60761442308E+02  0.00000000000E+00 0. -1.
         -1    1    6    6    0  502  0.71673003556E+02  0.15989178524E+03  0.27619521045E+03  0.32708744504E+03  0.00000000000E+00 0.  1.
<mgrwt>
<rscale>  0 0.51433800E+03</rscale>
<asrwt>0</asrwt>
<pdfrwt beam="1">  1        1 0.22010168E+00 0.51433800E+03</pdfrwt>
<pdfrwt beam="2">  1       -2 0.40468662E-01 0.51433800E+03</pdfrwt>
<totfact> 0.39245257E+01</totfact>
</mgrwt>
</event>
<event>
12    3  0.2422421E-007  0.6202147E+03  0.7818608E-02  0.9864332E-01
         -2   -1    0    0    0  501 -0.00000000000E+00  0.00000000000E+00  0.33171948515E+03  0.33171948515E+03  0.00000000000E+00 0.  1.
          1   -1    0    0  501    0  0.00000000000E+00 -0.00000000000E+00 -0.17858365302E+04  0.17858365302E+04  0.00000000000E+00 0. -1.
        -24    2    1    2    0    0 -0.26304027299E+03  0.49356869595E+03 -0.10740756251E+04  0.12135018770E+04  0.78409911295E+02 0.  0.
    5000000    2    1    2    0    0  0.26304027299E+03 -0.49356869595E+03 -0.38004141999E+03  0.90405413840E+03  0.60006846393E+03 0.  0.
        -24    2    4    4    0    0  0.20529322078E+03 -0.54097302206E+03 -0.47891498909E+03  0.75535710660E+03  0.80047952009E+02 0.  0.
         24    2    4    4    0    0  0.57747052209E+02  0.47404326113E+02  0.98873569095E+02  0.14869703180E+03  0.82176227870E+02 0.  0.
         13    1    3    3    0    0 -0.20108506134E+03  0.38590725587E+03 -0.89967759746E+03  0.99938950935E+03  0.00000000000E+00 0. -1.
        -14    1    3    3    0    0 -0.61955211656E+02  0.10766144008E+03 -0.17439802760E+03  0.21411236761E+03  0.00000000000E+00 0.  1.
         13    1    5    5    0    0  0.11169865102E+03 -0.19546891999E+03 -0.16318789869E+03  0.27805570953E+03  0.00000000000E+00 0. -1.
        -14    1    5    5    0    0  0.93594569766E+02 -0.34550410207E+03 -0.31572709040E+03  0.47730139707E+03  0.00000000000E+00 0.  1.
          4    1    6    6  502    0  0.59392417088E+02  0.96395720622E+01  0.23917691327E+02  0.64749027140E+02  0.00000000000E+00 0. -1.
         -3    1    6    6    0  502 -0.16453648795E+01  0.37764754051E+02  0.74955877768E+02  0.83948004658E+02  0.00000000000E+00 0.  1.
<mgrwt>
<rscale>  0 0.62021474E+03</rscale>
<asrwt>0</asrwt>
<pdfrwt beam="1">  1        1 0.27474408E+00 0.62021474E+03</pdfrwt>
<pdfrwt beam="2">  1       -2 0.51033767E-01 0.62021474E+03</pdfrwt>
<totfact> 0.14023203E+01</totfact>
</mgrwt>
</event>
<event>
12    3  0.2422421E-007  0.7539507E+03  0.7818608E-02  0.9629173E-01
         -2   -1    0    0    0  501 -0.00000000000E+00  0.00000000000E+00  0.98832415953E+03  0.98832415953E+03  0.00000000000E+00 0.  1.
          1   -1    0    0  501    0  0.00000000000E+00 -0.00000000000E+00 -0.83758051869E+03  0.83758051869E+03  0.00000000000E+00 0. -1.
        -24    2    1    2    0    0 -0.69172784563E+03  0.25129687165E+03 -0.27092806116E+03  0.78688323516E+03  0.64386965468E+02 0.  0.
    5000000    2    1    2    0    0  0.69172784563E+03 -0.25129687165E+03  0.42167170200E+03  0.10390214431E+04  0.60010082882E+03 0.  0.
        -24    2    4    4    0    0  0.58722732889E+02 -0.10294963157E+03 -0.12082046747E+03  0.18851156688E+03  0.83018308177E+02 0.  0.
         24    2    4    4    0    0  0.63300511274E+03 -0.14834724008E+03  0.54249216947E+03  0.85050987618E+03  0.79792976794E+02 0.  0.
         11    1    5    5    0    0  0.12535706757E+02 -0.48780562444E+02 -0.25002921730E+01  0.50427558707E+02  0.00000000000E+00 0. -1.
        -12    1    5    5    0    0  0.46187026133E+02 -0.54169069121E+02 -0.11832017529E+03  0.13808400818E+03  0.00000000000E+00 0.  1.
         13    1    3    3    0    0 -0.10520317693E+03  0.40353690138E+02 -0.66874757635E+02  0.13102809605E+03  0.00000000000E+00 0. -1.
        -14    1    3    3    0    0 -0.58652466870E+03  0.21094318151E+03 -0.20405330353E+03  0.65585513911E+03  0.00000000000E+00 0.  1.
          2    1    6    6  502    0  0.21379370811E+03 -0.58190608669E+02  0.13798170202E+03  0.26102269376E+03  0.00000000000E+00 0. -1.
         -1    1    6    6    0  502  0.41921140463E+03 -0.90156631414E+02  0.40451046745E+03  0.58948718242E+03  0.00000000000E+00 0.  1.
<mgrwt>
<rscale>  0 0.75395070E+03</rscale>
<asrwt>0</asrwt>
<pdfrwt beam="1">  1        1 0.12885854E+00 0.75395070E+03</pdfrwt>
<pdfrwt beam="2">  1       -2 0.15204987E+00 0.75395070E+03</pdfrwt>
<totfact> 0.53175738E+00</totfact>
</mgrwt>
</event>
<event>
12    3  0.2422421E-007  0.6288131E+03  0.7818608E-02  0.9847368E-01
          1   -1    0    0  501    0  0.00000000000E+00  0.00000000000E+00  0.80556206292E+03  0.80556206292E+03  0.00000000000E+00 0. -1.
         -2   -1    0    0    0  501 -0.00000000000E+00 -0.00000000000E+00 -0.73119450124E+03  0.73119450124E+03  0.00000000000E+00 0.  1.
        -24    2    1    2    0    0 -0.28112435959E+02 -0.59873399346E+03  0.27658979564E+03  0.66494330533E+03  0.79843473532E+02 0.  0.
    5000000    2    1    2    0    0  0.28112435959E+02  0.59873399346E+03 -0.20222223396E+03  0.87181325883E+03  0.59990984521E+03 0.  0.
        -24    2    4    4    0    0  0.29850242285E+02  0.57575673451E+03  0.70956473608E+02  0.58639391241E+03  0.80225588589E+02 0.  0.
         24    2    4    4    0    0 -0.17378063261E+01  0.22977258955E+02 -0.27317870756E+03  0.28541934642E+03  0.79414247121E+02 0.  0.
         11    1    5    5    0    0  0.20311053109E+02  0.31472802146E+03 -0.12838167155E+01  0.31538534296E+03  0.00000000000E+00 0. -1.
        -12    1    5    5    0    0  0.95391891766E+01  0.26102871305E+03  0.72240290323E+02  0.27100856944E+03  0.00000000000E+00 0.  1.
         13    1    3    3    0    0 -0.77446031421E+01 -0.34492982056E+02  0.38266875227E+02  0.52097009785E+02  0.00000000000E+00 0. -1.
        -14    1    3    3    0    0 -0.20367832817E+02 -0.56424101141E+03  0.23832292041E+03  0.61284629554E+03  0.00000000000E+00 0.  1.
          2    1    6    6  502    0  0.12051247362E+02  0.49629856624E+02 -0.19780038097E+03  0.20428741014E+03  0.00000000000E+00 0. -1.
         -1    1    6    6    0  502 -0.13789053688E+02 -0.26652597669E+02 -0.75378326595E+02  0.81131936279E+02  0.00000000000E+00 0.  1.
<mgrwt>
<rscale>  0 0.62881315E+03</rscale>
<asrwt>0</asrwt>
<pdfrwt beam="1">  1        1 0.12393262E+00 0.62881315E+03</pdfrwt>
<pdfrwt beam="2">  1       -2 0.11249146E+00 0.62881315E+03</pdfrwt>
<totfact> 0.12352493E+01</totfact>
</mgrwt>
</event>
<event>
12    3  0.2422421E-007  0.1099008E+04  0.7818608E-02  0.9206160E-01
          1   -1    0    0  501    0  0.00000000000E+00  0.00000000000E+00  0.18983914459E+04  0.18983914459E+04  0.00000000000E+00 0. -1.
         -2   -1    0    0    0  501 -0.00000000000E+00 -0.00000000000E+00 -0.67290949292E+03  0.67290949292E+03  0.00000000000E+00 0.  1.
        -24    2    1    2    0    0  0.10173328925E+04  0.77082307187E+02  0.84762255259E+03  0.13288161169E+04  0.79877309328E+02 0.  0.
    5000000    2    1    2    0    0 -0.10173328925E+04 -0.77082307187E+02  0.37785940038E+03  0.12424848219E+04  0.60006908764E+03 0.  0.
        -24    2    4    4    0    0 -0.51244461903E+03 -0.32456058486E+03  0.14164531655E+03  0.62735209453E+03  0.74620332336E+02 0.  0.
         24    2    4    4    0    0 -0.50488827350E+03  0.24747827767E+03  0.23621408384E+03  0.61513272739E+03  0.80209178192E+02 0.  0.
         11    1    5    5    0    0 -0.10338150065E+03 -0.99988365818E+02  0.20940138140E+02  0.14534062530E+03  0.00000000000E+00 0. -1.
        -12    1    5    5    0    0 -0.40906311838E+03 -0.22457221904E+03  0.12070517841E+03  0.48201146924E+03  0.00000000000E+00 0.  1.
         13    1    3    3    0    0  0.12109533691E+03 -0.14340597653E+02  0.87383251776E+02  0.15001855237E+03  0.00000000000E+00 0. -1.
        -14    1    3    3    0    0  0.89623755562E+03  0.91422904840E+02  0.76023930081E+03  0.11787975645E+04  0.00000000000E+00 0.  1.
          4    1    6    6  502    0 -0.43797455759E+03  0.23357140142E+03  0.18495887065E+03  0.52970472576E+03  0.00000000000E+00 0. -1.
         -3    1    6    6    0  502 -0.66913715913E+02  0.13906876250E+02  0.51255213190E+02  0.85428001636E+02  0.00000000000E+00 0.  1.
<mgrwt>
<rscale>  0 0.10990076E+04</rscale>
<asrwt>0</asrwt>
<pdfrwt beam="1">  1        1 0.29206022E+00 0.10990076E+04</pdfrwt>
<pdfrwt beam="2">  1       -2 0.10352454E+00 0.10990076E+04</pdfrwt>
<totfact> 0.23138098E+00</totfact>
</mgrwt>
</event>
<event>
12    3  0.2422421E-007  0.5984890E+03  0.7818608E-02  0.9908546E-01
         -2   -1    0    0    0  501 -0.00000000000E+00  0.00000000000E+00  0.16674118025E+04  0.16674118025E+04  0.00000000000E+00 0.  1.
          1   -1    0    0  501    0  0.00000000000E+00 -0.00000000000E+00 -0.36503681362E+03  0.36503681362E+03  0.00000000000E+00 0. -1.
        -24    2    1    2    0    0  0.41221727374E+02 -0.57958700070E+03  0.14333569786E+03  0.60379301192E+03  0.80003479729E+02 0.  0.
    5000000    2    1    2    0    0 -0.41221727374E+02  0.57958700070E+03  0.11590392911E+04  0.14286556042E+04  0.60005369351E+03 0.  0.
        -24    2    4    4    0    0  0.52606930871E+01  0.16226016445E+02 -0.47135202118E+02  0.94646382928E+02  0.80282326955E+02 0.  0.
         24    2    4    4    0    0 -0.46482420461E+02  0.56336098426E+03  0.12061744932E+04  0.13340092213E+04  0.72024166329E+02 0.  0.
         11    1    3    3    0    0  0.24321364614E+02 -0.37156257719E+03  0.13096188092E+03  0.39471672349E+03  0.00000000000E+00 0. -1.
        -12    1    3    3    0    0  0.16900362760E+02 -0.20802442351E+03  0.12373816942E+02  0.20907628843E+03  0.00000000000E+00 0.  1.
         13    1    5    5    0    0  0.23514554128E+02  0.15300937117E+02 -0.63936147507E+02  0.69820368737E+02  0.00000000000E+00 0. -1.
        -14    1    5    5    0    0 -0.18253861041E+02  0.92507932763E+00  0.16800945389E+02  0.24826014191E+02  0.00000000000E+00 0.  1.
          4    1    6    6  502    0  0.10892285472E+02  0.29274226441E+03  0.59995186160E+03  0.66765178911E+03  0.00000000000E+00 0. -1.
         -3    1    6    6    0  502 -0.57374705932E+02  0.27061871985E+03  0.60622263157E+03  0.66635743219E+03  0.00000000000E+00 0.  1.
<mgrwt>
<rscale>  0 0.59848904E+03</rscale>
<asrwt>0</asrwt>
<pdfrwt beam="1">  1        1 0.56159511E-01 0.59848904E+03</pdfrwt>
<pdfrwt beam="2">  1       -2 0.25652489E+00 0.59848904E+03</pdfrwt>
<totfact> 0.36718740E+00</totfact>
</mgrwt>
</event>
<event>
12    3  0.2422421E-007  0.4444700E+03  0.7818608E-02  0.1029384E+00
         -2   -1    0    0    0  501 -0.00000000000E+00  0.00000000000E+00  0.36196641902E+03  0.36196641902E+03  0.00000000000E+00 0.  1.
          1   -1    0    0  501    0  0.00000000000E+00 -0.00000000000E+00 -0.79728978947E+03  0.79728978947E+03  0.00000000000E+00 0. -1.
        -24    2    1    2    0    0 -0.28796005364E+03  0.18037717938E+03 -0.29176006190E+03  0.45491906761E+03  0.79815443479E+02 0.  0.
    5000000    2    1    2    0    0  0.28796005364E+03 -0.18037717938E+03 -0.14356330855E+03  0.70433714087E+03  0.60001955394E+03 0.  0.
        -24    2    4    4    0    0  0.34980517347E+03 -0.23234362629E+03 -0.29165427036E+03  0.51744244238E+03  0.79606831932E+02 0.  0.
         24    2    4    4    0    0 -0.61845119824E+02  0.51966446912E+02  0.14809096181E+03  0.18689469850E+03  0.80457224078E+02 0.  0.
         11    1    3    3    0    0 -0.16849769224E+03  0.15042536467E+03 -0.18978126988E+03  0.29501897062E+03  0.00000000000E+00 0. -1.
        -12    1    3    3    0    0 -0.11946236140E+03  0.29951814715E+02 -0.10197879202E+03  0.15990009699E+03  0.00000000000E+00 0.  1.
         13    1    5    5    0    0  0.88207090886E+02 -0.98282086033E+02 -0.71363126517E+02  0.15010847792E+03  0.00000000000E+00 0. -1.
        -14    1    5    5    0    0  0.26159808258E+03 -0.13406154026E+03 -0.22029114384E+03  0.36733396446E+03  0.00000000000E+00 0.  1.
          4    1    6    6  502    0  0.10525292338E+02 -0.12942507549E+02  0.24770884689E+02  0.29864477373E+02  0.00000000000E+00 0. -1.
         -3    1    6    6    0  502 -0.72370412162E+02  0.64908954461E+02  0.12332007712E+03  0.15703022112E+03  0.00000000000E+00 0.  1.
<mgrwt>
<rscale>  0 0.44446999E+03</rscale>
<asrwt>0</asrwt>
<pdfrwt beam="1">  1        1 0.12265997E+00 0.44446999E+03</pdfrwt>
<pdfrwt beam="2">  1       -2 0.55687142E-01 0.44446999E+03</pdfrwt>
<totfact> 0.61958451E+01</totfact>
</mgrwt>
</event>
<event>
12    3  0.2422421E-007  0.1005659E+04  0.7818608E-02  0.9302360E-01
          1   -1    0    0  501    0  0.00000000000E+00  0.00000000000E+00  0.18903540847E+04  0.18903540847E+04  0.00000000000E+00 0. -1.
         -2   -1    0    0    0  501 -0.00000000000E+00 -0.00000000000E+00 -0.76931732954E+03  0.76931732954E+03  0.00000000000E+00 0.  1.
        -24    2    1    2    0    0  0.63302848932E+02  0.92267131807E+03 -0.18939825458E+03  0.94720494130E+03  0.77433133181E+02 0.  0.
    5000000    2    1    2    0    0 -0.63302848932E+02 -0.92267131807E+03  0.13104350098E+04  0.17124664730E+04  0.59997657820E+03 0.  0.
        -24    2    4    4    0    0 -0.30743687853E+03 -0.56840562184E+03  0.64806419555E+03  0.91870207735E+03  0.80149361515E+02 0.  0.
         24    2    4    4    0    0  0.24413402960E+03 -0.35426569622E+03  0.66237081422E+03  0.79376439563E+03  0.78874661994E+02 0.  0.
         11    1    3    3    0    0  0.59384201208E+02  0.32803814739E+03 -0.73217885165E+02  0.34131564307E+03  0.00000000000E+00 0. -1.
        -12    1    3    3    0    0  0.39186477238E+01  0.59463317068E+03 -0.11618036941E+03  0.60588929823E+03  0.00000000000E+00 0.  1.
         11    1    5    5    0    0 -0.20210948547E+03 -0.31399584067E+03  0.41162966338E+03  0.55577028695E+03  0.00000000000E+00 0. -1.
        -12    1    5    5    0    0 -0.10532739306E+03 -0.25440978117E+03  0.23643453216E+03  0.36293179040E+03  0.00000000000E+00 0.  1.
          4    1    6    6  502    0  0.20159166565E+03 -0.32653078950E+03  0.61110534396E+03  0.72160328268E+03  0.00000000000E+00 0. -1.
         -3    1    6    6    0  502  0.42542363950E+02 -0.27734906720E+02  0.51265470262E+02  0.72161112952E+02  0.00000000000E+00 0.  1.
<mgrwt>
<rscale>  0 0.10056586E+04</rscale>
<asrwt>0</asrwt>
<pdfrwt beam="1">  1        1 0.29082371E+00 0.10056586E+04</pdfrwt>
<pdfrwt beam="2">  1       -2 0.11835651E+00 0.10056586E+04</pdfrwt>
<totfact> 0.17101088E+00</totfact>
</mgrwt>
</event>
<event>
12    3  0.2422421E-007  0.9419444E+03  0.7818608E-02  0.9374616E-01
         -2   -1    0    0    0  501 -0.00000000000E+00  0.00000000000E+00  0.15308997322E+04  0.15308997322E+04  0.00000000000E+00 0.  1.
          1   -1    0    0  501    0  0.00000000000E+00 -0.00000000000E+00 -0.12498719151E+04  0.12498719151E+04  0.00000000000E+00 0. -1.
        -24    2    1    2    0    0 -0.87232391056E+03  0.30699133032E+03 -0.80844658486E+03  0.12308933317E+04  0.79497368729E+02 0.  0.
    5000000    2    1    2    0    0  0.87232391056E+03 -0.30699133032E+03  0.10894744020E+04  0.15498783156E+04  0.59997969856E+03 0.  0.
        -24    2    4    4    0    0  0.69725768483E+03 -0.14435763817E+03  0.41097209453E+03  0.82617551627E+03  0.81611974898E+02 0.  0.
         24    2    4    4    0    0  0.17506622573E+03 -0.16263369215E+03  0.67850230742E+03  0.72370279929E+03  0.79261966333E+02 0.  0.
         11    1    3    3    0    0 -0.41299664837E+03  0.10927473077E+03 -0.39945827689E+03  0.58487102281E+03  0.00000000000E+00 0. -1.
        -12    1    3    3    0    0 -0.45932726219E+03  0.19771659956E+03 -0.40898830797E+03  0.64602230889E+03  0.00000000000E+00 0.  1.
         13    1    5    5    0    0  0.13419247959E+03  0.45824380426E+01  0.78182444815E+02  0.15537411301E+03  0.00000000000E+00 0. -1.
        -14    1    5    5    0    0  0.56306520524E+03 -0.14894007621E+03  0.33278964972E+03  0.67080140326E+03  0.00000000000E+00 0.  1.
          4    1    6    6  502    0  0.14085097645E+03 -0.11854398623E+03  0.59838285208E+03  0.62606206714E+03  0.00000000000E+00 0. -1.
         -3    1    6    6    0  502  0.34215249280E+02 -0.44089705925E+02  0.80119455340E+02  0.97640732155E+02  0.00000000000E+00 0.  1.
<mgrwt>
<rscale>  0 0.94194441E+03</rscale>
<asrwt>0</asrwt>
<pdfrwt beam="1">  1        1 0.19228799E+00 0.94194441E+03</pdfrwt>
<pdfrwt beam="2">  1       -2 0.23552304E+00 0.94194441E+03</pdfrwt>
<totfact> 0.68698825E-01</totfact>
</mgrwt>
</event>
<event>
12    3  0.2422421E-007  0.8586671E+03  0.7818608E-02  0.9478778E-01
          1   -1    0    0  501    0  0.00000000000E+00  0.00000000000E+00  0.19315454403E+04  0.19315454403E+04  0.00000000000E+00 0. -1.
         -2   -1    0    0    0  501 -0.00000000000E+00 -0.00000000000E+00 -0.40096247801E+03  0.40096247801E+03  0.00000000000E+00 0.  1.
        -24    2    1    2    0    0  0.73314819131E+03 -0.22877274721E+03  0.82133065093E+03  0.11272694434E+04  0.79429965764E+02 0.  0.
    5000000    2    1    2    0    0 -0.73314819131E+03  0.22877274721E+03  0.70925231134E+03  0.12052384749E+04  0.59976470391E+03 0.  0.
        -24    2    4    4    0    0 -0.51836927859E+03  0.40576283849E+03  0.36787263206E+03  0.75829134750E+03  0.79531780948E+02 0.  0.
         24    2    4    4    0    0 -0.21477891272E+03 -0.17699009128E+03  0.34137967927E+03  0.44694712744E+03  0.75935337941E+02 0.  0.
         11    1    5    5    0    0 -0.25884770308E+03  0.16242011819E+03  0.14274476939E+03  0.33728103619E+03  0.00000000000E+00 0. -1.
        -12    1    5    5    0    0 -0.25952157552E+03  0.24334272030E+03  0.22512786267E+03  0.42101031132E+03  0.00000000000E+00 0.  1.
         11    1    3    3    0    0  0.12913371433E+03 -0.70533489603E+02  0.17402938711E+03  0.22789628542E+03  0.00000000000E+00 0. -1.
        -12    1    3    3    0    0  0.60401447699E+03 -0.15823925761E+03  0.64730126382E+03  0.89937315793E+03  0.00000000000E+00 0.  1.
          4    1    6    6  502    0 -0.14665442255E+03 -0.15372528775E+03  0.22011108009E+03  0.30592134827E+03  0.00000000000E+00 0. -1.
         -3    1    6    6    0  502 -0.68124490170E+02 -0.23264803532E+02  0.12126859919E+03  0.14102577918E+03  0.00000000000E+00 0.  1.
<mgrwt>
<rscale>  0 0.85866713E+03</rscale>
<asrwt>0</asrwt>
<pdfrwt beam="1">  1        1 0.29716083E+00 0.85866713E+03</pdfrwt>
<pdfrwt beam="2">  1       -2 0.61686536E-01 0.85866713E+03</pdfrwt>
<totfact> 0.72894213E+00</totfact>
</mgrwt>
</event>
<event>
12    3  0.2422421E-007  0.5302269E+03  0.7818608E-02  0.1006177E+00
         -2   -1    0    0    0  501 -0.00000000000E+00  0.00000000000E+00  0.48582146437E+03  0.48582146437E+03  0.00000000000E+00 0.  1.
          1   -1    0    0  501    0  0.00000000000E+00 -0.00000000000E+00 -0.59547567647E+03  0.59547567647E+03  0.00000000000E+00 0. -1.
        -24    2    1    2    0    0  0.22373063945E+03  0.28826368662E+03 -0.33441722539E+02  0.37502061658E+03  0.79817053325E+02 0.  0.
    5000000    2    1    2    0    0 -0.22373063945E+03 -0.28826368662E+03 -0.76212489560E+02  0.70627652426E+03  0.59988901732E+03 0.  0.
        -24    2    4    4    0    0 -0.40785919822E+03 -0.10537225372E+03 -0.22433819119E+02  0.42914847053E+03  0.78820657764E+02 0.  0.
         24    2    4    4    0    0  0.18412855878E+03 -0.18289143290E+03 -0.53778670440E+02  0.27712805373E+03  0.80964253736E+02 0.  0.
         11    1    3    3    0    0  0.10654374756E+03  0.10354045696E+03  0.19787004472E+02  0.14987902428E+03  0.00000000000E+00 0. -1.
        -12    1    3    3    0    0  0.11718689189E+03  0.18472322966E+03 -0.53228727011E+02  0.22514159230E+03  0.00000000000E+00 0.  1.
         13    1    5    5    0    0 -0.17221242851E+03 -0.42504053633E+02  0.29432682135E+02  0.17980544454E+03  0.00000000000E+00 0. -1.
        -14    1    5    5    0    0 -0.23564676971E+03 -0.62868200090E+02 -0.51866501255E+02  0.24934302599E+03  0.00000000000E+00 0.  1.
          2    1    6    6  502    0  0.13045369185E+03 -0.72830413934E+02 -0.29976594099E+02  0.15238448446E+03  0.00000000000E+00 0. -1.
         -3    1    6    6    0  502  0.53674866932E+02 -0.11006101896E+03 -0.23802076341E+02  0.12474356927E+03  0.00000000000E+00 0.  1.
<mgrwt>
<rscale>  0 0.53022686E+03</rscale>
<asrwt>0</asrwt>
<pdfrwt beam="1">  1        1 0.91611643E-01 0.53022686E+03</pdfrwt>
<pdfrwt beam="2">  1       -2 0.74741764E-01 0.53022686E+03</pdfrwt>
<totfact> 0.50584300E+01</totfact>
</mgrwt>
</event>
<event>
12    3  0.2422421E-007  0.6432509E+03  0.7818608E-02  0.9819526E-01
         -2   -1    0    0    0  501 -0.00000000000E+00  0.00000000000E+00  0.15294036330E+03  0.15294036330E+03  0.00000000000E+00 0.  1.
          1   -1    0    0  501    0  0.00000000000E+00 -0.00000000000E+00 -0.30504972750E+04  0.30504972750E+04  0.00000000000E+00 0. -1.
        -24    2    1    2    0    0  0.71623926041E+02 -0.50550034807E+03 -0.16405038955E+04  0.17199326716E+04  0.79087135562E+02 0.  0.
    5000000    2    1    2    0    0 -0.71623926041E+02  0.50550034807E+03 -0.12570530162E+04  0.14835049667E+04  0.59995342486E+03 0.  0.
        -24    2    4    4    0    0 -0.32378775082E+03  0.23600558261E+03 -0.73424750738E+03  0.83834990611E+03  0.56338444920E+02 0.  0.
         24    2    4    4    0    0  0.25216382477E+03  0.26949476546E+03 -0.52280550878E+03  0.64515506056E+03  0.81764472833E+02 0.  0.
         11    1    3    3    0    0  0.57791542510E+02 -0.26738879958E+03 -0.98918416021E+03  0.10263147350E+04  0.00000000000E+00 0. -1.
        -12    1    3    3    0    0  0.13832383531E+02 -0.23811154849E+03 -0.65131973532E+03  0.69361793660E+03  0.00000000000E+00 0.  1.
         13    1    5    5    0    0 -0.35560597986E+02  0.14396873131E+02 -0.10262768848E+03  0.10956399284E+03  0.00000000000E+00 0. -1.
        -14    1    5    5    0    0 -0.28822715283E+03  0.22160870948E+03 -0.63161981890E+03  0.72878591326E+03  0.00000000000E+00 0.  1.
          4    1    6    6  502    0  0.17457718126E+03  0.21835517319E+03 -0.34076223001E+03  0.44076645888E+03  0.00000000000E+00 0. -1.
         -3    1    6    6    0  502  0.77586643516E+02  0.51139592275E+02 -0.18204327877E+03  0.20438860168E+03  0.00000000000E+00 0.  1.
<mgrwt>
<rscale>  0 0.64325093E+03</rscale>
<asrwt>0</asrwt>
<pdfrwt beam="1">  1        1 0.46930725E+00 0.64325093E+03</pdfrwt>
<pdfrwt beam="2">  1       -2 0.23529288E-01 0.64325093E+03</pdfrwt>
<totfact> 0.83611797E+00</totfact>
</mgrwt>
</event>
<event>
12    3  0.2422421E-007  0.4685958E+03  0.7818608E-02  0.1022317E+00
         -4   -1    0    0    0  501 -0.00000000000E+00  0.00000000000E+00  0.12794223417E+03  0.12794223417E+03  0.00000000000E+00 0.  1.
          3   -1    0    0  501    0  0.00000000000E+00 -0.00000000000E+00 -0.18476083943E+04  0.18476083943E+04  0.00000000000E+00 0. -1.
        -24    2    1    2    0    0 -0.62173205493E+02  0.28322593083E+03 -0.63054617955E+03  0.69862035939E+03  0.79996791374E+02 0.  0.
    5000000    2    1    2    0    0  0.62173205493E+02 -0.28322593083E+03 -0.10891199806E+04  0.12769302691E+04  0.60023840651E+03 0.  0.
        -24    2    4    4    0    0 -0.23058297680E+03 -0.25587372314E+03 -0.68376243947E+03  0.76991756000E+03  0.81253333366E+02 0.  0.
         24    2    4    4    0    0  0.29275618230E+03 -0.27352207695E+02 -0.40535754116E+03  0.50701270914E+03  0.79327331424E+02 0.  0.
         11    1    3    3    0    0 -0.55851357615E+02  0.20936342484E+03 -0.38113162681E+03  0.43842186848E+03  0.00000000000E+00 0. -1.
        -12    1    3    3    0    0 -0.63218478780E+01  0.73862505995E+02 -0.24941455274E+03  0.26019849090E+03  0.00000000000E+00 0.  1.
         13    1    5    5    0    0 -0.15099228166E+03 -0.16476533622E+03 -0.35377337322E+03  0.41845177110E+03  0.00000000000E+00 0. -1.
        -14    1    5    5    0    0 -0.79590695149E+02 -0.91108386916E+02 -0.32998906625E+03  0.35146578890E+03  0.00000000000E+00 0.  1.
          4    1    6    6  502    0  0.19817902024E+03  0.14032330031E+02 -0.29723802904E+03  0.35752241364E+03  0.00000000000E+00 0. -1.
         -3    1    6    6    0  502  0.94577162055E+02 -0.41384537725E+02 -0.10811951212E+03  0.14949029549E+03  0.00000000000E+00 0.  1.
<mgrwt>
<rscale>  0 0.46859583E+03</rscale>
<asrwt>0</asrwt>
<pdfrwt beam="1">  1        3 0.28424744E+00 0.46859583E+03</pdfrwt>
<pdfrwt beam="2">  1       -4 0.19683421E-01 0.46859583E+03</pdfrwt>
<totfact> 0.26458561E+00</totfact>
</mgrwt>
</event>
<event>
12    3  0.2422421E-007  0.5465863E+03  0.7818608E-02  0.1002287E+00
          1   -1    0    0  501    0  0.00000000000E+00  0.00000000000E+00  0.11670189567E+04  0.11670189567E+04  0.00000000000E+00 0. -1.
         -2   -1    0    0    0  501 -0.00000000000E+00 -0.00000000000E+00 -0.38510887245E+03  0.38510887245E+03  0.00000000000E+00 0.  1.
        -24    2    1    2    0    0  0.46156283622E+03  0.24546065698E+03  0.43548471779E+03  0.68471137230E+03  0.76756354917E+02 0.  0.
    5000000    2    1    2    0    0 -0.46156283622E+03 -0.24546065698E+03  0.34642536649E+03  0.86741645687E+03  0.59925753162E+03 0.  0.
        -24    2    4    4    0    0 -0.59673463142E+02 -0.88346225513E+02  0.40386359048E+03  0.42481318569E+03  0.77423932051E+02 0.  0.
         24    2    4    4    0    0 -0.40188937308E+03 -0.15711443147E+03 -0.57438223994E+02  0.44260327118E+03  0.79990582657E+02 0.  0.
         11    1    5    5    0    0  0.15084064474E+02 -0.27866223479E+02  0.15086923856E+03  0.15416089827E+03  0.00000000000E+00 0. -1.
        -12    1    5    5    0    0 -0.74757527616E+02 -0.60480002034E+02  0.25299435193E+03  0.27065228742E+03  0.00000000000E+00 0.  1.
         13    1    3    3    0    0  0.79750140230E+02  0.77026198213E+02  0.84046859334E+02  0.13912941688E+03  0.00000000000E+00 0. -1.
        -14    1    3    3    0    0  0.38181269599E+03  0.16843445877E+03  0.35143785846E+03  0.54558195542E+03  0.00000000000E+00 0.  1.
          2    1    6    6  502    0 -0.16075337182E+03 -0.10003998355E+03 -0.44319221851E+02  0.19445780593E+03  0.00000000000E+00 0. -1.
         -1    1    6    6    0  502 -0.24113600126E+03 -0.57074447918E+02 -0.13119002144E+02  0.24814546525E+03  0.00000000000E+00 0.  1.
<mgrwt>
<rscale>  0 0.54658630E+03</rscale>
<asrwt>0</asrwt>
<pdfrwt beam="1">  1        1 0.17954138E+00 0.54658630E+03</pdfrwt>
<pdfrwt beam="2">  1       -2 0.59247519E-01 0.54658630E+03</pdfrwt>
<totfact> 0.27705935E+01</totfact>
</mgrwt>
</event>
<event>
12    3  0.2422421E-007  0.4317565E+03  0.7818608E-02  0.1033307E+00
          1   -1    0    0  501    0  0.00000000000E+00  0.00000000000E+00  0.15528444192E+04  0.15528444192E+04  0.00000000000E+00 0. -1.
         -2   -1    0    0    0  501 -0.00000000000E+00 -0.00000000000E+00 -0.39393411925E+03  0.39393411925E+03  0.00000000000E+00 0.  1.
        -24    2    1    2    0    0 -0.33701252609E+03  0.15625376882E+03  0.11812063182E+04  0.12406901938E+04  0.77917314072E+02 0.  0.
    5000000    2    1    2    0    0  0.33701252609E+03 -0.15625376882E+03 -0.22296018245E+02  0.70608834466E+03  0.60005912627E+03 0.  0.
        -24    2    4    4    0    0  0.31180768680E+03 -0.33285268475E+01 -0.25827189706E+03  0.41270740630E+03  0.79924450355E+02 0.  0.
         24    2    4    4    0    0  0.25204839291E+02 -0.15292524197E+03  0.23597587882E+03  0.29338093835E+03  0.79789385575E+02 0.  0.
         13    1    3    3    0    0 -0.24238296955E+03  0.82735561437E+02  0.88031879758E+03  0.91681833665E+03  0.00000000000E+00 0. -1.
        -14    1    3    3    0    0 -0.94629556545E+02  0.73518207384E+02  0.30088752062E+03  0.32387185715E+03  0.00000000000E+00 0.  1.
         13    1    5    5    0    0  0.16567744842E+03  0.34393676221E+02 -0.11482703202E+03  0.20449251615E+03  0.00000000000E+00 0. -1.
        -14    1    5    5    0    0  0.14613023838E+03 -0.37722203069E+02 -0.14344486504E+03  0.20821489015E+03  0.00000000000E+00 0.  1.
          4    1    6    6  502    0 -0.20916169297E+02 -0.62866677908E+02  0.13527168759E+03  0.15062581051E+03  0.00000000000E+00 0. -1.
         -3    1    6    6    0  502  0.46121008589E+02 -0.90058564065E+02  0.10070419123E+03  0.14275512784E+03  0.00000000000E+00 0.  1.
<mgrwt>
<rscale>  0 0.43175655E+03</rscale>
<asrwt>0</asrwt>
<pdfrwt beam="1">  1        1 0.23889914E+00 0.43175655E+03</pdfrwt>
<pdfrwt beam="2">  1       -2 0.60605250E-01 0.43175655E+03</pdfrwt>
<totfact> 0.14586431E+01</totfact>
</mgrwt>
</event>
<event>
12    3  0.2422421E-007  0.7889988E+03  0.7818608E-02  0.9576079E-01
          1   -1    0    0  501    0  0.00000000000E+00  0.00000000000E+00  0.38790227988E+04  0.38790227988E+04  0.00000000000E+00 0. -1.
         -2   -1    0    0    0  501 -0.00000000000E+00 -0.00000000000E+00 -0.23883557743E+03  0.23883557743E+03  0.00000000000E+00 0.  1.
        -24    2    1    2    0    0  0.65561255114E+03 -0.16441752069E+03  0.28079406418E+04  0.28892447973E+04  0.79648679524E+02 0.  0.
    5000000    2    1    2    0    0 -0.65561255114E+03  0.16441752069E+03  0.83224657952E+03  0.12286135789E+04  0.59999668243E+03 0.  0.
        -24    2    4    4    0    0 -0.28191715159E+02  0.24962071105E+03  0.27898886890E+03  0.38375710212E+03  0.79557854883E+02 0.  0.
         24    2    4    4    0    0 -0.62742083599E+03 -0.85203190360E+02  0.55325771062E+03  0.84485647683E+03  0.82291451546E+02 0.  0.
         13    1    3    3    0    0  0.48776270427E+03 -0.15057986361E+03  0.21959282297E+04  0.22544816568E+04  0.00000000000E+00 0. -1.
        -14    1    3    3    0    0  0.16784984688E+03 -0.13837657078E+02  0.61201241213E+03  0.63476314044E+03  0.00000000000E+00 0.  1.
         13    1    5    5    0    0 -0.32830392881E+02  0.25300730078E+03  0.26145716228E+03  0.36530860468E+03  0.00000000000E+00 0. -1.
        -14    1    5    5    0    0  0.46386777214E+01 -0.33865897342E+01  0.17531706612E+02  0.18448497439E+02  0.00000000000E+00 0.  1.
          2    1    6    6  502    0 -0.53560168418E+03 -0.43445094427E+02  0.45660300399E+03  0.70515455298E+03  0.00000000000E+00 0. -1.
         -1    1    6    6    0  502 -0.91819151800E+02 -0.41758095933E+02  0.96654706626E+02  0.13970192385E+03  0.00000000000E+00 0.  1.
<mgrwt>
<rscale>  0 0.78899880E+03</rscale>
<asrwt>0</asrwt>
<pdfrwt beam="1">  1        1 0.59677269E+00 0.78899880E+03</pdfrwt>
<pdfrwt beam="2">  1       -2 0.36743938E-01 0.78899880E+03</pdfrwt>
<totfact> 0.81640305E-01</totfact>
</mgrwt>
</event>
<event>
12    3  0.2422421E-007  0.1388567E+04  0.7818608E-02  0.8962136E-01
          1   -1    0    0  501    0  0.00000000000E+00  0.00000000000E+00  0.22144911090E+04  0.22144911090E+04  0.00000000000E+00 0. -1.
         -2   -1    0    0    0  501 -0.00000000000E+00 -0.00000000000E+00 -0.90527610016E+03  0.90527610016E+03  0.00000000000E+00 0.  1.
        -24    2    1    2    0    0 -0.50141960924E+03  0.12327634070E+04  0.88111103384E+03  0.15982233202E+04  0.82667316563E+02 0.  0.
    5000000    2    1    2    0    0  0.50141960924E+03 -0.12327634070E+04  0.42810397502E+03  0.15215438890E+04  0.60057934567E+03 0.  0.
        -24    2    4    4    0    0 -0.53745548658E+02 -0.58041895950E+03  0.83340772338E+02  0.59459771090E+03  0.82619615888E+02 0.  0.
         24    2    4    4    0    0  0.55516515790E+03 -0.65234444749E+03  0.34476320269E+03  0.92694617806E+03  0.81276813208E+02 0.  0.
         11    1    5    5    0    0 -0.28466068548E+02 -0.82596770582E+02  0.33812984770E+02  0.93679568254E+02  0.00000000000E+00 0. -1.
        -12    1    5    5    0    0 -0.25279480110E+02 -0.49782218892E+03  0.49527787568E+02  0.50091814265E+03  0.00000000000E+00 0.  1.
         11    1    3    3    0    0 -0.35498190943E+03  0.84530739515E+03  0.65050603649E+03  0.11241507247E+04  0.00000000000E+00 0. -1.
        -12    1    3    3    0    0 -0.14643769982E+03  0.38745601184E+03  0.23060499735E+03  0.47407259554E+03  0.00000000000E+00 0.  1.
          4    1    6    6  502    0  0.25120042461E+03 -0.23508019365E+03  0.12900657399E+03  0.36743305091E+03  0.00000000000E+00 0. -1.
         -3    1    6    6    0  502  0.30396473329E+03 -0.41726425384E+03  0.21575662869E+03  0.55951312714E+03  0.00000000000E+00 0.  1.
<mgrwt>
<rscale>  0 0.13885669E+04</rscale>
<asrwt>0</asrwt>
<pdfrwt beam="1">  1        1 0.34069094E+00 0.13885669E+04</pdfrwt>
<pdfrwt beam="2">  1       -2 0.13927325E+00 0.13885669E+04</pdfrwt>
<totfact> 0.65214598E-01</totfact>
</mgrwt>
</event>
<event>
12    3  0.2422421E-007  0.6301047E+03  0.7818608E-02  0.9844844E-01
          1   -1    0    0  501    0  0.00000000000E+00  0.00000000000E+00  0.90419744984E+03  0.90419744984E+03  0.00000000000E+00 0. -1.
         -2   -1    0    0    0  501 -0.00000000000E+00 -0.00000000000E+00 -0.68072056143E+03  0.68072056143E+03  0.00000000000E+00 0.  1.
        -24    2    1    2    0    0  0.39458219564E+03  0.33190090312E+03 -0.33174913610E+03  0.61842872946E+03  0.80890577394E+02 0.  0.
    5000000    2    1    2    0    0 -0.39458219564E+03 -0.33190090312E+03  0.55522602451E+03  0.96648928181E+03  0.59997689535E+03 0.  0.
        -24    2    4    4    0    0  0.11481550208E+03 -0.31019652938E+02  0.26770676283E+03  0.30321696428E+03  0.78286641097E+02 0.  0.
         24    2    4    4    0    0 -0.50939769772E+03 -0.30088125018E+03  0.28751926167E+03  0.66327231753E+03  0.85131076676E+02 0.  0.
         11    1    3    3    0    0  0.48433836682E+02  0.12851552678E+02 -0.44062095109E+02  0.66726809960E+02  0.00000000000E+00 0. -1.
        -12    1    3    3    0    0  0.34614835896E+03  0.31904935044E+03 -0.28768704099E+03  0.55170191950E+03  0.00000000000E+00 0.  1.
         11    1    5    5    0    0  0.79618327058E+02 -0.57586024878E+02  0.18747468066E+03  0.21166479195E+03  0.00000000000E+00 0. -1.
        -12    1    5    5    0    0  0.35197175021E+02  0.26566371940E+02  0.80232082179E+02  0.91552172330E+02  0.00000000000E+00 0.  1.
          2    1    6    6  502    0 -0.41039982599E+03 -0.27704277885E+03  0.25058255114E+03  0.55495255060E+03  0.00000000000E+00 0. -1.
         -1    1    6    6    0  502 -0.98997871729E+02 -0.23838471337E+02  0.36936710537E+02  0.10831976693E+03  0.00000000000E+00 0.  1.
<mgrwt>
<rscale>  0 0.63010472E+03</rscale>
<asrwt>0</asrwt>
<pdfrwt beam="1">  1        1 0.13910730E+00 0.63010472E+03</pdfrwt>
<pdfrwt beam="2">  1       -2 0.10472624E+00 0.63010472E+03</pdfrwt>
<totfact> 0.12146743E+01</totfact>
</mgrwt>
</event>
<event>
12    3  0.2422421E-007  0.1413509E+04  0.7818608E-02  0.8944098E-01
          1   -1    0    0  501    0  0.00000000000E+00  0.00000000000E+00  0.55098256600E+03  0.55098256600E+03  0.00000000000E+00 0. -1.
         -2   -1    0    0    0  501 -0.00000000000E+00 -0.00000000000E+00 -0.40089772424E+04  0.40089772424E+04  0.00000000000E+00 0.  1.
        -24    2    1    2    0    0 -0.10052526279E+04 -0.90398435396E+03 -0.23488190217E+04  0.27112907908E+04  0.80164815024E+02 0.  0.
    5000000    2    1    2    0    0  0.10052526279E+04  0.90398435396E+03 -0.11091756547E+04  0.18486690176E+04  0.59965485539E+03 0.  0.
        -24    2    4    4    0    0  0.49830771048E+03  0.84341449557E+02 -0.40098357967E+03  0.65016778327E+03  0.80661395939E+02 0.  0.
         24    2    4    4    0    0  0.50694491738E+03  0.81964290441E+03 -0.70819207501E+03  0.11985012343E+04  0.77855979486E+02 0.  0.
         13    1    3    3    0    0 -0.65692654205E+03 -0.59625596495E+03 -0.14642525113E+04  0.17120482103E+04  0.00000000000E+00 0. -1.
        -14    1    3    3    0    0 -0.34832608582E+03 -0.30772838901E+03 -0.88456651043E+03  0.99924258058E+03  0.00000000000E+00 0.  1.
         13    1    5    5    0    0  0.14353748038E+03 -0.24816278865E+00 -0.80033432659E+02  0.16434238711E+03  0.00000000000E+00 0. -1.
        -14    1    5    5    0    0  0.35477023011E+03  0.84589612345E+02 -0.32095014701E+03  0.48582539616E+03  0.00000000000E+00 0.  1.
          2    1    6    6  502    0  0.21860421125E+03  0.42647569269E+03 -0.34324949440E+03  0.58948242810E+03  0.00000000000E+00 0. -1.
         -1    1    6    6    0  502  0.28834070613E+03  0.39316721172E+03 -0.36494258062E+03  0.60901880622E+03  0.00000000000E+00 0.  1.
<mgrwt>
<rscale>  0 0.14135086E+04</rscale>
<asrwt>0</asrwt>
<pdfrwt beam="1">  1        1 0.84766548E-01 0.14135086E+04</pdfrwt>
<pdfrwt beam="2">  1       -2 0.61676574E+00 0.14135086E+04</pdfrwt>
<totfact> 0.13913727E-02</totfact>
</mgrwt>
</event>
<event>
12    3  0.2422421E-007  0.6307046E+03  0.7818608E-02  0.9843675E-01
          1   -1    0    0  501    0  0.00000000000E+00  0.00000000000E+00  0.54008973891E+03  0.54008973891E+03  0.00000000000E+00 0. -1.
         -4   -1    0    0    0  501 -0.00000000000E+00 -0.00000000000E+00 -0.18270045988E+04  0.18270045988E+04  0.00000000000E+00 0.  1.
        -24    2    1    2    0    0 -0.26872602609E+03 -0.48807244100E+03  0.25762404793E+03  0.61891094502E+03  0.79070999992E+02 0.  0.
    5000000    2    1    2    0    0  0.26872602609E+03  0.48807244100E+03 -0.15445389078E+04  0.17481833927E+04  0.60009695213E+03 0.  0.
        -24    2    4    4    0    0 -0.57728303446E+02  0.33213859450E+03 -0.32783691394E+03  0.47632920158E+03  0.75920110366E+02 0.  0.
         24    2    4    4    0    0  0.32645432954E+03  0.15593384649E+03 -0.12167019939E+04  0.12718541911E+04  0.79759311590E+02 0.  0.
         11    1    3    3    0    0 -0.62154744500E+02 -0.88741721108E+02  0.83450244406E+02  0.13675616483E+03  0.00000000000E+00 0. -1.
        -12    1    3    3    0    0 -0.20657128159E+03 -0.39933071989E+03  0.17417380353E+03  0.48215478019E+03  0.00000000000E+00 0.  1.
         11    1    5    5    0    0 -0.46917798714E+02  0.17537246651E+03 -0.22244186857E+03  0.28711873282E+03  0.00000000000E+00 0. -1.
        -12    1    5    5    0    0 -0.10810504732E+02  0.15676612799E+03 -0.10539504538E+03  0.18921046876E+03  0.00000000000E+00 0.  1.
          4    1    6    6  502    0  0.20996749430E+03  0.12463533709E+03 -0.91271394983E+03  0.94481060014E+03  0.00000000000E+00 0. -1.
         -3    1    6    6    0  502  0.11648683524E+03  0.31298509408E+02 -0.30398804406E+03  0.32704359099E+03  0.00000000000E+00 0.  1.
<mgrwt>
<rscale>  0 0.63070456E+03</rscale>
<asrwt>0</asrwt>
<pdfrwt beam="1">  1        1 0.83090727E-01 0.63070456E+03</pdfrwt>
<pdfrwt beam="2">  1       -4 0.28107764E+00 0.63070456E+03</pdfrwt>
<totfact> 0.80399101E-01</totfact>
</mgrwt>
</event>
<event>
12    3  0.2422421E-007  0.8912134E+03  0.7818608E-02  0.9436632E-01
          3   -1    0    0  501    0  0.00000000000E+00  0.00000000000E+00  0.12113189942E+04  0.12113189942E+04  0.00000000000E+00 0. -1.
         -4   -1    0    0    0  501 -0.00000000000E+00 -0.00000000000E+00 -0.75383383658E+03  0.75383383658E+03  0.00000000000E+00 0.  1.
        -24    2    1    2    0    0 -0.71786613642E+03 -0.43813446211E+03  0.23633664227E+02  0.84464694209E+03  0.74674694422E+02 0.  0.
    5000000    2    1    2    0    0  0.71786613642E+03  0.43813446211E+03  0.43385149341E+03  0.11205058887E+04  0.60001060955E+03 0.  0.
        -24    2    4    4    0    0  0.69686273397E+03  0.25593499032E+03  0.12968795242E+03  0.75749996491E+03  0.76595316820E+02 0.  0.
         24    2    4    4    0    0  0.21003402449E+02  0.18219947179E+03  0.30416354099E+03  0.36300592380E+03  0.74966996787E+02 0.  0.
         11    1    3    3    0    0 -0.41669366155E+03 -0.22615648059E+03  0.41486856581E+02  0.47592175886E+03  0.00000000000E+00 0. -1.
        -12    1    3    3    0    0 -0.30117247487E+03 -0.21197798152E+03 -0.17853192354E+02  0.36872518323E+03  0.00000000000E+00 0.  1.
         13    1    5    5    0    0  0.37914353310E+03  0.98831803900E+02  0.73035826140E+02  0.39856213575E+03  0.00000000000E+00 0. -1.
        -14    1    5    5    0    0  0.31771920087E+03  0.15710318642E+03  0.56652126279E+02  0.35893782915E+03  0.00000000000E+00 0.  1.
          4    1    6    6  502    0  0.38664031921E+02  0.68071527897E+02  0.16136694965E+03  0.17935421019E+03  0.00000000000E+00 0. -1.
         -3    1    6    6    0  502 -0.17660629472E+02  0.11412794389E+03  0.14279659135E+03  0.18365171361E+03  0.00000000000E+00 0.  1.
<mgrwt>
<rscale>  0 0.89121336E+03</rscale>
<asrwt>0</asrwt>
<pdfrwt beam="1">  1        3 0.18635677E+00 0.89121336E+03</pdfrwt>
<pdfrwt beam="2">  1       -4 0.11597444E+00 0.89121336E+03</pdfrwt>
<totfact> 0.23171926E-01</totfact>
</mgrwt>
</event>
<event>
12    3  0.2422421E-007  0.1109479E+04  0.7818608E-02  0.9196002E-01
         -2   -1    0    0    0  501 -0.00000000000E+00  0.00000000000E+00  0.95032233429E+03  0.95032233429E+03  0.00000000000E+00 0.  1.
          1   -1    0    0  501    0  0.00000000000E+00 -0.00000000000E+00 -0.20174257374E+04  0.20174257374E+04  0.00000000000E+00 0. -1.
        -24    2    1    2    0    0 -0.10884638831E+03 -0.10369010114E+04 -0.13734323977E+04  0.17262837130E+04  0.82022331486E+02 0.  0.
    5000000    2    1    2    0    0  0.10884638831E+03  0.10369010114E+04  0.30632899466E+03  0.12414643587E+04  0.60032079534E+03 0.  0.
        -24    2    4    4    0    0 -0.17424353863E+03  0.74812996971E+03  0.31372512443E+03  0.83309819323E+03  0.74631652385E+02 0.  0.
         24    2    4    4    0    0  0.28308992693E+03  0.28877104167E+03 -0.73961297703E+01  0.40836616547E+03  0.56387951978E+02 0.  0.
         11    1    3    3    0    0 -0.67383569961E+02 -0.76906546502E+03 -0.95957623316E+03  0.12315797913E+04  0.00000000000E+00 0. -1.
        -12    1    3    3    0    0 -0.41462818346E+02 -0.26783554636E+03 -0.41385616458E+03  0.49470392171E+03  0.00000000000E+00 0.  1.
         13    1    5    5    0    0 -0.24077854289E+02  0.25263056529E+03  0.93452945935E+02  0.27043557216E+03  0.00000000000E+00 0. -1.
        -14    1    5    5    0    0 -0.15016568434E+03  0.49549940442E+03  0.22027217849E+03  0.56266262107E+03  0.00000000000E+00 0.  1.
          4    1    6    6  502    0  0.20306493492E+03  0.20822183196E+03  0.20101211713E+02  0.29154031935E+03  0.00000000000E+00 0. -1.
         -3    1    6    6    0  502  0.80024992017E+02  0.80549209714E+02 -0.27497341484E+02  0.11682584612E+03  0.00000000000E+00 0.  1.
<mgrwt>
<rscale>  0 0.11094788E+04</rscale>
<asrwt>0</asrwt>
<pdfrwt beam="1">  1        1 0.31037319E+00 0.11094788E+04</pdfrwt>
<pdfrwt beam="2">  1       -2 0.14620344E+00 0.11094788E+04</pdfrwt>
<totfact> 0.80670392E-01</totfact>
</mgrwt>
</event>
<event>
12    3  0.2422421E-007  0.4110153E+03  0.7818608E-02  0.1040031E+00
          1   -1    0    0  501    0  0.00000000000E+00  0.00000000000E+00  0.29417737854E+04  0.29417737854E+04  0.00000000000E+00 0. -1.
         -2   -1    0    0    0  501 -0.00000000000E+00 -0.00000000000E+00 -0.64068873879E+02  0.64068873879E+02  0.00000000000E+00 0.  1.
        -24    2    1    2    0    0  0.80295193502E+02  0.17841191413E+03  0.10829888028E+04  0.11034392879E+04  0.80220857644E+02 0.  0.
    5000000    2    1    2    0    0 -0.80295193502E+02 -0.17841191413E+03  0.17947161088E+04  0.19024033714E+04  0.59987877705E+03 0.  0.
        -24    2    4    4    0    0  0.16609359992E+03  0.13301266708E+03  0.70273233839E+03  0.73856354786E+03  0.79774189342E+02 0.  0.
         24    2    4    4    0    0 -0.24638879342E+03 -0.31142458121E+03  0.10919837704E+04  0.11638398235E+04  0.66346610381E+02 0.  0.
         11    1    3    3    0    0  0.37059236708E+02  0.14425688717E+03  0.64359168128E+03  0.66060100570E+03  0.00000000000E+00 0. -1.
        -12    1    3    3    0    0  0.43235956794E+02  0.34155026965E+02  0.43939712149E+03  0.44283828222E+03  0.00000000000E+00 0.  1.
         11    1    5    5    0    0  0.13117816979E+03  0.12330227860E+03  0.47513277807E+03  0.50809676336E+03  0.00000000000E+00 0. -1.
        -12    1    5    5    0    0  0.34915430126E+02  0.97103884757E+01  0.22759956031E+03  0.23046678450E+03  0.00000000000E+00 0.  1.
          2    1    6    6  502    0 -0.14126285132E+03 -0.12968081962E+03  0.56002058794E+03  0.59194203015E+03  0.00000000000E+00 0. -1.
         -1    1    6    6    0  502 -0.10512594210E+03 -0.18174376159E+03  0.53196318248E+03  0.57189779340E+03  0.00000000000E+00 0.  1.
<mgrwt>
<rscale>  0 0.41101529E+03</rscale>
<asrwt>0</asrwt>
<pdfrwt beam="1">  1        1 0.45258048E+00 0.41101529E+03</pdfrwt>
<pdfrwt beam="2">  1       -2 0.98567521E-02 0.41101529E+03</pdfrwt>
<totfact> 0.45610721E+01</totfact>
</mgrwt>
</event>
<event>
12    3  0.2422421E-007  0.5391670E+03  0.7818608E-02  0.1004033E+00
         -2   -1    0    0    0  501 -0.00000000000E+00  0.00000000000E+00  0.28487280426E+03  0.28487280426E+03  0.00000000000E+00 0.  1.
          1   -1    0    0  501    0  0.00000000000E+00 -0.00000000000E+00 -0.36943027386E+04  0.36943027386E+04  0.00000000000E+00 0. -1.
        -24    2    1    2    0    0 -0.39934856191E+03  0.19664425516E+02 -0.32036177869E+04  0.32293940356E+04  0.77155356902E+02 0.  0.
    5000000    2    1    2    0    0  0.39934856191E+03 -0.19664425516E+02 -0.20581214739E+03  0.74978150720E+03  0.59995641925E+03 0.  0.
        -24    2    4    4    0    0  0.30166000736E+03 -0.26131493300E+03  0.17838573679E+01  0.40681607876E+03  0.78815515850E+02 0.  0.
         24    2    4    4    0    0  0.97688554550E+02  0.24165050749E+03 -0.20759600476E+03  0.34296542845E+03  0.81185974525E+02 0.  0.
         11    1    5    5    0    0  0.21892128086E+03 -0.13981529999E+03 -0.21279864503E+01  0.25976792267E+03  0.00000000000E+00 0. -1.
        -12    1    5    5    0    0  0.82738726501E+02 -0.12149963302E+03  0.39118438182E+01  0.14704815609E+03  0.00000000000E+00 0.  1.
         13    1    3    3    0    0 -0.33156759973E+03 -0.35355294187E+01 -0.27877058963E+04  0.28073570733E+04  0.00000000000E+00 0. -1.
        -14    1    3    3    0    0 -0.67780962179E+02  0.23199954935E+02 -0.41591189068E+03  0.42203696231E+03  0.00000000000E+00 0.  1.
          4    1    6    6  502    0 -0.94365621188E+01  0.16315066038E+02 -0.34451598906E+02  0.39270125434E+02  0.00000000000E+00 0. -1.
         -1    1    6    6    0  502  0.10712511667E+03  0.22533544145E+03 -0.17314440585E+03  0.30369530301E+03  0.00000000000E+00 0.  1.
<mgrwt>
<rscale>  0 0.53916699E+03</rscale>
<asrwt>0</asrwt>
<pdfrwt beam="1">  1        1 0.56835423E+00 0.53916699E+03</pdfrwt>
<pdfrwt beam="2">  1       -2 0.43826588E-01 0.53916699E+03</pdfrwt>
<totfact> 0.87512832E-01</totfact>
</mgrwt>
</event>
<event>
12    3  0.2422421E-007  0.2475398E+04  0.7818608E-02  0.8411803E-01
          1   -1    0    0  501    0  0.00000000000E+00  0.00000000000E+00  0.23977929068E+04  0.23977929068E+04  0.00000000000E+00 0. -1.
         -2   -1    0    0    0  501 -0.00000000000E+00 -0.00000000000E+00 -0.26997025618E+04  0.26997025618E+04  0.00000000000E+00 0.  1.
        -24    2    1    2    0    0  0.23728917780E+04  0.66950512117E+03 -0.61066025561E+03  0.25412949095E+04  0.80133462661E+02 0.  0.
    5000000    2    1    2    0    0 -0.23728917780E+04 -0.66950512117E+03  0.30875060064E+03  0.25562005590E+04  0.59998488908E+03 0.  0.
        -24    2    4    4    0    0 -0.20447281788E+04 -0.47908370920E+03  0.74624692838E+02  0.21029338823E+04  0.79545855067E+02 0.  0.
         24    2    4    4    0    0 -0.32816359925E+03 -0.19042141197E+03  0.23412590780E+03  0.45326667673E+03  0.81756207849E+02 0.  0.
         11    1    5    5    0    0 -0.20389435412E+04 -0.48183779625E+03  0.73263146614E+02  0.20963840093E+04  0.00000000000E+00 0. -1.
        -12    1    5    5    0    0 -0.57846376167E+01  0.27540870489E+01  0.13615462248E+01  0.65498729722E+01  0.00000000000E+00 0.  1.
         13    1    3    3    0    0  0.58899668743E+03  0.13139663899E+03 -0.14107706048E+03  0.61974584431E+03  0.00000000000E+00 0. -1.
        -14    1    3    3    0    0  0.17838950906E+04  0.53810848218E+03 -0.46958319513E+03  0.19215490652E+04  0.00000000000E+00 0.  1.
          2    1    6    6  502    0 -0.20494411658E+03 -0.91202552235E+02  0.17450575433E+03  0.28420460016E+03  0.00000000000E+00 0. -1.
         -1    1    6    6    0  502 -0.12321948266E+03 -0.99218859738E+02  0.59620153476E+02  0.16906207658E+03  0.00000000000E+00 0.  1.
<mgrwt>
<rscale>  0 0.24753976E+04</rscale>
<asrwt>0</asrwt>
<pdfrwt beam="1">  1        1 0.36889122E+00 0.24753976E+04</pdfrwt>
<pdfrwt beam="2">  1       -2 0.41533885E+00 0.24753976E+04</pdfrwt>
<totfact> 0.69154736E-03</totfact>
</mgrwt>
</event>
<event>
12    3  0.2422421E-007  0.4823058E+03  0.7818608E-02  0.1018503E+00
          1   -1    0    0  501    0  0.00000000000E+00  0.00000000000E+00  0.14542455488E+04  0.14542455488E+04  0.00000000000E+00 0. -1.
         -4   -1    0    0    0  501 -0.00000000000E+00 -0.00000000000E+00 -0.25327313913E+03  0.25327313913E+03  0.00000000000E+00 0.  1.
        -24    2    1    2    0    0 -0.21612293323E+02 -0.44795348200E+03  0.55702174479E+03  0.71972579931E+03  0.81256315190E+02 0.  0.
    5000000    2    1    2    0    0  0.21612293323E+02  0.44795348200E+03  0.64395066491E+03  0.98779288866E+03  0.59994409638E+03 0.  0.
        -24    2    4    4    0    0  0.54331760379E+02  0.41971950827E+03  0.73991328689E+03  0.85583330920E+03  0.76567455234E+02 0.  0.
         24    2    4    4    0    0 -0.32719467055E+02  0.28233973731E+02 -0.95962621980E+02  0.13195957946E+03  0.79603925768E+02 0.  0.
         13    1    3    3    0    0 -0.29180363483E+02 -0.27827104006E+03  0.28771470674E+03  0.40133031012E+03  0.00000000000E+00 0. -1.
        -14    1    3    3    0    0  0.75680701593E+01 -0.16968244195E+03  0.26930703805E+03  0.31839548919E+03  0.00000000000E+00 0.  1.
         13    1    5    5    0    0  0.32638351377E+02  0.13261402792E+03  0.30586665959E+03  0.33497187320E+03  0.00000000000E+00 0. -1.
        -14    1    5    5    0    0  0.21693409002E+02  0.28710548036E+03  0.43404662730E+03  0.52086143600E+03  0.00000000000E+00 0.  1.
          4    1    6    6  502    0 -0.57653633751E+02  0.30865286404E+02 -0.66400090713E+02  0.93196456135E+02  0.00000000000E+00 0. -1.
         -3    1    6    6    0  502  0.24934166696E+02 -0.26313126724E+01 -0.29562531267E+02  0.38763123327E+02  0.00000000000E+00 0.  1.
<mgrwt>
<rscale>  0 0.48230581E+03</rscale>
<asrwt>0</asrwt>
<pdfrwt beam="1">  1        1 0.22373008E+00 0.48230581E+03</pdfrwt>
<pdfrwt beam="2">  1       -4 0.38965099E-01 0.48230581E+03</pdfrwt>
<totfact> 0.22853380E+01</totfact>
</mgrwt>
</event>
<event>
12    3  0.2422421E-007  0.1213390E+04  0.7818608E-02  0.9101216E-01
         -2   -1    0    0    0  501 -0.00000000000E+00  0.00000000000E+00  0.10485473455E+04  0.10485473455E+04  0.00000000000E+00 0.  1.
          1   -1    0    0  501    0  0.00000000000E+00 -0.00000000000E+00 -0.17377711575E+04  0.17377711575E+04  0.00000000000E+00 0. -1.
        -24    2    1    2    0    0 -0.93889531554E+03  0.66136324536E+03  0.25965382470E+03  0.11803326900E+04  0.82700631635E+02 0.  0.
    5000000    2    1    2    0    0  0.93889531554E+03 -0.66136324536E+03 -0.94887763664E+03  0.16059858131E+04  0.59991324921E+03 0.  0.
        -24    2    4    4    0    0  0.57354689744E+03 -0.76100506443E+02 -0.30490506716E+03  0.65896999277E+03  0.80789979180E+02 0.  0.
         24    2    4    4    0    0  0.36534841809E+03 -0.58526273892E+03 -0.64397256948E+03  0.94701582029E+03  0.78271025769E+02 0.  0.
         11    1    3    3    0    0 -0.88629127942E+02  0.53764898316E+02  0.64145942973E+00  0.10366387066E+03  0.00000000000E+00 0. -1.
        -12    1    3    3    0    0 -0.85026618759E+03  0.60759834704E+03  0.25901236527E+03  0.10766688193E+04  0.00000000000E+00 0.  1.
         13    1    5    5    0    0  0.18229974026E+03 -0.62433642493E+02 -0.99095207035E+02  0.21668182912E+03  0.00000000000E+00 0. -1.
        -14    1    5    5    0    0  0.39124715719E+03 -0.13666863950E+02 -0.20580986013E+03  0.44228816365E+03  0.00000000000E+00 0.  1.
          4    1    6    6  502    0  0.56769492151E+02 -0.14963486861E+03 -0.13403828193E+03  0.20875734757E+03  0.00000000000E+00 0. -1.
         -3    1    6    6    0  502  0.30857892594E+03 -0.43562787031E+03 -0.50993428755E+03  0.73825847272E+03  0.00000000000E+00 0.  1.
<mgrwt>
<rscale>  0 0.12133902E+04</rscale>
<asrwt>0</asrwt>
<pdfrwt beam="1">  1        1 0.26734941E+00 0.12133902E+04</pdfrwt>
<pdfrwt beam="2">  1       -2 0.16131498E+00 0.12133902E+04</pdfrwt>
<totfact> 0.94526046E-01</totfact>
</mgrwt>
</event>
<event>
12    3  0.2422421E-007  0.7919271E+03  0.7818608E-02  0.9571776E-01
          1   -1    0    0  501    0  0.00000000000E+00  0.00000000000E+00  0.26868158078E+04  0.26868158078E+04  0.00000000000E+00 0. -1.
         -2   -1    0    0    0  501 -0.00000000000E+00 -0.00000000000E+00 -0.32585318020E+03  0.32585318020E+03  0.00000000000E+00 0.  1.
        -24    2    1    2    0    0 -0.69302163668E+03 -0.94295484808E+02  0.31828869043E+03  0.77178460336E+03  0.71924656184E+02 0.  0.
    5000000    2    1    2    0    0  0.69302163668E+03  0.94295484808E+02  0.20426739371E+04  0.22408843846E+04  0.59989614465E+03 0.  0.
        -24    2    4    4    0    0 -0.76107063985E+02  0.84130924683E+02  0.20330356376E+03  0.24653468169E+03  0.81096933136E+02 0.  0.
         24    2    4    4    0    0  0.76912870067E+03  0.10164560126E+02  0.18393703734E+04  0.19943497029E+04  0.49850682983E+02 0.  0.
         13    1    5    5    0    0 -0.15034218818E+02  0.13862242151E+02  0.11961159751E+03  0.12134712090E+03  0.00000000000E+00 0. -1.
        -14    1    5    5    0    0 -0.61072845167E+02  0.70268682532E+02  0.83691966247E+02  0.12518756079E+03  0.00000000000E+00 0.  1.
         13    1    3    3    0    0 -0.19556182351E+03 -0.48731270422E+02  0.65464497758E+02  0.21190744205E+03  0.00000000000E+00 0. -1.
        -14    1    3    3    0    0 -0.49745981317E+03 -0.45564214386E+02  0.25282419267E+03  0.55987716131E+03  0.00000000000E+00 0.  1.
          4    1    6    6  502    0  0.22844254907E+03  0.58375800772E+01  0.60648179474E+03  0.64810511718E+03  0.00000000000E+00 0. -1.
         -3    1    6    6    0  502  0.54068615160E+03  0.43269800484E+01  0.12328885786E+04  0.13462445857E+04  0.00000000000E+00 0.  1.
<mgrwt>
<rscale>  0 0.79192711E+03</rscale>
<asrwt>0</asrwt>
<pdfrwt beam="1">  1        1 0.41335626E+00 0.79192711E+03</pdfrwt>
<pdfrwt beam="2">  1       -2 0.50131260E-01 0.79192711E+03</pdfrwt>
<totfact> 0.34870461E+00</totfact>
</mgrwt>
</event>
<event>
12    3  0.2422421E-007  0.8281364E+03  0.7818608E-02  0.9520161E-01
         -2   -1    0    0    0  501 -0.00000000000E+00  0.00000000000E+00  0.79179295307E+03  0.79179295307E+03  0.00000000000E+00 0.  1.
          1   -1    0    0  501    0  0.00000000000E+00 -0.00000000000E+00 -0.10679603186E+04  0.10679603186E+04  0.00000000000E+00 0. -1.
        -24    2    1    2    0    0 -0.60808136886E+03 -0.54806375315E+03 -0.15825538314E+03  0.83805755668E+03  0.84610125516E+02 0.  0.
    5000000    2    1    2    0    0  0.60808136886E+03  0.54806375315E+03 -0.11791198235E+03  0.10216957150E+04  0.59985170643E+03 0.  0.
        -24    2    4    4    0    0  0.17850583781E+03  0.68518079031E+02 -0.28235803723E+03  0.35242954311E+03  0.89002586378E+02 0.  0.
         24    2    4    4    0    0  0.42957553104E+03  0.47954567412E+03  0.16444605488E+03  0.66926617184E+03  0.79846811860E+02 0.  0.
         11    1    3    3    0    0 -0.14433977447E+03 -0.12204402641E+03 -0.72840968312E+02  0.20256979425E+03  0.00000000000E+00 0. -1.
        -12    1    3    3    0    0 -0.46374159439E+03 -0.42601972675E+03 -0.85414414829E+02  0.63548776243E+03  0.00000000000E+00 0.  1.
         11    1    5    5    0    0  0.16539660079E+03  0.61563519066E+02 -0.19170674597E+03  0.26057163868E+03  0.00000000000E+00 0. -1.
        -12    1    5    5    0    0  0.13109237019E+02  0.69545599653E+01 -0.90651291258E+02  0.91857904430E+02  0.00000000000E+00 0.  1.
          4    1    6    6  502    0  0.32373215079E+03  0.32357269302E+03  0.14312478809E+03  0.47956907541E+03  0.00000000000E+00 0. -1.
         -3    1    6    6    0  502  0.10584338025E+03  0.15597298110E+03  0.21321266797E+02  0.18969709643E+03  0.00000000000E+00 0.  1.
<mgrwt>
<rscale>  0 0.82813645E+03</rscale>
<asrwt>0</asrwt>
<pdfrwt beam="1">  1        1 0.16430159E+00 0.82813645E+03</pdfrwt>
<pdfrwt beam="2">  1       -2 0.12181430E+00 0.82813645E+03</pdfrwt>
<totfact> 0.61081435E+00</totfact>
</mgrwt>
</event>
<event>
12    3  0.2422421E-007  0.5713399E+03  0.7818608E-02  0.9966718E-01
         -2   -1    0    0    0  501 -0.00000000000E+00  0.00000000000E+00  0.28494578569E+03  0.28494578569E+03  0.00000000000E+00 0.  1.
          1   -1    0    0  501    0  0.00000000000E+00 -0.00000000000E+00 -0.16961381505E+04  0.16961381505E+04  0.00000000000E+00 0. -1.
        -24    2    1    2    0    0 -0.35224051730E+03 -0.27676318148E+03 -0.10611502098E+04  0.11546078041E+04  0.80051064631E+02 0.  0.
    5000000    2    1    2    0    0  0.35224051730E+03  0.27676318148E+03 -0.35004215502E+03  0.82647613206E+03  0.59988502726E+03 0.  0.
        -24    2    4    4    0    0  0.40136936943E+03  0.38079262730E+03 -0.39449880322E+03  0.68424440031E+03  0.80378466570E+02 0.  0.
         24    2    4    4    0    0 -0.49128852128E+02 -0.10402944582E+03  0.44456648198E+02  0.14223173175E+03  0.70835741254E+02 0.  0.
         13    1    3    3    0    0 -0.17676659427E+03 -0.17607511525E+03 -0.51666746450E+03  0.57375442825E+03  0.00000000000E+00 0. -1.
        -14    1    3    3    0    0 -0.17547392303E+03 -0.10068806623E+03 -0.54448274532E+03  0.58085337590E+03  0.00000000000E+00 0.  1.
         13    1    5    5    0    0  0.26442804772E+03  0.21003463424E+03 -0.20744964047E+03  0.39632321826E+03  0.00000000000E+00 0. -1.
        -14    1    5    5    0    0  0.13694132171E+03  0.17075799307E+03 -0.18704916275E+03  0.28792118205E+03  0.00000000000E+00 0.  1.
          2    1    6    6  502    0  0.14353128562E+02 -0.46348312528E+02  0.23620041439E+02  0.53963735335E+02  0.00000000000E+00 0. -1.
         -1    1    6    6    0  502 -0.63481980690E+02 -0.57681133296E+02  0.20836606759E+02  0.88267996419E+02  0.00000000000E+00 0.  1.
<mgrwt>
<rscale>  0 0.57133986E+03</rscale>
<asrwt>0</asrwt>
<pdfrwt beam="1">  1        1 0.26094433E+00 0.57133986E+03</pdfrwt>
<pdfrwt beam="2">  1       -2 0.43837813E-01 0.57133986E+03</pdfrwt>
<totfact> 0.22012859E+01</totfact>
</mgrwt>
</event>
<event>
12    3  0.2422421E-007  0.1382330E+04  0.7818608E-02  0.8966709E-01
         -2   -1    0    0    0  501 -0.00000000000E+00  0.00000000000E+00  0.15498218720E+04  0.15498218720E+04  0.00000000000E+00 0.  1.
          1   -1    0    0  501    0  0.00000000000E+00 -0.00000000000E+00 -0.13813234262E+04  0.13813234262E+04  0.00000000000E+00 0. -1.
        -24    2    1    2    0    0  0.44478361160E+03  0.13027737121E+04  0.33836489814E+03  0.14198987954E+04  0.81055405095E+02 0.  0.
    5000000    2    1    2    0    0 -0.44478361160E+03 -0.13027737121E+04 -0.16986645240E+03  0.15112465028E+04  0.59996631106E+03 0.  0.
        -24    2    4    4    0    0 -0.32918049627E+03 -0.99215342557E+03 -0.37493208565E+03  0.11133786730E+04  0.79434134083E+02 0.  0.
         24    2    4    4    0    0 -0.11560311533E+03 -0.31062028658E+03  0.20506563325E+03  0.39786782981E+03  0.79986582329E+02 0.  0.
         11    1    5    5    0    0 -0.16428714447E+03 -0.50393611101E+03 -0.23216652138E+03  0.57865634315E+03  0.00000000000E+00 0. -1.
        -12    1    5    5    0    0 -0.16489335180E+03 -0.48821731456E+03 -0.14276556427E+03  0.53472232985E+03  0.00000000000E+00 0.  1.
         13    1    3    3    0    0  0.26104264098E+03  0.65318126206E+03  0.15350606115E+03  0.71996745226E+03  0.00000000000E+00 0. -1.
        -14    1    3    3    0    0  0.18374097062E+03  0.64959245009E+03  0.18485883699E+03  0.69993134315E+03  0.00000000000E+00 0.  1.
          4    1    6    6  502    0 -0.62979612746E+02 -0.26099490568E+03  0.15697213200E+03  0.31100646720E+03  0.00000000000E+00 0. -1.
         -3    1    6    6    0  502 -0.52623502582E+02 -0.49625380895E+02  0.48093501244E+02  0.86861362612E+02  0.00000000000E+00 0.  1.
<mgrwt>
<rscale>  0 0.13823300E+04</rscale>
<asrwt>0</asrwt>
<pdfrwt beam="1">  1        1 0.21251130E+00 0.13823300E+04</pdfrwt>
<pdfrwt beam="2">  1       -2 0.23843414E+00 0.13823300E+04</pdfrwt>
<totfact> 0.50231700E-01</totfact>
</mgrwt>
</event>
<event>
12    3  0.2422421E-007  0.6965013E+03  0.7818608E-02  0.9723234E-01
          1   -1    0    0  501    0  0.00000000000E+00  0.00000000000E+00  0.19097279965E+04  0.19097279965E+04  0.00000000000E+00 0. -1.
         -2   -1    0    0    0  501 -0.00000000000E+00 -0.00000000000E+00 -0.49476613739E+03  0.49476613739E+03  0.00000000000E+00 0.  1.
        -24    2    1    2    0    0 -0.14933136659E+03  0.66363173430E+03  0.13270836694E+04  0.14931824460E+04  0.75735167083E+02 0.  0.
    5000000    2    1    2    0    0  0.14933136659E+03 -0.66363173430E+03  0.87878189691E+02  0.91131168791E+03  0.60004956502E+03 0.  0.
        -24    2    4    4    0    0  0.16942802001E+03 -0.46790672785E+03  0.32119421487E+03  0.59575707260E+03  0.64173249548E+02 0.  0.
         24    2    4    4    0    0 -0.20096653423E+02 -0.19572500646E+03 -0.23331602518E+03  0.31555461532E+03  0.80163545405E+02 0.  0.
         13    1    3    3    0    0 -0.43562168924E+02  0.35620749836E+03  0.66899438010E+03  0.75916725763E+03  0.00000000000E+00 0. -1.
        -14    1    3    3    0    0 -0.10576919767E+03  0.30742423594E+03  0.65808928932E+03  0.73401518836E+03  0.00000000000E+00 0.  1.
         13    1    5    5    0    0  0.59725220447E+01 -0.75255387380E+00  0.81790004041E+01  0.10155461807E+02  0.00000000000E+00 0. -1.
        -14    1    5    5    0    0  0.16345549797E+03 -0.46715417397E+03  0.31301521446E+03  0.58560161079E+03  0.00000000000E+00 0.  1.
          2    1    6    6  502    0 -0.42635370781E+02 -0.85036089873E+02 -0.75336642810E+02  0.12134463800E+03  0.00000000000E+00 0. -1.
         -1    1    6    6    0  502  0.22538717358E+02 -0.11068891658E+03 -0.15797938237E+03  0.19420997731E+03  0.00000000000E+00 0.  1.
<mgrwt>
<rscale>  0 0.69650126E+03</rscale>
<asrwt>0</asrwt>
<pdfrwt beam="1">  1        1 0.29380430E+00 0.69650126E+03</pdfrwt>
<pdfrwt beam="2">  1       -2 0.76117869E-01 0.69650126E+03</pdfrwt>
<totfact> 0.48906749E+00</totfact>
</mgrwt>
</event>
<event>
12    3  0.2422421E-007  0.4877962E+03  0.7818608E-02  0.1017014E+00
         -2   -1    0    0    0  501 -0.00000000000E+00  0.00000000000E+00  0.34001679906E+03  0.34001679906E+03  0.00000000000E+00 0.  1.
          1   -1    0    0  501    0  0.00000000000E+00 -0.00000000000E+00 -0.15998985817E+04  0.15998985817E+04  0.00000000000E+00 0. -1.
        -24    2    1    2    0    0 -0.26470380104E+02  0.45624757214E+03  0.88516552603E+01  0.46393166995E+03  0.79320328229E+02 0.  0.
    5000000    2    1    2    0    0  0.26470380104E+02 -0.45624757214E+03 -0.12687334379E+04  0.14759837108E+04  0.59998404150E+03 0.  0.
        -24    2    4    4    0    0  0.75442679018E+02 -0.39707532073E+03 -0.32452603870E+03  0.52528310278E+03  0.85116274116E+02 0.  0.
         24    2    4    4    0    0 -0.48972298915E+02 -0.59172251414E+02 -0.94420739922E+03  0.95070060806E+03  0.80027445451E+02 0.  0.
         11    1    3    3    0    0  0.18617023143E+02  0.62106398413E+02  0.17389381036E+02  0.67128152420E+02  0.00000000000E+00 0. -1.
        -12    1    3    3    0    0 -0.45087403246E+02  0.39414117373E+03 -0.85377257756E+01  0.39680351753E+03  0.00000000000E+00 0.  1.
         11    1    5    5    0    0  0.15331186476E+02 -0.79059977331E+02 -0.25053387533E+02  0.84339774254E+02  0.00000000000E+00 0. -1.
        -12    1    5    5    0    0  0.60111492543E+02 -0.31801534340E+03 -0.29947265117E+03  0.44094332852E+03  0.00000000000E+00 0.  1.
          2    1    6    6  502    0 -0.68893586621E+02 -0.31464071170E+02 -0.58678201910E+03  0.59164977139E+03  0.00000000000E+00 0. -1.
         -1    1    6    6    0  502  0.19921287706E+02 -0.27708180244E+02 -0.35742538012E+03  0.35905083667E+03  0.00000000000E+00 0.  1.
<mgrwt>
<rscale>  0 0.48779624E+03</rscale>
<asrwt>0</asrwt>
<pdfrwt beam="1">  1        1 0.24613824E+00 0.48779624E+03</pdfrwt>
<pdfrwt beam="2">  1       -2 0.52310277E-01 0.48779624E+03</pdfrwt>
<totfact> 0.18176980E+01</totfact>
</mgrwt>
</event>
<event>
12    3  0.2422421E-007  0.2123689E+04  0.7818608E-02  0.8550879E-01
         -2   -1    0    0    0  501 -0.00000000000E+00  0.00000000000E+00  0.15732547139E+04  0.15732547139E+04  0.00000000000E+00 0.  1.
          1   -1    0    0  501    0  0.00000000000E+00 -0.00000000000E+00 -0.29553686901E+04  0.29553686901E+04  0.00000000000E+00 0. -1.
        -24    2    1    2    0    0  0.82741101394E+03  0.19383704186E+04 -0.50661274574E+03  0.21689286461E+04  0.75538943481E+02 0.  0.
    5000000    2    1    2    0    0 -0.82741101394E+03 -0.19383704186E+04 -0.87550123048E+03  0.23596947579E+04  0.59980670239E+03 0.  0.
        -24    2    4    4    0    0 -0.44568491682E+03 -0.14335698191E+04 -0.83868442303E+03  0.17214171320E+04  0.78280964055E+02 0.  0.
         24    2    4    4    0    0 -0.38172609712E+03 -0.50480059949E+03 -0.36816807443E+02  0.63827762597E+03  0.74191590065E+02 0.  0.
         11    1    5    5    0    0 -0.93038108339E+02 -0.39910519925E+03 -0.24986260608E+03  0.47997121954E+03  0.00000000000E+00 0. -1.
        -12    1    5    5    0    0 -0.35264680848E+03 -0.10344646199E+04 -0.58882181695E+03  0.12414459124E+04  0.00000000000E+00 0.  1.
         11    1    3    3    0    0  0.26630429666E+03  0.56290383384E+03 -0.12420967588E+03  0.63498562830E+03  0.00000000000E+00 0. -1.
        -12    1    3    3    0    0  0.56110671728E+03  0.13754665848E+04 -0.38240306986E+03  0.15339430178E+04  0.00000000000E+00 0.  1.
          2    1    6    6  502    0 -0.34322055250E+03 -0.48185575013E+03 -0.42373015597E+02  0.59311110598E+03  0.00000000000E+00 0. -1.
         -1    1    6    6    0  502 -0.38505544621E+02 -0.22944849364E+02  0.55562081540E+01  0.45166519989E+02  0.00000000000E+00 0.  1.
<mgrwt>
<rscale>  0 0.21236891E+04</rscale>
<asrwt>0</asrwt>
<pdfrwt beam="1">  1        1 0.45467211E+00 0.21236891E+04</pdfrwt>
<pdfrwt beam="2">  1       -2 0.24203919E+00 0.21236891E+04</pdfrwt>
<totfact> 0.35700275E-02</totfact>
</mgrwt>
</event>
<event>
12    3  0.2422421E-007  0.7477177E+03  0.7818608E-02  0.9638938E-01
         -2   -1    0    0    0  501 -0.00000000000E+00  0.00000000000E+00  0.10351985646E+04  0.10351985646E+04  0.00000000000E+00 0.  1.
          1   -1    0    0  501    0  0.00000000000E+00 -0.00000000000E+00 -0.55100817165E+03  0.55100817165E+03  0.00000000000E+00 0. -1.
        -24    2    1    2    0    0  0.60902227202E+03  0.15722622917E+03  0.28043448298E+03  0.69346703525E+03  0.81392965131E+02 0.  0.
    5000000    2    1    2    0    0 -0.60902227202E+03 -0.15722622917E+03  0.20375590992E+03  0.89273970096E+03  0.59986622499E+03 0.  0.
        -24    2    4    4    0    0 -0.71300594134E+03 -0.14231160021E+03  0.20422812062E+03  0.75998308451E+03  0.85059388410E+02 0.  0.
         24    2    4    4    0    0  0.10398366931E+03 -0.14914628960E+02 -0.47221069740E+00  0.13275661645E+03  0.81172942452E+02 0.  0.
         11    1    3    3    0    0  0.28035157617E+03  0.11070573469E+03  0.11534710114E+03  0.32273475129E+03  0.00000000000E+00 0. -1.
        -12    1    3    3    0    0  0.32867069586E+03  0.46520494476E+02  0.16508738184E+03  0.37073228395E+03  0.00000000000E+00 0.  1.
         13    1    5    5    0    0 -0.30054297662E+03 -0.26604360617E+02  0.57369006145E+02  0.30712387674E+03  0.00000000000E+00 0. -1.
        -14    1    5    5    0    0 -0.41246296472E+03 -0.11570723959E+03  0.14685911448E+03  0.45285920777E+03  0.00000000000E+00 0.  1.
          4    1    6    6  502    0  0.17326283741E+02  0.29787078113E+02 -0.64815446155E+01  0.35063949456E+02  0.00000000000E+00 0. -1.
         -3    1    6    6    0  502  0.86657385573E+02 -0.44701707073E+02  0.60093339181E+01  0.97692666991E+02  0.00000000000E+00 0.  1.
<mgrwt>
<rscale>  0 0.74771766E+03</rscale>
<asrwt>0</asrwt>
<pdfrwt beam="1">  1        1 0.84770488E-01 0.74771766E+03</pdfrwt>
<pdfrwt beam="2">  1       -2 0.15926132E+00 0.74771766E+03</pdfrwt>
<totfact> 0.88202752E+00</totfact>
</mgrwt>
</event>
<event>
12    3  0.2422421E-007  0.8042155E+03  0.7818608E-02  0.9553935E-01
          1   -1    0    0  501    0  0.00000000000E+00  0.00000000000E+00  0.14111321859E+04  0.14111321859E+04  0.00000000000E+00 0. -1.
         -2   -1    0    0    0  501 -0.00000000000E+00 -0.00000000000E+00 -0.70035675584E+03  0.70035675584E+03  0.00000000000E+00 0.  1.
        -24    2    1    2    0    0 -0.59296872538E+03  0.37291566815E+03 -0.27945582680E+03  0.75835614423E+03  0.79564298015E+02 0.  0.
    5000000    2    1    2    0    0  0.59296872538E+03 -0.37291566815E+03  0.99023125689E+03  0.13531327975E+04  0.59977697588E+03 0.  0.
        -24    2    4    4    0    0  0.37466160364E+03  0.97944233028E+02  0.45804612437E+03  0.60548042770E+03  0.82679539534E+02 0.  0.
         24    2    4    4    0    0  0.21830712174E+03 -0.47085990118E+03  0.53218513252E+03  0.74765236983E+03  0.79975026660E+02 0.  0.
         11    1    3    3    0    0 -0.28262111043E+03  0.16233040678E+03 -0.89728953195E+02  0.33804901726E+03  0.00000000000E+00 0. -1.
        -12    1    3    3    0    0 -0.31034761495E+03  0.21058526138E+03 -0.18972687361E+03  0.42030712697E+03  0.00000000000E+00 0.  1.
         13    1    5    5    0    0  0.32803534319E+03  0.86899057806E+02  0.35111176504E+03  0.48830124327E+03  0.00000000000E+00 0. -1.
        -14    1    5    5    0    0  0.46626260444E+02  0.11045175222E+02  0.10693435933E+03  0.11717918443E+03  0.00000000000E+00 0.  1.
          4    1    6    6  502    0  0.21896661454E+03 -0.46153158618E+03  0.53299071868E+03  0.73826613733E+03  0.00000000000E+00 0. -1.
         -3    1    6    6    0  502 -0.65949280279E+00 -0.93283149990E+01 -0.80558615695E+00  0.93862324994E+01  0.00000000000E+00 0.  1.
<mgrwt>
<rscale>  0 0.80421548E+03</rscale>
<asrwt>0</asrwt>
<pdfrwt beam="1">  1        1 0.21709726E+00 0.80421548E+03</pdfrwt>
<pdfrwt beam="2">  1       -2 0.10774719E+00 0.80421548E+03</pdfrwt>
<totfact> 0.46808965E+00</totfact>
</mgrwt>
</event>
<event>
12    3  0.2422421E-007  0.9808177E+03  0.7818608E-02  0.9329837E-01
          1   -1    0    0  501    0  0.00000000000E+00  0.00000000000E+00  0.34754584651E+04  0.34754584651E+04  0.00000000000E+00 0. -1.
         -2   -1    0    0    0  501 -0.00000000000E+00 -0.00000000000E+00 -0.43175285143E+03  0.43175285143E+03  0.00000000000E+00 0.  1.
        -24    2    1    2    0    0  0.91907840438E+03 -0.27874620506E+03  0.42352900059E+03  0.10527945728E+04  0.81209839387E+02 0.  0.
    5000000    2    1    2    0    0 -0.91907840438E+03  0.27874620506E+03  0.26201766131E+04  0.28544167437E+04  0.59997075160E+03 0.  0.
        -24    2    4    4    0    0 -0.25002454237E+03 -0.36770177010E+02  0.23204626958E+03  0.35287838696E+03  0.82543122375E+02 0.  0.
         24    2    4    4    0    0 -0.66905386200E+03  0.31551638208E+03  0.23881303435E+04  0.25015383567E+04  0.85696879246E+02 0.  0.
         11    1    3    3    0    0  0.38438188122E+03 -0.82270357789E+02  0.14822262156E+03  0.42010449643E+03  0.00000000000E+00 0. -1.
        -12    1    3    3    0    0  0.53469652316E+03 -0.19647584728E+03  0.27530637904E+03  0.63269007640E+03  0.00000000000E+00 0.  1.
         13    1    5    5    0    0 -0.10529830666E+03 -0.29366394981E+02  0.50035993710E+02  0.12022362166E+03  0.00000000000E+00 0. -1.
        -14    1    5    5    0    0 -0.14472623571E+03 -0.74037820294E+01  0.18201027587E+03  0.23265476530E+03  0.00000000000E+00 0.  1.
          2    1    6    6  502    0 -0.27031104800E+03  0.17439276957E+03  0.10345667244E+04  0.10834247588E+04  0.00000000000E+00 0. -1.
         -1    1    6    6    0  502 -0.39874281401E+03  0.14112361250E+03  0.13535636191E+04  0.14181135979E+04  0.00000000000E+00 0.  1.
<mgrwt>
<rscale>  0 0.98081773E+03</rscale>
<asrwt>0</asrwt>
<pdfrwt beam="1">  1        1 0.53468590E+00 0.98081773E+03</pdfrwt>
<pdfrwt beam="2">  1       -2 0.66423518E-01 0.98081773E+03</pdfrwt>
<totfact> 0.49684664E-01</totfact>
</mgrwt>
</event>
<event>
12    3  0.2422421E-007  0.1900772E+04  0.7818608E-02  0.8654472E-01
          1   -1    0    0  501    0  0.00000000000E+00  0.00000000000E+00  0.19691511951E+04  0.19691511951E+04  0.00000000000E+00 0. -1.
         -2   -1    0    0    0  501 -0.00000000000E+00 -0.00000000000E+00 -0.19755357715E+04  0.19755357715E+04  0.00000000000E+00 0.  1.
        -24    2    1    2    0    0 -0.11315319875E+04  0.15249804270E+04 -0.32589856996E+03  0.19277324703E+04  0.63345541716E+02 0.  0.
    5000000    2    1    2    0    0  0.11315319875E+04 -0.15249804270E+04  0.31951399352E+03  0.20169544963E+04  0.60007191771E+03 0.  0.
        -24    2    4    4    0    0  0.25084385942E+03 -0.29482944792E+03 -0.16190720793E+03  0.42728169885E+03  0.80676272996E+02 0.  0.
         24    2    4    4    0    0  0.88068812811E+03 -0.12301509791E+04  0.48142120145E+03  0.15896727974E+04  0.80063845232E+02 0.  0.
         13    1    3    3    0    0 -0.56082409978E+03  0.75070815148E+03 -0.12883936439E+03  0.94587841788E+03  0.00000000000E+00 0. -1.
        -14    1    3    3    0    0 -0.57070788775E+03  0.77427227552E+03 -0.19705920557E+03  0.98185405243E+03  0.00000000000E+00 0.  1.
         13    1    5    5    0    0  0.30826703500E+02 -0.22495546245E+02 -0.43101881151E+02  0.57568284744E+02  0.00000000000E+00 0. -1.
        -14    1    5    5    0    0  0.22001715592E+03 -0.27233390168E+03 -0.11880532678E+03  0.36971341411E+03  0.00000000000E+00 0.  1.
          2    1    6    6  502    0  0.49916634734E+03 -0.75275927235E+03  0.31052376236E+03  0.95511181095E+03  0.00000000000E+00 0. -1.
         -1    1    6    6    0  502  0.38152178078E+03 -0.47739170673E+03  0.17089743909E+03  0.63456098647E+03  0.00000000000E+00 0.  1.
<mgrwt>
<rscale>  0 0.19007721E+04</rscale>
<asrwt>0</asrwt>
<pdfrwt beam="1">  1        1 0.30294634E+00 0.19007721E+04</pdfrwt>
<pdfrwt beam="2">  1       -2 0.30392858E+00 0.19007721E+04</pdfrwt>
<totfact> 0.74183462E-02</totfact>
</mgrwt>
</event>
<event>
12    3  0.2422421E-007  0.1045280E+04  0.7818608E-02  0.9260231E-01
          1   -1    0    0  501    0  0.00000000000E+00  0.00000000000E+00  0.68901024819E+03  0.68901024819E+03  0.00000000000E+00 0. -1.
         -2   -1    0    0    0  501 -0.00000000000E+00 -0.00000000000E+00 -0.16435814514E+04  0.16435814514E+04  0.00000000000E+00 0.  1.
        -24    2    1    2    0    0  0.52070634958E+03  0.81479218934E+03 -0.59482016596E+03  0.11392024073E+04  0.94602751812E+02 0.  0.
    5000000    2    1    2    0    0 -0.52070634958E+03 -0.81479218934E+03 -0.35975103730E+03  0.11933892923E+04  0.59977977620E+03 0.  0.
        -24    2    4    4    0    0  0.11964794329E+03 -0.19150353055E+03 -0.49352411616E+02  0.24422491801E+03  0.78872793157E+02 0.  0.
         24    2    4    4    0    0 -0.64035429287E+03 -0.62328865879E+03 -0.31039862568E+03  0.94916437433E+03  0.77610115936E+02 0.  0.
         11    1    3    3    0    0  0.39275436834E+03  0.66549767318E+03 -0.44245994185E+03  0.89045715619E+03  0.00000000000E+00 0. -1.
        -12    1    3    3    0    0  0.12795198124E+03  0.14929451615E+03 -0.15236022411E+03  0.24874525110E+03  0.00000000000E+00 0.  1.
         11    1    5    5    0    0  0.41382268533E+02 -0.52979980891E+02  0.20757604161E+02  0.70358003487E+02  0.00000000000E+00 0. -1.
        -12    1    5    5    0    0  0.78265674757E+02 -0.13852354965E+03 -0.70110015776E+02  0.17386691452E+03  0.00000000000E+00 0.  1.
          2    1    6    6  502    0 -0.40625618796E+03 -0.42663650000E+03 -0.17317417529E+03  0.61404567287E+03  0.00000000000E+00 0. -1.
         -1    1    6    6    0  502 -0.23409810491E+03 -0.19665215879E+03 -0.13722445039E+03  0.33511870146E+03  0.00000000000E+00 0.  1.
<mgrwt>
<rscale>  0 0.10452799E+04</rscale>
<asrwt>0</asrwt>
<pdfrwt beam="1">  1        1 0.10600158E+00 0.10452799E+04</pdfrwt>
<pdfrwt beam="2">  1       -2 0.25285868E+00 0.10452799E+04</pdfrwt>
<totfact> 0.15043329E+00</totfact>
</mgrwt>
</event>
<event>
12    3  0.2422421E-007  0.6353720E+03  0.7818608E-02  0.9834621E-01
         -2   -1    0    0    0  501 -0.00000000000E+00  0.00000000000E+00  0.18495485382E+03  0.18495485382E+03  0.00000000000E+00 0.  1.
          1   -1    0    0  501    0  0.00000000000E+00 -0.00000000000E+00 -0.22811711165E+04  0.22811711165E+04  0.00000000000E+00 0. -1.
        -24    2    1    2    0    0  0.37676241676E+03  0.33509611173E+03 -0.93300847622E+03  0.10635212974E+04  0.79582727956E+02 0.  0.
    5000000    2    1    2    0    0 -0.37676241676E+03 -0.33509611173E+03 -0.11632077864E+04  0.14026046729E+04  0.60000682592E+03 0.  0.
        -24    2    4    4    0    0 -0.37370831513E+03  0.42186454943E+02 -0.71098462761E+03  0.80836544909E+03  0.80733863986E+02 0.  0.
         24    2    4    4    0    0 -0.30541016269E+01 -0.37728256667E+03 -0.45222315881E+03  0.59423922377E+03  0.79139162606E+02 0.  0.
         11    1    3    3    0    0  0.10297064970E+03  0.87778639552E+02 -0.32904001816E+03  0.35577433552E+03  0.00000000000E+00 0. -1.
        -12    1    3    3    0    0  0.27379176705E+03  0.24731747217E+03 -0.60396845806E+03  0.70774696190E+03  0.00000000000E+00 0.  1.
         11    1    5    5    0    0 -0.25863863986E+03 -0.88028118257E+01 -0.47908714384E+03  0.54451439551E+03  0.00000000000E+00 0. -1.
        -12    1    5    5    0    0 -0.11506967527E+03  0.50989266769E+02 -0.23189748378E+03  0.26385105358E+03  0.00000000000E+00 0.  1.
          2    1    6    6  502    0 -0.20345046703E+02 -0.34135354313E+03 -0.37618704923E+03  0.50838259052E+03  0.00000000000E+00 0. -1.
         -1    1    6    6    0  502  0.17290945077E+02 -0.35929023539E+02 -0.76036109577E+02  0.85856633254E+02  0.00000000000E+00 0.  1.
<mgrwt>
<rscale>  0 0.63537199E+03</rscale>
<asrwt>0</asrwt>
<pdfrwt beam="1">  1        1 0.35094942E+00 0.63537199E+03</pdfrwt>
<pdfrwt beam="2">  1       -2 0.28454591E-01 0.63537199E+03</pdfrwt>
<totfact> 0.20202026E+01</totfact>
</mgrwt>
</event>
<event>
12    3  0.2422421E-007  0.5222716E+03  0.7818608E-02  0.1008124E+00
          1   -1    0    0  501    0  0.00000000000E+00  0.00000000000E+00  0.95058242681E+03  0.95058242681E+03  0.00000000000E+00 0. -1.
         -2   -1    0    0    0  501 -0.00000000000E+00 -0.00000000000E+00 -0.29377983132E+03  0.29377983132E+03  0.00000000000E+00 0.  1.
        -24    2    1    2    0    0 -0.14574432836E+03  0.31648033813E+03  0.16080344053E+03  0.39122906883E+03  0.76165767527E+02 0.  0.
    5000000    2    1    2    0    0  0.14574432836E+03 -0.31648033813E+03  0.49599915496E+03  0.85313318929E+03  0.60034978411E+03 0.  0.
        -24    2    4    4    0    0  0.37027665986E+03 -0.18269710581E+03  0.28700220984E+03  0.50913009118E+03  0.79750510864E+02 0.  0.
         24    2    4    4    0    0 -0.22453233150E+03 -0.13378323231E+03  0.20899694512E+03  0.34400309811E+03  0.79659822389E+02 0.  0.
         11    1    3    3    0    0 -0.80101236616E+02  0.25274055661E+03  0.12164185631E+03  0.29170316808E+03  0.00000000000E+00 0. -1.
        -12    1    3    3    0    0 -0.65643091740E+02  0.63739781515E+02  0.39161584221E+02  0.99525900747E+02  0.00000000000E+00 0.  1.
         13    1    5    5    0    0  0.12215282805E+03 -0.80917716995E+02  0.14294837801E+03  0.20470278234E+03  0.00000000000E+00 0. -1.
        -14    1    5    5    0    0  0.24812383181E+03 -0.10177938882E+03  0.14405383184E+03  0.30442730884E+03  0.00000000000E+00 0.  1.
          2    1    6    6  502    0 -0.14671706957E+03 -0.12879856816E+03  0.14697453944E+03  0.24436956624E+03  0.00000000000E+00 0. -1.
         -1    1    6    6    0  502 -0.77815261930E+02 -0.49846641567E+01  0.62022405680E+02  0.99633531867E+02  0.00000000000E+00 0.  1.
<mgrwt>
<rscale>  0 0.52227163E+03</rscale>
<asrwt>0</asrwt>
<pdfrwt beam="1">  1        1 0.14624345E+00 0.52227163E+03</pdfrwt>
<pdfrwt beam="2">  1       -2 0.45196898E-01 0.52227163E+03</pdfrwt>
<totfact> 0.70191976E+01</totfact>
</mgrwt>
</event>
<event>
12    3  0.2422421E-007  0.6384821E+03  0.7818608E-02  0.9828635E-01
         -2   -1    0    0    0  501 -0.00000000000E+00  0.00000000000E+00  0.69489582345E+03  0.69489582345E+03  0.00000000000E+00 0.  1.
          1   -1    0    0  501    0  0.00000000000E+00 -0.00000000000E+00 -0.60437878032E+03  0.60437878032E+03  0.00000000000E+00 0. -1.
        -24    2    1    2    0    0  0.32582213730E+03 -0.38635511715E+03  0.53120486066E+02  0.51399396686E+03  0.77056279543E+02 0.  0.
    5000000    2    1    2    0    0 -0.32582213730E+03  0.38635511715E+03  0.37396557066E+02  0.78528063692E+03  0.59986401336E+03 0.  0.
        -24    2    4    4    0    0  0.13869965622E+03  0.23403211563E+03  0.56087096270E+02  0.28941519802E+03  0.81282031799E+02 0.  0.
         24    2    4    4    0    0 -0.46452179352E+03  0.15232300152E+03 -0.18690539203E+02  0.49586543890E+03  0.80934564843E+02 0.  0.
         11    1    5    5    0    0  0.39373149737E+02  0.10858285460E+03 -0.10763844461E+02  0.11600147232E+03  0.00000000000E+00 0. -1.
        -12    1    5    5    0    0  0.99326506481E+02  0.12544926103E+03  0.66850940731E+02  0.17341372570E+03  0.00000000000E+00 0.  1.
         13    1    3    3    0    0  0.10758561094E+03 -0.16695553062E+03 -0.70482096677E+01  0.19874227066E+03  0.00000000000E+00 0. -1.
        -14    1    3    3    0    0  0.21823652637E+03 -0.21939958653E+03  0.60168695734E+02  0.31525169620E+03  0.00000000000E+00 0.  1.
          2    1    6    6  502    0 -0.44483665396E+03  0.15929138778E+03 -0.27284378671E+02  0.47328409253E+03  0.00000000000E+00 0. -1.
         -1    1    6    6    0  502 -0.19685139564E+02 -0.69683862604E+01  0.85938394679E+01  0.22581346362E+02  0.00000000000E+00 0.  1.
<mgrwt>
<rscale>  0 0.63848207E+03</rscale>
<asrwt>0</asrwt>
<pdfrwt beam="1">  1        1 0.92981351E-01 0.63848207E+03</pdfrwt>
<pdfrwt beam="2">  1       -2 0.10690705E+00 0.63848207E+03</pdfrwt>
<totfact> 0.21509789E+01</totfact>
</mgrwt>
</event>
<event>
12    3  0.2422421E-007  0.6584742E+03  0.7818608E-02  0.9791007E-01
          1   -1    0    0  501    0  0.00000000000E+00  0.00000000000E+00  0.74134442154E+03  0.74134442154E+03  0.00000000000E+00 0. -1.
         -2   -1    0    0    0  501 -0.00000000000E+00 -0.00000000000E+00 -0.65092779676E+03  0.65092779676E+03  0.00000000000E+00 0.  1.
        -24    2    1    2    0    0  0.50608356124E+03  0.13434195384E+03  0.24070867257E+03  0.58185393498E+03  0.80280788949E+02 0.  0.
    5000000    2    1    2    0    0 -0.50608356124E+03 -0.13434195384E+03 -0.15029204780E+03  0.81041828333E+03  0.60001813539E+03 0.  0.
        -24    2    4    4    0    0  0.12297672432E+03 -0.67183911738E+02 -0.51438835609E+02  0.16521261644E+03  0.70797613673E+02 0.  0.
         24    2    4    4    0    0 -0.62906028556E+03 -0.67158042099E+02 -0.98853212189E+02  0.64520566689E+03  0.79318027849E+02 0.  0.
         11    1    3    3    0    0  0.28278204574E+03  0.42640085086E+02  0.10314415237E+03  0.30401081957E+03  0.00000000000E+00 0. -1.
        -12    1    3    3    0    0  0.22330151551E+03  0.91701868751E+02  0.13756452021E+03  0.27784311541E+03  0.00000000000E+00 0.  1.
         13    1    5    5    0    0  0.85335009182E+02 -0.65990486806E+01 -0.30758920225E+02  0.90949009939E+02  0.00000000000E+00 0. -1.
        -14    1    5    5    0    0  0.37641715134E+02 -0.60584863058E+02 -0.20679915384E+02  0.74263606499E+02  0.00000000000E+00 0.  1.
          2    1    6    6  502    0 -0.40609936066E+03 -0.45839540312E+02 -0.10196451426E+03  0.42120626343E+03  0.00000000000E+00 0. -1.
         -1    1    6    6    0  502 -0.22296092490E+03 -0.21318501787E+02  0.31113020704E+01  0.22399940346E+03  0.00000000000E+00 0.  1.
<mgrwt>
<rscale>  0 0.65847422E+03</rscale>
<asrwt>0</asrwt>
<pdfrwt beam="1">  1        1 0.11405299E+00 0.65847422E+03</pdfrwt>
<pdfrwt beam="2">  1       -2 0.10014274E+00 0.65847422E+03</pdfrwt>
<totfact> 0.18527861E+01</totfact>
</mgrwt>
</event>
<event>
12    3  0.2422421E-007  0.7400094E+03  0.7818608E-02  0.9651156E-01
          1   -1    0    0  501    0  0.00000000000E+00  0.00000000000E+00  0.43829562556E+03  0.43829562556E+03  0.00000000000E+00 0. -1.
         -2   -1    0    0    0  501 -0.00000000000E+00 -0.00000000000E+00 -0.14263837849E+04  0.14263837849E+04  0.00000000000E+00 0.  1.
        -24    2    1    2    0    0 -0.61078603086E+03  0.19268546468E+03 -0.17553904662E+03  0.66865585189E+03  0.78098832140E+02 0.  0.
    5000000    2    1    2    0    0  0.61078603086E+03 -0.19268546468E+03 -0.81254911276E+03  0.11960235586E+04  0.60004085554E+03 0.  0.
        -24    2    4    4    0    0  0.50396163090E+02 -0.25054295168E+03 -0.10763503984E+03  0.29012577081E+03  0.85300159405E+02 0.  0.
         24    2    4    4    0    0  0.56038986777E+03  0.57857487000E+02 -0.70491407292E+03  0.90589778780E+03  0.79766277621E+02 0.  0.
         13    1    3    3    0    0 -0.52668863709E+03  0.13989453667E+03 -0.13513288438E+03  0.56145551763E+03  0.00000000000E+00 0. -1.
        -14    1    3    3    0    0 -0.84097393771E+02  0.52790928007E+02 -0.40406162245E+02  0.10720033426E+03  0.00000000000E+00 0.  1.
         13    1    5    5    0    0 -0.20293531533E+02 -0.72054851634E+02 -0.12589506909E+02  0.75909319259E+02  0.00000000000E+00 0. -1.
        -14    1    5    5    0    0  0.70689694623E+02 -0.17848810005E+03 -0.95045532935E+02  0.21421645155E+03  0.00000000000E+00 0.  1.
          2    1    6    6  502    0  0.30564911228E+03  0.71261215478E+02 -0.39470916844E+03  0.50427657919E+03  0.00000000000E+00 0. -1.
         -1    1    6    6    0  502  0.25474075550E+03 -0.13403728478E+02 -0.31020490448E+03  0.40162120862E+03  0.00000000000E+00 0.  1.
<mgrwt>
<rscale>  0 0.74000941E+03</rscale>
<asrwt>0</asrwt>
<pdfrwt beam="1">  1        1 0.67430096E-01 0.74000941E+03</pdfrwt>
<pdfrwt beam="2">  1       -2 0.21944366E+00 0.74000941E+03</pdfrwt>
<totfact> 0.47591755E+00</totfact>
</mgrwt>
</event>
<event>
12    3  0.2422421E-007  0.7636418E+03  0.7818608E-02  0.9614188E-01
         -2   -1    0    0    0  501 -0.00000000000E+00  0.00000000000E+00  0.25906923524E+04  0.25906923524E+04  0.00000000000E+00 0.  1.
          1   -1    0    0  501    0  0.00000000000E+00 -0.00000000000E+00 -0.63618645873E+03  0.63618645873E+03  0.00000000000E+00 0. -1.
        -24    2    1    2    0    0 -0.73501768420E+03  0.15110015957E+03  0.21215388704E+04  0.22516762029E+04  0.77693563969E+02 0.  0.
    5000000    2    1    2    0    0  0.73501768420E+03 -0.15110015957E+03 -0.16703297673E+03  0.97520260820E+03  0.60003154702E+03 0.  0.
        -24    2    4    4    0    0  0.47664434579E+03 -0.27816217507E+02 -0.37366761464E+03  0.61191214842E+03  0.82737034154E+02 0.  0.
         24    2    4    4    0    0  0.25837333842E+03 -0.12328394207E+03  0.20663463792E+03  0.36329045978E+03  0.85594229992E+02 0.  0.
         11    1    5    5    0    0  0.40965512294E+03 -0.50851483430E+01 -0.28786937372E+03  0.50071144865E+03  0.00000000000E+00 0. -1.
        -12    1    5    5    0    0  0.66989222852E+02 -0.22731069164E+02 -0.85798240927E+02  0.11120069977E+03  0.00000000000E+00 0.  1.
         13    1    3    3    0    0 -0.43972063282E+03  0.65319674652E+02  0.11655508643E+04  0.12474492823E+04  0.00000000000E+00 0. -1.
        -14    1    3    3    0    0 -0.29529705138E+03  0.85780484922E+02  0.95598800615E+03  0.10042269206E+04  0.00000000000E+00 0.  1.
          4    1    6    6  502    0  0.16732974298E+03 -0.41442801502E+02  0.14954833473E+03  0.22821361288E+03  0.00000000000E+00 0. -1.
         -3    1    6    6    0  502  0.91043595435E+02 -0.81841140564E+02  0.57086303185E+02  0.13507684691E+03  0.00000000000E+00 0.  1.
<mgrwt>
<rscale>  0 0.76364178E+03</rscale>
<asrwt>0</asrwt>
<pdfrwt beam="1">  1        1 0.97874841E-01 0.76364178E+03</pdfrwt>
<pdfrwt beam="2">  1       -2 0.39856805E+00 0.76364178E+03</pdfrwt>
<totfact> 0.22304228E-01</totfact>
</mgrwt>
</event>
<event>
12    3  0.2422421E-007  0.4946948E+03  0.7818608E-02  0.1015173E+00
         -2   -1    0    0    0  501 -0.00000000000E+00  0.00000000000E+00  0.90756555685E+03  0.90756555685E+03  0.00000000000E+00 0.  1.
          3   -1    0    0  501    0  0.00000000000E+00 -0.00000000000E+00 -0.28719513418E+03  0.28719513418E+03  0.00000000000E+00 0. -1.
        -24    2    1    2    0    0 -0.14035226806E+03  0.29619356145E+03  0.20370699192E+03  0.39415623325E+03  0.80207310496E+02 0.  0.
    5000000    2    1    2    0    0  0.14035226806E+03 -0.29619356145E+03  0.41666343076E+03  0.80060445778E+03  0.59994141239E+03 0.  0.
        -24    2    4    4    0    0  0.17839868371E+03  0.12221699708E+03  0.47101231408E+02  0.23581141290E+03  0.81396632183E+02 0.  0.
         24    2    4    4    0    0 -0.38046415643E+02 -0.41841055852E+03  0.36956219935E+03  0.56479304488E+03  0.76811712202E+02 0.  0.
         11    1    3    3    0    0 -0.31472539181E+02  0.15352660232E+03  0.78114578269E+02  0.17510804002E+03  0.00000000000E+00 0. -1.
        -12    1    3    3    0    0 -0.10887972888E+03  0.14266695913E+03  0.12559241365E+03  0.21904819322E+03  0.00000000000E+00 0.  1.
         11    1    5    5    0    0 -0.63812786999E+01  0.30785504862E+01  0.10888883905E+02  0.12990996252E+02  0.00000000000E+00 0. -1.
        -12    1    5    5    0    0  0.18477996241E+03  0.11913844659E+03  0.36212347503E+02  0.22282041665E+03  0.00000000000E+00 0.  1.
          2    1    6    6  502    0 -0.34713388081E+02 -0.73006493485E+02  0.84445996027E+02  0.11690206862E+03  0.00000000000E+00 0. -1.
         -1    1    6    6    0  502 -0.33330275616E+01 -0.34540406504E+03  0.28511620332E+03  0.44789097626E+03  0.00000000000E+00 0.  1.
<mgrwt>
<rscale>  0 0.49469475E+03</rscale>
<asrwt>0</asrwt>
<pdfrwt beam="1">  1        3 0.44183867E-01 0.49469475E+03</pdfrwt>
<pdfrwt beam="2">  1       -2 0.13962547E+00 0.49469475E+03</pdfrwt>
<totfact> 0.78481259E+00</totfact>
</mgrwt>
</event>
<event>
12    3  0.2422421E-007  0.4833931E+03  0.7818608E-02  0.1018207E+00
          1   -1    0    0  501    0  0.00000000000E+00  0.00000000000E+00  0.87692846062E+03  0.87692846062E+03  0.00000000000E+00 0. -1.
         -2   -1    0    0    0  501 -0.00000000000E+00 -0.00000000000E+00 -0.44302288281E+03  0.44302288281E+03  0.00000000000E+00 0.  1.
        -24    2    1    2    0    0 -0.84358775195E+02  0.46155685667E+03  0.90804135094E+02  0.48472102022E+03  0.80981118798E+02 0.  0.
    5000000    2    1    2    0    0  0.84358775195E+02 -0.46155685667E+03  0.34310144271E+03  0.83523032320E+03  0.59978325911E+03 0.  0.
        -24    2    4    4    0    0 -0.32154731223E+02 -0.18006372399E+03 -0.15150451126E+03  0.24870256130E+03  0.73773136215E+02 0.  0.
         24    2    4    4    0    0  0.11651350642E+03 -0.28149313268E+03  0.49460595398E+03  0.58652776190E+03  0.81030764828E+02 0.  0.
         11    1    3    3    0    0 -0.23904422915E+02  0.31153077925E+03  0.80470940119E+02  0.32264286767E+03  0.00000000000E+00 0. -1.
        -12    1    3    3    0    0 -0.60454352280E+02  0.15002607742E+03  0.10333194975E+02  0.16207815255E+03  0.00000000000E+00 0.  1.
         13    1    5    5    0    0 -0.37357037310E+02 -0.99039080746E+02 -0.45595225059E+02  0.11525281905E+03  0.00000000000E+00 0. -1.
        -14    1    5    5    0    0  0.52023060873E+01 -0.81024643245E+02 -0.10590928620E+03  0.13344974225E+03  0.00000000000E+00 0.  1.
          2    1    6    6  502    0  0.32882604360E+02 -0.10899763161E+03  0.25804839148E+03  0.28204737494E+03  0.00000000000E+00 0. -1.
         -1    1    6    6    0  502  0.83630902058E+02 -0.17249550108E+03  0.23655756250E+03  0.30448038696E+03  0.00000000000E+00 0.  1.
<mgrwt>
<rscale>  0 0.48339314E+03</rscale>
<asrwt>0</asrwt>
<pdfrwt beam="1">  1        1 0.13491207E+00 0.48339314E+03</pdfrwt>
<pdfrwt beam="2">  1       -2 0.68157367E-01 0.48339314E+03</pdfrwt>
<totfact> 0.34545834E+01</totfact>
</mgrwt>
</event>
<event>
12    3  0.2422421E-007  0.4924706E+03  0.7818608E-02  0.1015763E+00
          1   -1    0    0  501    0  0.00000000000E+00  0.00000000000E+00  0.78511414093E+03  0.78511414093E+03  0.00000000000E+00 0. -1.
         -2   -1    0    0    0  501 -0.00000000000E+00 -0.00000000000E+00 -0.39224214595E+03  0.39224214595E+03  0.00000000000E+00 0.  1.
        -24    2    1    2    0    0  0.20568982427E+03 -0.24910860207E+03 -0.77796988148E+02  0.34930119670E+03  0.10768265981E+03 0.  0.
    5000000    2    1    2    0    0 -0.20568982427E+03  0.24910860207E+03  0.47066898313E+03  0.82805509018E+03  0.59981875701E+03 0.  0.
        -24    2    4    4    0    0 -0.24274573747E+03  0.41533952489E+03  0.38434883963E+03  0.62090306651E+03  0.79775770014E+02 0.  0.
         24    2    4    4    0    0  0.37055913207E+02 -0.16623092283E+03  0.86320143503E+02  0.20715202367E+03  0.80342599702E+02 0.  0.
         13    1    3    3    0    0  0.47192691565E+02 -0.64507179130E+02 -0.69392998582E+02  0.10584760058E+03  0.00000000000E+00 0. -1.
        -14    1    3    3    0    0  0.15849713270E+03 -0.18460142294E+03 -0.84039895666E+01  0.24345359612E+03  0.00000000000E+00 0.  1.
         13    1    5    5    0    0 -0.16209035513E+03  0.20189683329E+03  0.18945382641E+03  0.32082451101E+03  0.00000000000E+00 0. -1.
        -14    1    5    5    0    0 -0.80655382341E+02  0.21344269160E+03  0.19489501321E+03  0.30007855550E+03  0.00000000000E+00 0.  1.
          2    1    6    6  502    0  0.43618180804E+02 -0.11541681176E+03  0.94306199963E+02  0.15529728100E+03  0.00000000000E+00 0. -1.
         -1    1    6    6    0  502 -0.65622675965E+01 -0.50814111065E+02 -0.79860564600E+01  0.51854742667E+02  0.00000000000E+00 0.  1.
<mgrwt>
<rscale>  0 0.49247060E+03</rscale>
<asrwt>0</asrwt>
<pdfrwt beam="1">  1        1 0.12078679E+00 0.49247060E+03</pdfrwt>
<pdfrwt beam="2">  1       -2 0.60344946E-01 0.49247060E+03</pdfrwt>
<totfact> 0.53376406E+01</totfact>
</mgrwt>
</event>
<event>
12    3  0.2422421E-007  0.9832750E+03  0.7818608E-02  0.9327081E-01
          1   -1    0    0  501    0  0.00000000000E+00  0.00000000000E+00  0.10728486096E+04  0.10728486096E+04  0.00000000000E+00 0. -1.
         -2   -1    0    0    0  501 -0.00000000000E+00 -0.00000000000E+00 -0.94049901642E+03  0.94049901642E+03  0.00000000000E+00 0.  1.
        -24    2    1    2    0    0  0.52895772208E+03  0.74429798586E+03  0.58088803844E+02  0.91830242099E+03  0.78289614693E+02 0.  0.
    5000000    2    1    2    0    0 -0.52895772208E+03 -0.74429798586E+03  0.74260789349E+02  0.10950452050E+04  0.59986129459E+03 0.  0.
        -24    2    4    4    0    0 -0.52975246323E+03 -0.30602724320E+03  0.16818507853E+03  0.63957004531E+03  0.80456673661E+02 0.  0.
         24    2    4    4    0    0  0.79474115870E+00 -0.43827074266E+03 -0.93924289185E+02  0.45547515973E+03  0.80956615191E+02 0.  0.
         11    1    5    5    0    0 -0.29360779601E+03 -0.15100088974E+03  0.52475705383E+02  0.33430600688E+03  0.00000000000E+00 0. -1.
        -12    1    5    5    0    0 -0.23614466722E+03 -0.15502635346E+03  0.11570937315E+03  0.30526403843E+03  0.00000000000E+00 0.  1.
         11    1    3    3    0    0  0.43958328773E+03  0.60224953884E+03  0.18361741199E+02  0.74583853978E+03  0.00000000000E+00 0. -1.
        -12    1    3    3    0    0  0.89374434341E+02  0.14204844702E+03  0.39727062645E+02  0.17246388121E+03  0.00000000000E+00 0.  1.
          2    1    6    6  502    0  0.20568074795E+02 -0.30978327241E+03 -0.97533184288E+02  0.32542501994E+03  0.00000000000E+00 0. -1.
         -1    1    6    6    0  502 -0.19773333636E+02 -0.12848747025E+03  0.36088951038E+01  0.13005013978E+03  0.00000000000E+00 0.  1.
<mgrwt>
<rscale>  0 0.98327504E+03</rscale>
<asrwt>0</asrwt>
<pdfrwt beam="1">  1        1 0.16505363E+00 0.98327504E+03</pdfrwt>
<pdfrwt beam="2">  1       -2 0.14469216E+00 0.98327504E+03</pdfrwt>
<totfact> 0.38328924E+00</totfact>
</mgrwt>
</event>
<event>
12    3  0.2422421E-007  0.8583914E+03  0.7818608E-02  0.9479143E-01
          1   -1    0    0  501    0  0.00000000000E+00  0.00000000000E+00  0.13891312871E+04  0.13891312871E+04  0.00000000000E+00 0. -1.
         -2   -1    0    0    0  501 -0.00000000000E+00 -0.00000000000E+00 -0.69795165045E+03  0.69795165045E+03  0.00000000000E+00 0.  1.
        -24    2    1    2    0    0 -0.57721148549E+03  0.51689740006E+03  0.78088007541E+03  0.11029845171E+04  0.80281577006E+02 0.  0.
    5000000    2    1    2    0    0  0.57721148549E+03 -0.51689740006E+03 -0.89700438800E+02  0.98409842042E+03  0.60003959135E+03 0.  0.
        -24    2    4    4    0    0  0.44629004825E+03 -0.62365249178E+03 -0.15370634328E+03  0.78643533747E+03  0.82083264902E+02 0.  0.
         24    2    4    4    0    0  0.13092143723E+03  0.10675509173E+03  0.64005904480E+02  0.19766308295E+03  0.80230082992E+02 0.  0.
         11    1    5    5    0    0  0.18298543518E+03 -0.18899444165E+03 -0.50126583481E+02  0.26779701797E+03  0.00000000000E+00 0. -1.
        -12    1    5    5    0    0  0.26330461307E+03 -0.43465805013E+03 -0.10357975980E+03  0.51863831950E+03  0.00000000000E+00 0.  1.
         13    1    3    3    0    0 -0.22046421022E+03  0.16867315701E+03  0.32538160977E+03  0.42770117356E+03  0.00000000000E+00 0. -1.
        -14    1    3    3    0    0 -0.35674727527E+03  0.34822424305E+03  0.45549846563E+03  0.67528334353E+03  0.00000000000E+00 0.  1.
          2    1    6    6  502    0  0.94664173649E+01  0.38233618666E+01 -0.16390380813E+02  0.19309990598E+02  0.00000000000E+00 0. -1.
         -1    1    6    6    0  502  0.12145501987E+03  0.10293172986E+03  0.80396285293E+02  0.17835309235E+03  0.00000000000E+00 0.  1.
<mgrwt>
<rscale>  0 0.85839136E+03</rscale>
<asrwt>0</asrwt>
<pdfrwt beam="1">  1        1 0.21371250E+00 0.85839136E+03</pdfrwt>
<pdfrwt beam="2">  1       -2 0.10737718E+00 0.85839136E+03</pdfrwt>
<totfact> 0.48546342E+00</totfact>
</mgrwt>
</event>
<event>
12    3  0.2422421E-007  0.6906268E+03  0.7818608E-02  0.9733397E-01
         -2   -1    0    0    0  501 -0.00000000000E+00  0.00000000000E+00  0.21710076687E+03  0.21710076687E+03  0.00000000000E+00 0.  1.
          1   -1    0    0  501    0  0.00000000000E+00 -0.00000000000E+00 -0.34777929787E+04  0.34777929787E+04  0.00000000000E+00 0. -1.
        -24    2    1    2    0    0  0.20505063934E+02 -0.67357341885E+03 -0.21999593855E+04  0.23023304578E+04  0.82356728029E+02 0.  0.
    5000000    2    1    2    0    0 -0.20505063934E+02  0.67357341885E+03 -0.10607328264E+04  0.13925632879E+04  0.59996397685E+03 0.  0.
        -24    2    4    4    0    0  0.69161087895E+02  0.33327255519E+03 -0.95461893827E+03  0.10166591600E+04  0.80278752426E+02 0.  0.
         24    2    4    4    0    0 -0.89666151829E+02  0.34030086367E+03 -0.10611388811E+03  0.37590412791E+03  0.78734106567E+02 0.  0.
         13    1    5    5    0    0  0.66843924599E+01  0.13873822387E+03 -0.29390301915E+03  0.32507223894E+03  0.00000000000E+00 0. -1.
        -14    1    5    5    0    0  0.62476695435E+02  0.19453433131E+03 -0.66071591912E+03  0.69158692101E+03  0.00000000000E+00 0.  1.
         13    1    3    3    0    0  0.44180329332E+02 -0.21443762358E+03 -0.68304783258E+03  0.71727939988E+03  0.00000000000E+00 0. -1.
        -14    1    3    3    0    0 -0.23675265398E+02 -0.45913579527E+03 -0.15169115529E+04  0.15850510579E+04  0.00000000000E+00 0.  1.
          2    1    6    6  502    0 -0.37444006388E+02  0.26545450134E+03 -0.92712650034E+02  0.28366138506E+03  0.00000000000E+00 0. -1.
         -1    1    6    6    0  502 -0.52222145441E+02  0.74846362327E+02 -0.13401238081E+02  0.92242742859E+02  0.00000000000E+00 0.  1.
<mgrwt>
<rscale>  0 0.69062680E+03</rscale>
<asrwt>0</asrwt>
<pdfrwt beam="1">  1        1 0.53504501E+00 0.69062680E+03</pdfrwt>
<pdfrwt beam="2">  1       -2 0.33400122E-01 0.69062680E+03</pdfrwt>
<totfact> 0.20972322E+00</totfact>
</mgrwt>
</event>
<event>
12    3  0.2422421E-007  0.5304528E+03  0.7818608E-02  0.1006122E+00
          1   -1    0    0  501    0  0.00000000000E+00  0.00000000000E+00  0.54368915601E+03  0.54368915601E+03  0.00000000000E+00 0. -1.
         -2   -1    0    0    0  501 -0.00000000000E+00 -0.00000000000E+00 -0.68232679297E+03  0.68232679297E+03  0.00000000000E+00 0.  1.
        -24    2    1    2    0    0  0.45610802015E+02 -0.40257136611E+03 -0.26605312003E+03  0.49114952245E+03  0.79369645651E+02 0.  0.
    5000000    2    1    2    0    0 -0.45610802015E+02  0.40257136611E+03  0.12741548307E+03  0.73486642653E+03  0.59970818690E+03 0.  0.
        -24    2    4    4    0    0 -0.10316595457E+03 -0.96961381555E+02 -0.82692373322E+02  0.18403515456E+03  0.83583406325E+02 0.  0.
         24    2    4    4    0    0  0.57555152555E+02  0.49953274766E+03  0.21010785639E+03  0.55083127197E+03  0.80151215122E+02 0.  0.
         11    1    3    3    0    0 -0.20633348242E+02 -0.15214538706E+03 -0.90460859556E+02  0.17820527763E+03  0.00000000000E+00 0. -1.
        -12    1    3    3    0    0  0.66244150257E+02 -0.25042597905E+03 -0.17559226048E+03  0.31294424482E+03  0.00000000000E+00 0.  1.
         11    1    5    5    0    0 -0.15446772437E+02 -0.16057963835E+01  0.15134899613E+02  0.21685168827E+02  0.00000000000E+00 0. -1.
        -12    1    5    5    0    0 -0.87719182133E+02 -0.95355585171E+02 -0.97827272936E+02  0.16234998573E+03  0.00000000000E+00 0.  1.
          4    1    6    6  502    0  0.15714686219E+02  0.74169797319E+02  0.63734893068E+02  0.99046689958E+02  0.00000000000E+00 0. -1.
         -1    1    6    6    0  502  0.41840466336E+02  0.42536295034E+03  0.14637296332E+03  0.45178458201E+03  0.00000000000E+00 0.  1.
<mgrwt>
<rscale>  0 0.53045285E+03</rscale>
<asrwt>0</asrwt>
<pdfrwt beam="1">  1        1 0.83644486E-01 0.53045285E+03</pdfrwt>
<pdfrwt beam="2">  1       -2 0.10497335E+00 0.53045285E+03</pdfrwt>
<totfact> 0.26400881E+01</totfact>
</mgrwt>
</event>
<event>
12    3  0.2422421E-007  0.3518007E+03  0.7818608E-02  0.1061878E+00
         -2   -1    0    0    0  501 -0.00000000000E+00  0.00000000000E+00  0.43132102615E+03  0.43132102615E+03  0.00000000000E+00 0.  1.
          1   -1    0    0  501    0  0.00000000000E+00 -0.00000000000E+00 -0.10098270092E+04  0.10098270092E+04  0.00000000000E+00 0. -1.
        -24    2    1    2    0    0 -0.29925259413E+03  0.18150712584E+01 -0.69428767138E+03  0.76078413312E+03  0.84862930650E+02 0.  0.
    5000000    2    1    2    0    0  0.29925259413E+03 -0.18150712584E+01  0.11578168834E+03  0.68036390223E+03  0.59994518960E+03 0.  0.
        -24    2    4    4    0    0  0.54307671841E+02 -0.82491369441E+02 -0.21716003736E+03  0.25165987968E+03  0.80125301629E+02 0.  0.
         24    2    4    4    0    0  0.24494492229E+03  0.80676298183E+02  0.33294172570E+03  0.42870402255E+03  0.80188940603E+02 0.  0.
         13    1    5    5    0    0 -0.88752734623E+01 -0.57345653131E+02 -0.83334336566E+02  0.10154755567E+03  0.00000000000E+00 0. -1.
        -14    1    5    5    0    0  0.63182945303E+02 -0.25145716310E+02 -0.13382570079E+03  0.15011232401E+03  0.00000000000E+00 0.  1.
         13    1    3    3    0    0 -0.78010376966E+02 -0.30823765273E+02 -0.14181015595E+03  0.16475995797E+03  0.00000000000E+00 0. -1.
        -14    1    3    3    0    0 -0.22124221716E+03  0.32638836531E+02 -0.55247751543E+03  0.59602417515E+03  0.00000000000E+00 0.  1.
          4    1    6    6  502    0  0.20031523584E+03  0.30036637508E+02  0.25162037280E+03  0.32301889312E+03  0.00000000000E+00 0. -1.
         -3    1    6    6    0  502  0.44629686447E+02  0.50639660675E+02  0.81321352899E+02  0.10568512943E+03  0.00000000000E+00 0.  1.
<mgrwt>
<rscale>  0 0.35180073E+03</rscale>
<asrwt>0</asrwt>
<pdfrwt beam="1">  1        1 0.15535800E+00 0.35180073E+03</pdfrwt>
<pdfrwt beam="2">  1       -2 0.66357082E-01 0.35180073E+03</pdfrwt>
<totfact> 0.29461387E+01</totfact>
</mgrwt>
</event>
<event>
12    3  0.2422421E-007  0.1257816E+04  0.7818608E-02  0.9063703E-01
         -4   -1    0    0    0  501 -0.00000000000E+00  0.00000000000E+00  0.19730680927E+04  0.19730680927E+04  0.00000000000E+00 0.  1.
          3   -1    0    0  501    0  0.00000000000E+00 -0.00000000000E+00 -0.81930754234E+03  0.81930754234E+03  0.00000000000E+00 0. -1.
        -24    2    1    2    0    0  0.11039693929E+04  0.46500063544E+03  0.60804587472E+03  0.13457153335E+04  0.79094637442E+02 0.  0.
    5000000    2    1    2    0    0 -0.11039693929E+04 -0.46500063544E+03  0.54571467560E+03  0.14466603015E+04  0.60003958988E+03 0.  0.
        -24    2    4    4    0    0 -0.11250729383E+04 -0.33805077092E+03  0.42159793468E+03  0.12506385328E+04  0.79274718293E+02 0.  0.
         24    2    4    4    0    0  0.21103545422E+02 -0.12694986452E+03  0.12411674093E+03  0.19602176872E+03  0.80361313473E+02 0.  0.
         11    1    3    3    0    0  0.26882714317E+03  0.77336637657E+02  0.13645766137E+03  0.31123894643E+03  0.00000000000E+00 0. -1.
        -12    1    3    3    0    0  0.83514224971E+03  0.38766399778E+03  0.47158821335E+03  0.10344763871E+04  0.00000000000E+00 0.  1.
         13    1    5    5    0    0 -0.60993517394E+03 -0.21926274332E+03  0.21184618957E+03  0.68189139535E+03  0.00000000000E+00 0. -1.
        -14    1    5    5    0    0 -0.51513776436E+03 -0.11878802761E+03  0.20975174511E+03  0.56874713745E+03  0.00000000000E+00 0.  1.
          2    1    6    6  502    0 -0.13574323340E+02 -0.72866705343E+02  0.10586562535E+03  0.12923370161E+03  0.00000000000E+00 0. -1.
         -1    1    6    6    0  502  0.34677868761E+02 -0.54083159174E+02  0.18251115577E+02  0.66788067107E+02  0.00000000000E+00 0.  1.
<mgrwt>
<rscale>  0 0.12578165E+04</rscale>
<asrwt>0</asrwt>
<pdfrwt beam="1">  1        3 0.12604731E+00 0.12578165E+04</pdfrwt>
<pdfrwt beam="2">  1       -4 0.30354894E+00 0.12578165E+04</pdfrwt>
<totfact> 0.32108187E-02</totfact>
</mgrwt>
</event>
<event>
12    3  0.2422421E-007  0.5613880E+03  0.7818608E-02  0.9988919E-01
         -2   -1    0    0    0  501 -0.00000000000E+00  0.00000000000E+00  0.28246824894E+03  0.28246824894E+03  0.00000000000E+00 0.  1.
          1   -1    0    0  501    0  0.00000000000E+00 -0.00000000000E+00 -0.16758354669E+04  0.16758354669E+04  0.00000000000E+00 0. -1.
        -24    2    1    2    0    0 -0.53965643803E+03 -0.10627290757E+03 -0.65849222968E+03  0.86176106189E+03  0.80604647832E+02 0.  0.
    5000000    2    1    2    0    0  0.53965643803E+03  0.10627290757E+03 -0.73487498830E+03  0.10965426540E+04  0.59986793675E+03 0.  0.
        -24    2    4    4    0    0  0.46880224492E+03  0.12867831382E+03 -0.16941923189E+03  0.52084089522E+03  0.78985496849E+02 0.  0.
         24    2    4    4    0    0  0.70854193118E+02 -0.22405406248E+02 -0.56545575641E+03  0.57570175875E+03  0.78549243513E+02 0.  0.
         11    1    5    5    0    0  0.13239878029E+03  0.14492127823E+02 -0.17002009472E+02  0.13427035085E+03  0.00000000000E+00 0. -1.
        -12    1    5    5    0    0  0.33640346463E+03  0.11418618599E+03 -0.15241722242E+03  0.38657054437E+03  0.00000000000E+00 0.  1.
         13    1    3    3    0    0 -0.48598391330E+03 -0.11429147814E+03 -0.61556363186E+03  0.79256639522E+03  0.00000000000E+00 0. -1.
        -14    1    3    3    0    0 -0.53672524734E+02  0.80185705704E+01 -0.42928597816E+02  0.69194666671E+02  0.00000000000E+00 0.  1.
          2    1    6    6  502    0  0.96953168976E+00 -0.97523369310E+01 -0.54566910205E+01  0.11217109441E+02  0.00000000000E+00 0. -1.
         -1    1    6    6    0  502  0.69884661429E+02 -0.12653069317E+02 -0.55999906539E+03  0.56448464931E+03  0.00000000000E+00 0.  1.
<mgrwt>
<rscale>  0 0.56138795E+03</rscale>
<asrwt>0</asrwt>
<pdfrwt beam="1">  1        1 0.25782083E+00 0.56138795E+03</pdfrwt>
<pdfrwt beam="2">  1       -2 0.43456655E-01 0.56138795E+03</pdfrwt>
<totfact> 0.23144790E+01</totfact>
</mgrwt>
</event>
<event>
12    3  0.2422421E-007  0.1375293E+04  0.7818608E-02  0.8971899E-01
         -2   -1    0    0    0  501 -0.00000000000E+00  0.00000000000E+00  0.14285027071E+04  0.14285027071E+04  0.00000000000E+00 0.  1.
          1   -1    0    0  501    0  0.00000000000E+00 -0.00000000000E+00 -0.14526837524E+04  0.14526837524E+04  0.00000000000E+00 0. -1.
        -24    2    1    2    0    0  0.12000966697E+04  0.63617452563E+03 -0.23715698033E+03  0.13810975299E+04  0.78974109743E+02 0.  0.
    5000000    2    1    2    0    0 -0.12000966697E+04 -0.63617452563E+03  0.21297593502E+03  0.15000889295E+04  0.59996500219E+03 0.  0.
        -24    2    4    4    0    0 -0.10873386224E+04 -0.62529516422E+03  0.35100118266E+03  0.13049360257E+04  0.79730036021E+02 0.  0.
         24    2    4    4    0    0 -0.11275804731E+03 -0.10879361411E+02 -0.13802524764E+03  0.19515290387E+03  0.78746105716E+02 0.  0.
         11    1    5    5    0    0 -0.68270915729E+03 -0.40172040172E+03  0.18238189169E+03  0.81285560158E+03  0.00000000000E+00 0. -1.
        -12    1    5    5    0    0 -0.40462946515E+03 -0.22357476250E+03  0.16861929097E+03  0.49208042409E+03  0.00000000000E+00 0.  1.
         11    1    3    3    0    0  0.15367626374E+03  0.67056339791E+02 -0.64756201660E+01  0.16779416081E+03  0.00000000000E+00 0. -1.
        -12    1    3    3    0    0  0.10464204060E+04  0.56911818584E+03 -0.23068136017E+03  0.12133033691E+04  0.00000000000E+00 0.  1.
          2    1    6    6  502    0 -0.85705778020E+02  0.27820959640E+02 -0.81470691784E+02  0.12147822768E+03  0.00000000000E+00 0. -1.
         -1    1    6    6    0  502 -0.27052269286E+02 -0.38700321051E+02 -0.56554555853E+02  0.73674676184E+02  0.00000000000E+00 0.  1.
<mgrwt>
<rscale>  0 0.13752934E+04</rscale>
<asrwt>0</asrwt>
<pdfrwt beam="1">  1        1 0.22348981E+00 0.13752934E+04</pdfrwt>
<pdfrwt beam="2">  1       -2 0.21976965E+00 0.13752934E+04</pdfrwt>
<totfact> 0.58626519E-01</totfact>
</mgrwt>
</event>
<event>
12    3  0.2422421E-007  0.2106897E+04  0.7818608E-02  0.8558211E-01
          1   -1    0    0  501    0  0.00000000000E+00  0.00000000000E+00  0.22067138676E+04  0.22067138676E+04  0.00000000000E+00 0. -1.
         -2   -1    0    0    0  501 -0.00000000000E+00 -0.00000000000E+00 -0.20370282810E+04  0.20370282810E+04  0.00000000000E+00 0.  1.
        -24    2    1    2    0    0  0.20036335954E+04  0.50834491765E+03 -0.12075713828E+03  0.20718418950E+04  0.70600365456E+02 0.  0.
    5000000    2    1    2    0    0 -0.20036335954E+04 -0.50834491765E+03  0.29044272491E+03  0.21719002536E+04  0.59985964625E+03 0.  0.
        -24    2    4    4    0    0 -0.52542145060E+03 -0.40430459549E+03  0.75314094876E+02  0.67227984579E+03  0.82207490491E+02 0.  0.
         24    2    4    4    0    0 -0.14782121448E+04 -0.10404032217E+03  0.21512863004E+03  0.14996204078E+04  0.81519975196E+02 0.  0.
         11    1    3    3    0    0  0.97571231380E+03  0.27475183780E+03 -0.35696752769E+02  0.10142866211E+04  0.00000000000E+00 0. -1.
        -12    1    3    3    0    0  0.10279212816E+04  0.23359307986E+03 -0.85060385512E+02  0.10575552739E+04  0.00000000000E+00 0.  1.
         13    1    5    5    0    0 -0.17845379800E+03 -0.13280569118E+03  0.64385651919E+02  0.23157854348E+03  0.00000000000E+00 0. -1.
        -14    1    5    5    0    0 -0.34696765260E+03 -0.27149890431E+03  0.10928442957E+02  0.44070130231E+03  0.00000000000E+00 0.  1.
          2    1    6    6  502    0 -0.89944156510E+03 -0.91535782662E+02  0.15948762262E+03  0.91804696519E+03  0.00000000000E+00 0. -1.
         -1    1    6    6    0  502 -0.57877057973E+03 -0.12504539505E+02  0.55641007416E+02  0.58157344263E+03  0.00000000000E+00 0.  1.
<mgrwt>
<rscale>  0 0.21068970E+04</rscale>
<asrwt>0</asrwt>
<pdfrwt beam="1">  1        1 0.33949444E+00 0.21068970E+04</pdfrwt>
<pdfrwt beam="2">  1       -2 0.31338897E+00 0.21068970E+04</pdfrwt>
<totfact> 0.43715376E-02</totfact>
</mgrwt>
</event>
<event>
12    3  0.2422421E-007  0.6361478E+03  0.7818608E-02  0.9833125E-01
          3   -1    0    0  501    0  0.00000000000E+00  0.00000000000E+00  0.93255440322E+03  0.93255440322E+03  0.00000000000E+00 0. -1.
         -4   -1    0    0    0  501 -0.00000000000E+00 -0.00000000000E+00 -0.54416793500E+03  0.54416793500E+03  0.00000000000E+00 0.  1.
        -24    2    1    2    0    0 -0.30458381250E+02  0.57820856827E+03  0.92508907532E+02  0.59199601937E+03  0.81538503603E+02 0.  0.
    5000000    2    1    2    0    0  0.30458381250E+02 -0.57820856827E+03  0.29587756069E+03  0.88472631885E+03  0.59995355398E+03 0.  0.
        -24    2    4    4    0    0  0.19187248474E+03 -0.29110437158E+03 -0.92891845558E+02  0.36916914785E+03  0.78103515934E+02 0.  0.
         24    2    4    4    0    0 -0.16141410349E+03 -0.28710419669E+03  0.38876940625E+03  0.51555717100E+03  0.78576159057E+02 0.  0.
         11    1    5    5    0    0  0.16089677801E+03 -0.27920701081E+03 -0.72771021084E+02  0.33036335991E+03  0.00000000000E+00 0. -1.
        -12    1    5    5    0    0  0.30975706725E+02 -0.11897360772E+02 -0.20120824474E+02  0.38805787945E+02  0.00000000000E+00 0.  1.
         11    1    3    3    0    0 -0.27041842891E+02  0.81694813358E+02 -0.41315520223E+01  0.86153197959E+02  0.00000000000E+00 0. -1.
        -12    1    3    3    0    0 -0.34165383589E+01  0.49651375491E+03  0.96640459554E+02  0.50584282141E+03  0.00000000000E+00 0.  1.
          4    1    6    6  502    0 -0.16010696777E+03 -0.28991397054E+03  0.37016136920E+03  0.49669285347E+03  0.00000000000E+00 0. -1.
         -3    1    6    6    0  502 -0.13071357182E+01  0.28097738517E+01  0.18608037052E+02  0.18864317528E+02  0.00000000000E+00 0.  1.
<mgrwt>
<rscale>  0 0.63614781E+03</rscale>
<asrwt>0</asrwt>
<pdfrwt beam="1">  1        3 0.14346991E+00 0.63614781E+03</pdfrwt>
<pdfrwt beam="2">  1       -4 0.83718144E-01 0.63614781E+03</pdfrwt>
<totfact> 0.10264151E+00</totfact>
</mgrwt>
</event>
<event>
12    3  0.2422421E-007  0.4769244E+03  0.7818608E-02  0.1019984E+00
          1   -1    0    0  501    0  0.00000000000E+00  0.00000000000E+00  0.31601976038E+04  0.31601976038E+04  0.00000000000E+00 0. -1.
         -2   -1    0    0    0  501 -0.00000000000E+00 -0.00000000000E+00 -0.13309237780E+03  0.13309237780E+03  0.00000000000E+00 0.  1.
        -24    2    1    2    0    0 -0.29478394337E+03  0.35804235467E+03  0.17091959543E+04  0.17728115406E+04  0.80112714776E+02 0.  0.
    5000000    2    1    2    0    0  0.29478394337E+03 -0.35804235467E+03  0.13179092716E+04  0.15204784410E+04  0.59989827494E+03 0.  0.
        -24    2    4    4    0    0  0.26675959144E+03 -0.26071232320E+03  0.27666179026E+03  0.47134844044E+03  0.80597835117E+02 0.  0.
         24    2    4    4    0    0  0.28024351930E+02 -0.97330031469E+02  0.10412474814E+04  0.10491300006E+04  0.78860264142E+02 0.  0.
         11    1    5    5    0    0  0.19335555360E+03 -0.18757802246E+03  0.24188414442E+03  0.36204947720E+03  0.00000000000E+00 0. -1.
        -12    1    5    5    0    0  0.73404037836E+02 -0.73134300741E+02  0.34777645832E+02  0.10929896324E+03  0.00000000000E+00 0.  1.
         13    1    3    3    0    0 -0.14380321964E+03  0.23409404562E+03  0.95553537997E+03  0.99424707722E+03  0.00000000000E+00 0. -1.
        -14    1    3    3    0    0 -0.15098072373E+03  0.12394830905E+03  0.75366057436E+03  0.77856446336E+03  0.00000000000E+00 0.  1.
          4    1    6    6  502    0  0.21928828944E+02 -0.10119545485E+03  0.10329739506E+04  0.10381505557E+04  0.00000000000E+00 0. -1.
         -3    1    6    6    0  502  0.60955229853E+01  0.38654233799E+01  0.82735307678E+01  0.10979444874E+02  0.00000000000E+00 0.  1.
<mgrwt>
<rscale>  0 0.47692444E+03</rscale>
<asrwt>0</asrwt>
<pdfrwt beam="1">  1        1 0.48618419E+00 0.47692444E+03</pdfrwt>
<pdfrwt beam="2">  1       -2 0.20475753E-01 0.47692444E+03</pdfrwt>
<totfact> 0.92487868E+00</totfact>
</mgrwt>
</event>
<event>
12    3  0.2422421E-007  0.1425225E+04  0.7818608E-02  0.8935759E-01
         -2   -1    0    0    0  501 -0.00000000000E+00  0.00000000000E+00  0.72243446384E+03  0.72243446384E+03  0.00000000000E+00 0.  1.
          1   -1    0    0  501    0  0.00000000000E+00 -0.00000000000E+00 -0.30708509851E+04  0.30708509851E+04  0.00000000000E+00 0. -1.
        -24    2    1    2    0    0  0.53041148418E+03 -0.13186078390E+04 -0.13014900703E+04  0.19287508493E+04  0.78361087287E+02 0.  0.
    5000000    2    1    2    0    0 -0.53041148418E+03  0.13186078390E+04 -0.10469264510E+04  0.18645345996E+04  0.60030934017E+03 0.  0.
        -24    2    4    4    0    0 -0.12257833902E+03  0.33220602876E+03 -0.60716318453E+03  0.70728617356E+03  0.78868903400E+02 0.  0.
         24    2    4    4    0    0 -0.40783314516E+03  0.98640181023E+03 -0.43976326644E+03  0.11572484261E+04  0.80720403934E+02 0.  0.
         11    1    5    5    0    0 -0.12588959970E+03  0.28030872100E+03 -0.54993344533E+03  0.62995870077E+03  0.00000000000E+00 0. -1.
        -12    1    5    5    0    0  0.33112606778E+01  0.51897307759E+02 -0.57229739200E+02  0.77327472795E+02  0.00000000000E+00 0.  1.
         13    1    3    3    0    0  0.28730685429E+03 -0.61888680165E+03 -0.60194160510E+03  0.90988999210E+03  0.00000000000E+00 0. -1.
        -14    1    3    3    0    0  0.24310462988E+03 -0.69972103735E+03 -0.69954846518E+03  0.10188608572E+04  0.00000000000E+00 0.  1.
          2    1    6    6  502    0 -0.28528046221E+03  0.73467081298E+03 -0.29036158350E+03  0.83990237215E+03  0.00000000000E+00 0. -1.
         -1    1    6    6    0  502 -0.12255268295E+03  0.25173099725E+03 -0.14940168294E+03  0.31734605393E+03  0.00000000000E+00 0.  1.
<mgrwt>
<rscale>  0 0.14252249E+04</rscale>
<asrwt>0</asrwt>
<pdfrwt beam="1">  1        1 0.47243862E+00 0.14252249E+04</pdfrwt>
<pdfrwt beam="2">  1       -2 0.11114376E+00 0.14252249E+04</pdfrwt>
<totfact> 0.28738897E-01</totfact>
</mgrwt>
</event>
<event>
12    3  0.2422421E-007  0.7278819E+03  0.7818608E-02  0.9670704E-01
          1   -1    0    0  501    0  0.00000000000E+00  0.00000000000E+00  0.20205770289E+04  0.20205770289E+04  0.00000000000E+00 0. -1.
         -4   -1    0    0    0  501 -0.00000000000E+00 -0.00000000000E+00 -0.43984206653E+03  0.43984206653E+03  0.00000000000E+00 0.  1.
        -24    2    1    2    0    0  0.49429089797E+03  0.40604567031E+03 -0.90339530921E+01  0.64456101970E+03  0.78617540194E+02 0.  0.
    5000000    2    1    2    0    0 -0.49429089797E+03 -0.40604567031E+03  0.15897689155E+04  0.18158580757E+04  0.60064862309E+03 0.  0.
        -24    2    4    4    0    0  0.33023587158E+02 -0.26174313785E+03  0.26936937573E+03  0.38541809106E+03  0.79920065147E+02 0.  0.
         24    2    4    4    0    0 -0.52731448513E+03 -0.14430253246E+03  0.13203995397E+04  0.14304399847E+04  0.61804677216E+02 0.  0.
         11    1    5    5    0    0 -0.12650711042E+01 -0.12366730947E+02 -0.47011382416E+01  0.13290490584E+02  0.00000000000E+00 0. -1.
        -12    1    5    5    0    0  0.34288658262E+02 -0.24937640690E+03  0.27407051398E+03  0.37212760047E+03  0.00000000000E+00 0.  1.
         13    1    3    3    0    0  0.15355228053E+03  0.16632025993E+03 -0.24286611834E+02  0.22766328477E+03  0.00000000000E+00 0. -1.
        -14    1    3    3    0    0  0.34073861743E+03  0.23972541038E+03  0.15252658742E+02  0.41689773493E+03  0.00000000000E+00 0.  1.
          2    1    6    6  502    0 -0.44827256507E+03 -0.13934074824E+03  0.10892206305E+04  0.11860715487E+04  0.00000000000E+00 0. -1.
         -1    1    6    6    0  502 -0.79041920054E+02 -0.49617842169E+01  0.23117890920E+03  0.24436843595E+03  0.00000000000E+00 0.  1.
<mgrwt>
<rscale>  0 0.72788191E+03</rscale>
<asrwt>0</asrwt>
<pdfrwt beam="1">  1        1 0.31085800E+00 0.72788191E+03</pdfrwt>
<pdfrwt beam="2">  1       -4 0.67668011E-01 0.72788191E+03</pdfrwt>
<totfact> 0.29133731E+00</totfact>
</mgrwt>
</event>
<event>
12    3  0.2422421E-007  0.1366790E+04  0.7818608E-02  0.8978215E-01
          1   -1    0    0  501    0  0.00000000000E+00  0.00000000000E+00  0.24784263803E+04  0.24784263803E+04  0.00000000000E+00 0. -1.
         -2   -1    0    0    0  501 -0.00000000000E+00 -0.00000000000E+00 -0.82853241793E+03  0.82853241793E+03  0.00000000000E+00 0.  1.
        -24    2    1    2    0    0 -0.10685786327E+04 -0.77400376040E+03  0.36898886268E+03  0.13725618589E+04  0.82650833749E+02 0.  0.
    5000000    2    1    2    0    0  0.10685786327E+04  0.77400376040E+03  0.12809050997E+04  0.19343969393E+04  0.60019290987E+03 0.  0.
        -24    2    4    4    0    0  0.26384844663E+02 -0.35212132336E+02 -0.44529854296E+01  0.90630772722E+02  0.79107860503E+02 0.  0.
         24    2    4    4    0    0  0.10421937881E+04  0.80921589274E+03  0.12853580851E+04  0.18437661666E+04  0.79561405369E+02 0.  0.
         13    1    3    3    0    0 -0.36938768402E+03 -0.21976777770E+03  0.11978548301E+03  0.44619916984E+03  0.00000000000E+00 0. -1.
        -14    1    3    3    0    0 -0.69919094870E+03 -0.55423598270E+03  0.24920337966E+03  0.92636268907E+03  0.00000000000E+00 0.  1.
         13    1    5    5    0    0  0.14543951014E+02 -0.60686715048E+02 -0.40386303833E+01  0.62535705240E+02  0.00000000000E+00 0. -1.
        -14    1    5    5    0    0  0.11840893649E+02  0.25474582712E+02 -0.41435504634E+00  0.28095067483E+02  0.00000000000E+00 0.  1.
          2    1    6    6  502    0  0.96029732811E+03  0.72222573339E+03  0.11870614773E+04  0.16890517811E+04  0.00000000000E+00 0. -1.
         -1    1    6    6    0  502  0.81896459943E+02  0.86990159348E+02  0.98296607851E+02  0.15471438553E+03  0.00000000000E+00 0.  1.
<mgrwt>
<rscale>  0 0.13667902E+04</rscale>
<asrwt>0</asrwt>
<pdfrwt beam="1">  1        1 0.38129636E+00 0.13667902E+04</pdfrwt>
<pdfrwt beam="2">  1       -2 0.12746653E+00 0.13667902E+04</pdfrwt>
<totfact> 0.54123416E-01</totfact>
</mgrwt>
</event>
<event>
12    3  0.2422421E-007  0.5546890E+03  0.7818608E-02  0.1000414E+00
          1   -1    0    0  501    0  0.00000000000E+00  0.00000000000E+00  0.27062247982E+04  0.27062247982E+04  0.00000000000E+00 0. -1.
         -2   -1    0    0    0  501 -0.00000000000E+00 -0.00000000000E+00 -0.14470529759E+03  0.14470529759E+03  0.00000000000E+00 0.  1.
        -24    2    1    2    0    0 -0.21718681249E+03  0.32908780254E+03  0.16062055661E+04  0.16559204464E+04  0.81898174799E+02 0.  0.
    5000000    2    1    2    0    0  0.21718681249E+03 -0.32908780254E+03  0.95531393452E+03  0.11950096494E+04  0.59996204487E+03 0.  0.
        -24    2    4    4    0    0  0.15741594546E+03 -0.48923933462E+03  0.77913981851E+03  0.93676415684E+03  0.79582173462E+02 0.  0.
         24    2    4    4    0    0  0.59770867022E+02  0.16015153208E+03  0.17617411601E+03  0.25824549252E+03  0.80201904477E+02 0.  0.
         11    1    3    3    0    0 -0.92072960319E+02  0.21121576956E+03  0.95646633117E+03  0.98382791889E+03  0.00000000000E+00 0. -1.
        -12    1    3    3    0    0 -0.12511385217E+03  0.11787203298E+03  0.64973923493E+03  0.67209252754E+03  0.00000000000E+00 0.  1.
         13    1    5    5    0    0  0.57896520044E+02 -0.84917603036E+02  0.13308770589E+03  0.16815273949E+03  0.00000000000E+00 0. -1.
        -14    1    5    5    0    0  0.99519425419E+02 -0.40432173159E+03  0.64605211262E+03  0.76861141735E+03  0.00000000000E+00 0.  1.
          4    1    6    6  502    0  0.73049727293E+02  0.87189488475E+02  0.11887262460E+03  0.16452650375E+03  0.00000000000E+00 0. -1.
         -3    1    6    6    0  502 -0.13278860271E+02  0.72962043605E+02  0.57301491409E+02  0.93718988763E+02  0.00000000000E+00 0.  1.
<mgrwt>
<rscale>  0 0.55468896E+03</rscale>
<asrwt>0</asrwt>
<pdfrwt beam="1">  1        1 0.41634224E+00 0.55468896E+03</pdfrwt>
<pdfrwt beam="2">  1       -2 0.22262356E-01 0.55468896E+03</pdfrwt>
<totfact> 0.16404215E+01</totfact>
</mgrwt>
</event>
<event>
12    3  0.2422421E-007  0.9391956E+03  0.7818608E-02  0.9377869E-01
          1   -1    0    0  501    0  0.00000000000E+00  0.00000000000E+00  0.35394980318E+03  0.35394980318E+03  0.00000000000E+00 0. -1.
         -2   -1    0    0    0  501 -0.00000000000E+00 -0.00000000000E+00 -0.28193185310E+04  0.28193185310E+04  0.00000000000E+00 0.  1.
        -24    2    1    2    0    0  0.63302361241E+03  0.56929031065E+03 -0.16201067735E+04  0.18318677288E+04  0.78632477980E+02 0.  0.
    5000000    2    1    2    0    0 -0.63302361241E+03 -0.56929031065E+03 -0.84526195436E+03  0.13414006054E+04  0.60006454742E+03 0.  0.
        -24    2    4    4    0    0 -0.69494278344E+03 -0.32324941654E+03 -0.57197851378E+03  0.95991999271E+03  0.82772668449E+02 0.  0.
         24    2    4    4    0    0  0.61919171024E+02 -0.24604089411E+03 -0.27328344059E+03  0.38148061271E+03  0.80458148513E+02 0.  0.
         13    1    3    3    0    0  0.42256895045E+03  0.42677127345E+03 -0.11187903538E+04  0.12697992335E+04  0.00000000000E+00 0. -1.
        -14    1    3    3    0    0  0.21045466196E+03  0.14251903720E+03 -0.50131641968E+03  0.56206849525E+03  0.00000000000E+00 0.  1.
         13    1    5    5    0    0 -0.37885443248E+03 -0.13688243333E+03 -0.32530470700E+03  0.51777469421E+03  0.00000000000E+00 0. -1.
        -14    1    5    5    0    0 -0.31608835095E+03 -0.18636698321E+03 -0.24667380677E+03  0.44214529850E+03  0.00000000000E+00 0.  1.
          2    1    6    6  502    0  0.16955997197E+02 -0.52083541185E+02 -0.11410588988E+03  0.12657154186E+03  0.00000000000E+00 0. -1.
         -1    1    6    6    0  502  0.44963173827E+02 -0.19395735292E+03 -0.15917755071E+03  0.25490907085E+03  0.00000000000E+00 0.  1.
<mgrwt>
<rscale>  0 0.93919557E+03</rscale>
<asrwt>0</asrwt>
<pdfrwt beam="1">  1        1 0.54453814E-01 0.93919557E+03</pdfrwt>
<pdfrwt beam="2">  1       -2 0.43374133E+00 0.93919557E+03</pdfrwt>
<totfact> 0.28416796E-01</totfact>
</mgrwt>
</event>
<event>
12    3  0.2422421E-007  0.6420612E+03  0.7818608E-02  0.9821791E-01
         -2   -1    0    0    0  501 -0.00000000000E+00  0.00000000000E+00  0.65505625499E+03  0.65505625499E+03  0.00000000000E+00 0.  1.
          1   -1    0    0  501    0  0.00000000000E+00 -0.00000000000E+00 -0.15783934110E+04  0.15783934110E+04  0.00000000000E+00 0. -1.
        -24    2    1    2    0    0  0.51049238382E+03  0.32925871218E+03  0.34608658841E+03  0.70363619243E+03  0.79461884738E+02 0.  0.
    5000000    2    1    2    0    0 -0.51049238382E+03 -0.32925871218E+03 -0.12694237444E+04  0.15298134736E+04  0.59989903109E+03 0.  0.
        -24    2    4    4    0    0 -0.30329316007E+03 -0.46834878457E+02 -0.14396134001E+03  0.34840839259E+03  0.80518903524E+02 0.  0.
         24    2    4    4    0    0 -0.20719922375E+03 -0.28242383372E+03 -0.11254624044E+04  0.11814050810E+04  0.79734568507E+02 0.  0.
         11    1    3    3    0    0  0.18507921289E+03  0.75472266510E+02  0.11855247356E+03  0.23238990306E+03  0.00000000000E+00 0. -1.
        -12    1    3    3    0    0  0.32541317094E+03  0.25378644567E+03  0.22753411485E+03  0.47124628937E+03  0.00000000000E+00 0.  1.
         13    1    5    5    0    0 -0.21385987392E+03  0.40299496464E+01 -0.88049069722E+02  0.23131131586E+03  0.00000000000E+00 0. -1.
        -14    1    5    5    0    0 -0.89433286155E+02 -0.50864828104E+02 -0.55912270287E+02  0.11709707673E+03  0.00000000000E+00 0.  1.
          2    1    6    6  502    0 -0.15119657683E+03 -0.24336725820E+03 -0.97398669932E+03  0.10152527359E+04  0.00000000000E+00 0. -1.
         -1    1    6    6    0  502 -0.56002646922E+02 -0.39056575518E+02 -0.15147570511E+03  0.16615234513E+03  0.00000000000E+00 0.  1.
<mgrwt>
<rscale>  0 0.64206120E+03</rscale>
<asrwt>0</asrwt>
<pdfrwt beam="1">  1        1 0.24282976E+00 0.64206120E+03</pdfrwt>
<pdfrwt beam="2">  1       -2 0.10077788E+00 0.64206120E+03</pdfrwt>
<totfact> 0.43288420E+00</totfact>
</mgrwt>
</event>
<event>
12    3  0.2422421E-007  0.1520385E+04  0.7818608E-02  0.8871009E-01
         -2   -1    0    0    0  501 -0.00000000000E+00  0.00000000000E+00  0.92866055315E+03  0.92866055315E+03  0.00000000000E+00 0.  1.
          1   -1    0    0  501    0  0.00000000000E+00 -0.00000000000E+00 -0.26679291126E+04  0.26679291126E+04  0.00000000000E+00 0. -1.
        -24    2    1    2    0    0  0.70232849993E+03 -0.13378513091E+04 -0.70097976419E+03  0.16675589884E+04  0.79176403161E+02 0.  0.
    5000000    2    1    2    0    0 -0.70232849993E+03  0.13378513091E+04 -0.10382887953E+04  0.19290306774E+04  0.60000357048E+03 0.  0.
        -24    2    4    4    0    0 -0.22176060013E+03  0.28542619489E+03  0.18733764308E+01  0.37122261876E+03  0.84598147967E+02 0.  0.
         24    2    4    4    0    0 -0.48056789980E+03  0.10524251143E+04 -0.10401621717E+04  0.15578080586E+04  0.79274690442E+02 0.  0.
         11    1    3    3    0    0  0.20522994063E+03 -0.41146846241E+03 -0.25240020247E+03  0.52452977637E+03  0.00000000000E+00 0. -1.
        -12    1    3    3    0    0  0.49709855930E+03 -0.92638284673E+03 -0.44857956172E+03  0.11430292120E+04  0.00000000000E+00 0.  1.
         11    1    5    5    0    0 -0.22436217641E+03  0.25530604979E+03 -0.61734495974E+01  0.33993775421E+03  0.00000000000E+00 0. -1.
        -12    1    5    5    0    0  0.26015762833E+01  0.30120145106E+02  0.80468260283E+01  0.31284864544E+02  0.00000000000E+00 0.  1.
          2    1    6    6  502    0 -0.47538334018E+03  0.10044842774E+04 -0.99175105315E+03  0.14894791489E+04  0.00000000000E+00 0. -1.
         -1    1    6    6    0  502 -0.51845596261E+01  0.47940836854E+02 -0.48411118564E+02  0.68328909675E+02  0.00000000000E+00 0.  1.
<mgrwt>
<rscale>  0 0.15203846E+04</rscale>
<asrwt>0</asrwt>
<pdfrwt beam="1">  1        1 0.41045062E+00 0.15203846E+04</pdfrwt>
<pdfrwt beam="2">  1       -2 0.14287086E+00 0.15203846E+04</pdfrwt>
<totfact> 0.29230307E-01</totfact>
</mgrwt>
</event>
<event>
12    3  0.2422421E-007  0.4532134E+03  0.7818608E-02  0.1026768E+00
         -2   -1    0    0    0  501 -0.00000000000E+00  0.00000000000E+00  0.43738076093E+03  0.43738076093E+03  0.00000000000E+00 0.  1.
          1   -1    0    0  501    0  0.00000000000E+00 -0.00000000000E+00 -0.14936957463E+04  0.14936957463E+04  0.00000000000E+00 0. -1.
        -24    2    1    2    0    0  0.26580826710E+03 -0.10184464989E+03 -0.12131248147E+04  0.12487409263E+04  0.81582579958E+02 0.  0.
    5000000    2    1    2    0    0 -0.26580826710E+03  0.10184464989E+03  0.15680982933E+03  0.68233558095E+03  0.59997179508E+03 0.  0.
        -24    2    4    4    0    0 -0.23462769725E+03 -0.19892418169E+03 -0.29748152771E+02  0.31850131805E+03  0.77052908011E+02 0.  0.
         24    2    4    4    0    0 -0.31180569847E+02  0.30076883158E+03  0.18655798210E+03  0.36383426290E+03  0.78341382340E+02 0.  0.
         11    1    3    3    0    0  0.11725358384E+03 -0.27185457493E+02 -0.67044712013E+03  0.68116576023E+03  0.00000000000E+00 0. -1.
        -12    1    3    3    0    0  0.14855468326E+03 -0.74659192400E+02 -0.54267769455E+03  0.56757516602E+03  0.00000000000E+00 0.  1.
         11    1    5    5    0    0 -0.65488258847E+01  0.24642832301E+01 -0.11785844783E+02  0.13706420012E+02  0.00000000000E+00 0. -1.
        -12    1    5    5    0    0 -0.22807887137E+03 -0.20138846492E+03 -0.17962307988E+02  0.30479489804E+03  0.00000000000E+00 0.  1.
          4    1    6    6  502    0 -0.42569316905E+02  0.11846899509E+03  0.10443940410E+03  0.16356845254E+03  0.00000000000E+00 0. -1.
         -3    1    6    6    0  502  0.11388747058E+02  0.18229983649E+03  0.82118578004E+02  0.20026581035E+03  0.00000000000E+00 0.  1.
<mgrwt>
<rscale>  0 0.45321336E+03</rscale>
<asrwt>0</asrwt>
<pdfrwt beam="1">  1        1 0.22979935E+00 0.45321336E+03</pdfrwt>
<pdfrwt beam="2">  1       -2 0.67289348E-01 0.45321336E+03</pdfrwt>
<totfact> 0.12739884E+01</totfact>
</mgrwt>
</event>
<event>
12    3  0.2422421E-007  0.4410604E+03  0.7818608E-02  0.1030422E+00
          1   -1    0    0  501    0  0.00000000000E+00  0.00000000000E+00  0.11482716846E+04  0.11482716846E+04  0.00000000000E+00 0. -1.
         -2   -1    0    0    0  501 -0.00000000000E+00 -0.00000000000E+00 -0.32781056326E+03  0.32781056326E+03  0.00000000000E+00 0.  1.
        -24    2    1    2    0    0  0.18823981454E+03 -0.38100017071E+03  0.53371584148E+03  0.68685299855E+03  0.79492668295E+02 0.  0.
    5000000    2    1    2    0    0 -0.18823981454E+03  0.38100017071E+03  0.28674527987E+03  0.78922924932E+03  0.60005382642E+03 0.  0.
        -24    2    4    4    0    0 -0.13561938898E+03  0.21329125846E+03  0.45893072004E+03  0.53015163684E+03  0.80978840746E+02 0.  0.
         24    2    4    4    0    0 -0.52620425560E+02  0.16770891225E+03 -0.17218544017E+03  0.25907761248E+03  0.81106072821E+02 0.  0.
         11    1    3    3    0    0  0.49314277941E+02 -0.17665850414E+03  0.19650600227E+03  0.26880240703E+03  0.00000000000E+00 0. -1.
        -12    1    3    3    0    0  0.13892553659E+03 -0.20434166657E+03  0.33720983921E+03  0.41805059152E+03  0.00000000000E+00 0.  1.
         13    1    5    5    0    0 -0.43106095647E+01  0.63983662280E+02  0.14503780136E+03  0.15858264160E+03  0.00000000000E+00 0. -1.
        -14    1    5    5    0    0 -0.13130877941E+03  0.14930759618E+03  0.31389291867E+03  0.37156899524E+03  0.00000000000E+00 0.  1.
          4    1    6    6  502    0  0.42124723502E+01 -0.51708575685E+01 -0.22427203892E+02  0.23397909431E+02  0.00000000000E+00 0. -1.
         -3    1    6    6    0  502 -0.56832897910E+02  0.17287976982E+03 -0.14975823628E+03  0.23567970305E+03  0.00000000000E+00 0.  1.
<mgrwt>
<rscale>  0 0.44106039E+03</rscale>
<asrwt>0</asrwt>
<pdfrwt beam="1">  1        1 0.17665718E+00 0.44106039E+03</pdfrwt>
<pdfrwt beam="2">  1       -2 0.50432395E-01 0.44106039E+03</pdfrwt>
<totfact> 0.40488014E+01</totfact>
</mgrwt>
</event>
<event>
12    3  0.2422421E-007  0.4089548E+03  0.7818608E-02  0.1040722E+00
         -2   -1    0    0    0  501 -0.00000000000E+00  0.00000000000E+00  0.16641427831E+03  0.16641427831E+03  0.00000000000E+00 0.  1.
          1   -1    0    0  501    0  0.00000000000E+00 -0.00000000000E+00 -0.11476350577E+04  0.11476350577E+04  0.00000000000E+00 0. -1.
        -24    2    1    2    0    0  0.13271826184E+03  0.15858526054E+03 -0.14744247735E+03  0.26622355535E+03  0.79826533215E+02 0.  0.
    5000000    2    1    2    0    0 -0.13271826184E+03 -0.15858526054E+03 -0.83377830207E+03  0.10478257807E+04  0.59999098976E+03 0.  0.
        -24    2    4    4    0    0 -0.19772736106E+03  0.16398031187E+03 -0.52543236228E+03  0.59054219249E+03  0.81702275296E+02 0.  0.
         24    2    4    4    0    0  0.65009099218E+02 -0.32256557242E+03 -0.30834593979E+03  0.45728358820E+03  0.75870481515E+02 0.  0.
         11    1    5    5    0    0 -0.15888391216E+03  0.87194394553E+02 -0.39046494038E+03  0.43047628233E+03  0.00000000000E+00 0. -1.
        -12    1    5    5    0    0 -0.38843448904E+02  0.76785917320E+02 -0.13496742190E+03  0.16006591016E+03  0.00000000000E+00 0.  1.
         13    1    3    3    0    0  0.86857303155E+02  0.13883126373E+03 -0.14056707335E+03  0.21581800900E+03  0.00000000000E+00 0. -1.
        -14    1    3    3    0    0  0.45860958689E+02  0.19753996816E+02 -0.68754040023E+01  0.50405546345E+02  0.00000000000E+00 0.  1.
          4    1    6    6  502    0 -0.57357168163E+01 -0.15409526661E+03 -0.12588927745E+03  0.19906370793E+03  0.00000000000E+00 0. -1.
         -3    1    6    6    0  502  0.70744816034E+02 -0.16847030580E+03 -0.18245666234E+03  0.25821988027E+03  0.00000000000E+00 0.  1.
<mgrwt>
<rscale>  0 0.40895483E+03</rscale>
<asrwt>0</asrwt>
<pdfrwt beam="1">  1        1 0.17655924E+00 0.40895483E+03</pdfrwt>
<pdfrwt beam="2">  1       -2 0.25602197E-01 0.40895483E+03</pdfrwt>
<totfact> 0.14759024E+02</totfact>
</mgrwt>
</event>
<event>
12    3  0.2422421E-007  0.1203560E+04  0.7818608E-02  0.9109746E-01
          1   -1    0    0  501    0  0.00000000000E+00  0.00000000000E+00  0.18828845667E+04  0.18828845667E+04  0.00000000000E+00 0. -1.
         -2   -1    0    0    0  501 -0.00000000000E+00 -0.00000000000E+00 -0.10409016097E+04  0.10409016097E+04  0.00000000000E+00 0.  1.
        -24    2    1    2    0    0 -0.52707845185E+03  0.10048927443E+04 -0.33127113563E+03  0.11847623676E+04  0.79373675823E+02 0.  0.
    5000000    2    1    2    0    0  0.52707845185E+03 -0.10048927443E+04  0.11732540926E+04  0.17390238089E+04  0.60004793154E+03 0.  0.
        -24    2    4    4    0    0  0.43855000102E+02 -0.67731130919E+03  0.51591727748E+03  0.85620560268E+03  0.79015987407E+02 0.  0.
         24    2    4    4    0    0  0.48322345175E+03 -0.32758143507E+03  0.65733681516E+03  0.88281820621E+03  0.80385295582E+02 0.  0.
         13    1    3    3    0    0 -0.19769048210E+03  0.33053307369E+03 -0.14459588690E+03  0.41138985163E+03  0.00000000000E+00 0. -1.
        -14    1    3    3    0    0 -0.32938796975E+03  0.67435967057E+03 -0.18667524873E+03  0.77337251593E+03  0.00000000000E+00 0.  1.
         13    1    5    5    0    0  0.63727652389E+02 -0.54617083784E+03  0.43168434422E+03  0.69908166249E+03  0.00000000000E+00 0. -1.
        -14    1    5    5    0    0 -0.19872652287E+02 -0.13114047135E+03  0.84232933265E+02  0.15712394020E+03  0.00000000000E+00 0.  1.
          2    1    6    6  502    0  0.36318793056E+03 -0.20347659052E+03  0.45080155409E+03  0.61362059692E+03  0.00000000000E+00 0. -1.
         -1    1    6    6    0  502  0.12003552118E+03 -0.12410484454E+03  0.20653526107E+03  0.26919760929E+03  0.00000000000E+00 0.  1.
<mgrwt>
<rscale>  0 0.12035600E+04</rscale>
<asrwt>0</asrwt>
<pdfrwt beam="1">  1        1 0.28967455E+00 0.12035600E+04</pdfrwt>
<pdfrwt beam="2">  1       -2 0.16013871E+00 0.12035600E+04</pdfrwt>
<totfact> 0.76973946E-01</totfact>
</mgrwt>
</event>
<event>
12    3  0.2422421E-007  0.1088371E+04  0.7818608E-02  0.9216601E-01
          1   -1    0    0  501    0  0.00000000000E+00  0.00000000000E+00  0.95680330397E+03  0.95680330397E+03  0.00000000000E+00 0. -1.
         -2   -1    0    0    0  501 -0.00000000000E+00 -0.00000000000E+00 -0.13411029190E+04  0.13411029190E+04  0.00000000000E+00 0.  1.
        -24    2    1    2    0    0  0.95758876288E+03  0.31960927789E+03  0.12069914549E+03  0.10195547222E+04  0.76139467324E+02 0.  0.
    5000000    2    1    2    0    0 -0.95758876288E+03 -0.31960927789E+03 -0.50499876056E+03  0.12783515008E+04  0.60002706789E+03 0.  0.
        -24    2    4    4    0    0 -0.33470546694E+03  0.16389556349E+03 -0.17418321418E+03  0.41931077688E+03  0.81192550011E+02 0.  0.
         24    2    4    4    0    0 -0.62288329594E+03 -0.48350484138E+03 -0.33081554638E+03  0.85904072395E+03  0.82167558532E+02 0.  0.
         11    1    3    3    0    0  0.42532155644E+03  0.17956771216E+03  0.42112930415E+02  0.46359086330E+03  0.00000000000E+00 0. -1.
        -12    1    3    3    0    0  0.53226720644E+03  0.14004156573E+03  0.78586215073E+02  0.55596385888E+03  0.00000000000E+00 0.  1.
         13    1    5    5    0    0 -0.18479740265E+03  0.80189496655E+02 -0.13705222611E+03  0.24364676908E+03  0.00000000000E+00 0. -1.
        -14    1    5    5    0    0 -0.14990806429E+03  0.83706066834E+02 -0.37130988075E+02  0.17566400781E+03  0.00000000000E+00 0.  1.
          4    1    6    6  502    0 -0.40483584559E+02 -0.55921703659E+02 -0.42893401185E+02  0.81277311866E+02  0.00000000000E+00 0. -1.
         -3    1    6    6    0  502 -0.58239971138E+03 -0.42758313772E+03 -0.28792214519E+03  0.77776341208E+03  0.00000000000E+00 0.  1.
<mgrwt>
<rscale>  0 0.10883706E+04</rscale>
<asrwt>0</asrwt>
<pdfrwt beam="1">  1        1 0.14720051E+00 0.10883706E+04</pdfrwt>
<pdfrwt beam="2">  1       -2 0.20632352E+00 0.10883706E+04</pdfrwt>
<totfact> 0.17132491E+00</totfact>
</mgrwt>
</event>
<event>
12    3  0.2422421E-007  0.4628824E+03  0.7818608E-02  0.1023949E+00
          1   -1    0    0  501    0  0.00000000000E+00  0.00000000000E+00  0.21424154079E+04  0.21424154079E+04  0.00000000000E+00 0. -1.
         -2   -1    0    0    0  501 -0.00000000000E+00 -0.00000000000E+00 -0.11153088468E+03  0.11153088468E+03  0.00000000000E+00 0.  1.
        -24    2    1    2    0    0 -0.14844448030E+03 -0.25707576398E+03  0.58080787674E+03  0.65683055915E+03  0.77232645871E+02 0.  0.
    5000000    2    1    2    0    0  0.14844448030E+03  0.25707576398E+03  0.14500766465E+04  0.15971157334E+04  0.59994389166E+03 0.  0.
        -24    2    4    4    0    0 -0.17978526672E+03  0.19905181910E+03  0.36891305572E+03  0.46292845299E+03  0.79129900118E+02 0.  0.
         24    2    4    4    0    0  0.32822974702E+03  0.58023944888E+02  0.10811635907E+04  0.11341872804E+04  0.79778017724E+02 0.  0.
         11    1    5    5    0    0 -0.87173189058E+02  0.15006704213E+03  0.25150497966E+03  0.30557165578E+03  0.00000000000E+00 0. -1.
        -12    1    5    5    0    0 -0.92612077666E+02  0.48984776967E+02  0.11740807606E+03  0.15735679721E+03  0.00000000000E+00 0.  1.
         11    1    3    3    0    0 -0.48342173111E+02 -0.15783373421E+03  0.29093894445E+03  0.33450548987E+03  0.00000000000E+00 0. -1.
        -12    1    3    3    0    0 -0.10010230719E+03 -0.99242029778E+02  0.28986893229E+03  0.32232506928E+03  0.00000000000E+00 0.  1.
          4    1    6    6  502    0  0.26708309198E+03  0.75994312120E+02  0.91553682005E+03  0.95672158038E+03  0.00000000000E+00 0. -1.
         -3    1    6    6    0  502  0.61146655048E+02 -0.17970367232E+02  0.16562677069E+03  0.17746570004E+03  0.00000000000E+00 0.  1.
<mgrwt>
<rscale>  0 0.46288241E+03</rscale>
<asrwt>0</asrwt>
<pdfrwt beam="1">  1        1 0.32960234E+00 0.46288241E+03</pdfrwt>
<pdfrwt beam="2">  1       -2 0.17158599E-01 0.46288241E+03</pdfrwt>
<totfact> 0.62891917E+01</totfact>
</mgrwt>
</event>
<event>
12    3  0.2422421E-007  0.1450557E+04  0.7818608E-02  0.8918014E-01
         -2   -1    0    0    0  501 -0.00000000000E+00  0.00000000000E+00  0.95052480052E+03  0.95052480052E+03  0.00000000000E+00 0.  1.
          1   -1    0    0  501    0  0.00000000000E+00 -0.00000000000E+00 -0.23691933851E+04  0.23691933851E+04  0.00000000000E+00 0. -1.
        -24    2    1    2    0    0 -0.11047301569E+04 -0.87162955724E+03 -0.34594009294E+03  0.14513327948E+04  0.80780744919E+02 0.  0.
    5000000    2    1    2    0    0  0.11047301569E+04  0.87162955724E+03 -0.10727284916E+04  0.18683853908E+04  0.59995895460E+03 0.  0.
        -24    2    4    4    0    0  0.11472554726E+03 -0.41488526380E+02 -0.11411794009E+01  0.14545482039E+03  0.79199453720E+02 0.  0.
         24    2    4    4    0    0  0.99000460964E+03  0.91311808362E+03 -0.10715873122E+04  0.17229305704E+04  0.79351250776E+02 0.  0.
         11    1    5    5    0    0  0.72095113504E+02  0.14900674800E+02 -0.96732388821E+01  0.74251646791E+02  0.00000000000E+00 0. -1.
        -12    1    5    5    0    0  0.42630433757E+02 -0.56389201180E+02  0.85320594812E+01  0.71203173602E+02  0.00000000000E+00 0.  1.
         13    1    3    3    0    0 -0.70400946087E+03 -0.52581116039E+03 -0.24818497618E+03  0.91307309662E+03  0.00000000000E+00 0. -1.
        -14    1    3    3    0    0 -0.40072069604E+03 -0.34581839685E+03 -0.97755116757E+02  0.53825969818E+03  0.00000000000E+00 0.  1.
          2    1    6    6  502    0  0.21360505470E+03  0.15742205714E+03 -0.19551710119E+03  0.32959939370E+03  0.00000000000E+00 0. -1.
         -1    1    6    6    0  502  0.77639955495E+03  0.75569602647E+03 -0.87607021103E+03  0.13933311767E+04  0.00000000000E+00 0.  1.
<mgrwt>
<rscale>  0 0.14505571E+04</rscale>
<asrwt>0</asrwt>
<pdfrwt beam="1">  1        1 0.36449128E+00 0.14505571E+04</pdfrwt>
<pdfrwt beam="2">  1       -2 0.14623459E+00 0.14505571E+04</pdfrwt>
<totfact> 0.44647141E-01</totfact>
</mgrwt>
</event>
<event>
12    3  0.2422421E-007  0.8132110E+03  0.7818608E-02  0.9541089E-01
         -2   -1    0    0    0  501 -0.00000000000E+00  0.00000000000E+00  0.68525161787E+03  0.68525161787E+03  0.00000000000E+00 0.  1.
          1   -1    0    0  501    0  0.00000000000E+00 -0.00000000000E+00 -0.18966268612E+04  0.18966268612E+04  0.00000000000E+00 0. -1.
        -24    2    1    2    0    0  0.16408188713E+03 -0.71983649403E+03 -0.14249126721E+04  0.16067502152E+04  0.78630065173E+02 0.  0.
    5000000    2    1    2    0    0 -0.16408188713E+03  0.71983649403E+03  0.21353742873E+03  0.97512826390E+03  0.60015785738E+03 0.  0.
        -24    2    4    4    0    0 -0.22950074774E+03  0.96939413930E+02 -0.86699833667E+02  0.27548700540E+03  0.79425347357E+02 0.  0.
         24    2    4    4    0    0  0.65418860607E+02  0.62289708010E+03  0.30023726240E+03  0.69964125850E+03  0.84113477799E+02 0.  0.
         11    1    5    5    0    0 -0.18750826839E+02 -0.12616069471E+02 -0.15908238513E+02  0.27637488465E+02  0.00000000000E+00 0. -1.
        -12    1    5    5    0    0 -0.21074992090E+03  0.10955548340E+03 -0.70791595154E+02  0.24784951694E+03  0.00000000000E+00 0.  1.
         13    1    3    3    0    0  0.11861791011E+03 -0.45628876069E+03 -0.98304667636E+03  0.10902524523E+04  0.00000000000E+00 0. -1.
        -14    1    3    3    0    0  0.45463977025E+02 -0.26354773334E+03 -0.44186599575E+03  0.51649776297E+03  0.00000000000E+00 0.  1.
          4    1    6    6  502    0  0.40136864599E+02  0.21446729976E+03  0.14498233269E+03  0.26196768380E+03  0.00000000000E+00 0. -1.
         -3    1    6    6    0  502  0.25281996009E+02  0.40842978034E+03  0.15525492971E+03  0.43767357470E+03  0.00000000000E+00 0.  1.
<mgrwt>
<rscale>  0 0.81321102E+03</rscale>
<asrwt>0</asrwt>
<pdfrwt beam="1">  1        1 0.29178875E+00 0.81321102E+03</pdfrwt>
<pdfrwt beam="2">  1       -2 0.10542333E+00 0.81321102E+03</pdfrwt>
<totfact> 0.23080378E+00</totfact>
</mgrwt>
</event>
<event>
12    3  0.2422421E-007  0.1091343E+04  0.7818608E-02  0.9213671E-01
         -2   -1    0    0    0  501 -0.00000000000E+00  0.00000000000E+00  0.58581539304E+03  0.58581539304E+03  0.00000000000E+00 0.  1.
          1   -1    0    0  501    0  0.00000000000E+00 -0.00000000000E+00 -0.28406031848E+04  0.28406031848E+04  0.00000000000E+00 0. -1.
        -24    2    1    2    0    0 -0.32003241646E+03 -0.10358318778E+04 -0.32765705860E+03  0.11354384035E+04  0.80577871842E+02 0.  0.
    5000000    2    1    2    0    0  0.32003241646E+03  0.10358318778E+04 -0.19271307332E+04  0.22909801744E+04  0.59949050876E+03 0.  0.
        -24    2    4    4    0    0  0.37618337646E+02  0.37253666855E+03 -0.12164183558E+04  0.12752738391E+04  0.80318363133E+02 0.  0.
         24    2    4    4    0    0  0.28241407882E+03  0.66329520921E+03 -0.71071237734E+03  0.10157063353E+04  0.82637944167E+02 0.  0.
         11    1    3    3    0    0 -0.11613995266E+03 -0.44794887205E+03 -0.10464207035E+03  0.47444350924E+03  0.00000000000E+00 0. -1.
        -12    1    3    3    0    0 -0.20389246380E+03 -0.58788300572E+03 -0.22301498825E+03  0.66099489422E+03  0.00000000000E+00 0.  1.
         13    1    5    5    0    0 -0.72131460024E+01  0.63414479427E+02 -0.12965247365E+03  0.14451017127E+03  0.00000000000E+00 0. -1.
        -14    1    5    5    0    0  0.44831483648E+02  0.30912218912E+03 -0.10867658822E+04  0.11307636678E+04  0.00000000000E+00 0.  1.
          2    1    6    6  502    0  0.19111811555E+02  0.66916302666E+02 -0.39533991146E+02  0.80037424742E+02  0.00000000000E+00 0. -1.
         -1    1    6    6    0  502  0.26330226726E+03  0.59637890655E+03 -0.67117838619E+03  0.93566891057E+03  0.00000000000E+00 0.  1.
<mgrwt>
<rscale>  0 0.10913427E+04</rscale>
<asrwt>0</asrwt>
<pdfrwt beam="1">  1        1 0.43701588E+00 0.10913427E+04</pdfrwt>
<pdfrwt beam="2">  1       -2 0.90125444E-01 0.10913427E+04</pdfrwt>
<totfact> 0.72540025E-01</totfact>
</mgrwt>
</event>
<event>
12    3  0.2422421E-007  0.4598836E+03  0.7818608E-02  0.1024815E+00
          1   -1    0    0  501    0  0.00000000000E+00  0.00000000000E+00  0.18856193773E+03  0.18856193773E+03  0.00000000000E+00 0. -1.
         -2   -1    0    0    0  501 -0.00000000000E+00 -0.00000000000E+00 -0.19781462310E+04  0.19781462310E+04  0.00000000000E+00 0.  1.
        -24    2    1    2    0    0  0.10614225494E+03  0.41758045827E+03 -0.96285304880E+03  0.10578830051E+04  0.79942739438E+02 0.  0.
    5000000    2    1    2    0    0 -0.10614225494E+03 -0.41758045827E+03 -0.82673124449E+03  0.11088251636E+04  0.60030748404E+03 0.  0.
        -24    2    4    4    0    0  0.41347256241E+02 -0.17822076046E+03 -0.79015058334E+03  0.81491834804E+03  0.79257394341E+02 0.  0.
         24    2    4    4    0    0 -0.14748951118E+03 -0.23935969780E+03 -0.36580661151E+02  0.29390681556E+03  0.77439335099E+02 0.  0.
         11    1    5    5    0    0  0.61728193449E+02 -0.10880699491E+03 -0.55330513569E+03  0.56727057493E+03  0.00000000000E+00 0. -1.
        -12    1    5    5    0    0 -0.20380937208E+02 -0.69413765551E+02 -0.23684544765E+03  0.24764777311E+03  0.00000000000E+00 0.  1.
         13    1    3    3    0    0  0.16448348013E+02  0.53072951176E+02 -0.70310649559E+02  0.89615142360E+02  0.00000000000E+00 0. -1.
        -14    1    3    3    0    0  0.89693906923E+02  0.36450750709E+03 -0.89254239924E+03  0.96826786278E+03  0.00000000000E+00 0.  1.
          2    1    6    6  502    0 -0.65711911681E+02 -0.17619732479E+03 -0.17900875451E+02  0.18890207501E+03  0.00000000000E+00 0. -1.
         -1    1    6    6    0  502 -0.81777599496E+02 -0.63162373011E+02 -0.18679785701E+02  0.10500474055E+03  0.00000000000E+00 0.  1.
<mgrwt>
<rscale>  0 0.45988363E+03</rscale>
<asrwt>0</asrwt>
<pdfrwt beam="1">  1        1 0.29009529E-01 0.45988363E+03</pdfrwt>
<pdfrwt beam="2">  1       -2 0.30433019E+00 0.45988363E+03</pdfrwt>
<totfact> 0.45808290E+00</totfact>
</mgrwt>
</event>
<event>
12    3  0.2422421E-007  0.7735718E+03  0.7818608E-02  0.9599079E-01
         -2   -1    0    0    0  501 -0.00000000000E+00  0.00000000000E+00  0.35281384561E+03  0.35281384561E+03  0.00000000000E+00 0.  1.
          1   -1    0    0  501    0  0.00000000000E+00 -0.00000000000E+00 -0.24516196390E+04  0.24516196390E+04  0.00000000000E+00 0. -1.
        -24    2    1    2    0    0 -0.70325104219E+03  0.27775656317E+02 -0.16089003177E+04  0.17578851673E+04  0.79161313730E+02 0.  0.
    5000000    2    1    2    0    0  0.70325104219E+03 -0.27775656317E+02 -0.48990547570E+03  0.10465483174E+04  0.59993540488E+03 0.  0.
        -24    2    4    4    0    0  0.27560344249E+03  0.21324752211E+03 -0.13790339389E+02  0.35769688858E+03  0.79530669823E+02 0.  0.
         24    2    4    4    0    0  0.42764759970E+03 -0.24102317843E+03 -0.47611513631E+03  0.68885142878E+03  0.82801122204E+02 0.  0.
         11    1    5    5    0    0  0.11200705024E+03  0.10439576823E+03 -0.42998208999E+02  0.15903742234E+03  0.00000000000E+00 0. -1.
        -12    1    5    5    0    0  0.16359639225E+03  0.10885175388E+03  0.29207869610E+02  0.19865946624E+03  0.00000000000E+00 0.  1.
         13    1    3    3    0    0 -0.58006490735E+03  0.88385568390E+01 -0.13858521283E+04  0.15023779612E+04  0.00000000000E+00 0. -1.
        -14    1    3    3    0    0 -0.12318613484E+03  0.18937099478E+02 -0.22304818943E+03  0.25550720608E+03  0.00000000000E+00 0.  1.
          2    1    6    6  502    0  0.25462501810E+03 -0.11913011971E+03 -0.22242200174E+03  0.35846538483E+03  0.00000000000E+00 0. -1.
         -1    1    6    6    0  502  0.17302258160E+03 -0.12189305872E+03 -0.25369313457E+03  0.33038604394E+03  0.00000000000E+00 0.  1.
<mgrwt>
<rscale>  0 0.77357183E+03</rscale>
<asrwt>0</asrwt>
<pdfrwt beam="1">  1        1 0.37717225E+00 0.77357183E+03</pdfrwt>
<pdfrwt beam="2">  1       -2 0.54279053E-01 0.77357183E+03</pdfrwt>
<totfact> 0.43101647E+00</totfact>
</mgrwt>
</event>
<event>
12    3  0.3469452E-007  0.9080225E+03  0.7818608E-02  0.9415608E-01
          1   -1    0    0  501    0  0.00000000000E+00  0.00000000000E+00  0.26277680696E+04  0.26277680696E+04  0.00000000000E+00 0. -1.
         -2   -1    0    0    0  501 -0.00000000000E+00 -0.00000000000E+00 -0.38973627732E+03  0.38973627732E+03  0.00000000000E+00 0.  1.
        -24    2    1    2    0    0  0.18720658768E+03  0.82374880825E+03  0.15700849557E+04  0.17847761872E+04  0.81552834126E+02 0.  0.
    5000000    2    1    2    0    0 -0.18720658768E+03 -0.82374880825E+03  0.66794683656E+03  0.12327281597E+04  0.59988109961E+03 0.  0.
        -24    2    4    4    0    0 -0.91523090985E+00 -0.77031264547E+03  0.34352575696E+03  0.84639606468E+03  0.70667837126E+02 0.  0.
         24    2    4    4    0    0 -0.18629135677E+03 -0.53436162784E+02  0.32442107960E+03  0.38633209501E+03  0.80271773656E+02 0.  0.
         11    1    3    3    0    0  0.64889317124E+02  0.23369129703E+03  0.52715542797E+03  0.58027156662E+03  0.00000000000E+00 0. -1.
        -12    1    3    3    0    0  0.12231727056E+03  0.59005751122E+03  0.10429295277E+04  0.12045046206E+04  0.00000000000E+00 0.  1.
         13    1    5    5    0    0 -0.31683786491E+02 -0.36211289301E+03  0.14370019611E+03  0.39086999881E+03  0.00000000000E+00 0. -1.
        -14    1    5    5    0    0  0.30768555581E+02 -0.40819975246E+03  0.19982556085E+03  0.45552606587E+03  0.00000000000E+00 0.  1.
          4    1    6    6  502    0 -0.96942331734E+02 -0.48935718077E+02  0.11279549623E+03  0.15657376586E+03  0.00000000000E+00 0. -1.
         -3    1    6    6    0  502 -0.89349025038E+02 -0.45004447069E+01  0.21162558337E+03  0.22975832915E+03  0.00000000000E+00 0.  1.
<mgrwt>
<rscale>  0 0.90802245E+03</rscale>
<asrwt>0</asrwt>
<pdfrwt beam="1">  1        1 0.40427200E+00 0.90802245E+03</pdfrwt>
<pdfrwt beam="2">  1       -2 0.59959429E-01 0.90802245E+03</pdfrwt>
<totfact> 0.25927448E+00</totfact>
</mgrwt>
</event>
<event>
12    3  0.2422421E-007  0.4764629E+03  0.7818608E-02  0.1020112E+00
         -2   -1    0    0    0  501 -0.00000000000E+00  0.00000000000E+00  0.44486125909E+03  0.44486125909E+03  0.00000000000E+00 0.  1.
          1   -1    0    0  501    0  0.00000000000E+00 -0.00000000000E+00 -0.58450215945E+03  0.58450215945E+03  0.00000000000E+00 0. -1.
        -24    2    1    2    0    0  0.42221560931E+01  0.30587727904E+03  0.70287812087E+02  0.32389915832E+03  0.79947181303E+02 0.  0.
    5000000    2    1    2    0    0 -0.42221560931E+01 -0.30587727904E+03 -0.20992871245E+03  0.70546426021E+03  0.60002585086E+03 0.  0.
        -24    2    4    4    0    0 -0.10536804283E+03 -0.44771347151E+03 -0.20994791118E+03  0.51413201327E+03  0.93294290456E+02 0.  0.
         24    2    4    4    0    0  0.10114588674E+03  0.14183619248E+03  0.19198729865E-01  0.19133224695E+03  0.79120366863E+02 0.  0.
         11    1    3    3    0    0  0.79772692200E+01  0.24761574808E+03  0.23076876492E+02  0.24881667498E+03  0.00000000000E+00 0. -1.
        -12    1    3    3    0    0 -0.37551131269E+01  0.58261530960E+02  0.47210935595E+02  0.75082483338E+02  0.00000000000E+00 0.  1.
         13    1    5    5    0    0 -0.50254218382E+02 -0.21686776000E+03 -0.50677225521E+02  0.22830964276E+03  0.00000000000E+00 0. -1.
        -14    1    5    5    0    0 -0.55113824451E+02 -0.23084571152E+03 -0.15927068566E+03  0.28582237051E+03  0.00000000000E+00 0.  1.
          4    1    6    6  502    0  0.75344971054E+02  0.47541081384E+02  0.20571213847E+02  0.91434096055E+02  0.00000000000E+00 0. -1.
         -3    1    6    6    0  502  0.25800915685E+02  0.94295111093E+02 -0.20552015117E+02  0.99898150891E+02  0.00000000000E+00 0.  1.
<mgrwt>
<rscale>  0 0.47646287E+03</rscale>
<asrwt>0</asrwt>
<pdfrwt beam="1">  1        1 0.89923410E-01 0.47646287E+03</pdfrwt>
<pdfrwt beam="2">  1       -2 0.68440193E-01 0.47646287E+03</pdfrwt>
<totfact> 0.63277354E+01</totfact>
</mgrwt>
</event>
<event>
12    3  0.2422421E-007  0.1144276E+04  0.7818608E-02  0.9163081E-01
          1   -1    0    0  501    0  0.00000000000E+00  0.00000000000E+00  0.16530518731E+04  0.16530518731E+04  0.00000000000E+00 0. -1.
         -2   -1    0    0    0  501 -0.00000000000E+00 -0.00000000000E+00 -0.10616877307E+04  0.10616877307E+04  0.00000000000E+00 0.  1.
        -24    2    1    2    0    0  0.66154265564E+03 -0.92517619507E+03  0.82551179099E+03  0.14076347254E+04  0.79850647498E+02 0.  0.
    5000000    2    1    2    0    0 -0.66154265564E+03  0.92517619507E+03 -0.23414764854E+03  0.13071048785E+04  0.60009029722E+03 0.  0.
        -24    2    4    4    0    0 -0.42978515157E+03  0.56082683804E+03 -0.42477039986E+03  0.82832428756E+03  0.80306998380E+02 0.  0.
         24    2    4    4    0    0 -0.23175750407E+03  0.36434935703E+03  0.19062275131E+03  0.47878059090E+03  0.80198667354E+02 0.  0.
         11    1    5    5    0    0 -0.36276455613E+03  0.50636140336E+03 -0.39186696274E+03  0.73590740619E+03  0.00000000000E+00 0. -1.
        -12    1    5    5    0    0 -0.67020595442E+02  0.54465434683E+02 -0.32903437121E+02  0.92416881375E+02  0.00000000000E+00 0.  1.
         11    1    3    3    0    0  0.37932725619E+03 -0.59636259629E+03  0.50454174066E+03  0.86838924545E+03  0.00000000000E+00 0. -1.
        -12    1    3    3    0    0  0.28221539944E+03 -0.32881359878E+03  0.32097005033E+03  0.53924547994E+03  0.00000000000E+00 0.  1.
          4    1    6    6  502    0 -0.79608841092E+02  0.19985069233E+03  0.93580968662E+02  0.23459596012E+03  0.00000000000E+00 0. -1.
         -3    1    6    6    0  502 -0.15214866298E+03  0.16449866470E+03  0.97041782652E+02  0.24418463079E+03  0.00000000000E+00 0.  1.
<mgrwt>
<rscale>  0 0.11442756E+04</rscale>
<asrwt>0</asrwt>
<pdfrwt beam="1">  1        1 0.25431567E+00 0.11442756E+04</pdfrwt>
<pdfrwt beam="2">  1       -2 0.16333657E+00 0.11442756E+04</pdfrwt>
<totfact> 0.10517091E+00</totfact>
</mgrwt>
</event>
<event>
12    3  0.2422421E-007  0.6896060E+03  0.7818608E-02  0.9735174E-01
          1   -1    0    0  501    0  0.00000000000E+00  0.00000000000E+00  0.85231179492E+03  0.85231179492E+03  0.00000000000E+00 0. -1.
         -2   -1    0    0    0  501 -0.00000000000E+00 -0.00000000000E+00 -0.71888103073E+03  0.71888103073E+03  0.00000000000E+00 0.  1.
        -24    2    1    2    0    0 -0.56868680710E+03  0.21513809123E+03 -0.21342307956E+03  0.64917894819E+03  0.78707134525E+02 0.  0.
    5000000    2    1    2    0    0  0.56868680710E+03 -0.21513809123E+03  0.34685384376E+03  0.92201387746E+03  0.60009409132E+03 0.  0.
        -24    2    4    4    0    0  0.55734956339E+03 -0.72255749775E+01  0.72978563486E+02  0.56764663091E+03  0.78778690747E+02 0.  0.
         24    2    4    4    0    0  0.11337243712E+02 -0.20791251625E+03  0.27387528027E+03  0.35436724655E+03  0.84925430666E+02 0.  0.
         11    1    3    3    0    0 -0.13108419034E+03  0.32235065169E+02 -0.17907073158E+02  0.13617205165E+03  0.00000000000E+00 0. -1.
        -12    1    3    3    0    0 -0.43760261676E+03  0.18290302606E+03 -0.19551600640E+03  0.51300689654E+03  0.00000000000E+00 0.  1.
         13    1    5    5    0    0  0.39010332388E+03  0.14856716298E+02  0.81228459553E+02  0.39874727330E+03  0.00000000000E+00 0. -1.
        -14    1    5    5    0    0  0.16724623951E+03 -0.22082291276E+02 -0.82498960670E+01  0.16889935761E+03  0.00000000000E+00 0.  1.
          2    1    6    6  502    0 -0.11772183338E+02 -0.80965834748E+02  0.49758938026E+02  0.95760130589E+02  0.00000000000E+00 0. -1.
         -1    1    6    6    0  502  0.23109427050E+02 -0.12694668150E+03  0.22411634224E+03  0.25860711596E+03  0.00000000000E+00 0.  1.
<mgrwt>
<rscale>  0 0.68960600E+03</rscale>
<asrwt>0</asrwt>
<pdfrwt beam="1">  1        1 0.13112489E+00 0.68960600E+03</pdfrwt>
<pdfrwt beam="2">  1       -2 0.11059708E+00 0.68960600E+03</pdfrwt>
<totfact> 0.11661712E+01</totfact>
</mgrwt>
</event>
<event>
12    3  0.2422421E-007  0.4803130E+03  0.7818608E-02  0.1019049E+00
         -4   -1    0    0    0  501 -0.00000000000E+00  0.00000000000E+00  0.90712093137E+03  0.90712093137E+03  0.00000000000E+00 0.  1.
          3   -1    0    0  501    0  0.00000000000E+00 -0.00000000000E+00 -0.28581493969E+03  0.28581493969E+03  0.00000000000E+00 0. -1.
        -24    2    1    2    0    0 -0.15017536046E+03 -0.28729821703E+03  0.24008068492E+03  0.41146963802E+03  0.81090217300E+02 0.  0.
    5000000    2    1    2    0    0  0.15017536046E+03  0.28729821703E+03  0.38122530676E+03  0.78146623305E+03  0.60021982180E+03 0.  0.
        -24    2    4    4    0    0 -0.19941263554E+03  0.87798620776E+02  0.27035934406E+03  0.35668694727E+03  0.81592931120E+02 0.  0.
         24    2    4    4    0    0  0.34958799600E+03  0.19949959625E+03  0.11086596270E+03  0.42477928578E+03  0.78321925957E+02 0.  0.
         11    1    3    3    0    0 -0.67568830845E+02 -0.57032352506E+02  0.78941743640E+02  0.11853284365E+03  0.00000000000E+00 0. -1.
        -12    1    3    3    0    0 -0.82606529616E+02 -0.23026586452E+03  0.16113894128E+03  0.29293679437E+03  0.00000000000E+00 0.  1.
         13    1    5    5    0    0 -0.39155994718E+02  0.11290074575E+02  0.11040857927E+03  0.11768904827E+03  0.00000000000E+00 0. -1.
        -14    1    5    5    0    0 -0.16025664082E+03  0.76508546201E+02  0.15995076479E+03  0.23899789900E+03  0.00000000000E+00 0.  1.
          2    1    6    6  502    0  0.41896237480E+02  0.55439603017E+02  0.29069716223E+02  0.75325246093E+02  0.00000000000E+00 0. -1.
         -1    1    6    6    0  502  0.30769175852E+03  0.14405999324E+03  0.81796246473E+02  0.34945403968E+03  0.00000000000E+00 0.  1.
<mgrwt>
<rscale>  0 0.48031300E+03</rscale>
<asrwt>0</asrwt>
<pdfrwt beam="1">  1        3 0.43971530E-01 0.48031300E+03</pdfrwt>
<pdfrwt beam="2">  1       -4 0.13955706E+00 0.48031300E+03</pdfrwt>
<totfact> 0.41985378E+00</totfact>
</mgrwt>
</event>
<event>
12    3  0.2422421E-007  0.5710314E+03  0.7818608E-02  0.9967399E-01
          1   -1    0    0  501    0  0.00000000000E+00  0.00000000000E+00  0.77522190035E+03  0.77522190035E+03  0.00000000000E+00 0. -1.
         -2   -1    0    0    0  501 -0.00000000000E+00 -0.00000000000E+00 -0.46403566139E+03  0.46403566139E+03  0.00000000000E+00 0.  1.
        -24    2    1    2    0    0 -0.18970872026E+03 -0.37792818547E+03 -0.26900119530E+02  0.43120942043E+03  0.79992724167E+02 0.  0.
    5000000    2    1    2    0    0  0.18970872026E+03  0.37792818547E+03  0.33808635849E+03  0.80804814131E+03  0.59985023211E+03 0.  0.
        -24    2    4    4    0    0 -0.16203021513E+03 -0.33022721367E+02  0.11755608365E+03  0.21854621613E+03  0.81232536825E+02 0.  0.
         24    2    4    4    0    0  0.35173893540E+03  0.41095090684E+03  0.22053027484E+03  0.58950192518E+03  0.79233775410E+02 0.  0.
         11    1    5    5    0    0 -0.11153320324E+03  0.33028171320E+01  0.38687816756E+02  0.11809873492E+03  0.00000000000E+00 0. -1.
        -12    1    5    5    0    0 -0.50497011897E+02 -0.36325538499E+02  0.78868266896E+02  0.10044748121E+03  0.00000000000E+00 0.  1.
         11    1    3    3    0    0 -0.41078343310E+02 -0.14318324825E+03  0.16979153772E+02  0.14992386245E+03  0.00000000000E+00 0. -1.
        -12    1    3    3    0    0 -0.14863037695E+03 -0.23474493723E+03 -0.43879273302E+02  0.28128555799E+03  0.00000000000E+00 0.  1.
          4    1    6    6  502    0  0.25500221250E+03  0.28077421035E+03  0.11632793704E+03  0.39672720415E+03  0.00000000000E+00 0. -1.
         -3    1    6    6    0  502  0.96736722898E+02  0.13017669649E+03  0.10420233780E+03  0.19277472103E+03  0.00000000000E+00 0.  1.
<mgrwt>
<rscale>  0 0.57103140E+03</rscale>
<asrwt>0</asrwt>
<pdfrwt beam="1">  1        1 0.11926491E+00 0.57103140E+03</pdfrwt>
<pdfrwt beam="2">  1       -2 0.71390102E-01 0.57103140E+03</pdfrwt>
<totfact> 0.37641320E+01</totfact>
</mgrwt>
</event>
<event>
12    3  0.2422421E-007  0.1660828E+04  0.7818608E-02  0.8784026E-01
          1   -1    0    0  501    0  0.00000000000E+00  0.00000000000E+00  0.36617465125E+04  0.36617465125E+04  0.00000000000E+00 0. -1.
         -2   -1    0    0    0  501 -0.00000000000E+00 -0.00000000000E+00 -0.80577362364E+03  0.80577362364E+03  0.00000000000E+00 0.  1.
        -24    2    1    2    0    0 -0.15584731385E+04  0.50030046045E+03  0.17771224885E+04  0.24173983628E+04  0.80693439513E+02 0.  0.
    5000000    2    1    2    0    0  0.15584731385E+04 -0.50030046045E+03  0.10788504003E+04  0.20501217733E+04  0.59995168537E+03 0.  0.
        -24    2    4    4    0    0  0.13301856688E+04 -0.27235399436E+03  0.64738815049E+03  0.15063298476E+04  0.79671705210E+02 0.  0.
         24    2    4    4    0    0  0.22828746974E+03 -0.22794646608E+03  0.43146224979E+03  0.54379192569E+03  0.73994764722E+02 0.  0.
         11    1    5    5    0    0  0.28436823584E+03 -0.26401875455E+02  0.12612062292E+03  0.31219987845E+03  0.00000000000E+00 0. -1.
        -12    1    5    5    0    0  0.10458174329E+04 -0.24595211891E+03  0.52126752757E+03  0.11941299691E+04  0.00000000000E+00 0.  1.
         13    1    3    3    0    0 -0.76520450933E+03  0.26179457892E+03  0.82292574403E+03  0.11538115630E+04  0.00000000000E+00 0. -1.
        -14    1    3    3    0    0 -0.79326862919E+03  0.23850588152E+03  0.95419674452E+03  0.12635867999E+04  0.00000000000E+00 0.  1.
          2    1    6    6  502    0  0.12161079689E+03 -0.95951657096E+02  0.25927485772E+03  0.30202542652E+03  0.00000000000E+00 0. -1.
         -1    1    6    6    0  502  0.10667667285E+03 -0.13199480899E+03  0.17218739207E+03  0.24176649916E+03  0.00000000000E+00 0.  1.
<mgrwt>
<rscale>  0 0.16608282E+04</rscale>
<asrwt>0</asrwt>
<pdfrwt beam="1">  1        1 0.56334561E+00 0.16608282E+04</pdfrwt>
<pdfrwt beam="2">  1       -2 0.12396517E+00 0.16608282E+04</pdfrwt>
<totfact> 0.74897971E-02</totfact>
</mgrwt>
</event>
<event>
12    3  0.2422421E-007  0.7196556E+03  0.7818608E-02  0.9684197E-01
          1   -1    0    0  501    0  0.00000000000E+00  0.00000000000E+00  0.41375819310E+03  0.41375819310E+03  0.00000000000E+00 0. -1.
         -2   -1    0    0    0  501 -0.00000000000E+00 -0.00000000000E+00 -0.15475019334E+04  0.15475019334E+04  0.00000000000E+00 0.  1.
        -24    2    1    2    0    0 -0.41450224525E+03  0.43710795149E+03 -0.88840513683E+03  0.10762184926E+04  0.78147834846E+02 0.  0.
    5000000    2    1    2    0    0  0.41450224525E+03 -0.43710795149E+03 -0.24533860344E+03  0.88504163386E+03  0.60019346111E+03 0.  0.
        -24    2    4    4    0    0  0.15198570791E+03 -0.52329100358E+03 -0.90474060913E+02  0.55818031924E+03  0.80290617503E+02 0.  0.
         24    2    4    4    0    0  0.26251653734E+03  0.86183052089E+02 -0.15486454252E+03  0.32686131462E+03  0.80702178534E+02 0.  0.
         11    1    5    5    0    0  0.12787371960E+03 -0.32931066265E+03 -0.35046430418E+02  0.35500063801E+03  0.00000000000E+00 0. -1.
        -12    1    5    5    0    0  0.24111988320E+02 -0.19398034092E+03 -0.55427630496E+02  0.20317968124E+03  0.00000000000E+00 0.  1.
         13    1    3    3    0    0 -0.25437006505E+03  0.22619895120E+03 -0.54499496406E+03  0.64256486550E+03  0.00000000000E+00 0. -1.
        -14    1    3    3    0    0 -0.16013218021E+03  0.21090900028E+03 -0.34341017277E+03  0.43365362711E+03  0.00000000000E+00 0.  1.
          4    1    6    6  502    0  0.26033234037E+03  0.94355578691E+02 -0.14129281197E+03  0.31086904219E+03  0.00000000000E+00 0. -1.
         -3    1    6    6    0  502  0.21841969650E+01 -0.81725266021E+01 -0.13571730550E+02  0.15992272433E+02  0.00000000000E+00 0.  1.
<mgrwt>
<rscale>  0 0.71965561E+03</rscale>
<asrwt>0</asrwt>
<pdfrwt beam="1">  1        1 0.63655107E-01 0.71965561E+03</pdfrwt>
<pdfrwt beam="2">  1       -2 0.23807722E+00 0.71965561E+03</pdfrwt>
<totfact> 0.39530604E+00</totfact>
</mgrwt>
</event>
<event>
12    3  0.2422421E-007  0.9645227E+03  0.7818608E-02  0.9348335E-01
          1   -1    0    0  501    0  0.00000000000E+00  0.00000000000E+00  0.17636982133E+04  0.17636982133E+04  0.00000000000E+00 0. -1.
         -2   -1    0    0    0  501 -0.00000000000E+00 -0.00000000000E+00 -0.10816912734E+04  0.10816912734E+04  0.00000000000E+00 0.  1.
        -24    2    1    2    0    0 -0.90922595429E+03 -0.27307815177E+03  0.12620252126E+04  0.15813285995E+04  0.81418605112E+02 0.  0.
    5000000    2    1    2    0    0  0.90922595429E+03  0.27307815177E+03 -0.58001827271E+03  0.12640608873E+04  0.60013766517E+03 0.  0.
        -24    2    4    4    0    0  0.50523283949E+03  0.44294144574E+02 -0.60386291369E+03  0.79260895898E+03  0.79726720627E+02 0.  0.
         24    2    4    4    0    0  0.40399311479E+03  0.22878400719E+03  0.23844640978E+02  0.47145192830E+03  0.78395121338E+02 0.  0.
         11    1    3    3    0    0 -0.44471015946E+03 -0.10889548995E+03  0.66296616638E+03  0.80569813914E+03  0.00000000000E+00 0. -1.
        -12    1    3    3    0    0 -0.46451579482E+03 -0.16418266182E+03  0.59905904625E+03  0.77563046032E+03  0.00000000000E+00 0.  1.
         11    1    5    5    0    0  0.26107969761E+03 -0.17113167642E+02 -0.30663918261E+03  0.40309187206E+03  0.00000000000E+00 0. -1.
        -12    1    5    5    0    0  0.24415314188E+03  0.61407312216E+02 -0.29722373108E+03  0.38951708692E+03  0.00000000000E+00 0.  1.
          2    1    6    6  502    0  0.10813635858E+03  0.47223375255E+02  0.38209664727E+02  0.12403022896E+03  0.00000000000E+00 0. -1.
         -1    1    6    6    0  502  0.29585675621E+03  0.18156063194E+03 -0.14365023749E+02  0.34742169934E+03  0.00000000000E+00 0.  1.
<mgrwt>
<rscale>  0 0.96452272E+03</rscale>
<asrwt>0</asrwt>
<pdfrwt beam="1">  1        1 0.27133819E+00 0.96452272E+03</pdfrwt>
<pdfrwt beam="2">  1       -2 0.16641404E+00 0.96452272E+03</pdfrwt>
<totfact> 0.86047789E-01</totfact>
</mgrwt>
</event>
<event>
12    3  0.2422421E-007  0.1335771E+03  0.7818608E-02  0.1222242E+00
         -2   -1    0    0    0  501 -0.00000000000E+00  0.00000000000E+00  0.39162678047E+03  0.39162678047E+03  0.00000000000E+00 0.  1.
          1   -1    0    0  501    0  0.00000000000E+00 -0.00000000000E+00 -0.75708901900E+03  0.75708901900E+03  0.00000000000E+00 0. -1.
        -24    2    1    2    0    0  0.56707221359E+01 -0.98524073575E+02 -0.50805611758E+03  0.52419708429E+03  0.83201048110E+02 0.  0.
    5000000    2    1    2    0    0 -0.56707221359E+01  0.98524073575E+02  0.14259387906E+03  0.62451871518E+03  0.59995954955E+03 0.  0.
        -24    2    4    4    0    0  0.63801850300E+01  0.63624855238E+02 -0.22756289289E+03  0.24414755174E+03  0.61109146903E+02 0.  0.
         24    2    4    4    0    0 -0.12050907166E+02  0.34899218337E+02  0.37015677195E+03  0.38037116344E+03  0.79391475294E+02 0.  0.
         11    1    5    5    0    0  0.15390978845E+02  0.81799012129E+01 -0.13316517119E+03  0.13430098969E+03  0.00000000000E+00 0. -1.
        -12    1    5    5    0    0 -0.90107938152E+01  0.55444954025E+02 -0.94397721700E+02  0.10984656205E+03  0.00000000000E+00 0.  1.
         13    1    3    3    0    0  0.22365360784E+02 -0.61655541271E+02 -0.44117595468E+03  0.44602448152E+03  0.00000000000E+00 0. -1.
        -14    1    3    3    0    0 -0.16694638649E+02 -0.36868532304E+02 -0.66880162906E+02  0.78172602772E+02  0.00000000000E+00 0.  1.
          4    1    6    6  502    0  0.27913621177E+02  0.38290632530E+02  0.20766848208E+03  0.21300596526E+03  0.00000000000E+00 0. -1.
         -3    1    6    6    0  502 -0.39964528342E+02 -0.33914141932E+01  0.16248828987E+03  0.16736519817E+03  0.00000000000E+00 0.  1.
<mgrwt>
<rscale>  0 0.13357709E+03</rscale>
<asrwt>0</asrwt>
<pdfrwt beam="1">  1        1 0.11647523E+00 0.13357709E+03</pdfrwt>
<pdfrwt beam="2">  1       -2 0.60250275E-01 0.13357709E+03</pdfrwt>
<totfact> 0.60903494E+01</totfact>
</mgrwt>
</event>
<event>
12    3  0.2422421E-007  0.4401608E+03  0.7818608E-02  0.1030697E+00
         -2   -1    0    0    0  501 -0.00000000000E+00  0.00000000000E+00  0.35269870344E+03  0.35269870344E+03  0.00000000000E+00 0.  1.
          1   -1    0    0  501    0  0.00000000000E+00 -0.00000000000E+00 -0.13509660304E+04  0.13509660304E+04  0.00000000000E+00 0. -1.
        -24    2    1    2    0    0 -0.23890763915E+03  0.18295381782E+03  0.17115859475E+03  0.35538231536E+03  0.80326620808E+02 0.  0.
    5000000    2    1    2    0    0  0.23890763915E+03 -0.18295381782E+03 -0.11694259217E+04  0.13482824185E+04  0.59979957828E+03 0.  0.
        -24    2    4    4    0    0 -0.18119744356E+02  0.14267189785E+03 -0.87788666057E+02  0.18672400978E+03  0.80469934568E+02 0.  0.
         24    2    4    4    0    0  0.25702738351E+03 -0.32562571567E+03 -0.10816372557E+04  0.11615584087E+04  0.84756129037E+02 0.  0.
         11    1    5    5    0    0  0.18693760556E+02  0.71104059194E+02 -0.89519155899E+01  0.74063356056E+02  0.00000000000E+00 0. -1.
        -12    1    5    5    0    0 -0.36813504911E+02  0.71567838656E+02 -0.78836750468E+02  0.11266065373E+03  0.00000000000E+00 0.  1.
         13    1    3    3    0    0 -0.16921958913E+03  0.87698557886E+02  0.12858172931E+03  0.22991208649E+03  0.00000000000E+00 0. -1.
        -14    1    3    3    0    0 -0.69688050021E+02  0.95255259938E+02  0.42576865435E+02  0.12547022887E+03  0.00000000000E+00 0.  1.
          2    1    6    6  502    0  0.12855997802E+03 -0.12393703972E+03 -0.55862157869E+03  0.58646920290E+03  0.00000000000E+00 0. -1.
         -1    1    6    6    0  502  0.12846740549E+03 -0.20168867595E+03 -0.52301567698E+03  0.57508920582E+03  0.00000000000E+00 0.  1.
<mgrwt>
<rscale>  0 0.44016080E+03</rscale>
<asrwt>0</asrwt>
<pdfrwt beam="1">  1        1 0.20784093E+00 0.44016080E+03</pdfrwt>
<pdfrwt beam="2">  1       -2 0.54261338E-01 0.44016080E+03</pdfrwt>
<totfact> 0.25109566E+01</totfact>
</mgrwt>
</event>
<event>
12    3  0.2422421E-007  0.8085955E+03  0.7818608E-02  0.9547658E-01
         -2   -1    0    0    0  501 -0.00000000000E+00  0.00000000000E+00  0.59639299754E+03  0.59639299754E+03  0.00000000000E+00 0.  1.
          1   -1    0    0  501    0  0.00000000000E+00 -0.00000000000E+00 -0.13542577513E+04  0.13542577513E+04  0.00000000000E+00 0. -1.
        -24    2    1    2    0    0 -0.50964922885E+03 -0.60942752855E+03 -0.28069685019E+03  0.84635718231E+03  0.79909381983E+02 0.  0.
    5000000    2    1    2    0    0  0.50964922885E+03  0.60942752855E+03 -0.47716790357E+03  0.11042935665E+04  0.60052545643E+03 0.  0.
        -24    2    4    4    0    0  0.75849740796E+02  0.21666683173E+03  0.11396411701E+03  0.26857346250E+03  0.80288141336E+02 0.  0.
         24    2    4    4    0    0  0.43379948806E+03  0.39276069681E+03 -0.59113202058E+03  0.83572010401E+03  0.80920119231E+02 0.  0.
         11    1    3    3    0    0 -0.29575184002E+03 -0.29174650542E+03 -0.15035599504E+03  0.44180549968E+03  0.00000000000E+00 0. -1.
        -12    1    3    3    0    0 -0.21389738883E+03 -0.31768102313E+03 -0.13034085515E+03  0.40455168264E+03  0.00000000000E+00 0.  1.
         13    1    5    5    0    0  0.70763563225E+02  0.18458804110E+03  0.12543915717E+03  0.23412648066E+03  0.00000000000E+00 0. -1.
        -14    1    5    5    0    0  0.50861775707E+01  0.32078790636E+02 -0.11475040155E+02  0.34446981834E+02  0.00000000000E+00 0.  1.
          4    1    6    6  502    0  0.27180539174E+03  0.20384564547E+03 -0.30573525975E+03  0.45706155735E+03  0.00000000000E+00 0. -1.
         -3    1    6    6    0  502  0.16199409632E+03  0.18891505135E+03 -0.28539676083E+03  0.37865854666E+03  0.00000000000E+00 0.  1.
<mgrwt>
<rscale>  0 0.80859551E+03</rscale>
<asrwt>0</asrwt>
<pdfrwt beam="1">  1        1 0.20834734E+00 0.80859551E+03</pdfrwt>
<pdfrwt beam="2">  1       -2 0.91752770E-01 0.80859551E+03</pdfrwt>
<totfact> 0.75001876E+00</totfact>
</mgrwt>
</event>
<event>
12    3  0.2422421E-007  0.4978867E+03  0.7818608E-02  0.1014332E+00
          1   -1    0    0  501    0  0.00000000000E+00  0.00000000000E+00  0.92734517487E+03  0.92734517487E+03  0.00000000000E+00 0. -1.
         -2   -1    0    0    0  501 -0.00000000000E+00 -0.00000000000E+00 -0.62562248682E+03  0.62562248682E+03  0.00000000000E+00 0.  1.
        -24    2    1    2    0    0  0.35392408481E+03  0.35274683372E+02 -0.41531065526E+03  0.55262997369E+03  0.80064888402E+02 0.  0.
    5000000    2    1    2    0    0 -0.35392408481E+03 -0.35274683372E+02  0.71703334331E+03  0.10003376880E+04  0.60002676068E+03 0.  0.
        -24    2    4    4    0    0 -0.29323686284E+02  0.21732429925E+03  0.43908900076E+03  0.49708904982E+03  0.78794944280E+02 0.  0.
         24    2    4    4    0    0 -0.32460039852E+03 -0.25259898262E+03  0.27794434254E+03  0.50324863818E+03  0.82670850583E+02 0.  0.
         11    1    5    5    0    0 -0.25487224561E+02  0.15018260450E+03  0.21763683333E+03  0.26565053083E+03  0.00000000000E+00 0. -1.
        -12    1    5    5    0    0 -0.38364617224E+01  0.67141694748E+02  0.22145216744E+03  0.23143851900E+03  0.00000000000E+00 0.  1.
         13    1    3    3    0    0  0.10670210088E+03 -0.34105954534E+01 -0.76072140031E+02  0.13108753176E+03  0.00000000000E+00 0. -1.
        -14    1    3    3    0    0  0.24722198392E+03  0.38685278825E+02 -0.33923851523E+03  0.42154244193E+03  0.00000000000E+00 0.  1.
          2    1    6    6  502    0 -0.26282468142E+03 -0.15937719425E+03  0.19492625253E+03  0.36396998109E+03  0.00000000000E+00 0. -1.
         -1    1    6    6    0  502 -0.61775717101E+02 -0.93221788371E+02  0.83018090014E+02  0.13927865709E+03  0.00000000000E+00 0.  1.
<mgrwt>
<rscale>  0 0.49788670E+03</rscale>
<asrwt>0</asrwt>
<pdfrwt beam="1">  1        1 0.14266849E+00 0.49788670E+03</pdfrwt>
<pdfrwt beam="2">  1       -2 0.96249613E-01 0.49788670E+03</pdfrwt>
<totfact> 0.14489931E+01</totfact>
</mgrwt>
</event>
<event>
12    3  0.2422421E-007  0.6785312E+03  0.7818608E-02  0.9754668E-01
         -2   -1    0    0    0  501 -0.00000000000E+00  0.00000000000E+00  0.35557367849E+03  0.35557367849E+03  0.00000000000E+00 0.  1.
          1   -1    0    0  501    0  0.00000000000E+00 -0.00000000000E+00 -0.15871444989E+04  0.15871444989E+04  0.00000000000E+00 0. -1.
        -24    2    1    2    0    0 -0.72437720775E+02 -0.62121583533E+03 -0.58138819535E+03  0.85925604199E+03  0.95668043505E+02 0.  0.
    5000000    2    1    2    0    0  0.72437720775E+02  0.62121583533E+03 -0.65018262503E+03  0.10834621354E+04  0.59999701287E+03 0.  0.
        -24    2    4    4    0    0 -0.85481219432E+02  0.30199016992E+02  0.70585417775E+02  0.13466794537E+03  0.70243396874E+02 0.  0.
         24    2    4    4    0    0  0.15791894021E+03  0.59101681834E+03 -0.72076804281E+03  0.94879419001E+03  0.80402563603E+02 0.  0.
         11    1    3    3    0    0 -0.52015310695E+02 -0.55579842541E+03 -0.55076683478E+03  0.78419486642E+03  0.00000000000E+00 0. -1.
        -12    1    3    3    0    0 -0.20422410079E+02 -0.65417409918E+02 -0.30621360573E+02  0.75061175565E+02  0.00000000000E+00 0.  1.
         13    1    5    5    0    0 -0.96596037007E+02  0.19054381920E+02  0.56332019864E+02  0.11343350606E+03  0.00000000000E+00 0. -1.
        -14    1    5    5    0    0  0.11114817575E+02  0.11144635072E+02  0.14253397911E+02  0.21234439305E+02  0.00000000000E+00 0.  1.
          4    1    6    6  502    0  0.51827376408E+02  0.33489795879E+03 -0.37078987484E+03  0.50232245722E+03  0.00000000000E+00 0. -1.
         -3    1    6    6    0  502  0.10609156380E+03  0.25611885955E+03 -0.34997816797E+03  0.44647173279E+03  0.00000000000E+00 0.  1.
<mgrwt>
<rscale>  0 0.67853121E+03</rscale>
<asrwt>0</asrwt>
<pdfrwt beam="1">  1        1 0.24417607E+00 0.67853121E+03</pdfrwt>
<pdfrwt beam="2">  1       -2 0.54703644E-01 0.67853121E+03</pdfrwt>
<totfact> 0.16383226E+01</totfact>
</mgrwt>
</event>
<event>
12    3  0.2422421E-007  0.1374803E+04  0.7818608E-02  0.8972262E-01
          1   -1    0    0  501    0  0.00000000000E+00  0.00000000000E+00  0.12246797834E+04  0.12246797834E+04  0.00000000000E+00 0. -1.
         -2   -1    0    0    0  501 -0.00000000000E+00 -0.00000000000E+00 -0.18911689818E+04  0.18911689818E+04  0.00000000000E+00 0.  1.
        -24    2    1    2    0    0 -0.11852667246E+04 -0.68937887562E+03  0.19755974913E+03  0.13876305359E+04  0.79926259814E+02 0.  0.
    5000000    2    1    2    0    0  0.11852667246E+04  0.68937887562E+03 -0.86404894750E+03  0.17282182293E+04  0.60004768310E+03 0.  0.
        -24    2    4    4    0    0  0.93033069255E+03  0.48946549366E+03 -0.34158936848E+03  0.11082402741E+04  0.80134520985E+02 0.  0.
         24    2    4    4    0    0  0.25493603204E+03  0.19991338196E+03 -0.52245957902E+03  0.61997795526E+03  0.80317573328E+02 0.  0.
         11    1    5    5    0    0  0.86793514093E+03  0.46543085319E+03 -0.33814397830E+03  0.10412870104E+04  0.00000000000E+00 0. -1.
        -12    1    5    5    0    0  0.62395551615E+02  0.24034640471E+02 -0.34453901793E+01  0.66953263680E+02  0.00000000000E+00 0.  1.
         11    1    3    3    0    0 -0.62840129660E+03 -0.32333788871E+03  0.11821176174E+03  0.71652606404E+03  0.00000000000E+00 0. -1.
        -12    1    3    3    0    0 -0.55686542799E+03 -0.36604098691E+03  0.79347987398E+02  0.67110447181E+03  0.00000000000E+00 0.  1.
          4    1    6    6  502    0  0.21739589368E+03  0.18026930173E+03 -0.39436809200E+03  0.48506101443E+03  0.00000000000E+00 0. -1.
         -3    1    6    6    0  502  0.37540138358E+02  0.19644080225E+02 -0.12809148701E+03  0.13491694082E+03  0.00000000000E+00 0.  1.
<mgrwt>
<rscale>  0 0.13748035E+04</rscale>
<asrwt>0</asrwt>
<pdfrwt beam="1">  1        1 0.18841228E+00 0.13748035E+04</pdfrwt>
<pdfrwt beam="2">  1       -2 0.29094907E+00 0.13748035E+04</pdfrwt>
<totfact> 0.31103058E-01</totfact>
</mgrwt>
</event>
<event>
12    3  0.2422421E-007  0.8017156E+03  0.7818608E-02  0.9557537E-01
          1   -1    0    0  501    0  0.00000000000E+00  0.00000000000E+00  0.32841395289E+03  0.32841395289E+03  0.00000000000E+00 0. -1.
         -2   -1    0    0    0  501 -0.00000000000E+00 -0.00000000000E+00 -0.20995341335E+04  0.20995341335E+04  0.00000000000E+00 0.  1.
        -24    2    1    2    0    0 -0.62556933223E+03  0.30172611155E+03 -0.10482906395E+04  0.12596319738E+04  0.73374442732E+02 0.  0.
    5000000    2    1    2    0    0  0.62556933223E+03 -0.30172611155E+03 -0.72282954110E+03  0.11683161125E+04  0.60008695831E+03 0.  0.
        -24    2    4    4    0    0  0.14369800313E+03  0.17077892726E+03 -0.21320029314E+03  0.31890653303E+03  0.80202579249E+02 0.  0.
         24    2    4    4    0    0  0.48187132910E+03 -0.47250503881E+03 -0.50962924796E+03  0.84940957951E+03  0.79458629980E+02 0.  0.
         11    1    3    3    0    0 -0.26024576499E+03  0.16556857461E+03 -0.45377295657E+03  0.54868087921E+03  0.00000000000E+00 0. -1.
        -12    1    3    3    0    0 -0.36532356723E+03  0.13615753693E+03 -0.59451768291E+03  0.71095109462E+03  0.00000000000E+00 0.  1.
         13    1    5    5    0    0  0.10838905864E+03  0.88622473558E+02 -0.89135799438E+02  0.16597385816E+03  0.00000000000E+00 0. -1.
        -14    1    5    5    0    0  0.35308944487E+02  0.82156453702E+02 -0.12406449370E+03  0.15293267487E+03  0.00000000000E+00 0.  1.
          2    1    6    6  502    0  0.10977070033E+03 -0.88911273104E+02 -0.71355773768E+02  0.15826075820E+03  0.00000000000E+00 0. -1.
         -1    1    6    6    0  502  0.37210062877E+03 -0.38359376570E+03 -0.43827347420E+03  0.69114882132E+03  0.00000000000E+00 0.  1.
<mgrwt>
<rscale>  0 0.80171562E+03</rscale>
<asrwt>0</asrwt>
<pdfrwt beam="1">  1        1 0.50525223E-01 0.80171562E+03</pdfrwt>
<pdfrwt beam="2">  1       -2 0.32300526E+00 0.80171562E+03</pdfrwt>
<totfact> 0.16276705E+00</totfact>
</mgrwt>
</event>
<event>
12    3  0.2422421E-007  0.8052432E+03  0.7818608E-02  0.9552459E-01
         -2   -1    0    0    0  501 -0.00000000000E+00  0.00000000000E+00  0.38053437372E+03  0.38053437372E+03  0.00000000000E+00 0.  1.
          1   -1    0    0  501    0  0.00000000000E+00 -0.00000000000E+00 -0.17410349968E+04  0.17410349968E+04  0.00000000000E+00 0. -1.
        -24    2    1    2    0    0 -0.68306632011E+03  0.14936150259E+03 -0.52717309408E+03  0.87927929628E+03  0.79574830318E+02 0.  0.
    5000000    2    1    2    0    0  0.68306632011E+03 -0.14936150259E+03 -0.83332752895E+03  0.12422900742E+04  0.59996783397E+03 0.  0.
        -24    2    4    4    0    0  0.51354326106E+03 -0.35989402991E+03 -0.64778556359E+03  0.90508363721E+03  0.79371658629E+02 0.  0.
         24    2    4    4    0    0  0.16952305906E+03  0.21053252732E+03 -0.18554196536E+03  0.33720643699E+03  0.78869180457E+02 0.  0.
         11    1    3    3    0    0 -0.76588884040E+02  0.26006247866E+02 -0.93142198407E+02  0.12335984440E+03  0.00000000000E+00 0. -1.
        -12    1    3    3    0    0 -0.60647743607E+03  0.12335525473E+03 -0.43403089567E+03  0.75591945188E+03  0.00000000000E+00 0.  1.
         13    1    5    5    0    0  0.31902782678E+02 -0.83644980120E+01 -0.55984583969E+02  0.64977119140E+02  0.00000000000E+00 0. -1.
        -14    1    5    5    0    0  0.48164047838E+03 -0.35152953190E+03 -0.59180097963E+03  0.84010651807E+03  0.00000000000E+00 0.  1.
          4    1    6    6  502    0  0.14094806695E+03  0.11555184533E+03 -0.12494041390E+03  0.22097215563E+03  0.00000000000E+00 0. -1.
         -3    1    6    6    0  502  0.28574992108E+02  0.94980681987E+02 -0.60601551454E+02  0.11623428136E+03  0.00000000000E+00 0.  1.
<mgrwt>
<rscale>  0 0.80524321E+03</rscale>
<asrwt>0</asrwt>
<pdfrwt beam="1">  1        1 0.26785153E+00 0.80524321E+03</pdfrwt>
<pdfrwt beam="2">  1       -2 0.58543751E-01 0.80524321E+03</pdfrwt>
<totfact> 0.11007537E+01</totfact>
</mgrwt>
</event>
<event>
12    3  0.2422421E-007  0.9148959E+03  0.7818608E-02  0.9407150E-01
          1   -1    0    0  501    0  0.00000000000E+00  0.00000000000E+00  0.82985448703E+03  0.82985448703E+03  0.00000000000E+00 0. -1.
         -2   -1    0    0    0  501 -0.00000000000E+00 -0.00000000000E+00 -0.12089567958E+04  0.12089567958E+04  0.00000000000E+00 0.  1.
        -24    2    1    2    0    0 -0.45765873799E+03 -0.77448084484E+03 -0.33820745642E+02  0.90371433123E+03  0.79269478109E+02 0.  0.
    5000000    2    1    2    0    0  0.45765873799E+03  0.77448084484E+03 -0.34528156308E+03  0.11350969516E+04  0.59996135887E+03 0.  0.
        -24    2    4    4    0    0  0.39455222097E+03  0.55185930264E+03 -0.49854314155E+03  0.84597700115E+03  0.83136499272E+02 0.  0.
         24    2    4    4    0    0  0.63106517023E+02  0.22262154220E+03  0.15326157846E+03  0.28911995040E+03  0.80984262335E+02 0.  0.
         11    1    3    3    0    0 -0.19751385890E+03 -0.41112819570E+03 -0.10680721154E+02  0.45623699495E+03  0.00000000000E+00 0. -1.
        -12    1    3    3    0    0 -0.26014487909E+03 -0.36335264914E+03 -0.23140024488E+02  0.44747733628E+03  0.00000000000E+00 0.  1.
         13    1    5    5    0    0  0.51104828410E+02  0.12868539253E+03 -0.10015883833E+03  0.17089010104E+03  0.00000000000E+00 0. -1.
        -14    1    5    5    0    0  0.34344739256E+03  0.42317391011E+03 -0.39838430322E+03  0.67508690011E+03  0.00000000000E+00 0.  1.
          4    1    6    6  502    0 -0.70033152234E+01  0.11294881340E+03  0.88908318359E+02  0.14391375871E+03  0.00000000000E+00 0. -1.
         -3    1    6    6    0  502  0.70109832246E+02  0.10967272880E+03  0.64353260104E+02  0.14520619169E+03  0.00000000000E+00 0.  1.
<mgrwt>
<rscale>  0 0.91489591E+03</rscale>
<asrwt>0</asrwt>
<pdfrwt beam="1">  1        1 0.12766992E+00 0.91489591E+03</pdfrwt>
<pdfrwt beam="2">  1       -2 0.18599335E+00 0.91489591E+03</pdfrwt>
<totfact> 0.30290963E+00</totfact>
</mgrwt>
</event>
<event>
12    3  0.2422421E-007  0.5954138E+03  0.7818608E-02  0.9914967E-01
          1   -1    0    0  501    0  0.00000000000E+00  0.00000000000E+00  0.50874800034E+03  0.50874800034E+03  0.00000000000E+00 0. -1.
         -2   -1    0    0    0  501 -0.00000000000E+00 -0.00000000000E+00 -0.99067101273E+03  0.99067101273E+03  0.00000000000E+00 0.  1.
        -24    2    1    2    0    0  0.51366074888E+03  0.27193051845E+02 -0.48151275921E+03  0.70905810814E+03  0.79511234583E+02 0.  0.
    5000000    2    1    2    0    0 -0.51366074888E+03 -0.27193051845E+02 -0.41025318326E+00  0.79036090493E+03  0.60006946658E+03 0.  0.
        -24    2    4    4    0    0 -0.56244824800E+03  0.55758049303E+02  0.15690344365E+03  0.59067316431E+03  0.69419771485E+02 0.  0.
         24    2    4    4    0    0  0.48787499119E+02 -0.82951101148E+02 -0.15731369683E+03  0.19968774062E+03  0.76593010713E+02 0.  0.
         11    1    5    5    0    0 -0.38551673358E+03  0.31950774458E+02  0.74068232465E+02  0.39386559500E+03  0.00000000000E+00 0. -1.
        -12    1    5    5    0    0 -0.17693151441E+03  0.23807274845E+02  0.82835211183E+02  0.19680756931E+03  0.00000000000E+00 0.  1.
         13    1    3    3    0    0  0.20471800800E+03  0.21529932462E+02 -0.14251138673E+03  0.25036472623E+03  0.00000000000E+00 0. -1.
        -14    1    3    3    0    0  0.30894274087E+03  0.56631193826E+01 -0.33900137248E+03  0.45869338191E+03  0.00000000000E+00 0.  1.
          2    1    6    6  502    0 -0.14651684686E+01 -0.51108471630E+02 -0.11738987488E+03  0.12804142031E+03  0.00000000000E+00 0. -1.
         -1    1    6    6    0  502  0.50252667588E+02 -0.31842629518E+02 -0.39923821954E+02  0.71646320308E+02  0.00000000000E+00 0.  1.
<mgrwt>
<rscale>  0 0.59541377E+03</rscale>
<asrwt>0</asrwt>
<pdfrwt beam="1">  1        1 0.78268924E-01 0.59541377E+03</pdfrwt>
<pdfrwt beam="2">  1       -2 0.15241092E+00 0.59541377E+03</pdfrwt>
<totfact> 0.11281778E+01</totfact>
</mgrwt>
</event>
<event>
12    3  0.2422421E-007  0.8465591E+03  0.7818608E-02  0.9494967E-01
         -2   -1    0    0    0  501 -0.00000000000E+00  0.00000000000E+00  0.10485217202E+04  0.10485217202E+04  0.00000000000E+00 0.  1.
          1   -1    0    0  501    0  0.00000000000E+00 -0.00000000000E+00 -0.83559236695E+03  0.83559236695E+03  0.00000000000E+00 0. -1.
        -24    2    1    2    0    0 -0.74829113002E+03 -0.36916049017E+03  0.25198317777E+02  0.83940434600E+03  0.88009193197E+02 0.  0.
    5000000    2    1    2    0    0  0.74829113002E+03  0.36916049017E+03  0.18773103552E+03  0.10447097412E+04  0.59996368131E+03 0.  0.
        -24    2    4    4    0    0  0.26285717350E+03  0.53517969714E+02  0.33980173665E+03  0.44068388955E+03  0.82334704332E+02 0.  0.
         24    2    4    4    0    0  0.48543395653E+03  0.31564252045E+03 -0.15207070113E+03  0.60402585166E+03  0.80283276337E+02 0.  0.
         11    1    5    5    0    0  0.93970023832E+02  0.57664972497E+02  0.15612486146E+03  0.19112976429E+03  0.00000000000E+00 0. -1.
        -12    1    5    5    0    0  0.16888714967E+03 -0.41470027833E+01  0.18367687519E+03  0.24955412526E+03  0.00000000000E+00 0.  1.
         13    1    3    3    0    0 -0.61385245795E+03 -0.29274362502E+03  0.53546094317E+02  0.68218828364E+03  0.00000000000E+00 0. -1.
        -14    1    3    3    0    0 -0.13443867208E+03 -0.76416865149E+02 -0.28347776540E+02  0.15721606236E+03  0.00000000000E+00 0.  1.
          2    1    6    6  502    0  0.40856121437E+03  0.27175396761E+03 -0.15749217664E+03  0.51534092648E+03  0.00000000000E+00 0. -1.
         -1    1    6    6    0  502  0.76872742152E+02  0.43888552840E+02  0.54214755102E+01  0.88684925174E+02  0.00000000000E+00 0.  1.
<mgrwt>
<rscale>  0 0.84655908E+03</rscale>
<asrwt>0</asrwt>
<pdfrwt beam="1">  1        1 0.12855267E+00 0.84655908E+03</pdfrwt>
<pdfrwt beam="2">  1       -2 0.16131103E+00 0.84655908E+03</pdfrwt>
<totfact> 0.45019386E+00</totfact>
</mgrwt>
</event>
<event>
12    3  0.2422421E-007  0.8801952E+03  0.7818608E-02  0.9450683E-01
          1   -1    0    0  501    0  0.00000000000E+00  0.00000000000E+00  0.10930299273E+04  0.10930299273E+04  0.00000000000E+00 0. -1.
         -2   -1    0    0    0  501 -0.00000000000E+00 -0.00000000000E+00 -0.75996207234E+03  0.75996207234E+03  0.00000000000E+00 0.  1.
        -24    2    1    2    0    0  0.69290745493E+03 -0.39593404392E+03  0.15371019945E+02  0.80534264538E+03  0.10703270526E+03 0.  0.
    5000000    2    1    2    0    0 -0.69290745493E+03  0.39593404392E+03  0.31769683501E+03  0.10476493543E+04  0.59979445001E+03 0.  0.
        -24    2    4    4    0    0 -0.20201078283E+03 -0.13177454239E+03  0.40701862850E+00  0.25594497283E+03  0.85643312946E+02 0.  0.
         24    2    4    4    0    0 -0.49089667209E+03  0.52770858631E+03  0.31728981638E+03  0.79170438142E+03  0.81652343759E+02 0.  0.
         11    1    5    5    0    0 -0.10088762998E+03 -0.72865785793E+02 -0.42184735008E+02  0.13140505504E+03  0.00000000000E+00 0. -1.
        -12    1    5    5    0    0 -0.10112315286E+03 -0.58908756597E+02  0.42591753636E+02  0.12453991780E+03  0.00000000000E+00 0.  1.
         13    1    3    3    0    0  0.49015943784E+03 -0.27322985592E+03  0.59385031112E+02  0.56430258779E+03  0.00000000000E+00 0. -1.
        -14    1    3    3    0    0  0.20274801709E+03 -0.12270418800E+03 -0.44014011167E+02  0.24104005760E+03  0.00000000000E+00 0.  1.
          2    1    6    6  502    0 -0.85398337557E+02  0.94852691593E+02  0.23380019465E+02  0.12975567221E+03  0.00000000000E+00 0. -1.
         -1    1    6    6    0  502 -0.40549833454E+03  0.43285589472E+03  0.29390979692E+03  0.66194870921E+03  0.00000000000E+00 0.  1.
<mgrwt>
<rscale>  0 0.88019516E+03</rscale>
<asrwt>0</asrwt>
<pdfrwt beam="1">  1        1 0.16815845E+00 0.88019516E+03</pdfrwt>
<pdfrwt beam="2">  1       -2 0.11691724E+00 0.88019516E+03</pdfrwt>
<totfact> 0.64357547E+00</totfact>
</mgrwt>
</event>
<event>
12    3  0.2422421E-007  0.1290522E+04  0.7818608E-02  0.9037115E-01
         -2   -1    0    0    0  501 -0.00000000000E+00  0.00000000000E+00  0.93169604593E+03  0.93169604593E+03  0.00000000000E+00 0.  1.
          1   -1    0    0  501    0  0.00000000000E+00 -0.00000000000E+00 -0.20103109905E+04  0.20103109905E+04  0.00000000000E+00 0. -1.
        -24    2    1    2    0    0  0.77762999256E+03 -0.95733737870E+03 -0.96057990080E+03  0.15653589314E+04  0.80197108225E+02 0.  0.
    5000000    2    1    2    0    0 -0.77762999256E+03  0.95733737870E+03 -0.11803504380E+03  0.13766481051E+04  0.60002039275E+03 0.  0.
        -24    2    4    4    0    0 -0.33916364199E+03  0.80513326409E+03  0.43720292996E+02  0.87874532065E+03  0.83727686869E+02 0.  0.
         24    2    4    4    0    0 -0.43846635056E+03  0.15220411462E+03 -0.16175533679E+03  0.49790278445E+03  0.79520819300E+02 0.  0.
         11    1    3    3    0    0  0.45834414922E+03 -0.62271126401E+03 -0.58558915703E+03  0.96992955326E+03  0.00000000000E+00 0. -1.
        -12    1    3    3    0    0  0.31928584334E+03 -0.33462611469E+03 -0.37499074378E+03  0.59542937811E+03  0.00000000000E+00 0.  1.
         11    1    5    5    0    0 -0.26256992188E+03  0.69514211266E+03  0.48181455437E+02  0.74463882071E+03  0.00000000000E+00 0. -1.
        -12    1    5    5    0    0 -0.76593720118E+02  0.10999115143E+03 -0.44611624410E+01  0.13410649994E+03  0.00000000000E+00 0.  1.
          4    1    6    6  502    0 -0.19965251489E+03  0.36948863151E+02 -0.96564691251E+02  0.22483568397E+03  0.00000000000E+00 0. -1.
         -3    1    6    6    0  502 -0.23881383567E+03  0.11525525147E+03 -0.65190645541E+02  0.27306710048E+03  0.00000000000E+00 0.  1.
<mgrwt>
<rscale>  0 0.12905221E+04</rscale>
<asrwt>0</asrwt>
<pdfrwt beam="1">  1        1 0.30927861E+00 0.12905221E+04</pdfrwt>
<pdfrwt beam="2">  1       -2 0.14333785E+00 0.12905221E+04</pdfrwt>
<totfact> 0.84098519E-01</totfact>
</mgrwt>
</event>
<event>
12    3  0.2422421E-007  0.9568959E+03  0.7818608E-02  0.9357126E-01
          3   -1    0    0  501    0  0.00000000000E+00  0.00000000000E+00  0.24623330725E+04  0.24623330725E+04  0.00000000000E+00 0. -1.
         -4   -1    0    0    0  501 -0.00000000000E+00 -0.00000000000E+00 -0.57821266714E+03  0.57821266714E+03  0.00000000000E+00 0.  1.
        -24    2    1    2    0    0  0.81290504099E+03 -0.29827397448E+03 -0.14058795996E+02  0.86964006130E+03  0.79336101167E+02 0.  0.
    5000000    2    1    2    0    0 -0.81290504099E+03  0.29827397448E+03  0.18981792014E+04  0.21709056784E+04  0.59997101119E+03 0.  0.
        -24    2    4    4    0    0 -0.65321142008E+03 -0.51917709307E+02  0.11910366648E+04  0.13617372251E+04  0.79870680517E+02 0.  0.
         24    2    4    4    0    0 -0.15969362091E+03  0.35019168379E+03  0.70714253661E+03  0.80916845323E+03  0.81035490189E+02 0.  0.
         11    1    3    3    0    0  0.39873226121E+03 -0.11096798333E+03 -0.28374143244E+02  0.41485708559E+03  0.00000000000E+00 0. -1.
        -12    1    3    3    0    0  0.41417277978E+03 -0.18730599115E+03  0.14315347248E+02  0.45478297571E+03  0.00000000000E+00 0.  1.
         13    1    5    5    0    0 -0.18200098666E+03 -0.46784741498E+02  0.37353471494E+03  0.41814035257E+03  0.00000000000E+00 0. -1.
        -14    1    5    5    0    0 -0.47121043342E+03 -0.51329678094E+01  0.81750194983E+03  0.94359687255E+03  0.00000000000E+00 0.  1.
          4    1    6    6  502    0 -0.51701708501E+02  0.80391278043E+02  0.24803092198E+03  0.26581038825E+03  0.00000000000E+00 0. -1.
         -3    1    6    6    0  502 -0.10799191241E+03  0.26980040574E+03  0.45911161463E+03  0.54335806498E+03  0.00000000000E+00 0.  1.
<mgrwt>
<rscale>  0 0.95689586E+03</rscale>
<asrwt>0</asrwt>
<pdfrwt beam="1">  1        3 0.37882046E+00 0.95689586E+03</pdfrwt>
<pdfrwt beam="2">  1       -4 0.88955797E-01 0.95689586E+03</pdfrwt>
<totfact> 0.35472781E-02</totfact>
</mgrwt>
</event>
<event>
12    3  0.2422421E-007  0.1257098E+04  0.7818608E-02  0.9064296E-01
          1   -1    0    0  501    0  0.00000000000E+00  0.00000000000E+00  0.11549705985E+04  0.11549705985E+04  0.00000000000E+00 0. -1.
         -2   -1    0    0    0  501 -0.00000000000E+00 -0.00000000000E+00 -0.18739229560E+04  0.18739229560E+04  0.00000000000E+00 0.  1.
        -24    2    1    2    0    0  0.11297287856E+04  0.37134353732E+03  0.43282604107E+03  0.12679963220E+04  0.79329308705E+02 0.  0.
    5000000    2    1    2    0    0 -0.11297287856E+04 -0.37134353732E+03 -0.11517783985E+04  0.17608972325E+04  0.59998536017E+03 0.  0.
        -24    2    4    4    0    0 -0.44589557784E+03  0.13824940473E+03 -0.36603384560E+03  0.59856380562E+03  0.79762704469E+02 0.  0.
         24    2    4    4    0    0 -0.68383320772E+03 -0.50959294205E+03 -0.78574455293E+03  0.11623334269E+04  0.79446020576E+02 0.  0.
         13    1    3    3    0    0  0.87818751326E+03  0.27891187182E+03  0.36870498666E+03  0.99244572037E+03  0.00000000000E+00 0. -1.
        -14    1    3    3    0    0  0.25154127230E+03  0.92431665494E+02  0.64121054406E+02  0.27555060166E+03  0.00000000000E+00 0.  1.
         13    1    5    5    0    0 -0.44058683150E+03  0.12783241024E+03 -0.36600671362E+03  0.58687204364E+03  0.00000000000E+00 0. -1.
        -14    1    5    5    0    0 -0.53087463468E+01  0.10416994493E+02 -0.27131985810E-01  0.11691761980E+02  0.00000000000E+00 0.  1.
          2    1    6    6  502    0 -0.15754176650E+03 -0.91409420660E+02 -0.20258833888E+03  0.27242820234E+03  0.00000000000E+00 0. -1.
         -1    1    6    6    0  502 -0.52629144122E+03 -0.41818352139E+03 -0.58315621404E+03  0.88990522453E+03  0.00000000000E+00 0.  1.
<mgrwt>
<rscale>  0 0.12570977E+04</rscale>
<asrwt>0</asrwt>
<pdfrwt beam="1">  1        1 0.17768779E+00 0.12570977E+04</pdfrwt>
<pdfrwt beam="2">  1       -2 0.28829584E+00 0.12570977E+04</pdfrwt>
<totfact> 0.36843707E-01</totfact>
</mgrwt>
</event>
<event>
12    3  0.2422421E-007  0.3829136E+03  0.7818608E-02  0.1049862E+00
          1   -1    0    0  501    0  0.00000000000E+00  0.00000000000E+00  0.12642471691E+04  0.12642471691E+04  0.00000000000E+00 0. -1.
         -2   -1    0    0    0  501 -0.00000000000E+00 -0.00000000000E+00 -0.12677038983E+03  0.12677038983E+03  0.00000000000E+00 0.  1.
        -24    2    1    2    0    0  0.14659851118E+03 -0.47053194191E+02  0.17414369148E+03  0.24562646518E+03  0.79380152130E+02 0.  0.
    5000000    2    1    2    0    0 -0.14659851118E+03  0.47053194191E+02  0.96333308776E+03  0.11453910937E+04  0.60017080323E+03 0.  0.
        -24    2    4    4    0    0  0.21460389555E+03 -0.49662457645E+02  0.29761426647E+03  0.37890352061E+03  0.80451442717E+02 0.  0.
         24    2    4    4    0    0 -0.36120240674E+03  0.96715651836E+02  0.66571882129E+03  0.76648757312E+03  0.67086174318E+02 0.  0.
         11    1    3    3    0    0  0.14677653164E+03 -0.50734919087E+02  0.18060219976E+03  0.23819012745E+03  0.00000000000E+00 0. -1.
        -12    1    3    3    0    0 -0.17802046351E+00  0.36817248963E+01 -0.64585082880E+01  0.74363377279E+01  0.00000000000E+00 0.  1.
         13    1    5    5    0    0  0.17763542008E+03 -0.61991012878E+02  0.27690128182E+03  0.33477088885E+03  0.00000000000E+00 0. -1.
        -14    1    5    5    0    0  0.36968475471E+02  0.12328555233E+02  0.20712984644E+02  0.44132631755E+02  0.00000000000E+00 0.  1.
          2    1    6    6  502    0 -0.18975182839E+03  0.16570533819E+02  0.32262901824E+03  0.37465960868E+03  0.00000000000E+00 0. -1.
         -1    1    6    6    0  502 -0.17145057835E+03  0.80145118017E+02  0.34308980306E+03  0.39182796444E+03  0.00000000000E+00 0.  1.
<mgrwt>
<rscale>  0 0.38291356E+03</rscale>
<asrwt>0</asrwt>
<pdfrwt beam="1">  1        1 0.19449956E+00 0.38291356E+03</pdfrwt>
<pdfrwt beam="2">  1       -2 0.19503138E-01 0.38291356E+03</pdfrwt>
<totfact> 0.19740326E+02</totfact>
</mgrwt>
</event>
<event>
12    3  0.2422421E-007  0.3883555E+03  0.7818608E-02  0.1047888E+00
         -2   -1    0    0    0  501 -0.00000000000E+00  0.00000000000E+00  0.36522558212E+03  0.36522558212E+03  0.00000000000E+00 0.  1.
          1   -1    0    0  501    0  0.00000000000E+00 -0.00000000000E+00 -0.47353044043E+03  0.47353044043E+03  0.00000000000E+00 0. -1.
        -24    2    1    2    0    0  0.41970345133E+02 -0.16088766192E+03 -0.11167786178E+03  0.21604795743E+03  0.80984106288E+02 0.  0.
    5000000    2    1    2    0    0 -0.41970345133E+02  0.16088766192E+03  0.33730034659E+01  0.62270806512E+03  0.60008966629E+03 0.  0.
        -24    2    4    4    0    0 -0.13134094227E+03  0.34861329937E+03  0.77166082635E+02  0.38858552200E+03  0.79135503940E+02 0.  0.
         24    2    4    4    0    0  0.89370597134E+02 -0.18772563746E+03 -0.73793079169E+02  0.23412254312E+03  0.78357693147E+02 0.  0.
         13    1    3    3    0    0 -0.22747731210E+02 -0.23806779222E+02 -0.25725901995E+02  0.41785691876E+02  0.00000000000E+00 0. -1.
        -14    1    3    3    0    0  0.64718076343E+02 -0.13708088269E+03 -0.85951959783E+02  0.17426226555E+03  0.00000000000E+00 0.  1.
         13    1    5    5    0    0 -0.12296482623E+02  0.75774205340E+02 -0.12318533641E+02  0.77747539838E+02  0.00000000000E+00 0. -1.
        -14    1    5    5    0    0 -0.11904445964E+03  0.27283909403E+03  0.89484616276E+02  0.31083798216E+03  0.00000000000E+00 0.  1.
          4    1    6    6  502    0  0.29559190698E+02 -0.13441696751E+03 -0.68747748137E+02  0.15384381620E+03  0.00000000000E+00 0. -1.
         -3    1    6    6    0  502  0.59811406435E+02 -0.53308669945E+02 -0.50453310325E+01  0.80278726922E+02  0.00000000000E+00 0.  1.
<mgrwt>
<rscale>  0 0.38835545E+03</rscale>
<asrwt>0</asrwt>
<pdfrwt beam="1">  1        1 0.72850837E-01 0.38835545E+03</pdfrwt>
<pdfrwt beam="2">  1       -2 0.56188551E-01 0.38835545E+03</pdfrwt>
<totfact> 0.12909197E+02</totfact>
</mgrwt>
</event>
<event>
12    3  0.2530612E-007  0.9618920E+03  0.7818608E-02  0.9351358E-01
          1   -1    0    0  501    0  0.00000000000E+00  0.00000000000E+00  0.21437707202E+04  0.21437707202E+04  0.00000000000E+00 0. -1.
         -2   -1    0    0    0  501 -0.00000000000E+00 -0.00000000000E+00 -0.61854039622E+03  0.61854039622E+03  0.00000000000E+00 0.  1.
        -24    2    1    2    0    0 -0.86860102178E+03  0.36867369437E+03  0.10197927224E+03  0.95231285002E+03  0.78179053388E+02 0.  0.
    5000000    2    1    2    0    0  0.86860102178E+03 -0.36867369437E+03  0.14232510517E+04  0.18099982664E+04  0.60005178117E+03 0.  0.
        -24    2    4    4    0    0  0.43427834327E+03 -0.29964806472E+03  0.32668686001E+03  0.62577442532E+03  0.80515121325E+02 0.  0.
         24    2    4    4    0    0  0.43432267851E+03 -0.69025629652E+02  0.10965641917E+04  0.11842238410E+04  0.80822970444E+02 0.  0.
         13    1    5    5    0    0  0.16897650801E+03 -0.86257434184E+02  0.82996393163E+02  0.20707922757E+03  0.00000000000E+00 0. -1.
        -14    1    5    5    0    0  0.26530183526E+03 -0.21339063054E+03  0.24369046684E+03  0.41869519775E+03  0.00000000000E+00 0.  1.
         13    1    3    3    0    0 -0.41265943596E+03  0.13352761032E+03  0.53771415349E+02  0.43704553300E+03  0.00000000000E+00 0. -1.
        -14    1    3    3    0    0 -0.45594158581E+03  0.23514608406E+03  0.48207856891E+02  0.51526731702E+03  0.00000000000E+00 0.  1.
          4    1    6    6  502    0  0.12474225858E+03  0.16134540164E+02  0.32771863091E+03  0.35102771331E+03  0.00000000000E+00 0. -1.
         -3    1    6    6    0  502  0.30958041993E+03 -0.85160169816E+02  0.76884556078E+03  0.83319612773E+03  0.00000000000E+00 0.  1.
<mgrwt>
<rscale>  0 0.96189200E+03</rscale>
<asrwt>0</asrwt>
<pdfrwt beam="1">  1        1 0.32981088E+00 0.96189200E+03</pdfrwt>
<pdfrwt beam="2">  1       -2 0.95160062E-01 0.96189200E+03</pdfrwt>
<totfact> 0.19652072E+00</totfact>
</mgrwt>
</event>
<event>
12    3  0.2422421E-007  0.1614511E+04  0.7818608E-02  0.8811683E-01
          1   -1    0    0  501    0  0.00000000000E+00  0.00000000000E+00  0.16076423564E+04  0.16076423564E+04  0.00000000000E+00 0. -1.
         -2   -1    0    0    0  501 -0.00000000000E+00 -0.00000000000E+00 -0.16592240739E+04  0.16592240739E+04  0.00000000000E+00 0.  1.
        -24    2    1    2    0    0 -0.39626243674E+03  0.15091854198E+04  0.20474951126E+03  0.15756156678E+04  0.77316364924E+02 0.  0.
    5000000    2    1    2    0    0  0.39626243674E+03 -0.15091854198E+04 -0.25633122874E+03  0.16912507625E+04  0.59996574306E+03 0.  0.
        -24    2    4    4    0    0  0.28993597391E+03 -0.21545972301E+03 -0.90964178140E+02  0.38019936462E+03  0.76100682925E+02 0.  0.
         24    2    4    4    0    0  0.10632646283E+03 -0.12937256967E+04 -0.16536705060E+03  0.13110513979E+04  0.80486094128E+02 0.  0.
         11    1    5    5    0    0  0.17846590011E+02  0.21730513253E+01  0.52672140484E+01  0.18734099149E+02  0.00000000000E+00 0. -1.
        -12    1    5    5    0    0  0.27208938390E+03 -0.21763277434E+03 -0.96231392188E+02  0.36146526547E+03  0.00000000000E+00 0.  1.
         11    1    3    3    0    0 -0.13646201290E+03  0.66281329357E+03  0.10094129718E+03  0.68420208168E+03  0.00000000000E+00 0. -1.
        -12    1    3    3    0    0 -0.25980042384E+03  0.84637212618E+03  0.10380821408E+03  0.89141358612E+03  0.00000000000E+00 0.  1.
          2    1    6    6  502    0  0.60037671716E+02 -0.10895346684E+04 -0.14147464615E+03  0.11003205857E+04  0.00000000000E+00 0. -1.
         -3    1    6    6    0  502  0.46288791111E+02 -0.20419102830E+03 -0.23892404457E+02  0.21073081220E+03  0.00000000000E+00 0.  1.
<mgrwt>
<rscale>  0 0.16145109E+04</rscale>
<asrwt>0</asrwt>
<pdfrwt beam="1">  1        1 0.24732959E+00 0.16145109E+04</pdfrwt>
<pdfrwt beam="2">  1       -2 0.25526524E+00 0.16145109E+04</pdfrwt>
<totfact> 0.26833118E-01</totfact>
</mgrwt>
</event>
<event>
12    3  0.2422421E-007  0.1336284E+04  0.7818608E-02  0.9001277E-01
         -2   -1    0    0    0  501 -0.00000000000E+00  0.00000000000E+00  0.16905230498E+04  0.16905230498E+04  0.00000000000E+00 0.  1.
          1   -1    0    0  501    0  0.00000000000E+00 -0.00000000000E+00 -0.15403697683E+04  0.15403697683E+04  0.00000000000E+00 0. -1.
        -24    2    1    2    0    0  0.12881037884E+04 -0.30647238169E+02 -0.80227828273E+03  0.15200263149E+04  0.81724733099E+02 0.  0.
    5000000    2    1    2    0    0 -0.12881037884E+04  0.30647238169E+02  0.95243156421E+03  0.17108665033E+04  0.59982304429E+03 0.  0.
        -24    2    4    4    0    0 -0.99931942238E+03 -0.18666216805E+03  0.84736612978E+03  0.13258249682E+04  0.79375156524E+02 0.  0.
         24    2    4    4    0    0 -0.28878436606E+03  0.21730940622E+03  0.10506543443E+03  0.38504153506E+03  0.81230844480E+02 0.  0.
         11    1    3    3    0    0  0.55618182539E+03 -0.53734419189E+02 -0.34709553436E+03  0.65780006132E+03  0.00000000000E+00 0. -1.
        -12    1    3    3    0    0  0.73192196305E+03  0.23087181020E+02 -0.45518274837E+03  0.86222625356E+03  0.00000000000E+00 0.  1.
         11    1    5    5    0    0 -0.14613847069E+03 -0.56166449684E+02  0.12622628416E+03  0.20110742776E+03  0.00000000000E+00 0. -1.
        -12    1    5    5    0    0 -0.85318095169E+03 -0.13049571837E+03  0.72113984561E+03  0.11247175404E+04  0.00000000000E+00 0.  1.
          2    1    6    6  502    0 -0.19097157207E+03  0.13309703704E+03  0.27343465467E+02  0.23437710578E+03  0.00000000000E+00 0. -1.
         -1    1    6    6    0  502 -0.97812793986E+02  0.84212369177E+02  0.77721968967E+02  0.15066442928E+03  0.00000000000E+00 0.  1.
<mgrwt>
<rscale>  0 0.13362837E+04</rscale>
<asrwt>0</asrwt>
<pdfrwt beam="1">  1        1 0.23697996E+00 0.13362837E+04</pdfrwt>
<pdfrwt beam="2">  1       -2 0.26008047E+00 0.13362837E+04</pdfrwt>
<totfact> 0.28765039E-01</totfact>
</mgrwt>
</event>
<event>
12    3  0.2422421E-007  0.7716338E+03  0.7818608E-02  0.9602009E-01
          1   -1    0    0  501    0  0.00000000000E+00  0.00000000000E+00  0.11678662235E+04  0.11678662235E+04  0.00000000000E+00 0. -1.
         -2   -1    0    0    0  501 -0.00000000000E+00 -0.00000000000E+00 -0.58707256477E+03  0.58707256477E+03  0.00000000000E+00 0.  1.
        -24    2    1    2    0    0 -0.55772677940E+03 -0.41214186313E+03  0.59034601009E+02  0.69987525917E+03  0.73622133084E+02 0.  0.
    5000000    2    1    2    0    0  0.55772677940E+03  0.41214186313E+03  0.52175905774E+03  0.10550635291E+04  0.60000538359E+03 0.  0.
        -24    2    4    4    0    0 -0.45976352228E+02 -0.60832089696E+02 -0.17738551116E+02  0.11319596520E+03  0.81757582159E+02 0.  0.
         24    2    4    4    0    0  0.60370313163E+03  0.47297395283E+03  0.53949760886E+03  0.94186756392E+03  0.88853850826E+02 0.  0.
         13    1    3    3    0    0 -0.39730492170E+03 -0.31087019461E+03  0.12915919827E+02  0.50463679978E+03  0.00000000000E+00 0. -1.
        -14    1    3    3    0    0 -0.16042185770E+03 -0.10127166852E+03  0.46118681182E+02  0.19523845939E+03  0.00000000000E+00 0.  1.
         13    1    5    5    0    0 -0.28780304492E+02 -0.52359001630E+02  0.26213568921E+02  0.65245093102E+02  0.00000000000E+00 0. -1.
        -14    1    5    5    0    0 -0.17196047737E+02 -0.84730880664E+01 -0.43952120036E+02  0.47950872097E+02  0.00000000000E+00 0.  1.
          2    1    6    6  502    0  0.36592853859E+03  0.32976791581E+03  0.37625752222E+03  0.61985506103E+03  0.00000000000E+00 0. -1.
         -1    1    6    6    0  502  0.23777459304E+03  0.14320603701E+03  0.16324008663E+03  0.32201250289E+03  0.00000000000E+00 0.  1.
<mgrwt>
<rscale>  0 0.77163380E+03</rscale>
<asrwt>0</asrwt>
<pdfrwt beam="1">  1        1 0.17967173E+00 0.77163380E+03</pdfrwt>
<pdfrwt beam="2">  1       -2 0.90318856E-01 0.77163380E+03</pdfrwt>
<totfact> 0.10620151E+01</totfact>
</mgrwt>
</event>
<event>
12    3  0.2422421E-007  0.4522313E+03  0.7818608E-02  0.1027059E+00
          1   -1    0    0  501    0  0.00000000000E+00  0.00000000000E+00  0.14838535898E+04  0.14838535898E+04  0.00000000000E+00 0. -1.
         -2   -1    0    0    0  501 -0.00000000000E+00 -0.00000000000E+00 -0.20730532783E+03  0.20730532783E+03  0.00000000000E+00 0.  1.
        -24    2    1    2    0    0  0.17013952611E+03  0.34161345513E+03  0.54385354724E+03  0.67017602346E+03  0.87818053413E+02 0.  0.
    5000000    2    1    2    0    0 -0.17013952611E+03 -0.34161345513E+03  0.73269471478E+03  0.10209828942E+04  0.59993109118E+03 0.  0.
        -24    2    4    4    0    0  0.85610460713E+02 -0.17492639260E+03 -0.13284935514E+02  0.21097267437E+03  0.80028657419E+02 0.  0.
         24    2    4    4    0    0 -0.25574998682E+03 -0.16668706253E+03  0.74597965029E+03  0.81001021985E+03  0.80238924720E+02 0.  0.
         11    1    3    3    0    0  0.13957722511E+03  0.19613300050E+03  0.30081076344E+03  0.38527531851E+03  0.00000000000E+00 0. -1.
        -12    1    3    3    0    0  0.30562300999E+02  0.14548045463E+03  0.24304278380E+03  0.28490070495E+03  0.00000000000E+00 0.  1.
         13    1    5    5    0    0  0.90047346569E+02 -0.10834480035E+03  0.75056134302E+01  0.14107960384E+03  0.00000000000E+00 0. -1.
        -14    1    5    5    0    0 -0.44368858564E+01 -0.66581592253E+02 -0.20790548944E+02  0.69893070533E+02  0.00000000000E+00 0.  1.
          4    1    6    6  502    0 -0.15002744684E+03 -0.75992471660E+02  0.31504663720E+03  0.35712389190E+03  0.00000000000E+00 0. -1.
         -3    1    6    6    0  502 -0.10572253998E+03 -0.90694590867E+02  0.43093301309E+03  0.45288632795E+03  0.00000000000E+00 0.  1.
<mgrwt>
<rscale>  0 0.45223133E+03</rscale>
<asrwt>0</asrwt>
<pdfrwt beam="1">  1        1 0.22828516E+00 0.45223133E+03</pdfrwt>
<pdfrwt beam="2">  1       -2 0.31893128E-01 0.45223133E+03</pdfrwt>
<totfact> 0.57341457E+01</totfact>
</mgrwt>
</event>
<event>
12    3  0.2422421E-007  0.4859352E+03  0.7818608E-02  0.1017517E+00
         -2   -1    0    0    0  501 -0.00000000000E+00  0.00000000000E+00  0.20833436842E+03  0.20833436842E+03  0.00000000000E+00 0.  1.
          1   -1    0    0  501    0  0.00000000000E+00 -0.00000000000E+00 -0.14812718067E+04  0.14812718067E+04  0.00000000000E+00 0. -1.
        -24    2    1    2    0    0  0.30472913557E+03 -0.58943538506E+02 -0.80998098420E+03  0.87068284321E+03  0.75400476758E+02 0.  0.
    5000000    2    1    2    0    0 -0.30472913557E+03  0.58943538506E+02 -0.46295645410E+03  0.81892333193E+03  0.59997713156E+03 0.  0.
        -24    2    4    4    0    0 -0.33391801084E+03  0.27566338766E+03 -0.33062455466E+03  0.55200195104E+03  0.88893287414E+02 0.  0.
         24    2    4    4    0    0  0.29188875269E+02 -0.21671984916E+03 -0.13233189944E+03  0.26692138089E+03  0.76914293269E+02 0.  0.
         11    1    3    3    0    0  0.15476564293E+03 -0.19236334773E+02 -0.50470801776E+03  0.52825431754E+03  0.00000000000E+00 0. -1.
        -12    1    3    3    0    0  0.14996349264E+03 -0.39707203734E+02 -0.30527296644E+03  0.34242852567E+03  0.00000000000E+00 0.  1.
         13    1    5    5    0    0 -0.28973684096E+03  0.19488878170E+03 -0.24795003542E+03  0.42826194590E+03  0.00000000000E+00 0. -1.
        -14    1    5    5    0    0 -0.44181169882E+02  0.80774605969E+02 -0.82674519232E+02  0.12374000514E+03  0.00000000000E+00 0.  1.
          2    1    6    6  502    0  0.10561337008E+02 -0.28537582921E+02  0.79698710928E+01  0.31455592883E+02  0.00000000000E+00 0. -1.
         -1    1    6    6    0  502  0.18627538260E+02 -0.18818226624E+03 -0.14030177054E+03  0.23546578801E+03  0.00000000000E+00 0.  1.
<mgrwt>
<rscale>  0 0.48593518E+03</rscale>
<asrwt>0</asrwt>
<pdfrwt beam="1">  1        1 0.22788798E+00 0.48593518E+03</pdfrwt>
<pdfrwt beam="2">  1       -2 0.32051441E-01 0.48593518E+03</pdfrwt>
<totfact> 0.56735456E+01</totfact>
</mgrwt>
</event>
<event>
12    3  0.2422421E-007  0.1248091E+04  0.7818608E-02  0.9071774E-01
          1   -1    0    0  501    0  0.00000000000E+00  0.00000000000E+00  0.10206622730E+04  0.10206622730E+04  0.00000000000E+00 0. -1.
         -2   -1    0    0    0  501 -0.00000000000E+00 -0.00000000000E+00 -0.19724529999E+04  0.19724529999E+04  0.00000000000E+00 0.  1.
        -24    2    1    2    0    0 -0.49950699576E+02 -0.12364565196E+04 -0.10348541486E+04  0.16151239840E+04  0.79891036641E+02 0.  0.
    5000000    2    1    2    0    0  0.49950699576E+02  0.12364565196E+04  0.83063421687E+02  0.13779912888E+04  0.60053364846E+03 0.  0.
        -24    2    4    4    0    0 -0.62643643126E+02  0.53675978201E+03  0.31164405321E+03  0.62911806585E+03  0.81438536792E+02 0.  0.
         24    2    4    4    0    0  0.11259434270E+03  0.69969673755E+03 -0.22858063152E+03  0.74887322298E+03  0.79429141017E+02 0.  0.
         11    1    3    3    0    0 -0.61207755792E+02 -0.10532112544E+04 -0.90849708118E+03  0.13922525928E+04  0.00000000000E+00 0. -1.
        -12    1    3    3    0    0  0.11257056216E+02 -0.18324526520E+03 -0.12635706743E+03  0.22287139121E+03  0.00000000000E+00 0.  1.
         11    1    5    5    0    0 -0.69392834901E+02  0.31161622200E+03  0.20908464748E+03  0.38162340751E+03  0.00000000000E+00 0. -1.
        -12    1    5    5    0    0  0.67491917748E+01  0.22514356001E+03  0.10255940573E+03  0.24749465834E+03  0.00000000000E+00 0.  1.
          2    1    6    6  502    0  0.70983637497E+02  0.21050441331E+03 -0.68242724113E+02  0.23239589973E+03  0.00000000000E+00 0. -1.
         -1    1    6    6    0  502  0.41610705206E+02  0.48919232424E+03 -0.16033790741E+03  0.51647732325E+03  0.00000000000E+00 0.  1.
<mgrwt>
<rscale>  0 0.12480910E+04</rscale>
<asrwt>0</asrwt>
<pdfrwt beam="1">  1        1 0.15702497E+00 0.12480910E+04</pdfrwt>
<pdfrwt beam="2">  1       -2 0.30345431E+00 0.12480910E+04</pdfrwt>
<totfact> 0.37741133E-01</totfact>
</mgrwt>
</event>
<event>
12    3  0.2422421E-007  0.1187083E+04  0.7818608E-02  0.9124238E-01
         -2   -1    0    0    0  501 -0.00000000000E+00  0.00000000000E+00  0.93652747646E+03  0.93652747646E+03  0.00000000000E+00 0.  1.
          1   -1    0    0  501    0  0.00000000000E+00 -0.00000000000E+00 -0.22093139797E+04  0.22093139797E+04  0.00000000000E+00 0. -1.
        -24    2    1    2    0    0 -0.10849156177E+04 -0.31693249214E+03  0.24670941049E+03  0.11593014108E+04  0.75007505305E+02 0.  0.
    5000000    2    1    2    0    0  0.10849156177E+04  0.31693249214E+03 -0.15194959138E+04  0.19865400454E+04  0.59998784803E+03 0.  0.
        -24    2    4    4    0    0  0.17211465795E+03  0.27906416188E+03 -0.59613500806E+03  0.68503014153E+03  0.79931752377E+02 0.  0.
         24    2    4    4    0    0  0.91280095974E+03  0.37868330263E+02 -0.92336090569E+03  0.13015099038E+04  0.81811154823E+02 0.  0.
         11    1    5    5    0    0  0.11860588670E+03  0.16138917601E+03 -0.43144001308E+03  0.47566196756E+03  0.00000000000E+00 0. -1.
        -12    1    5    5    0    0  0.53508771258E+02  0.11767498587E+03 -0.16469499498E+03  0.20936817397E+03  0.00000000000E+00 0.  1.
         11    1    3    3    0    0 -0.14555193701E+03 -0.45316479328E+02  0.75223168255E+01  0.15262874866E+03  0.00000000000E+00 0. -1.
        -12    1    3    3    0    0 -0.93936368068E+03 -0.27161601281E+03  0.23918709366E+03  0.10066726622E+04  0.00000000000E+00 0.  1.
          4    1    6    6  502    0  0.25235357504E+03 -0.59740449427E+01 -0.30263211507E+03  0.39408655536E+03  0.00000000000E+00 0. -1.
         -1    1    6    6    0  502  0.66044738470E+03  0.43842375205E+02 -0.62072879063E+03  0.90742334846E+03  0.00000000000E+00 0.  1.
<mgrwt>
<rscale>  0 0.11870833E+04</rscale>
<asrwt>0</asrwt>
<pdfrwt beam="1">  1        1 0.33989445E+00 0.11870833E+04</pdfrwt>
<pdfrwt beam="2">  1       -2 0.14408115E+00 0.11870833E+04</pdfrwt>
<totfact> 0.61559251E-01</totfact>
</mgrwt>
</event>
<event>
12    3  0.5088280E-007  0.1277007E+04  0.7818608E-02  0.9048000E-01
          1   -1    0    0  501    0  0.00000000000E+00  0.00000000000E+00  0.19766913598E+04  0.19766913598E+04  0.00000000000E+00 0. -1.
         -2   -1    0    0    0  501 -0.00000000000E+00 -0.00000000000E+00 -0.84425612539E+03  0.84425612539E+03  0.00000000000E+00 0.  1.
        -24    2    1    2    0    0 -0.11607478337E+04 -0.37729982191E+03  0.51160677746E+03  0.13258530435E+04  0.80337470044E+02 0.  0.
    5000000    2    1    2    0    0  0.11607478337E+04  0.37729982191E+03  0.62082845696E+03  0.14950944417E+04  0.60015725226E+03 0.  0.
        -24    2    4    4    0    0  0.73051822176E+03 -0.36039832927E+02  0.47756439304E+03  0.87717754281E+03  0.80105868842E+02 0.  0.
         24    2    4    4    0    0  0.43022961199E+03  0.41333965484E+03  0.14326406392E+03  0.61791689889E+03  0.73140362498E+02 0.  0.
         11    1    5    5    0    0  0.33844661465E+03 -0.46190109739E+02  0.25458520841E+03  0.42602026425E+03  0.00000000000E+00 0. -1.
        -12    1    5    5    0    0  0.39207160711E+03  0.10150276813E+02  0.22297918463E+03  0.45115727856E+03  0.00000000000E+00 0.  1.
         13    1    3    3    0    0 -0.64924400580E+03 -0.17556953088E+03  0.30468863747E+03  0.73836143253E+03  0.00000000000E+00 0. -1.
        -14    1    3    3    0    0 -0.51150382795E+03 -0.20173029103E+03  0.20691813999E+03  0.58749161099E+03  0.00000000000E+00 0.  1.
          2    1    6    6  502    0  0.12075943978E+03  0.14031521604E+03  0.14901685715E+02  0.18572361827E+03  0.00000000000E+00 0. -1.
         -1    1    6    6    0  502  0.30947017221E+03  0.27302443880E+03  0.12836237821E+03  0.43219328061E+03  0.00000000000E+00 0.  1.
<mgrwt>
<rscale>  0 0.12770069E+04</rscale>
<asrwt>0</asrwt>
<pdfrwt beam="1">  1        1 0.30410636E+00 0.12770069E+04</pdfrwt>
<pdfrwt beam="2">  1       -2 0.12988556E+00 0.12770069E+04</pdfrwt>
<totfact> 0.11457145E+00</totfact>
</mgrwt>
</event>
<event>
12    3  0.2422421E-007  0.9178610E+03  0.7818608E-02  0.9403526E-01
          1   -1    0    0  501    0  0.00000000000E+00  0.00000000000E+00  0.87300650026E+03  0.87300650026E+03  0.00000000000E+00 0. -1.
         -2   -1    0    0    0  501 -0.00000000000E+00 -0.00000000000E+00 -0.13527135166E+04  0.13527135166E+04  0.00000000000E+00 0.  1.
        -24    2    1    2    0    0 -0.76430509410E+03 -0.30522436992E+03  0.36383584521E+03  0.90331371273E+03  0.79214572431E+02 0.  0.
    5000000    2    1    2    0    0  0.76430509410E+03  0.30522436992E+03 -0.84354286156E+03  0.13224063041E+04  0.59989139107E+03 0.  0.
        -24    2    4    4    0    0  0.45240797909E+02 -0.14096122237E+03 -0.13297696162E+03  0.21450937729E+03  0.80091226833E+02 0.  0.
         24    2    4    4    0    0  0.71906429619E+03  0.44618559229E+03 -0.71056589994E+03  0.11078969269E+04  0.79979106960E+02 0.  0.
         13    1    5    5    0    0 -0.12766997708E+02 -0.76621293665E+02 -0.86284644786E+02  0.11609848750E+03  0.00000000000E+00 0. -1.
        -14    1    5    5    0    0  0.58007795617E+02 -0.64339928703E+02 -0.46692316833E+02  0.98410889789E+02  0.00000000000E+00 0.  1.
         13    1    3    3    0    0 -0.20524115527E+03 -0.10149151304E+03  0.13499346621E+03  0.26579634113E+03  0.00000000000E+00 0. -1.
        -14    1    3    3    0    0 -0.55906393882E+03 -0.20373285688E+03  0.22884237900E+03  0.63751737160E+03  0.00000000000E+00 0.  1.
          4    1    6    6  502    0  0.35257745287E+03  0.24502636826E+03 -0.40324520190E+03  0.58902926436E+03  0.00000000000E+00 0. -1.
         -3    1    6    6    0  502  0.36648684332E+03  0.20115922403E+03 -0.30732069804E+03  0.51886766249E+03  0.00000000000E+00 0.  1.
<mgrwt>
<rscale>  0 0.91786100E+03</rscale>
<asrwt>0</asrwt>
<pdfrwt beam="1">  1        1 0.13430869E+00 0.91786100E+03</pdfrwt>
<pdfrwt beam="2">  1       -2 0.20810977E+00 0.91786100E+03</pdfrwt>
<totfact> 0.19917696E+00</totfact>
</mgrwt>
</event>
<event>
12    3  0.2422421E-007  0.9855992E+03  0.7818608E-02  0.9324482E-01
          1   -1    0    0  501    0  0.00000000000E+00  0.00000000000E+00  0.12534615701E+04  0.12534615701E+04  0.00000000000E+00 0. -1.
         -2   -1    0    0    0  501 -0.00000000000E+00 -0.00000000000E+00 -0.88889773991E+03  0.88889773991E+03  0.00000000000E+00 0.  1.
        -24    2    1    2    0    0  0.83397841137E+03 -0.41040949758E+03  0.44418725915E+03  0.10331581371E+04  0.78469539791E+02 0.  0.
    5000000    2    1    2    0    0 -0.83397841137E+03  0.41040949758E+03 -0.79623428939E+02  0.11092011730E+04  0.60002617053E+03 0.  0.
        -24    2    4    4    0    0 -0.53601163853E+03  0.65007610151E+01 -0.22100196733E+03  0.58207777483E+03  0.51204783531E+02 0.  0.
         24    2    4    4    0    0 -0.29796677284E+03  0.40390873656E+03  0.14137853839E+03  0.52712339812E+03  0.77102013868E+02 0.  0.
         11    1    3    3    0    0  0.44043765532E+03 -0.19915212498E+03  0.19106097032E+03  0.51976070599E+03  0.00000000000E+00 0. -1.
        -12    1    3    3    0    0  0.39354075604E+03 -0.21125737260E+03  0.25312628882E+03  0.51339743108E+03  0.00000000000E+00 0.  1.
         13    1    5    5    0    0 -0.23923557046E+03  0.26608465426E+02 -0.10889974608E+03  0.26419845439E+03  0.00000000000E+00 0. -1.
        -14    1    5    5    0    0 -0.29677606807E+03 -0.20107704411E+02 -0.11210222125E+03  0.31787932044E+03  0.00000000000E+00 0.  1.
          2    1    6    6  502    0 -0.18211764340E+03  0.27327299693E+03  0.57411424511E+02  0.33337822147E+03  0.00000000000E+00 0. -1.
         -1    1    6    6    0  502 -0.11584912944E+03  0.13063573963E+03  0.83967113880E+02  0.19374517665E+03  0.00000000000E+00 0.  1.
<mgrwt>
<rscale>  0 0.98559916E+03</rscale>
<asrwt>0</asrwt>
<pdfrwt beam="1">  1        1 0.19284024E+00 0.98559916E+03</pdfrwt>
<pdfrwt beam="2">  1       -2 0.13675350E+00 0.98559916E+03</pdfrwt>
<totfact> 0.32662577E+00</totfact>
</mgrwt>
</event>
<event>
12    3  0.2422421E-007  0.7860464E+03  0.7818608E-02  0.9580437E-01
          1   -1    0    0  501    0  0.00000000000E+00  0.00000000000E+00  0.54527897626E+03  0.54527897626E+03  0.00000000000E+00 0. -1.
         -2   -1    0    0    0  501 -0.00000000000E+00 -0.00000000000E+00 -0.12822033829E+04  0.12822033829E+04  0.00000000000E+00 0.  1.
        -24    2    1    2    0    0  0.32519249530E+03 -0.59812962546E+03 -0.59914114604E+03  0.91008040271E+03  0.75940889366E+02 0.  0.
    5000000    2    1    2    0    0 -0.32519249530E+03  0.59812962546E+03 -0.13778326063E+03  0.91740195647E+03  0.59927699352E+03 0.  0.
        -24    2    4    4    0    0 -0.40943856473E+03  0.64534198446E+03 -0.16825622283E+03  0.78679167763E+03  0.81392703964E+02 0.  0.
         24    2    4    4    0    0  0.84246069432E+02 -0.47212359001E+02  0.30472962201E+02  0.13061027884E+03  0.82486583494E+02 0.  0.
         11    1    5    5    0    0 -0.24108799175E+03  0.35545997738E+03 -0.55301817392E+02  0.43305138990E+03  0.00000000000E+00 0. -1.
        -12    1    5    5    0    0 -0.16835057298E+03  0.28988200709E+03 -0.11295440544E+03  0.35374028773E+03  0.00000000000E+00 0.  1.
         11    1    3    3    0    0  0.20530218530E+03 -0.30890614197E+03 -0.29980929186E+03  0.47692515484E+03  0.00000000000E+00 0. -1.
        -12    1    3    3    0    0  0.11989031000E+03 -0.28922348349E+03 -0.29933185418E+03  0.43315524787E+03  0.00000000000E+00 0.  1.
          2    1    6    6  502    0  0.16931397757E+01 -0.40510855154E+02  0.24937080154E+02  0.47600988164E+02  0.00000000000E+00 0. -1.
         -1    1    6    6    0  502  0.82552929656E+02 -0.67015038466E+01  0.55358820472E+01  0.83009290677E+02  0.00000000000E+00 0.  1.
<mgrwt>
<rscale>  0 0.78604637E+03</rscale>
<asrwt>0</asrwt>
<pdfrwt beam="1">  1        1 0.83889074E-01 0.78604637E+03</pdfrwt>
<pdfrwt beam="2">  1       -2 0.19726206E+00 0.78604637E+03</pdfrwt>
<totfact> 0.48644004E+00</totfact>
</mgrwt>
</event>
<event>
12    3  0.2422421E-007  0.6275432E+03  0.7818608E-02  0.9849855E-01
          1   -1    0    0  501    0  0.00000000000E+00  0.00000000000E+00  0.19923947732E+04  0.19923947732E+04  0.00000000000E+00 0. -1.
         -2   -1    0    0    0  501 -0.00000000000E+00 -0.00000000000E+00 -0.34781025225E+03  0.34781025225E+03  0.00000000000E+00 0.  1.
        -24    2    1    2    0    0  0.55989138783E+03  0.88626088498E+02  0.89022918093E+02  0.57922530027E+03  0.79018471249E+02 0.  0.
    5000000    2    1    2    0    0 -0.55989138783E+03 -0.88626088498E+02  0.15555616029E+04  0.17609797252E+04  0.59995395030E+03 0.  0.
        -24    2    4    4    0    0 -0.41306863272E+03 -0.22483863397E+03  0.14394760786E+04  0.15164026658E+04  0.78788053282E+02 0.  0.
         24    2    4    4    0    0 -0.14682275511E+03  0.13621254547E+03  0.11608552431E+03  0.24457705942E+03  0.78938647570E+02 0.  0.
         13    1    3    3    0    0  0.18741152021E+03  0.31421175945E+02 -0.76321952599E+01  0.19018048956E+03  0.00000000000E+00 0. -1.
        -14    1    3    3    0    0  0.37247986763E+03  0.57204912552E+02  0.96655113353E+02  0.38904481071E+03  0.00000000000E+00 0.  1.
         13    1    5    5    0    0 -0.33904596500E+03 -0.15726906695E+03  0.10619371392E+04  0.11257869308E+04  0.00000000000E+00 0. -1.
        -14    1    5    5    0    0 -0.74022667728E+02 -0.67569567020E+02  0.37753893932E+03  0.39061573500E+03  0.00000000000E+00 0.  1.
          2    1    6    6  502    0 -0.99538812774E+02  0.40453882672E+02  0.70166986200E+02  0.12832730740E+03  0.00000000000E+00 0. -1.
         -1    1    6    6    0  502 -0.47283942337E+02  0.95758662798E+02  0.45918538112E+02  0.11624975203E+03  0.00000000000E+00 0.  1.
<mgrwt>
<rscale>  0 0.62754318E+03</rscale>
<asrwt>0</asrwt>
<pdfrwt beam="1">  1        1 0.30652227E+00 0.62754318E+03</pdfrwt>
<pdfrwt beam="2">  1       -2 0.53509271E-01 0.62754318E+03</pdfrwt>
<totfact> 0.92613355E+00</totfact>
</mgrwt>
</event>
<event>
12    3  0.2422421E-007  0.9017478E+03  0.7818608E-02  0.9423399E-01
         -2   -1    0    0    0  501 -0.00000000000E+00  0.00000000000E+00  0.29612454669E+03  0.29612454669E+03  0.00000000000E+00 0.  1.
          1   -1    0    0  501    0  0.00000000000E+00 -0.00000000000E+00 -0.35175703587E+04  0.35175703587E+04  0.00000000000E+00 0. -1.
        -24    2    1    2    0    0 -0.77399604245E+03  0.24335578717E+03 -0.62269349954E+03  0.10259062042E+04  0.80277223552E+02 0.  0.
    5000000    2    1    2    0    0  0.77399604245E+03 -0.24335578717E+03 -0.25987523125E+04  0.27877887011E+04  0.59996695564E+03 0.  0.
        -24    2    4    4    0    0 -0.43434616633E+02 -0.15893725597E+03 -0.40121171072E+03  0.44024726388E+03  0.75493041213E+02 0.  0.
         24    2    4    4    0    0  0.81743065908E+03 -0.84418531196E+02 -0.21975406017E+04  0.23475414373E+04  0.80291547528E+02 0.  0.
         11    1    5    5    0    0 -0.16120215789E+02 -0.10223925043E+03 -0.32675604193E+03  0.34275681849E+03  0.00000000000E+00 0. -1.
        -12    1    5    5    0    0 -0.27314400844E+02 -0.56698005540E+02 -0.74455668794E+02  0.97490445384E+02  0.00000000000E+00 0.  1.
         13    1    3    3    0    0 -0.49450447337E+03  0.17357647276E+03 -0.44430813334E+03  0.68707582073E+03  0.00000000000E+00 0. -1.
        -14    1    3    3    0    0 -0.27949156907E+03  0.69779314412E+02 -0.17838536620E+03  0.33883038349E+03  0.00000000000E+00 0.  1.
          2    1    6    6  502    0  0.33998760719E+03 -0.70721773362E+02 -0.97602247253E+03  0.10359599457E+04  0.00000000000E+00 0. -1.
         -1    1    6    6    0  502  0.47744305189E+03 -0.13696757834E+02 -0.12215181292E+04  0.13115814915E+04  0.00000000000E+00 0.  1.
<mgrwt>
<rscale>  0 0.90174775E+03</rscale>
<asrwt>0</asrwt>
<pdfrwt beam="1">  1        1 0.54116467E+00 0.90174775E+03</pdfrwt>
<pdfrwt beam="2">  1       -2 0.45557623E-01 0.90174775E+03</pdfrwt>
<totfact> 0.10247645E+00</totfact>
</mgrwt>
</event>
<event>
12    3  0.2422421E-007  0.1370036E+04  0.7818608E-02  0.8975798E-01
         -2   -1    0    0    0  501 -0.00000000000E+00  0.00000000000E+00  0.11183158386E+04  0.11183158386E+04  0.00000000000E+00 0.  1.
          1   -1    0    0  501    0  0.00000000000E+00 -0.00000000000E+00 -0.17458132370E+04  0.17458132370E+04  0.00000000000E+00 0. -1.
        -24    2    1    2    0    0  0.30231031202E+03  0.12963066271E+04 -0.33734358265E+03  0.13755308337E+04  0.80510779409E+02 0.  0.
    5000000    2    1    2    0    0 -0.30231031202E+03 -0.12963066271E+04 -0.29015381573E+03  0.14885982420E+04  0.59994424165E+03 0.  0.
        -24    2    4    4    0    0 -0.24506217580E+03 -0.12879666602E+04 -0.15727028474E+03  0.13229441390E+04  0.80831086398E+02 0.  0.
         24    2    4    4    0    0 -0.57248136214E+02 -0.83399668470E+01 -0.13288353099E+03  0.16565410300E+03  0.80226833952E+02 0.  0.
         11    1    5    5    0    0 -0.10252573520E+03 -0.52881539150E+03 -0.10467814188E+03  0.54873924414E+03  0.00000000000E+00 0. -1.
        -12    1    5    5    0    0 -0.14253644060E+03 -0.75915126871E+03 -0.52592142862E+02  0.77420489483E+03  0.00000000000E+00 0.  1.
         11    1    3    3    0    0  0.10434088899E+03  0.55144348396E+03 -0.17518449021E+03  0.58793413128E+03  0.00000000000E+00 0. -1.
        -12    1    3    3    0    0  0.19796942303E+03  0.74486314311E+03 -0.16215909244E+03  0.78759670243E+03  0.00000000000E+00 0.  1.
          2    1    6    6  502    0  0.93023257068E+01  0.22013172708E+02 -0.20095148691E+02  0.31223837643E+02  0.00000000000E+00 0. -1.
         -1    1    6    6    0  502 -0.66550461921E+02 -0.30353139555E+02 -0.11278838230E+03  0.13443026536E+03  0.00000000000E+00 0.  1.
<mgrwt>
<rscale>  0 0.13700365E+04</rscale>
<asrwt>0</asrwt>
<pdfrwt beam="1">  1        1 0.26858665E+00 0.13700365E+04</pdfrwt>
<pdfrwt beam="2">  1       -2 0.17204859E+00 0.13700365E+04</pdfrwt>
<totfact> 0.76736263E-01</totfact>
</mgrwt>
</event>
<event>
12    3  0.2422421E-007  0.1135034E+04  0.7818608E-02  0.9171703E-01
          1   -1    0    0  501    0  0.00000000000E+00  0.00000000000E+00  0.84551692923E+03  0.84551692923E+03  0.00000000000E+00 0. -1.
         -2   -1    0    0    0  501 -0.00000000000E+00 -0.00000000000E+00 -0.16805251313E+04  0.16805251313E+04  0.00000000000E+00 0.  1.
        -24    2    1    2    0    0  0.14618849627E+03 -0.11024251529E+04 -0.47781699945E+03  0.12129047907E+04  0.78209028946E+02 0.  0.
    5000000    2    1    2    0    0 -0.14618849627E+03  0.11024251529E+04 -0.35719120263E+03  0.13131372699E+04  0.60002636618E+03 0.  0.
        -24    2    4    4    0    0 -0.23783232774E+03  0.80690547087E+03 -0.14982040129E+02  0.84519763051E+03  0.80460661545E+02 0.  0.
         24    2    4    4    0    0  0.91643831471E+02  0.29551968199E+03 -0.34220916251E+03  0.46793963934E+03  0.78293811169E+02 0.  0.
         11    1    5    5    0    0 -0.10949506327E+03  0.47034036370E+03 -0.36920595485E+02  0.48432670479E+03  0.00000000000E+00 0. -1.
        -12    1    5    5    0    0 -0.12833726447E+03  0.33656510717E+03  0.21938555356E+02  0.36087092572E+03  0.00000000000E+00 0.  1.
         13    1    3    3    0    0  0.51604608360E+02 -0.39785396506E+03 -0.21355288805E+03  0.45448393714E+03  0.00000000000E+00 0. -1.
        -14    1    3    3    0    0  0.94583887909E+02 -0.70457118781E+03 -0.26426411139E+03  0.75842085356E+03  0.00000000000E+00 0.  1.
          2    1    6    6  502    0  0.27310685328E+02  0.18486261535E+03 -0.16467503105E+03  0.24907413744E+03  0.00000000000E+00 0. -1.
         -1    1    6    6    0  502  0.64333146143E+02  0.11065706664E+03 -0.17753413146E+03  0.21886550190E+03  0.00000000000E+00 0.  1.
<mgrwt>
<rscale>  0 0.11350336E+04</rscale>
<asrwt>0</asrwt>
<pdfrwt beam="1">  1        1 0.13007953E+00 0.11350336E+04</pdfrwt>
<pdfrwt beam="2">  1       -2 0.25854233E+00 0.11350336E+04</pdfrwt>
<totfact> 0.99458286E-01</totfact>
</mgrwt>
</event>
<event>
12    3  0.2422421E-007  0.4984820E+03  0.7818608E-02  0.1014176E+00
         -2   -1    0    0    0  501 -0.00000000000E+00  0.00000000000E+00  0.68856637307E+03  0.68856637307E+03  0.00000000000E+00 0.  1.
          1   -1    0    0  501    0  0.00000000000E+00 -0.00000000000E+00 -0.75489558792E+03  0.75489558792E+03  0.00000000000E+00 0. -1.
        -24    2    1    2    0    0 -0.79197235811E+02  0.43670552871E+03  0.36571689350E+03  0.58108929421E+03  0.83258637347E+02 0.  0.
    5000000    2    1    2    0    0  0.79197235811E+02 -0.43670552871E+03 -0.43204610834E+03  0.86237266678E+03  0.60003237889E+03 0.  0.
        -24    2    4    4    0    0  0.73778608089E+02  0.10029863580E+02 -0.39202620118E+03  0.40672907803E+03  0.78740836496E+02 0.  0.
         24    2    4    4    0    0  0.54186277222E+01 -0.44673539229E+03 -0.40019907162E+02  0.45564358875E+03  0.80047578004E+02 0.  0.
         11    1    3    3    0    0 -0.45864177040E+02  0.32757192196E+03  0.31301713523E+03  0.45539720436E+03  0.00000000000E+00 0. -1.
        -12    1    3    3    0    0 -0.33333058771E+02  0.10913360675E+03  0.52699758262E+02  0.12569208985E+03  0.00000000000E+00 0.  1.
         13    1    5    5    0    0  0.99917868940E+01 -0.28879141804E+02 -0.16247982258E+03  0.16532856191E+03  0.00000000000E+00 0. -1.
        -14    1    5    5    0    0  0.63786821195E+02  0.38909005384E+02 -0.22954637860E+03  0.24140051613E+03  0.00000000000E+00 0.  1.
          4    1    6    6  502    0  0.54713842653E+01 -0.20016650002E+03 -0.57851624541E+02  0.20843074207E+03  0.00000000000E+00 0. -1.
         -3    1    6    6    0  502 -0.52756543068E-01 -0.24656889227E+03  0.17831717379E+02  0.24721284668E+03  0.00000000000E+00 0.  1.
<mgrwt>
<rscale>  0 0.49848199E+03</rscale>
<asrwt>0</asrwt>
<pdfrwt beam="1">  1        1 0.11613778E+00 0.49848199E+03</pdfrwt>
<pdfrwt beam="2">  1       -2 0.10593329E+00 0.49848199E+03</pdfrwt>
<totfact> 0.16092502E+01</totfact>
</mgrwt>
</event>
<event>
12    3  0.2422421E-007  0.5180399E+03  0.7818608E-02  0.1009175E+00
         -2   -1    0    0    0  501 -0.00000000000E+00  0.00000000000E+00  0.35902943665E+03  0.35902943665E+03  0.00000000000E+00 0.  1.
          1   -1    0    0  501    0  0.00000000000E+00 -0.00000000000E+00 -0.19974155779E+04  0.19974155779E+04  0.00000000000E+00 0. -1.
        -24    2    1    2    0    0  0.44373166244E+03  0.22555329843E+03 -0.14762445084E+04  0.15600143287E+04  0.81085008381E+02 0.  0.
    5000000    2    1    2    0    0 -0.44373166244E+03 -0.22555329843E+03 -0.16214163283E+03  0.79643068580E+03  0.60019984131E+03 0.  0.
        -24    2    4    4    0    0 -0.36529162946E+03 -0.14633993823E+03 -0.37092379469E+03  0.54688206502E+03  0.81499567457E+02 0.  0.
         24    2    4    4    0    0 -0.78440032976E+02 -0.79213360200E+02  0.20878216185E+03  0.24954862079E+03  0.79100744754E+02 0.  0.
         11    1    3    3    0    0  0.18266904802E+03  0.59414646091E+02 -0.48755862565E+03  0.52403386792E+03  0.00000000000E+00 0. -1.
        -12    1    3    3    0    0  0.26106261441E+03  0.16613865234E+03 -0.98868588272E+03  0.10359804608E+04  0.00000000000E+00 0.  1.
         13    1    5    5    0    0 -0.76636540891E+02 -0.59307098092E+01 -0.43326034680E+02  0.88235355724E+02  0.00000000000E+00 0. -1.
        -14    1    5    5    0    0 -0.28865508857E+03 -0.14040922842E+03 -0.32759776001E+03  0.45864670929E+03  0.00000000000E+00 0.  1.
          2    1    6    6  502    0 -0.92700108796E+02 -0.52829255813E+02  0.16226223144E+03  0.19419905302E+03  0.00000000000E+00 0. -1.
         -1    1    6    6    0  502  0.14260075819E+02 -0.26384104386E+02  0.46519930411E+02  0.55349567768E+02  0.00000000000E+00 0.  1.
<mgrwt>
<rscale>  0 0.51803990E+03</rscale>
<asrwt>0</asrwt>
<pdfrwt beam="1">  1        1 0.30729470E+00 0.51803990E+03</pdfrwt>
<pdfrwt beam="2">  1       -2 0.55235299E-01 0.51803990E+03</pdfrwt>
<totfact> 0.87981439E+00</totfact>
</mgrwt>
</event>
<event>
12    3  0.2422421E-007  0.7317882E+03  0.7818608E-02  0.9664363E-01
          1   -1    0    0  501    0  0.00000000000E+00  0.00000000000E+00  0.13008389615E+04  0.13008389615E+04  0.00000000000E+00 0. -1.
         -2   -1    0    0    0  501 -0.00000000000E+00 -0.00000000000E+00 -0.46453237098E+03  0.46453237098E+03  0.00000000000E+00 0.  1.
        -24    2    1    2    0    0 -0.62534363495E+03  0.11321964254E+03  0.15959322201E+03  0.66005244901E+03  0.79535461892E+02 0.  0.
    5000000    2    1    2    0    0  0.62534363495E+03 -0.11321964254E+03  0.67671336852E+03  0.11053188835E+04  0.59992958071E+03 0.  0.
        -24    2    4    4    0    0  0.46480763588E+03 -0.31101690153E+03  0.60680158901E+03  0.82824947663E+03  0.70791070828E+02 0.  0.
         24    2    4    4    0    0  0.16053599908E+03  0.19779725899E+03  0.69911779508E+02  0.27706940685E+03  0.83571745420E+02 0.  0.
         11    1    5    5    0    0  0.23447973909E+03 -0.17868123944E+03  0.36361022973E+03  0.46810269443E+03  0.00000000000E+00 0. -1.
        -12    1    5    5    0    0  0.23032789679E+03 -0.13233566209E+03  0.24319135928E+03  0.36014678220E+03  0.00000000000E+00 0.  1.
         13    1    3    3    0    0 -0.55325741742E+03  0.81913366769E+02  0.11985633123E+03  0.57198698387E+03  0.00000000000E+00 0. -1.
        -14    1    3    3    0    0 -0.72086217535E+02  0.31306275770E+02  0.39736890774E+02  0.88065465135E+02  0.00000000000E+00 0.  1.
          4    1    6    6  502    0  0.15738176678E+02  0.71208613510E+02  0.37579195355E+02  0.82039946165E+02  0.00000000000E+00 0. -1.
         -3    1    6    6    0  502  0.14479782240E+03  0.12658864548E+03  0.32332584153E+02  0.19502946068E+03  0.00000000000E+00 0.  1.
<mgrwt>
<rscale>  0 0.73178818E+03</rscale>
<asrwt>0</asrwt>
<pdfrwt beam="1">  1        1 0.20012907E+00 0.73178818E+03</pdfrwt>
<pdfrwt beam="2">  1       -2 0.71466519E-01 0.73178818E+03</pdfrwt>
<totfact> 0.14506513E+01</totfact>
</mgrwt>
</event>
<event>
12    3  0.2422421E-007  0.8986138E+03  0.7818608E-02  0.9427316E-01
          1   -1    0    0  501    0  0.00000000000E+00  0.00000000000E+00  0.14354614729E+04  0.14354614729E+04  0.00000000000E+00 0. -1.
         -2   -1    0    0    0  501 -0.00000000000E+00 -0.00000000000E+00 -0.72942142276E+03  0.72942142276E+03  0.00000000000E+00 0.  1.
        -24    2    1    2    0    0 -0.48749059554E+03 -0.69704192571E+03 -0.84186318536E+02  0.85797371582E+03  0.74276738356E+02 0.  0.
    5000000    2    1    2    0    0  0.48749059554E+03  0.69704192571E+03  0.79022636868E+03  0.13069091799E+04  0.60003280218E+03 0.  0.
        -24    2    4    4    0    0  0.46531675142E+03  0.72117767120E+03  0.84302306867E+03  0.12056850343E+04  0.79822270825E+02 0.  0.
         24    2    4    4    0    0  0.22173844121E+02 -0.24135745492E+02 -0.52796699986E+02  0.10122414560E+03  0.79903833140E+02 0.  0.
         11    1    5    5    0    0  0.23260056919E+03  0.36640546479E+03  0.48188314803E+03  0.64851164814E+03  0.00000000000E+00 0. -1.
        -12    1    5    5    0    0  0.23271618224E+03  0.35477220642E+03  0.36113992064E+03  0.55717338612E+03  0.00000000000E+00 0.  1.
         13    1    3    3    0    0 -0.51372162680E+02 -0.11965705206E+03 -0.10188102695E+02  0.13061663999E+03  0.00000000000E+00 0. -1.
        -14    1    3    3    0    0 -0.43611843286E+03 -0.57738487365E+03 -0.73998215841E+02  0.72735707582E+03  0.00000000000E+00 0.  1.
          4    1    6    6  502    0 -0.34293432074E+01  0.27388826814E+02 -0.25352029923E+02  0.37478442474E+02  0.00000000000E+00 0. -1.
         -3    1    6    6    0  502  0.25603187328E+02 -0.51524572306E+02 -0.27444670063E+02  0.63745703130E+02  0.00000000000E+00 0.  1.
<mgrwt>
<rscale>  0 0.89861379E+03</rscale>
<asrwt>0</asrwt>
<pdfrwt beam="1">  1        1 0.22084023E+00 0.89861379E+03</pdfrwt>
<pdfrwt beam="2">  1       -2 0.11221868E+00 0.89861379E+03</pdfrwt>
<totfact> 0.40295426E+00</totfact>
</mgrwt>
</event>
<event>
12    3  0.2422421E-007  0.7172706E+03  0.7818608E-02  0.9688145E-01
          1   -1    0    0  501    0  0.00000000000E+00  0.00000000000E+00  0.57913638976E+03  0.57913638976E+03  0.00000000000E+00 0. -1.
         -2   -1    0    0    0  501 -0.00000000000E+00 -0.00000000000E+00 -0.91242361483E+03  0.91242361483E+03  0.00000000000E+00 0.  1.
        -24    2    1    2    0    0 -0.51774425926E+03 -0.30397965665E+03 -0.14278492829E+03  0.62168698955E+03  0.75129405551E+02 0.  0.
    5000000    2    1    2    0    0  0.51774425926E+03  0.30397965665E+03 -0.19050229678E+03  0.86987301504E+03  0.59993765306E+03 0.  0.
        -24    2    4    4    0    0  0.36102634433E+02 -0.15389671781E+03 -0.68615440005E+02  0.18974815846E+03  0.79427231261E+02 0.  0.
         24    2    4    4    0    0  0.48164162483E+03  0.45787637445E+03 -0.12188685678E+03  0.68012485659E+03  0.77999907940E+02 0.  0.
         13    1    5    5    0    0  0.29963420821E+01 -0.87572366396E+02  0.16089163444E+01  0.87638382196E+02  0.00000000000E+00 0. -1.
        -14    1    5    5    0    0  0.33106292350E+02 -0.66324351409E+02 -0.70224356349E+02  0.10210977626E+03  0.00000000000E+00 0.  1.
         13    1    3    3    0    0 -0.41588186499E+03 -0.21220638810E+03 -0.94758829211E+02  0.47641212462E+03  0.00000000000E+00 0. -1.
        -14    1    3    3    0    0 -0.10186239428E+03 -0.91773268550E+02 -0.48026099078E+02  0.14527486493E+03  0.00000000000E+00 0.  1.
          4    1    6    6  502    0  0.39833189701E+03  0.41446645285E+03 -0.11208473391E+03  0.58567373878E+03  0.00000000000E+00 0. -1.
         -3    1    6    6    0  502  0.83309727818E+02  0.43409921600E+02 -0.98021228686E+01  0.94451117808E+02  0.00000000000E+00 0.  1.
<mgrwt>
<rscale>  0 0.71727056E+03</rscale>
<asrwt>0</asrwt>
<pdfrwt beam="1">  1        1 0.89097907E-01 0.71727056E+03</pdfrwt>
<pdfrwt beam="2">  1       -2 0.14037286E+00 0.71727056E+03</pdfrwt>
<totfact> 0.11514869E+01</totfact>
</mgrwt>
</event>
<event>
12    3  0.2422421E-007  0.7020793E+03  0.7818608E-02  0.9713683E-01
         -2   -1    0    0    0  501 -0.00000000000E+00  0.00000000000E+00  0.42389824789E+03  0.42389824789E+03  0.00000000000E+00 0.  1.
          1   -1    0    0  501    0  0.00000000000E+00 -0.00000000000E+00 -0.16539943261E+04  0.16539943261E+04  0.00000000000E+00 0. -1.
        -24    2    1    2    0    0  0.69076814682E+03 -0.47696201807E+02 -0.26052837558E+03  0.74392536373E+03  0.78194322046E+02 0.  0.
    5000000    2    1    2    0    0 -0.69076814682E+03  0.47696201807E+02 -0.96956770262E+03  0.13339672102E+04  0.59997618928E+03 0.  0.
        -24    2    4    4    0    0 -0.60805123067E+03 -0.63488077099E+01 -0.10226086636E+04  0.11943196358E+04  0.10442369067E+03 0.  0.
         24    2    4    4    0    0 -0.82716916152E+02  0.54045009517E+02  0.53040960956E+02  0.13964757443E+03  0.83217487554E+02 0.  0.
         11    1    5    5    0    0 -0.25171204269E+03 -0.16669471959E+02 -0.33025097282E+03  0.41557493762E+03  0.00000000000E+00 0. -1.
        -12    1    5    5    0    0 -0.35633918798E+03  0.10320664249E+02 -0.69235769076E+03  0.77874469818E+03  0.00000000000E+00 0.  1.
         13    1    3    3    0    0  0.21599167077E+02 -0.15522900227E+02 -0.14046878091E+02  0.30079880884E+02  0.00000000000E+00 0. -1.
        -14    1    3    3    0    0  0.66916897974E+03 -0.32173301580E+02 -0.24648149748E+03  0.71384548285E+03  0.00000000000E+00 0.  1.
          4    1    6    6  502    0 -0.17498086231E+02  0.98008596052E+01 -0.22735440808E+02  0.30317324082E+02  0.00000000000E+00 0. -1.
         -3    1    6    6    0  502 -0.65218829921E+02  0.44244149912E+02  0.75776401764E+02  0.10933025035E+03  0.00000000000E+00 0.  1.
<mgrwt>
<rscale>  0 0.70207932E+03</rscale>
<asrwt>0</asrwt>
<pdfrwt beam="1">  1        1 0.25446066E+00 0.70207932E+03</pdfrwt>
<pdfrwt beam="2">  1       -2 0.65215116E-01 0.70207932E+03</pdfrwt>
<totfact> 0.10159506E+01</totfact>
</mgrwt>
</event>
<event>
12    3  0.2422421E-007  0.1190263E+04  0.7818608E-02  0.9121422E-01
          1   -1    0    0  501    0  0.00000000000E+00  0.00000000000E+00  0.41795734162E+04  0.41795734162E+04  0.00000000000E+00 0. -1.
         -2   -1    0    0    0  501 -0.00000000000E+00 -0.00000000000E+00 -0.51527668805E+03  0.51527668805E+03  0.00000000000E+00 0.  1.
        -24    2    1    2    0    0 -0.97579218416E+03  0.54849254504E+03  0.39871100260E+03  0.11909823618E+04  0.80337188779E+02 0.  0.
    5000000    2    1    2    0    0  0.97579218416E+03 -0.54849254504E+03  0.32655857255E+04  0.35038677424E+04  0.60002047210E+03 0.  0.
        -24    2    4    4    0    0  0.17313854115E+03 -0.40242746863E+03  0.10105364040E+04  0.11043996609E+04  0.81178599903E+02 0.  0.
         24    2    4    4    0    0  0.80265364301E+03 -0.14606507641E+03  0.22550493215E+04  0.23994680816E+04  0.81312698098E+02 0.  0.
         13    1    5    5    0    0  0.34454145025E+02 -0.15381351314E+03  0.42600220871E+03  0.45422854023E+03  0.00000000000E+00 0. -1.
        -14    1    5    5    0    0  0.13868439613E+03 -0.24861395549E+03  0.58453419533E+03  0.65017112063E+03  0.00000000000E+00 0.  1.
         13    1    3    3    0    0 -0.57591318010E+03  0.36770077694E+03  0.25144205681E+03  0.72808169892E+03  0.00000000000E+00 0. -1.
        -14    1    3    3    0    0 -0.39987900406E+03  0.18079176810E+03  0.14726894579E+03  0.46290066288E+03  0.00000000000E+00 0.  1.
          4    1    6    6  502    0  0.29306770619E+03 -0.63237434235E+02  0.72005662682E+03  0.77998025573E+03  0.00000000000E+00 0. -1.
         -1    1    6    6    0  502  0.50958593682E+03 -0.82827642174E+02  0.15349926947E+04  0.16194878258E+04  0.00000000000E+00 0.  1.
<mgrwt>
<rscale>  0 0.11902630E+04</rscale>
<asrwt>0</asrwt>
<pdfrwt beam="1">  1        1 0.64301127E+00 0.11902630E+04</pdfrwt>
<pdfrwt beam="2">  1       -2 0.79273339E-01 0.11902630E+04</pdfrwt>
<totfact> 0.83516044E-02</totfact>
</mgrwt>
</event>
<event>
12    3  0.2422421E-007  0.1171721E+04  0.7818608E-02  0.9137976E-01
         -2   -1    0    0    0  501 -0.00000000000E+00  0.00000000000E+00  0.12457625241E+04  0.12457625241E+04  0.00000000000E+00 0.  1.
          1   -1    0    0  501    0  0.00000000000E+00 -0.00000000000E+00 -0.14231385948E+04  0.14231385948E+04  0.00000000000E+00 0. -1.
        -24    2    1    2    0    0 -0.51384006910E+03 -0.97379748096E+03 -0.70368954959E+03  0.13090583752E+04  0.78368979741E+02 0.  0.
    5000000    2    1    2    0    0  0.51384006910E+03  0.97379748096E+03  0.52631347886E+03  0.13598427438E+04  0.59987770351E+03 0.  0.
        -24    2    4    4    0    0 -0.63657395098E+02  0.46306847656E+03  0.14351754107E+03  0.49535516766E+03  0.79339647069E+02 0.  0.
         24    2    4    4    0    0  0.57749746419E+03  0.51072900440E+03  0.38279593780E+03  0.86448757609E+03  0.80365428781E+02 0.  0.
         11    1    3    3    0    0 -0.31410260742E+03 -0.66410350524E+03 -0.44680326523E+03  0.85984130598E+03  0.00000000000E+00 0. -1.
        -12    1    3    3    0    0 -0.19973746167E+03 -0.30969397572E+03 -0.25688628437E+03  0.44921706923E+03  0.00000000000E+00 0.  1.
         13    1    5    5    0    0 -0.39770302319E+02  0.21926034507E+03  0.28267916749E+02  0.22462379879E+03  0.00000000000E+00 0. -1.
        -14    1    5    5    0    0 -0.23887092779E+02  0.24380813149E+03  0.11524962432E+03  0.27073136887E+03  0.00000000000E+00 0.  1.
          4    1    6    6  502    0  0.53376453289E+03  0.45322619135E+03  0.32501899121E+03  0.77198180144E+03  0.00000000000E+00 0. -1.
         -3    1    6    6    0  502  0.43732931304E+02  0.57502813046E+02  0.57776946582E+02  0.92505774658E+02  0.00000000000E+00 0.  1.
<mgrwt>
<rscale>  0 0.11717206E+04</rscale>
<asrwt>0</asrwt>
<pdfrwt beam="1">  1        1 0.21894440E+00 0.11717206E+04</pdfrwt>
<pdfrwt beam="2">  1       -2 0.19165577E+00 0.11717206E+04</pdfrwt>
<totfact> 0.95824124E-01</totfact>
</mgrwt>
</event>
<event>
12    3  0.2422421E-007  0.4091250E+03  0.7818608E-02  0.1040665E+00
          1   -1    0    0  501    0  0.00000000000E+00  0.00000000000E+00  0.20444656443E+03  0.20444656443E+03  0.00000000000E+00 0. -1.
         -2   -1    0    0    0  501 -0.00000000000E+00 -0.00000000000E+00 -0.14456205910E+04  0.14456205910E+04  0.00000000000E+00 0.  1.
        -24    2    1    2    0    0 -0.34886658493E+02  0.18536337418E+03  0.51995999629E+02  0.21205406087E+03  0.81772130509E+02 0.  0.
    5000000    2    1    2    0    0  0.34886658493E+02 -0.18536337418E+03 -0.12931700262E+04  0.14380130946E+04  0.60001356988E+03 0.  0.
        -24    2    4    4    0    0 -0.20025063130E+01  0.20330124652E+03 -0.60063430278E+03  0.63907734035E+03  0.79516503995E+02 0.  0.
         24    2    4    4    0    0  0.36889164806E+02 -0.38866462070E+03 -0.69253572341E+03  0.79893575420E+03  0.79193517886E+02 0.  0.
         11    1    5    5    0    0  0.36057685140E+02  0.90889203531E+02 -0.31309582442E+03  0.32800914507E+03  0.00000000000E+00 0. -1.
        -12    1    5    5    0    0 -0.38060191453E+02  0.11241204299E+03 -0.28753847835E+03  0.31106819528E+03  0.00000000000E+00 0.  1.
         11    1    3    3    0    0  0.72262685175E+01  0.15108315859E+03  0.39665708161E+02  0.15637041974E+03  0.00000000000E+00 0. -1.
        -12    1    3    3    0    0 -0.42112927011E+02  0.34280215592E+02  0.12330291469E+02  0.55683641136E+02  0.00000000000E+00 0.  1.
          4    1    6    6  502    0 -0.94055100821E+01 -0.24732516536E+03 -0.47163694365E+03  0.53263459112E+03  0.00000000000E+00 0. -1.
         -3    1    6    6    0  502  0.46294674888E+02 -0.14133945534E+03 -0.22089877976E+03  0.26630116308E+03  0.00000000000E+00 0.  1.
<mgrwt>
<rscale>  0 0.40912501E+03</rscale>
<asrwt>0</asrwt>
<pdfrwt beam="1">  1        1 0.31453319E-01 0.40912501E+03</pdfrwt>
<pdfrwt beam="2">  1       -2 0.22240316E+00 0.40912501E+03</pdfrwt>
<totfact> 0.12852762E+01</totfact>
</mgrwt>
</event>
<event>
12    3  0.2422421E-007  0.2866279E+03  0.7818608E-02  0.1092123E+00
         -2   -1    0    0    0  501 -0.00000000000E+00  0.00000000000E+00  0.45757242248E+03  0.45757242248E+03  0.00000000000E+00 0.  1.
          1   -1    0    0  501    0  0.00000000000E+00 -0.00000000000E+00 -0.59413625850E+03  0.59413625850E+03  0.00000000000E+00 0. -1.
        -24    2    1    2    0    0  0.39840867840E+02 -0.26264523971E+03  0.17239295382E+03  0.32646507982E+03  0.79311418637E+02 0.  0.
    5000000    2    1    2    0    0 -0.39840867840E+02  0.26264523971E+03 -0.30895678984E+03  0.72524360115E+03  0.59996180406E+03 0.  0.
        -24    2    4    4    0    0 -0.35359964052E+02  0.20961797320E+03  0.13984096550E+03  0.26626329069E+03  0.78425905086E+02 0.  0.
         24    2    4    4    0    0 -0.44809037883E+01  0.53027266511E+02 -0.44879775534E+03  0.45898031046E+03  0.80072034446E+02 0.  0.
         11    1    3    3    0    0  0.27243080217E+02 -0.75183700482E+02  0.92569854058E+02  0.12232723376E+03  0.00000000000E+00 0. -1.
        -12    1    3    3    0    0  0.12597787623E+02 -0.18746153923E+03  0.79823099763E+02  0.20413784607E+03  0.00000000000E+00 0.  1.
         13    1    5    5    0    0 -0.21291183958E+02  0.20770591829E+03  0.11692179402E+03  0.23930267220E+03  0.00000000000E+00 0. -1.
        -14    1    5    5    0    0 -0.14068780094E+02  0.19120549056E+01  0.22919171486E+02  0.26960618481E+02  0.00000000000E+00 0.  1.
          4    1    6    6  502    0 -0.24940945403E+02  0.56406445412E+02 -0.19935738970E+03  0.20867943519E+03  0.00000000000E+00 0. -1.
         -3    1    6    6    0  502  0.20460041614E+02 -0.33791789012E+01 -0.24944036564E+03  0.25030087527E+03  0.00000000000E+00 0.  1.
<mgrwt>
<rscale>  0 0.28662789E+03</rscale>
<asrwt>0</asrwt>
<pdfrwt beam="1">  1        1 0.91405579E-01 0.28662789E+03</pdfrwt>
<pdfrwt beam="2">  1       -2 0.70395757E-01 0.28662789E+03</pdfrwt>
<totfact> 0.59683494E+01</totfact>
</mgrwt>
</event>
<event>
12    3  0.2422421E-007  0.9702110E+03  0.7818608E-02  0.9341834E-01
          1   -1    0    0  501    0  0.00000000000E+00  0.00000000000E+00  0.21964841893E+04  0.21964841893E+04  0.00000000000E+00 0. -1.
         -2   -1    0    0    0  501 -0.00000000000E+00 -0.00000000000E+00 -0.46027163753E+03  0.46027163753E+03  0.00000000000E+00 0.  1.
        -24    2    1    2    0    0 -0.16458481231E+03  0.87163386711E+03  0.50052111138E+03  0.10216197886E+04  0.79698498911E+02 0.  0.
    5000000    2    1    2    0    0  0.16458481231E+03 -0.87163386711E+03  0.12356914404E+04  0.16351360382E+04  0.59991896868E+03 0.  0.
        -24    2    4    4    0    0  0.36681577877E+03 -0.59092746309E+03  0.67846034278E+03  0.97456753840E+03  0.75659553165E+02 0.  0.
         24    2    4    4    0    0 -0.20223096645E+03 -0.28070640402E+03  0.55723109761E+03  0.66056849985E+03  0.78427022126E+02 0.  0.
         11    1    5    5    0    0  0.23550259673E+03 -0.40872620297E+03  0.41416033307E+03  0.62773192013E+03  0.00000000000E+00 0. -1.
        -12    1    5    5    0    0  0.13131318204E+03 -0.18220126012E+03  0.26430000971E+03  0.34683561827E+03  0.00000000000E+00 0.  1.
         13    1    3    3    0    0 -0.14924809995E+03  0.59491623673E+03  0.33709996741E+03  0.69988335606E+03  0.00000000000E+00 0. -1.
        -14    1    3    3    0    0 -0.15336712367E+02  0.27671763038E+03  0.16342114396E+03  0.32173643251E+03  0.00000000000E+00 0.  1.
          2    1    6    6  502    0 -0.23970016087E+02 -0.87570774420E+02  0.12093597061E+03  0.15122404303E+03  0.00000000000E+00 0. -1.
         -1    1    6    6    0  502 -0.17826095037E+03 -0.19313562960E+03  0.43629512699E+03  0.50934445681E+03  0.00000000000E+00 0.  1.
<mgrwt>
<rscale>  0 0.97021098E+03</rscale>
<asrwt>0</asrwt>
<pdfrwt beam="1">  1        1 0.33792064E+00 0.97021098E+03</pdfrwt>
<pdfrwt beam="2">  1       -2 0.70811022E-01 0.97021098E+03</pdfrwt>
<totfact> 0.35373043E+00</totfact>
</mgrwt>
</event>
<event>
12    3  0.2422421E-007  0.4824907E+03  0.7818608E-02  0.1018453E+00
          1   -1    0    0  501    0  0.00000000000E+00  0.00000000000E+00  0.69613310234E+03  0.69613310234E+03  0.00000000000E+00 0. -1.
         -2   -1    0    0    0  501 -0.00000000000E+00 -0.00000000000E+00 -0.35070672595E+03  0.35070672595E+03  0.00000000000E+00 0.  1.
        -24    2    1    2    0    0 -0.29546752061E+03  0.72310873386E+02  0.87585372412E+02  0.32640583154E+03  0.79621927025E+02 0.  0.
    5000000    2    1    2    0    0  0.29546752061E+03 -0.72310873386E+02  0.25784100398E+03  0.72043399674E+03  0.60001103505E+03 0.  0.
        -24    2    4    4    0    0  0.19704588423E+03 -0.32696328858E+03  0.16217904321E+03  0.42206388504E+03  0.78126873925E+02 0.  0.
         24    2    4    4    0    0  0.98421636381E+02  0.25465241519E+03  0.95661960766E+02  0.29837011170E+03  0.73067378130E+02 0.  0.
         11    1    3    3    0    0 -0.73061404380E+02  0.21931112156E+02  0.59294881846E+02  0.96616900713E+02  0.00000000000E+00 0. -1.
        -12    1    3    3    0    0 -0.22240611623E+03  0.50379761230E+02  0.28290490567E+02  0.22978893083E+03  0.00000000000E+00 0.  1.
         11    1    5    5    0    0  0.69018125263E+02 -0.16779248946E+03  0.46434582980E+02  0.18728051588E+03  0.00000000000E+00 0. -1.
        -12    1    5    5    0    0  0.12802775896E+03 -0.15917079912E+03  0.11574446023E+03  0.23478336916E+03  0.00000000000E+00 0.  1.
          4    1    6    6  502    0  0.53175927784E+02  0.93413716121E+02  0.71675480562E+02  0.12919433490E+03  0.00000000000E+00 0. -1.
         -3    1    6    6    0  502  0.45245708597E+02  0.16123869907E+03  0.23986480204E+02  0.16917577681E+03  0.00000000000E+00 0.  1.
<mgrwt>
<rscale>  0 0.48249065E+03</rscale>
<asrwt>0</asrwt>
<pdfrwt beam="1">  1        1 0.10709740E+00 0.48249065E+03</pdfrwt>
<pdfrwt beam="2">  1       -2 0.53954881E-01 0.48249065E+03</pdfrwt>
<totfact> 0.80990620E+01</totfact>
</mgrwt>
</event>
<event>
12    3  0.2422421E-007  0.1396668E+04  0.7818608E-02  0.8956234E-01
          1   -1    0    0  501    0  0.00000000000E+00  0.00000000000E+00  0.39892959396E+04  0.39892959396E+04  0.00000000000E+00 0. -1.
         -2   -1    0    0    0  501 -0.00000000000E+00 -0.00000000000E+00 -0.60103322700E+03  0.60103322700E+03  0.00000000000E+00 0.  1.
        -24    2    1    2    0    0 -0.11367540505E+04 -0.77852917421E+03  0.24699887437E+04  0.28292448821E+04  0.73924030756E+02 0.  0.
    5000000    2    1    2    0    0  0.11367540505E+04  0.77852917421E+03  0.91827396885E+03  0.17610842845E+04  0.59989443142E+03 0.  0.
        -24    2    4    4    0    0  0.10808271775E+04  0.68070247574E+03  0.97798333834E+03  0.16107575785E+04  0.80903143222E+02 0.  0.
         24    2    4    4    0    0  0.55926872985E+02  0.97826698475E+02 -0.59709369490E+02  0.15032670598E+03  0.79592912185E+02 0.  0.
         11    1    3    3    0    0 -0.94504854902E+03 -0.64414046558E+03  0.21047163472E+04  0.23953840197E+04  0.00000000000E+00 0. -1.
        -12    1    3    3    0    0 -0.19170550145E+03 -0.13438870863E+03  0.36527239651E+03  0.43386086243E+03  0.00000000000E+00 0.  1.
         13    1    5    5    0    0  0.89757446700E+03  0.53166633697E+03  0.81381819519E+03  0.13231058433E+04  0.00000000000E+00 0. -1.
        -14    1    5    5    0    0  0.18325271048E+03  0.14903613877E+03  0.16416514316E+03  0.28765173524E+03  0.00000000000E+00 0.  1.
          2    1    6    6  502    0  0.85683302188E+01 -0.13004573273E+02 -0.15434707014E+02  0.21926362884E+02  0.00000000000E+00 0. -1.
         -1    1    6    6    0  502  0.47358542766E+02  0.11083127175E+03 -0.44274662476E+02  0.12840034310E+03  0.00000000000E+00 0.  1.
<mgrwt>
<rscale>  0 0.13966684E+04</rscale>
<asrwt>0</asrwt>
<pdfrwt beam="1">  1        1 0.61373782E+00 0.13966684E+04</pdfrwt>
<pdfrwt beam="2">  1       -2 0.92466653E-01 0.13966684E+04</pdfrwt>
<totfact> 0.83945109E-02</totfact>
</mgrwt>
</event>
<event>
12    3  0.2422421E-007  0.1964192E+04  0.7818608E-02  0.8623548E-01
          1   -1    0    0  501    0  0.00000000000E+00  0.00000000000E+00  0.20071092531E+04  0.20071092531E+04  0.00000000000E+00 0. -1.
         -2   -1    0    0    0  501 -0.00000000000E+00 -0.00000000000E+00 -0.20153292160E+04  0.20153292160E+04  0.00000000000E+00 0.  1.
        -24    2    1    2    0    0 -0.15174693722E+04 -0.11810372063E+04 -0.41120567927E+03  0.19681710803E+04  0.83935167144E+02 0.  0.
    5000000    2    1    2    0    0  0.15174693722E+04  0.11810372063E+04  0.40298571640E+03  0.20542673888E+04  0.60004569749E+03 0.  0.
        -24    2    4    4    0    0  0.57121742489E+03  0.12559768573E+03  0.15676039000E+03  0.61336046061E+03  0.97842269017E+02 0.  0.
         24    2    4    4    0    0  0.94625194731E+03  0.10554395205E+04  0.24622532640E+03  0.14409069282E+04  0.78997057894E+02 0.  0.
         11    1    3    3    0    0 -0.40002103643E+03 -0.28108409579E+03 -0.76321647209E+02  0.49482329404E+03  0.00000000000E+00 0. -1.
        -12    1    3    3    0    0 -0.11174483358E+04 -0.89995311049E+03 -0.33488403206E+03  0.14733477862E+04  0.00000000000E+00 0.  1.
         13    1    5    5    0    0  0.46840632181E+03  0.12239767751E+03  0.94950879672E+02  0.49335721676E+03  0.00000000000E+00 0. -1.
        -14    1    5    5    0    0  0.10281110308E+03  0.32000082180E+01  0.61809510324E+02  0.12000324385E+03  0.00000000000E+00 0.  1.
          2    1    6    6  502    0  0.36984045136E+03  0.42946256815E+03  0.60943700776E+02  0.57002999182E+03  0.00000000000E+00 0. -1.
         -1    1    6    6    0  502  0.57641149595E+03  0.62597695240E+03  0.18528162562E+03  0.87087693642E+03  0.00000000000E+00 0.  1.
<mgrwt>
<rscale>  0 0.19641915E+04</rscale>
<asrwt>0</asrwt>
<pdfrwt beam="1">  1        1 0.30878604E+00 0.19641915E+04</pdfrwt>
<pdfrwt beam="2">  1       -2 0.31005065E+00 0.19641915E+04</pdfrwt>
<totfact> 0.63674294E-02</totfact>
</mgrwt>
</event>
<event>
12    3  0.3579266E-007  0.1099052E+04  0.7818608E-02  0.9206117E-01
         -2   -1    0    0    0  501 -0.00000000000E+00  0.00000000000E+00  0.77744444886E+03  0.77744444886E+03  0.00000000000E+00 0.  1.
          1   -1    0    0  501    0  0.00000000000E+00 -0.00000000000E+00 -0.18221221690E+04  0.18221221690E+04  0.00000000000E+00 0. -1.
        -24    2    1    2    0    0 -0.11046421791E+03  0.10529687879E+04 -0.86486244667E+03  0.13693201240E+04  0.78134105804E+02 0.  0.
    5000000    2    1    2    0    0  0.11046421791E+03 -0.10529687879E+04 -0.17981527348E+03  0.12302464939E+04  0.60018937964E+03 0.  0.
        -24    2    4    4    0    0 -0.12633234859E+03 -0.15573695020E+03  0.12704331461E+03  0.24984652639E+03  0.77906501683E+02 0.  0.
         24    2    4    4    0    0  0.23679656650E+03 -0.89723183771E+03 -0.30685858809E+03  0.98039996751E+03  0.76969595980E+02 0.  0.
         11    1    5    5    0    0 -0.11040451062E+03 -0.15704956018E+03  0.95343265792E+02  0.21434565228E+03  0.00000000000E+00 0. -1.
        -12    1    5    5    0    0 -0.15927837967E+02  0.13126099872E+01  0.31700048820E+02  0.35500874108E+02  0.00000000000E+00 0.  1.
         13    1    3    3    0    0 -0.33616566336E+02  0.47337789778E+03 -0.34199110171E+03  0.58495693968E+03  0.00000000000E+00 0. -1.
        -14    1    3    3    0    0 -0.76847651576E+02  0.57959089013E+03 -0.52287134496E+03  0.78436318428E+03  0.00000000000E+00 0.  1.
          4    1    6    6  502    0  0.64971599567E+02 -0.38988123690E+03 -0.11964010546E+03  0.41296784677E+03  0.00000000000E+00 0. -1.
         -3    1    6    6    0  502  0.17182496693E+03 -0.50735060082E+03 -0.18721848263E+03  0.56743212074E+03  0.00000000000E+00 0.  1.
<mgrwt>
<rscale>  0 0.10990516E+04</rscale>
<asrwt>0</asrwt>
<pdfrwt beam="1">  1        1 0.28032648E+00 0.10990516E+04</pdfrwt>
<pdfrwt beam="2">  1       -2 0.11960684E+00 0.10990516E+04</pdfrwt>
<totfact> 0.18309809E+00</totfact>
</mgrwt>
</event>
<event>
12    3  0.2422421E-007  0.1372899E+04  0.7818608E-02  0.8973673E-01
         -2   -1    0    0    0  501 -0.00000000000E+00  0.00000000000E+00  0.88076275883E+03  0.88076275883E+03  0.00000000000E+00 0.  1.
          1   -1    0    0  501    0  0.00000000000E+00 -0.00000000000E+00 -0.22039630476E+04  0.22039630476E+04  0.00000000000E+00 0. -1.
        -24    2    1    2    0    0 -0.11409036814E+04 -0.64539006838E+03 -0.86333993650E+03  0.15715684556E+04  0.79259157134E+02 0.  0.
    5000000    2    1    2    0    0  0.11409036814E+04  0.64539006838E+03 -0.45986035225E+03  0.15131573508E+04  0.59998672825E+03 0.  0.
        -24    2    4    4    0    0  0.41868309379E+03  0.56737955994E+03 -0.19876856083E+03  0.73711882331E+03  0.81364125024E+02 0.  0.
         24    2    4    4    0    0  0.72222058765E+03  0.78010508442E+02 -0.26109179142E+03  0.77603852751E+03  0.79866488428E+02 0.  0.
         11    1    5    5    0    0  0.26385339912E+03  0.39880532295E+03 -0.16443242023E+03  0.50567017181E+03  0.00000000000E+00 0. -1.
        -12    1    5    5    0    0  0.15482969467E+03  0.16857423699E+03 -0.34336140605E+02  0.23144865150E+03  0.00000000000E+00 0.  1.
         13    1    3    3    0    0 -0.40319624056E+03 -0.23982205970E+03 -0.35316032880E+03  0.58720017589E+03  0.00000000000E+00 0. -1.
        -14    1    3    3    0    0 -0.73770744088E+03 -0.40556800868E+03 -0.51017960770E+03  0.98436827971E+03  0.00000000000E+00 0.  1.
          2    1    6    6  502    0  0.10344451165E+03  0.26798287181E+02 -0.64267719491E+02  0.12469665174E+03  0.00000000000E+00 0. -1.
         -1    1    6    6    0  502  0.61877607601E+03  0.51212221261E+02 -0.19682407193E+03  0.65134187577E+03  0.00000000000E+00 0.  1.
<mgrwt>
<rscale>  0 0.13728989E+04</rscale>
<asrwt>0</asrwt>
<pdfrwt beam="1">  1        1 0.33907123E+00 0.13728989E+04</pdfrwt>
<pdfrwt beam="2">  1       -2 0.13550197E+00 0.13728989E+04</pdfrwt>
<totfact> 0.71325908E-01</totfact>
</mgrwt>
</event>
<event>
12    3  0.2422421E-007  0.9352822E+03  0.7818608E-02  0.9382521E-01
          1   -1    0    0  501    0  0.00000000000E+00  0.00000000000E+00  0.11023302554E+04  0.11023302554E+04  0.00000000000E+00 0. -1.
         -2   -1    0    0    0  501 -0.00000000000E+00 -0.00000000000E+00 -0.89200686581E+03  0.89200686581E+03  0.00000000000E+00 0.  1.
        -24    2    1    2    0    0 -0.75701112525E+03 -0.48016532543E+03  0.20958864836E+02  0.89898578056E+03  0.64121573157E+02 0.  0.
    5000000    2    1    2    0    0  0.75701112525E+03  0.48016532543E+03  0.18936452478E+03  0.10953513407E+04  0.60025915468E+03 0.  0.
        -24    2    4    4    0    0  0.25180441263E+03 -0.27023503556E+02  0.26103673421E+03  0.37145211635E+03  0.75503418233E+02 0.  0.
         24    2    4    4    0    0  0.50520671261E+03  0.50718882899E+03 -0.71672209435E+02  0.72389922433E+03  0.80117729960E+02 0.  0.
         11    1    5    5    0    0  0.17849154622E+03 -0.10886872753E+02  0.22714210065E+03  0.28908699376E+03  0.00000000000E+00 0. -1.
        -12    1    5    5    0    0  0.73312866408E+02 -0.16136630804E+02  0.33894633559E+02  0.82365122587E+02  0.00000000000E+00 0.  1.
         13    1    3    3    0    0 -0.43666954122E+03 -0.29495675079E+03 -0.15377839180E+02  0.52717762756E+03  0.00000000000E+00 0. -1.
        -14    1    3    3    0    0 -0.32034158403E+03 -0.18520857464E+03  0.36336704016E+02  0.37180815300E+03  0.00000000000E+00 0.  1.
          4    1    6    6  502    0  0.17603488025E+03  0.12856416445E+03 -0.35870505371E+02  0.22091563231E+03  0.00000000000E+00 0. -1.
         -3    1    6    6    0  502  0.32917183236E+03  0.37862466454E+03 -0.35801704064E+02  0.50298359201E+03  0.00000000000E+00 0.  1.
<mgrwt>
<rscale>  0 0.93528221E+03</rscale>
<asrwt>0</asrwt>
<pdfrwt beam="1">  1        1 0.16958927E+00 0.93528221E+03</pdfrwt>
<pdfrwt beam="2">  1       -2 0.13723183E+00 0.93528221E+03</pdfrwt>
<totfact> 0.42026827E+00</totfact>
</mgrwt>
</event>
<event>
12    3  0.2422421E-007  0.8015256E+03  0.7818608E-02  0.9557811E-01
          1   -1    0    0  501    0  0.00000000000E+00  0.00000000000E+00  0.18774998157E+04  0.18774998157E+04  0.00000000000E+00 0. -1.
         -2   -1    0    0    0  501 -0.00000000000E+00 -0.00000000000E+00 -0.37855437236E+03  0.37855437236E+03  0.00000000000E+00 0.  1.
        -24    2    1    2    0    0  0.49234570365E+03 -0.50878409285E+03  0.91389884473E+03  0.11589575186E+04  0.81889477938E+02 0.  0.
    5000000    2    1    2    0    0 -0.49234570365E+03  0.50878409285E+03  0.58504659865E+03  0.10970966695E+04  0.60006335874E+03 0.  0.
        -24    2    4    4    0    0 -0.30574537001E+03  0.60349262413E+03  0.53860647343E+03  0.86893753364E+03  0.85275585432E+02 0.  0.
         24    2    4    4    0    0 -0.18660033363E+03 -0.94708531286E+02  0.46440125212E+02  0.22815913582E+03  0.78169787102E+02 0.  0.
         13    1    5    5    0    0 -0.14857400979E+03  0.36515665487E+03  0.27802129773E+03  0.48239969006E+03  0.00000000000E+00 0. -1.
        -14    1    5    5    0    0 -0.15717136023E+03  0.23833596927E+03  0.26058517570E+03  0.38653784358E+03  0.00000000000E+00 0.  1.
         13    1    3    3    0    0  0.40836115600E+03 -0.45686323250E+03  0.76250333769E+03  0.97820968454E+03  0.00000000000E+00 0. -1.
        -14    1    3    3    0    0  0.83984547645E+02 -0.51920860348E+02  0.15139550704E+03  0.18074783411E+03  0.00000000000E+00 0.  1.
          2    1    6    6  502    0 -0.67795474648E+02 -0.52502790062E+02  0.54865711966E+02  0.10179889831E+03  0.00000000000E+00 0. -1.
         -1    1    6    6    0  502 -0.11880485899E+03 -0.42205741224E+02 -0.84255867532E+01  0.12636023751E+03  0.00000000000E+00 0.  1.
<mgrwt>
<rscale>  0 0.80152561E+03</rscale>
<asrwt>0</asrwt>
<pdfrwt beam="1">  1        1 0.28884612E+00 0.80152561E+03</pdfrwt>
<pdfrwt beam="2">  1       -2 0.58239136E-01 0.80152561E+03</pdfrwt>
<totfact> 0.90172302E+00</totfact>
</mgrwt>
</event>
<event>
12    3  0.2422421E-007  0.3784793E+03  0.7818608E-02  0.1051497E+00
          1   -1    0    0  501    0  0.00000000000E+00  0.00000000000E+00  0.51319442787E+03  0.51319442787E+03  0.00000000000E+00 0. -1.
         -2   -1    0    0    0  501 -0.00000000000E+00 -0.00000000000E+00 -0.56250113012E+03  0.56250113012E+03  0.00000000000E+00 0.  1.
        -24    2    1    2    0    0 -0.22171656926E+03  0.28869252981E+03 -0.14273030291E+02  0.37321480900E+03  0.81141607156E+02 0.  0.
    5000000    2    1    2    0    0  0.22171656926E+03 -0.28869252981E+03 -0.35033671963E+02  0.70248074899E+03  0.59979182278E+03 0.  0.
        -24    2    4    4    0    0  0.14138058399E+03 -0.15352629262E+03  0.26969822952E+03  0.35040965140E+03  0.80566722225E+02 0.  0.
         24    2    4    4    0    0  0.80335985273E+02 -0.13516623719E+03 -0.30473190148E+03  0.35207109759E+03  0.79804409493E+02 0.  0.
         13    1    5    5    0    0  0.84201163242E+02 -0.12702444246E+03  0.14338448254E+03  0.20924663607E+03  0.00000000000E+00 0. -1.
        -14    1    5    5    0    0  0.57179420746E+02 -0.26501850157E+02  0.12631374698E+03  0.14116301533E+03  0.00000000000E+00 0.  1.
         13    1    3    3    0    0 -0.21919631736E+03  0.24937489691E+03 -0.23171953540E+02  0.33282398379E+03  0.00000000000E+00 0. -1.
        -14    1    3    3    0    0 -0.25202519004E+01  0.39317632901E+02  0.88989232491E+01  0.40390825215E+02  0.00000000000E+00 0.  1.
          4    1    6    6  502    0  0.83218675435E+02 -0.81834982836E+02 -0.16193356067E+03  0.19961159893E+03  0.00000000000E+00 0. -1.
         -3    1    6    6    0  502 -0.28826901618E+01 -0.53331254352E+02 -0.14279834082E+03  0.15245949867E+03  0.00000000000E+00 0.  1.
<mgrwt>
<rscale>  0 0.37847930E+03</rscale>
<asrwt>0</asrwt>
<pdfrwt beam="1">  1        1 0.78952989E-01 0.37847930E+03</pdfrwt>
<pdfrwt beam="2">  1       -2 0.86538635E-01 0.37847930E+03</pdfrwt>
<totfact> 0.45615710E+01</totfact>
</mgrwt>
</event>
<event>
12    3  0.2765561E-007  0.7320591E+03  0.7818608E-02  0.9663925E-01
          1   -1    0    0  501    0  0.00000000000E+00  0.00000000000E+00  0.18184045133E+04  0.18184045133E+04  0.00000000000E+00 0. -1.
         -2   -1    0    0    0  501 -0.00000000000E+00 -0.00000000000E+00 -0.30911519860E+03  0.30911519860E+03  0.00000000000E+00 0.  1.
        -24    2    1    2    0    0 -0.27815571664E+03  0.56146207149E+03  0.65568237232E+03  0.91027585516E+03  0.77926238760E+02 0.  0.
    5000000    2    1    2    0    0  0.27815571664E+03 -0.56146207149E+03  0.85360694241E+03  0.12172438568E+04  0.60035617288E+03 0.  0.
        -24    2    4    4    0    0 -0.10762765522E+03 -0.38772701679E+03  0.57039253075E+03  0.70255474633E+03  0.79495790688E+02 0.  0.
         24    2    4    4    0    0  0.38578337186E+03 -0.17373505470E+03  0.28321441166E+03  0.51468911045E+03  0.75377703677E+02 0.  0.
         11    1    3    3    0    0 -0.89130836888E+02  0.26690202326E+03  0.29646826406E+03  0.40874738861E+03  0.00000000000E+00 0. -1.
        -12    1    3    3    0    0 -0.18902487975E+03  0.29456004824E+03  0.35921410826E+03  0.50152846655E+03  0.00000000000E+00 0.  1.
         13    1    5    5    0    0 -0.79245097552E+02 -0.22153442986E+03  0.39129616609E+03  0.45658512755E+03  0.00000000000E+00 0. -1.
        -14    1    5    5    0    0 -0.28382557665E+02 -0.16619258692E+03  0.17909636466E+03  0.24596961878E+03  0.00000000000E+00 0.  1.
          2    1    6    6  502    0  0.26591883320E+03 -0.83172262220E+02  0.16786458008E+03  0.32528290502E+03  0.00000000000E+00 0. -1.
         -1    1    6    6    0  502  0.11986453865E+03 -0.90562792485E+02  0.11534983158E+03  0.18940620543E+03  0.00000000000E+00 0.  1.
<mgrwt>
<rscale>  0 0.73205912E+03</rscale>
<asrwt>0</asrwt>
<pdfrwt beam="1">  1        1 0.27975453E+00 0.73205912E+03</pdfrwt>
<pdfrwt beam="2">  1       -2 0.47556186E-01 0.73205912E+03</pdfrwt>
<totfact> 0.15130247E+01</totfact>
</mgrwt>
</event>
<event>
12    3  0.2422421E-007  0.1097914E+04  0.7818608E-02  0.9207227E-01
          1   -1    0    0  501    0  0.00000000000E+00  0.00000000000E+00  0.15582284722E+04  0.15582284722E+04  0.00000000000E+00 0. -1.
         -2   -1    0    0    0  501 -0.00000000000E+00 -0.00000000000E+00 -0.92350101000E+03  0.92350101000E+03  0.00000000000E+00 0.  1.
        -24    2    1    2    0    0 -0.74393039581E+03 -0.72915508817E+03  0.73186453926E+03  0.12757373435E+04  0.82343727282E+02 0.  0.
    5000000    2    1    2    0    0  0.74393039581E+03  0.72915508817E+03 -0.97137077112E+02  0.12059921386E+04  0.59990153380E+03 0.  0.
        -24    2    4    4    0    0  0.79760186195E+03  0.61905563084E+03  0.29830628463E+02  0.10123841790E+04  0.68068019472E+02 0.  0.
         24    2    4    4    0    0 -0.53671466144E+02  0.11009945733E+03 -0.12696770557E+03  0.19360795960E+03  0.79754165908E+02 0.  0.
         11    1    3    3    0    0 -0.18455804395E+03 -0.17028297528E+03  0.21956134361E+03  0.33356430694E+03  0.00000000000E+00 0. -1.
        -12    1    3    3    0    0 -0.55937235186E+03 -0.55887211289E+03  0.51230319565E+03  0.94217303659E+03  0.00000000000E+00 0.  1.
         11    1    5    5    0    0  0.53617401636E+03  0.44009751825E+03 -0.48376927559E+01  0.69367990071E+03  0.00000000000E+00 0. -1.
        -12    1    5    5    0    0  0.26142784560E+03  0.17895811259E+03  0.34668321219E+02  0.31870427831E+03  0.00000000000E+00 0.  1.
          2    1    6    6  502    0 -0.58980503614E+02  0.11919501413E+03 -0.12571190306E+03  0.18300173161E+03  0.00000000000E+00 0. -1.
         -1    1    6    6    0  502  0.53090374700E+01 -0.90955567980E+01 -0.12558025122E+01  0.10606227995E+02  0.00000000000E+00 0.  1.
<mgrwt>
<rscale>  0 0.10979144E+04</rscale>
<asrwt>0</asrwt>
<pdfrwt beam="1">  1        1 0.23972746E+00 0.10979144E+04</pdfrwt>
<pdfrwt beam="2">  1       -2 0.14207708E+00 0.10979144E+04</pdfrwt>
<totfact> 0.17848261E+00</totfact>
</mgrwt>
</event>
<event>
12    3  0.2422421E-007  0.4704464E+03  0.7818608E-02  0.1021794E+00
         -2   -1    0    0    0  501 -0.00000000000E+00  0.00000000000E+00  0.42036929241E+03  0.42036929241E+03  0.00000000000E+00 0.  1.
          1   -1    0    0  501    0  0.00000000000E+00 -0.00000000000E+00 -0.78496094465E+03  0.78496094465E+03  0.00000000000E+00 0. -1.
        -24    2    1    2    0    0 -0.37469992009E+03 -0.14776913216E+03 -0.28598804446E+02  0.40886046211E+03  0.64134540800E+02 0.  0.
    5000000    2    1    2    0    0  0.37469992009E+03  0.14776913216E+03 -0.33599284780E+03  0.79646977496E+03  0.59936396464E+03 0.  0.
        -24    2    4    4    0    0  0.17691793851E+03  0.23877776679E+03  0.80410459488E+02  0.31728628101E+03  0.76746095942E+02 0.  0.
         24    2    4    4    0    0  0.19778198158E+03 -0.91008634627E+02 -0.41640330729E+03  0.47918349394E+03  0.93940527650E+02 0.  0.
         13    1    5    5    0    0  0.12205304626E+03  0.10603443614E+03  0.26338309072E+02  0.16381072698E+03  0.00000000000E+00 0. -1.
        -14    1    5    5    0    0  0.54864892245E+02  0.13274333065E+03  0.54072150416E+02  0.15347555403E+03  0.00000000000E+00 0.  1.
         13    1    3    3    0    0 -0.32235065439E+03 -0.12576929304E+03 -0.16854435380E+01  0.34602124238E+03  0.00000000000E+00 0. -1.
        -14    1    3    3    0    0 -0.52349265698E+02 -0.21999839120E+02 -0.26913360908E+02  0.62839219726E+02  0.00000000000E+00 0.  1.
          4    1    6    6  502    0  0.14907742632E+03 -0.25651095819E+02 -0.22471617423E+03  0.27088635387E+03  0.00000000000E+00 0. -1.
         -3    1    6    6    0  502  0.48704555263E+02 -0.65357538808E+02 -0.19168713306E+03  0.20829714007E+03  0.00000000000E+00 0.  1.
<mgrwt>
<rscale>  0 0.47044641E+03</rscale>
<asrwt>0</asrwt>
<pdfrwt beam="1">  1        1 0.12076322E+00 0.47044641E+03</pdfrwt>
<pdfrwt beam="2">  1       -2 0.64672200E-01 0.47044641E+03</pdfrwt>
<totfact> 0.46241336E+01</totfact>
</mgrwt>
</event>
<event>
12    3  0.2422421E-007  0.1027103E+04  0.7818608E-02  0.9279309E-01
          1   -1    0    0  501    0  0.00000000000E+00  0.00000000000E+00  0.77188180756E+03  0.77188180756E+03  0.00000000000E+00 0. -1.
         -2   -1    0    0    0  501 -0.00000000000E+00 -0.00000000000E+00 -0.14942882307E+04  0.14942882307E+04  0.00000000000E+00 0.  1.
        -24    2    1    2    0    0  0.15264062208E+03 -0.96828011296E+03 -0.46743033864E+03  0.10889252520E+04  0.80009663659E+02 0.  0.
    5000000    2    1    2    0    0 -0.15264062208E+03  0.96828011296E+03 -0.25497608454E+03  0.11772447863E+04  0.60002245504E+03 0.  0.
        -24    2    4    4    0    0  0.11034187021E+03  0.58265550839E+03  0.70439756484E+02  0.60263360515E+03  0.80887162038E+02 0.  0.
         24    2    4    4    0    0 -0.26298249229E+03  0.38562460457E+03 -0.32541584102E+03  0.57461118116E+03  0.80102515752E+02 0.  0.
         11    1    5    5    0    0  0.57414516334E+02  0.13010307839E+03  0.47682243840E+01  0.14228834687E+03  0.00000000000E+00 0. -1.
        -12    1    5    5    0    0  0.52927353875E+02  0.45255243001E+03  0.65671532100E+02  0.46034525828E+03  0.00000000000E+00 0.  1.
         13    1    3    3    0    0  0.87615557554E+02 -0.31425486072E+03 -0.15705525689E+03  0.36207589968E+03  0.00000000000E+00 0. -1.
        -14    1    3    3    0    0  0.65025064524E+02 -0.65402525224E+03 -0.31037508175E+03  0.72684935231E+03  0.00000000000E+00 0.  1.
          4    1    6    6  502    0 -0.27591212831E+02  0.95409800248E+01 -0.12886444786E+02  0.31911843954E+02  0.00000000000E+00 0. -1.
         -3    1    6    6    0  502 -0.23539127946E+03  0.37608362454E+03 -0.31252939624E+03  0.54269933721E+03  0.00000000000E+00 0.  1.
<mgrwt>
<rscale>  0 0.10271025E+04</rscale>
<asrwt>0</asrwt>
<pdfrwt beam="1">  1        1 0.11875105E+00 0.10271025E+04</pdfrwt>
<pdfrwt beam="2">  1       -2 0.22989050E+00 0.10271025E+04</pdfrwt>
<totfact> 0.17501234E+00</totfact>
</mgrwt>
</event>
<event>
12    3  0.2422421E-007  0.5845572E+03  0.7818608E-02  0.9937973E-01
          1   -1    0    0  501    0  0.00000000000E+00  0.00000000000E+00  0.59258533440E+03  0.59258533440E+03  0.00000000000E+00 0. -1.
         -2   -1    0    0    0  501 -0.00000000000E+00 -0.00000000000E+00 -0.71989973208E+03  0.71989973208E+03  0.00000000000E+00 0.  1.
        -24    2    1    2    0    0  0.33609509748E+03  0.37272763388E+03 -0.15117550512E+03  0.52989116038E+03  0.77748343328E+02 0.  0.
    5000000    2    1    2    0    0 -0.33609509748E+03 -0.37272763388E+03  0.23861107447E+02  0.78259390610E+03  0.59999838817E+03 0.  0.
        -24    2    4    4    0    0 -0.20149691599E+03  0.43613606624E+02  0.20518948471E+03  0.30212209297E+03  0.81681580482E+02 0.  0.
         24    2    4    4    0    0 -0.13459818149E+03 -0.41634124051E+03 -0.18132837726E+03  0.48047181313E+03  0.80724740975E+02 0.  0.
         11    1    5    5    0    0 -0.70403061585E+02  0.49909033943E+02  0.11088480364E+03  0.14050958127E+03  0.00000000000E+00 0. -1.
        -12    1    5    5    0    0 -0.13109385440E+03 -0.62954273197E+01  0.94304681070E+02  0.16161251170E+03  0.00000000000E+00 0.  1.
         13    1    3    3    0    0  0.27581769314E+03  0.25647976018E+03 -0.11987389321E+03  0.39525563564E+03  0.00000000000E+00 0. -1.
        -14    1    3    3    0    0  0.60277404342E+02  0.11624787370E+03 -0.31301611914E+02  0.13463552474E+03  0.00000000000E+00 0.  1.
          4    1    6    6  502    0 -0.13623796933E+03 -0.32207360220E+03 -0.15549232234E+03  0.38271406014E+03  0.00000000000E+00 0. -1.
         -3    1    6    6    0  502  0.16397878389E+01 -0.94267638305E+02 -0.25836054918E+02  0.97757752989E+02  0.00000000000E+00 0.  1.
<mgrwt>
<rscale>  0 0.58455724E+03</rscale>
<asrwt>0</asrwt>
<pdfrwt beam="1">  1        1 0.91166974E-01 0.58455724E+03</pdfrwt>
<pdfrwt beam="2">  1       -2 0.11075381E+00 0.58455724E+03</pdfrwt>
<totfact> 0.20438420E+01</totfact>
</mgrwt>
</event>
<event>
12    3  0.2422421E-007  0.4545905E+03  0.7818608E-02  0.1026362E+00
         -2   -1    0    0    0  501 -0.00000000000E+00  0.00000000000E+00  0.17629059227E+03  0.17629059227E+03  0.00000000000E+00 0.  1.
          1   -1    0    0  501    0  0.00000000000E+00 -0.00000000000E+00 -0.12510229212E+04  0.12510229212E+04  0.00000000000E+00 0. -1.
        -24    2    1    2    0    0  0.19302675507E+03 -0.18879345944E+03 -0.32222946714E+03  0.42778200966E+03  0.79141138476E+02 0.  0.
    5000000    2    1    2    0    0 -0.19302675507E+03  0.18879345944E+03 -0.75250286175E+03  0.99953150377E+03  0.59991697057E+03 0.  0.
        -24    2    4    4    0    0 -0.40648328751E+02 -0.20534276130E+03 -0.20901109162E+03  0.30643138192E+03  0.79978866924E+02 0.  0.
         24    2    4    4    0    0 -0.15237842632E+03  0.39413622074E+03 -0.54349177013E+03  0.69310012185E+03  0.80261630946E+02 0.  0.
         13    1    5    5    0    0 -0.24562956285E+02 -0.79922960387E+02 -0.33407307943E+02  0.90039250566E+02  0.00000000000E+00 0. -1.
        -14    1    5    5    0    0 -0.16085372466E+02 -0.12541980091E+03 -0.17560378368E+03  0.21639213135E+03  0.00000000000E+00 0.  1.
         13    1    3    3    0    0  0.11607234029E+03 -0.11181366387E+03 -0.24894974589E+03  0.29656543897E+03  0.00000000000E+00 0. -1.
        -14    1    3    3    0    0  0.76954414774E+02 -0.76979795569E+02 -0.73279721242E+02  0.13121657069E+03  0.00000000000E+00 0.  1.
          2    1    6    6  502    0 -0.86980435892E+02  0.12597895834E+03 -0.17145702092E+03  0.22985605103E+03  0.00000000000E+00 0. -1.
         -1    1    6    6    0  502 -0.65397990425E+02  0.26815726240E+03 -0.37203474920E+03  0.46324407081E+03  0.00000000000E+00 0.  1.
<mgrwt>
<rscale>  0 0.45459053E+03</rscale>
<asrwt>0</asrwt>
<pdfrwt beam="1">  1        1 0.19246506E+00 0.45459053E+03</pdfrwt>
<pdfrwt beam="2">  1       -2 0.27121630E-01 0.45459053E+03</pdfrwt>
<totfact> 0.11163022E+02</totfact>
</mgrwt>
</event>
<event>
12    3  0.2422421E-007  0.5635425E+03  0.7818608E-02  0.9984071E-01
          1   -1    0    0  501    0  0.00000000000E+00  0.00000000000E+00  0.20583557869E+04  0.20583557869E+04  0.00000000000E+00 0. -1.
         -2   -1    0    0    0  501 -0.00000000000E+00 -0.00000000000E+00 -0.24846952504E+03  0.24846952504E+03  0.00000000000E+00 0.  1.
        -24    2    1    2    0    0 -0.36236411628E+03 -0.36427071973E+03  0.29374728057E+03  0.59729509623E+03  0.80455311293E+02 0.  0.
    5000000    2    1    2    0    0  0.36236411628E+03  0.36427071973E+03  0.15161389813E+04  0.17095302157E+04  0.59984601176E+03 0.  0.
        -24    2    4    4    0    0  0.40160802813E+03  0.30223835426E+03  0.59719214067E+03  0.78414155738E+03  0.74849836957E+02 0.  0.
         24    2    4    4    0    0 -0.39243911845E+02  0.62032365477E+02  0.91894684060E+03  0.92538865832E+03  0.80577751948E+02 0.  0.
         11    1    5    5    0    0  0.37422779299E+03  0.26021631102E+03  0.55792331103E+03  0.72044249635E+03  0.00000000000E+00 0. -1.
        -12    1    5    5    0    0  0.27380235134E+02  0.42022043237E+02  0.39268829646E+02  0.63699061026E+02  0.00000000000E+00 0.  1.
         13    1    3    3    0    0 -0.18251054780E+03 -0.22378263129E+03  0.13163728440E+03  0.31735963948E+03  0.00000000000E+00 0. -1.
        -14    1    3    3    0    0 -0.17985356848E+03 -0.14048808845E+03  0.16210999617E+03  0.27993545675E+03  0.00000000000E+00 0.  1.
          2    1    6    6  502    0  0.21460603205E+02  0.25317970350E+02  0.43567593568E+03  0.43693830005E+03  0.00000000000E+00 0. -1.
         -1    1    6    6    0  502 -0.60704515050E+02  0.36714395127E+02  0.48327090492E+03  0.48845035828E+03  0.00000000000E+00 0.  1.
<mgrwt>
<rscale>  0 0.56354246E+03</rscale>
<asrwt>0</asrwt>
<pdfrwt beam="1">  1        1 0.31667011E+00 0.56354246E+03</pdfrwt>
<pdfrwt beam="2">  1       -2 0.38226082E-01 0.56354246E+03</pdfrwt>
<totfact> 0.16541619E+01</totfact>
</mgrwt>
</event>
<event>
12    3  0.2422421E-007  0.5271781E+03  0.7818608E-02  0.1006919E+00
         -2   -1    0    0    0  501 -0.00000000000E+00  0.00000000000E+00  0.26575421882E+03  0.26575421882E+03  0.00000000000E+00 0.  1.
          1   -1    0    0  501    0  0.00000000000E+00 -0.00000000000E+00 -0.20896913274E+04  0.20896913274E+04  0.00000000000E+00 0. -1.
        -24    2    1    2    0    0 -0.23343793010E+03  0.46719059916E+03 -0.23529317706E+03  0.57878570387E+03  0.82883585069E+02 0.  0.
    5000000    2    1    2    0    0  0.23343793010E+03 -0.46719059916E+03 -0.15886439315E+04  0.17766598423E+04  0.59997527541E+03 0.  0.
        -24    2    4    4    0    0  0.14293092599E+03 -0.22677892853E+03 -0.15978290529E+03  0.32271940702E+03  0.82215003605E+02 0.  0.
         24    2    4    4    0    0  0.90507004113E+02 -0.24041167063E+03 -0.14288610262E+04  0.14539404353E+04  0.79433418860E+02 0.  0.
         11    1    5    5    0    0  0.35880807535E+02 -0.73607330417E+02 -0.85761388028E+01  0.82334814005E+02  0.00000000000E+00 0. -1.
        -12    1    5    5    0    0  0.10705011845E+03 -0.15317159811E+03 -0.15120676649E+03  0.24038459302E+03  0.00000000000E+00 0.  1.
         13    1    3    3    0    0 -0.11210131077E+03  0.13771036069E+03 -0.84845567386E+02  0.19679841875E+03  0.00000000000E+00 0. -1.
        -14    1    3    3    0    0 -0.12133661933E+03  0.32948023847E+03 -0.15044760967E+03  0.38198728512E+03  0.00000000000E+00 0.  1.
          2    1    6    6  502    0  0.68564372077E+02 -0.18690863567E+03 -0.89055275563E+03  0.91253499755E+03  0.00000000000E+00 0. -1.
         -1    1    6    6    0  502  0.21942632036E+02 -0.53503034958E+02 -0.53830827058E+03  0.54140543775E+03  0.00000000000E+00 0.  1.
<mgrwt>
<rscale>  0 0.52717814E+03</rscale>
<asrwt>0</asrwt>
<pdfrwt beam="1">  1        1 0.32149097E+00 0.52717814E+03</pdfrwt>
<pdfrwt beam="2">  1       -2 0.40885265E-01 0.52717814E+03</pdfrwt>
<totfact> 0.13942514E+01</totfact>
</mgrwt>
</event>
<event>
12    3  0.3120946E-007  0.1054368E+04  0.7818608E-02  0.9250846E-01
         -2   -1    0    0    0  501 -0.00000000000E+00  0.00000000000E+00  0.74886825381E+03  0.74886825381E+03  0.00000000000E+00 0.  1.
          1   -1    0    0  501    0  0.00000000000E+00 -0.00000000000E+00 -0.16807285778E+04  0.16807285778E+04  0.00000000000E+00 0. -1.
        -24    2    1    2    0    0  0.13243695771E+03 -0.10278111301E+04 -0.33761936722E+03  0.10927991358E+04  0.79295946961E+02 0.  0.
    5000000    2    1    2    0    0 -0.13243695771E+03  0.10278111301E+04 -0.59424095678E+03  0.13367976958E+04  0.59997541442E+03 0.  0.
        -24    2    4    4    0    0 -0.19017842252E+03  0.53023058789E+03 -0.60353573409E+03  0.82955203714E+03  0.81171985832E+02 0.  0.
         24    2    4    4    0    0  0.57741464810E+02  0.49758054221E+03  0.92947773106E+01  0.50724565867E+03  0.79317668981E+02 0.  0.
         11    1    5    5    0    0 -0.13891085892E+03  0.28769410080E+03 -0.37187291790E+03  0.49025869644E+03  0.00000000000E+00 0. -1.
        -12    1    5    5    0    0 -0.51267563600E+02  0.24253648708E+03 -0.23166281618E+03  0.33929334071E+03  0.00000000000E+00 0.  1.
         13    1    3    3    0    0  0.12427205301E+03 -0.79887537786E+03 -0.28924152480E+03  0.85866528530E+03  0.00000000000E+00 0. -1.
        -14    1    3    3    0    0  0.81649046928E+01 -0.22893575224E+03 -0.48377842421E+02  0.23413385052E+03  0.00000000000E+00 0.  1.
          2    1    6    6  502    0  0.13641136643E+02  0.33693420801E+03  0.33650495939E+02  0.33888507936E+03  0.00000000000E+00 0. -1.
         -1    1    6    6    0  502  0.44100328167E+02  0.16064633420E+03 -0.24355718629E+02  0.16836057931E+03  0.00000000000E+00 0.  1.
<mgrwt>
<rscale>  0 0.10543675E+04</rscale>
<asrwt>0</asrwt>
<pdfrwt beam="1">  1        1 0.25857362E+00 0.10543675E+04</pdfrwt>
<pdfrwt beam="2">  1       -2 0.11521050E+00 0.10543675E+04</pdfrwt>
<totfact> 0.25174070E+00</totfact>
</mgrwt>
</event>
<event>
12    3  0.2422421E-007  0.6171916E+03  0.7818608E-02  0.9870367E-01
         -2   -1    0    0    0  501 -0.00000000000E+00  0.00000000000E+00  0.52207097748E+03  0.52207097748E+03  0.00000000000E+00 0.  1.
          1   -1    0    0  501    0  0.00000000000E+00 -0.00000000000E+00 -0.90817266259E+03  0.90817266259E+03  0.00000000000E+00 0. -1.
        -24    2    1    2    0    0 -0.11532902214E+03  0.48643804111E+03 -0.40593463270E+03  0.64904270147E+03  0.80936710550E+02 0.  0.
    5000000    2    1    2    0    0  0.11532902214E+03 -0.48643804111E+03  0.19832947596E+02  0.78120093861E+03  0.59996567359E+03 0.  0.
        -24    2    4    4    0    0  0.27183802750E+03 -0.70214181195E+02  0.12229470831E+03  0.31694330299E+03  0.81676907360E+02 0.  0.
         24    2    4    4    0    0 -0.15650900535E+03 -0.41622385991E+03 -0.10246176071E+03  0.46425763562E+03  0.85436347672E+02 0.  0.
         11    1    3    3    0    0 -0.69148861854E+02  0.19015230042E+03 -0.12311467610E+03  0.23684738952E+03  0.00000000000E+00 0. -1.
        -12    1    3    3    0    0 -0.46180160286E+02  0.29628574069E+03 -0.28281995660E+03  0.41219531195E+03  0.00000000000E+00 0.  1.
         13    1    5    5    0    0  0.11249506377E+03 -0.26178035800E+01  0.15570907816E+02  0.11359773518E+03  0.00000000000E+00 0. -1.
        -14    1    5    5    0    0  0.15934296373E+03 -0.67596377615E+02  0.10672380049E+03  0.20334556781E+03  0.00000000000E+00 0.  1.
          4    1    6    6  502    0  0.22337112450E+01 -0.13629280359E+02 -0.19053473863E+02  0.23532564996E+02  0.00000000000E+00 0. -1.
         -3    1    6    6    0  502 -0.15874271660E+03 -0.40259457955E+03 -0.83408286849E+02  0.44072507062E+03  0.00000000000E+00 0.  1.
<mgrwt>
<rscale>  0 0.61719159E+03</rscale>
<asrwt>0</asrwt>
<pdfrwt beam="1">  1        1 0.13971887E+00 0.61719159E+03</pdfrwt>
<pdfrwt beam="2">  1       -2 0.80318613E-01 0.61719159E+03</pdfrwt>
<totfact> 0.22316475E+01</totfact>
</mgrwt>
</event>
<event>
12    3  0.2422421E-007  0.9117484E+03  0.7818608E-02  0.9411013E-01
          1   -1    0    0  501    0  0.00000000000E+00  0.00000000000E+00  0.56406887227E+03  0.56406887227E+03  0.00000000000E+00 0. -1.
         -2   -1    0    0    0  501 -0.00000000000E+00 -0.00000000000E+00 -0.19373823102E+04  0.19373823102E+04  0.00000000000E+00 0.  1.
        -24    2    1    2    0    0 -0.32213636758E+02  0.82076776076E+03 -0.42364213733E+02  0.82636831865E+03  0.79952710833E+02 0.  0.
    5000000    2    1    2    0    0  0.32213636758E+02 -0.82076776076E+03 -0.13309492242E+04  0.16750828638E+04  0.59981607827E+03 0.  0.
        -24    2    4    4    0    0  0.21408352537E+03 -0.82162791318E+02 -0.22663600769E+03  0.33187199615E+03  0.78693466940E+02 0.  0.
         24    2    4    4    0    0 -0.18186988861E+03 -0.73860496944E+03 -0.11043132165E+04  0.13432108676E+04  0.78062779671E+02 0.  0.
         13    1    5    5    0    0  0.75243699619E+02 -0.52227059421E+01 -0.35335142560E+02  0.83291435871E+02  0.00000000000E+00 0. -1.
        -14    1    5    5    0    0  0.13883982575E+03 -0.76940085376E+02 -0.19130086513E+03  0.24858056028E+03  0.00000000000E+00 0.  1.
         13    1    3    3    0    0  0.25212010004E+02  0.18608562307E+03 -0.16270374631E+01  0.18779284282E+03  0.00000000000E+00 0. -1.
        -14    1    3    3    0    0 -0.57425646762E+02  0.63468213769E+03 -0.40737176270E+02  0.63857547583E+03  0.00000000000E+00 0.  1.
          2    1    6    6  502    0 -0.73718141348E+02 -0.16722467679E+03 -0.28249950349E+03  0.33645865476E+03  0.00000000000E+00 0. -1.
         -1    1    6    6    0  502 -0.10815174726E+03 -0.57138029265E+03 -0.82181371301E+03  0.10067522129E+04  0.00000000000E+00 0.  1.
<mgrwt>
<rscale>  0 0.91174843E+03</rscale>
<asrwt>0</asrwt>
<pdfrwt beam="1">  1        1 0.86779826E-01 0.91174843E+03</pdfrwt>
<pdfrwt beam="2">  1       -2 0.29805882E+00 0.91174843E+03</pdfrwt>
<totfact> 0.10934684E+00</totfact>
</mgrwt>
</event>
<event>
12    3  0.2422421E-007  0.6014402E+03  0.7818608E-02  0.9902423E-01
          1   -1    0    0  501    0  0.00000000000E+00  0.00000000000E+00  0.14679136826E+04  0.14679136826E+04  0.00000000000E+00 0. -1.
         -2   -1    0    0    0  501 -0.00000000000E+00 -0.00000000000E+00 -0.69445839799E+03  0.69445839799E+03  0.00000000000E+00 0.  1.
        -24    2    1    2    0    0  0.31570795832E+03 -0.42846965895E+03 -0.44849894155E+03  0.70069404329E+03  0.81012826998E+02 0.  0.
    5000000    2    1    2    0    0 -0.31570795832E+03  0.42846965895E+03  0.12219542262E+04  0.14616780374E+04  0.60006065557E+03 0.  0.
        -24    2    4    4    0    0 -0.35180723340E+03  0.48133408119E+03  0.67113458461E+03  0.90139694507E+03  0.81510703137E+02 0.  0.
         24    2    4    4    0    0  0.36099275086E+02 -0.52864422232E+02  0.55081964159E+03  0.56028109229E+03  0.80092571541E+02 0.  0.
         11    1    3    3    0    0  0.24140935494E+03 -0.27933445110E+03 -0.33970115711E+03  0.50170019770E+03  0.00000000000E+00 0. -1.
        -12    1    3    3    0    0  0.74298603379E+02 -0.14913520785E+03 -0.10879778444E+03  0.19899384559E+03  0.00000000000E+00 0.  1.
         13    1    5    5    0    0 -0.16813501948E+03  0.20323206847E+03  0.24128463877E+03  0.35747858025E+03  0.00000000000E+00 0. -1.
        -14    1    5    5    0    0 -0.18367221392E+03  0.27810201271E+03  0.42984994585E+03  0.54391836482E+03  0.00000000000E+00 0.  1.
          2    1    6    6  502    0  0.29554843329E+02 -0.55566917010E+02  0.20625962422E+03  0.21564833320E+03  0.00000000000E+00 0. -1.
         -1    1    6    6    0  502  0.65444317570E+01  0.27024947778E+01  0.34456001737E+03  0.34463275908E+03  0.00000000000E+00 0.  1.
<mgrwt>
<rscale>  0 0.60144020E+03</rscale>
<asrwt>0</asrwt>
<pdfrwt beam="1">  1        1 0.22583287E+00 0.60144020E+03</pdfrwt>
<pdfrwt beam="2">  1       -2 0.10683975E+00 0.60144020E+03</pdfrwt>
<totfact> 0.45093631E+00</totfact>
</mgrwt>
</event>
<event>
12    3  0.2422421E-007  0.1299195E+04  0.7818608E-02  0.9030204E-01
          1   -1    0    0  501    0  0.00000000000E+00  0.00000000000E+00  0.93983217958E+03  0.93983217958E+03  0.00000000000E+00 0. -1.
         -2   -1    0    0    0  501 -0.00000000000E+00 -0.00000000000E+00 -0.18731781617E+04  0.18731781617E+04  0.00000000000E+00 0.  1.
        -24    2    1    2    0    0 -0.10782252442E+04  0.64476296494E+03 -0.50574378778E+03  0.13566013652E+04  0.79382157745E+02 0.  0.
    5000000    2    1    2    0    0  0.10782252442E+04 -0.64476296494E+03 -0.42760219433E+03  0.14564089761E+04  0.59999542577E+03 0.  0.
        -24    2    4    4    0    0  0.23132165470E+03 -0.37889744083E+03 -0.33158109444E+03  0.56003676095E+03  0.81376733948E+02 0.  0.
         24    2    4    4    0    0  0.84690358947E+03 -0.26586552411E+03 -0.96021099887E+02  0.89637221515E+03  0.79579706553E+02 0.  0.
         11    1    3    3    0    0 -0.89816733633E+03  0.50157110556E+03 -0.41001037213E+03  0.11074234255E+04  0.00000000000E+00 0. -1.
        -12    1    3    3    0    0 -0.18005790784E+03  0.14319185938E+03 -0.95733415647E+02  0.24917793971E+03  0.00000000000E+00 0.  1.
         11    1    5    5    0    0  0.11686556051E+03 -0.26595782643E+03 -0.21641377292E+03  0.36225135719E+03  0.00000000000E+00 0. -1.
        -12    1    5    5    0    0  0.11445609418E+03 -0.11293961440E+03 -0.11516732151E+03  0.19778540376E+03  0.00000000000E+00 0.  1.
          4    1    6    6  502    0  0.80264994562E+03 -0.25976894628E+03 -0.74894954342E+02  0.84695696162E+03  0.00000000000E+00 0. -1.
         -3    1    6    6    0  502  0.44253643855E+02 -0.60965778310E+01 -0.21126145545E+02  0.49415253529E+02  0.00000000000E+00 0.  1.
<mgrwt>
<rscale>  0 0.12991945E+04</rscale>
<asrwt>0</asrwt>
<pdfrwt beam="1">  1        1 0.14458957E+00 0.12991945E+04</pdfrwt>
<pdfrwt beam="2">  1       -2 0.28818125E+00 0.12991945E+04</pdfrwt>
<totfact> 0.53875716E-01</totfact>
</mgrwt>
</event>
<event>
12    3  0.2422421E-007  0.4429762E+03  0.7818608E-02  0.1029838E+00
          1   -1    0    0  501    0  0.00000000000E+00  0.00000000000E+00  0.97744896927E+03  0.97744896927E+03  0.00000000000E+00 0. -1.
         -2   -1    0    0    0  501 -0.00000000000E+00 -0.00000000000E+00 -0.52849337611E+03  0.52849337611E+03  0.00000000000E+00 0.  1.
        -24    2    1    2    0    0  0.37419729893E+03  0.21578269929E+03  0.60755985312E+03  0.74970751024E+03  0.79665450097E+02 0.  0.
    5000000    2    1    2    0    0 -0.37419729893E+03 -0.21578269929E+03 -0.15860425996E+03  0.75623483514E+03  0.60012500594E+03 0.  0.
        -24    2    4    4    0    0 -0.15711693718E+03 -0.59161133575E+02 -0.36499437398E+03  0.40951313322E+03  0.79336886563E+02 0.  0.
         24    2    4    4    0    0 -0.21708036176E+03 -0.15662156572E+03  0.20639011402E+03  0.34672170192E+03  0.77232513278E+02 0.  0.
         13    1    3    3    0    0  0.11906631255E+03  0.11285718580E+03  0.23379013231E+03  0.28560699770E+03  0.00000000000E+00 0. -1.
        -14    1    3    3    0    0  0.25513098638E+03  0.10292551350E+03  0.37376972081E+03  0.46410051253E+03  0.00000000000E+00 0.  1.
         13    1    5    5    0    0 -0.56952234453E+02 -0.40239499444E+02 -0.23010132226E+03  0.24043583932E+03  0.00000000000E+00 0. -1.
        -14    1    5    5    0    0 -0.10016470273E+03 -0.18921634131E+02 -0.13489305173E+03  0.16907729390E+03  0.00000000000E+00 0.  1.
          4    1    6    6  502    0  0.36630174135E+01 -0.85817664369E+01  0.20066409737E+02  0.22129735911E+02  0.00000000000E+00 0. -1.
         -3    1    6    6    0  502 -0.22074337917E+03 -0.14803979928E+03  0.18632370428E+03  0.32459196601E+03  0.00000000000E+00 0.  1.
<mgrwt>
<rscale>  0 0.44297617E+03</rscale>
<asrwt>0</asrwt>
<pdfrwt beam="1">  1        1 0.15037676E+00 0.44297617E+03</pdfrwt>
<pdfrwt beam="2">  1       -2 0.81306673E-01 0.44297617E+03</pdfrwt>
<totfact> 0.19648383E+01</totfact>
</mgrwt>
</event>
<event>
12    3  0.2422421E-007  0.5068685E+03  0.7818608E-02  0.1012002E+00
          1   -1    0    0  501    0  0.00000000000E+00  0.00000000000E+00  0.70324815107E+03  0.70324815107E+03  0.00000000000E+00 0. -1.
         -2   -1    0    0    0  501 -0.00000000000E+00 -0.00000000000E+00 -0.54757660183E+03  0.54757660183E+03  0.00000000000E+00 0.  1.
        -24    2    1    2    0    0 -0.38570956404E+03  0.21557378807E+03 -0.10409584544E+03  0.46199804781E+03  0.85803993183E+02 0.  0.
    5000000    2    1    2    0    0  0.38570956404E+03 -0.21557378807E+03  0.25976739468E+03  0.78882670509E+03  0.59960365694E+03 0.  0.
        -24    2    4    4    0    0  0.60827329221E+02  0.79654750582E+02 -0.13995230197E+03  0.18986514615E+03  0.80107949813E+02 0.  0.
         24    2    4    4    0    0  0.32488223482E+03 -0.29522853865E+03  0.39971969665E+03  0.59896155894E+03  0.79188109323E+02 0.  0.
         11    1    5    5    0    0  0.74631770572E+01  0.67244957937E+02 -0.48458047312E+02  0.83221185579E+02  0.00000000000E+00 0. -1.
        -12    1    5    5    0    0  0.53364152163E+02  0.12409792644E+02 -0.91494254661E+02  0.10664396057E+03  0.00000000000E+00 0.  1.
         13    1    3    3    0    0 -0.22229294243E+03  0.85784085686E+02 -0.82708769416E+02  0.25221776731E+03  0.00000000000E+00 0. -1.
        -14    1    3    3    0    0 -0.16341662162E+03  0.12978970238E+03 -0.21387076028E+02  0.20978028050E+03  0.00000000000E+00 0.  1.
          4    1    6    6  502    0  0.16118177498E+03 -0.19249729408E+03  0.25184494750E+03  0.35561306275E+03  0.00000000000E+00 0. -1.
         -3    1    6    6    0  502  0.16370045984E+03 -0.10273124457E+03  0.14787474915E+03  0.24334849619E+03  0.00000000000E+00 0.  1.
<mgrwt>
<rscale>  0 0.50686845E+03</rscale>
<asrwt>0</asrwt>
<pdfrwt beam="1">  1        1 0.10819202E+00 0.50686845E+03</pdfrwt>
<pdfrwt beam="2">  1       -2 0.84242554E-01 0.50686845E+03</pdfrwt>
<totfact> 0.30470328E+01</totfact>
</mgrwt>
</event>
<event>
12    3  0.2422421E-007  0.1377462E+04  0.7818608E-02  0.8970296E-01
         -2   -1    0    0    0  501 -0.00000000000E+00  0.00000000000E+00  0.39097205365E+04  0.39097205365E+04  0.00000000000E+00 0.  1.
          1   -1    0    0  501    0  0.00000000000E+00 -0.00000000000E+00 -0.49548356027E+03  0.49548356027E+03  0.00000000000E+00 0. -1.
        -24    2    1    2    0    0 -0.41956140908E+03 -0.12492299173E+04  0.13975025613E+04  0.19224563013E+04  0.78852135189E+02 0.  0.
    5000000    2    1    2    0    0  0.41956140908E+03  0.12492299173E+04  0.20167344149E+04  0.24827477954E+04  0.60017643512E+03 0.  0.
        -24    2    4    4    0    0 -0.13046918371E+03  0.19028389161E+03  0.44823629586E+03  0.51046200547E+03  0.80159308879E+02 0.  0.
         24    2    4    4    0    0  0.55003059279E+03  0.10589460257E+04  0.15684981190E+04  0.19722857900E+04  0.76318736599E+02 0.  0.
         11    1    5    5    0    0 -0.97702367042E+02  0.18439076424E+03  0.35935286329E+03  0.41554805597E+03  0.00000000000E+00 0. -1.
        -12    1    5    5    0    0 -0.32766816673E+02  0.58931273626E+01  0.88883432570E+02  0.94913949504E+02  0.00000000000E+00 0.  1.
         13    1    3    3    0    0 -0.13213685261E+03 -0.43631461788E+03  0.53488569211E+03  0.70280388247E+03  0.00000000000E+00 0. -1.
        -14    1    3    3    0    0 -0.28742455647E+03 -0.81291529943E+03  0.86261686920E+03  0.12196524188E+04  0.00000000000E+00 0.  1.
          4    1    6    6  502    0  0.50662545885E+03  0.10060538749E+04  0.14952156089E+04  0.18720265682E+04  0.00000000000E+00 0. -1.
         -3    1    6    6    0  502  0.43405133946E+02  0.52892150780E+02  0.73282510137E+02  0.10025922181E+03  0.00000000000E+00 0.  1.
<mgrwt>
<rscale>  0 0.13774618E+04</rscale>
<asrwt>0</asrwt>
<pdfrwt beam="1">  1        1 0.76228243E-01 0.13774618E+04</pdfrwt>
<pdfrwt beam="2">  1       -2 0.60149545E+00 0.13774618E+04</pdfrwt>
<totfact> 0.18533511E-02</totfact>
</mgrwt>
</event>
<event>
12    3  0.2422421E-007  0.7271319E+03  0.7818608E-02  0.9671926E-01
         -2   -1    0    0    0  501 -0.00000000000E+00  0.00000000000E+00  0.10757689878E+04  0.10757689878E+04  0.00000000000E+00 0.  1.
          1   -1    0    0  501    0  0.00000000000E+00 -0.00000000000E+00 -0.94892714934E+03  0.94892714934E+03  0.00000000000E+00 0. -1.
        -24    2    1    2    0    0 -0.66570897910E+03 -0.23500489425E+03  0.64822238230E+03  0.96162543209E+03  0.78329238249E+02 0.  0.
    5000000    2    1    2    0    0  0.66570897910E+03  0.23500489425E+03 -0.52138054384E+03  0.10630707050E+04  0.59990491518E+03 0.  0.
        -24    2    4    4    0    0  0.51257355606E+02  0.83910302999E+02 -0.39110167687E+03  0.41091090772E+03  0.78860617452E+02 0.  0.
         24    2    4    4    0    0  0.61445162349E+03  0.15109459126E+03 -0.13027886697E+03  0.65215979732E+03  0.89215721412E+02 0.  0.
         13    1    5    5    0    0  0.60324491187E+02  0.47226282210E+02 -0.33227733240E+03  0.34099500230E+03  0.00000000000E+00 0. -1.
        -14    1    5    5    0    0 -0.90671355811E+01  0.36684020789E+02 -0.58824344469E+02  0.69915905423E+02  0.00000000000E+00 0.  1.
         13    1    3    3    0    0 -0.13617623078E+03 -0.56803104219E+02  0.17932922228E+03  0.23222732062E+03  0.00000000000E+00 0. -1.
        -14    1    3    3    0    0 -0.52953274832E+03 -0.17820179004E+03  0.46889316002E+03  0.72939811148E+03  0.00000000000E+00 0.  1.
          2    1    6    6  502    0  0.44493097673E+03  0.12438098564E+03 -0.13221555669E+03  0.48053632233E+03  0.00000000000E+00 0. -1.
         -1    1    6    6    0  502  0.16952064676E+03  0.26713605612E+02  0.19366897176E+01  0.17162347499E+03  0.00000000000E+00 0.  1.
<mgrwt>
<rscale>  0 0.72713186E+03</rscale>
<asrwt>0</asrwt>
<pdfrwt beam="1">  1        1 0.14598879E+00 0.72713186E+03</pdfrwt>
<pdfrwt beam="2">  1       -2 0.16550292E+00 0.72713186E+03</pdfrwt>
<totfact> 0.34423142E+00</totfact>
</mgrwt>
</event>
<event>
12    3  0.2422421E-007  0.5838355E+03  0.7818608E-02  0.9939522E-01
         -2   -1    0    0    0  501 -0.00000000000E+00  0.00000000000E+00  0.77021628567E+03  0.77021628567E+03  0.00000000000E+00 0.  1.
          1   -1    0    0  501    0  0.00000000000E+00 -0.00000000000E+00 -0.83058839795E+03  0.83058839795E+03  0.00000000000E+00 0. -1.
        -24    2    1    2    0    0 -0.15044887018E+02 -0.44142190133E+03  0.49742298645E+03  0.67009518051E+03  0.80735864984E+02 0.  0.
    5000000    2    1    2    0    0  0.15044887018E+02  0.44142190133E+03 -0.55779509874E+03  0.93070950311E+03  0.60000430283E+03 0.  0.
        -24    2    4    4    0    0  0.28359220204E+03  0.27507542030E+03 -0.40339874320E+03  0.57013748057E+03  0.78963135853E+02 0.  0.
         24    2    4    4    0    0 -0.26854731502E+03  0.16634648103E+03 -0.15439635554E+03  0.36057202255E+03  0.79907050280E+02 0.  0.
         11    1    3    3    0    0  0.25949931230E+02 -0.31418675493E+03  0.35443978053E+03  0.47435669482E+03  0.00000000000E+00 0. -1.
        -12    1    3    3    0    0 -0.40994818248E+02 -0.12723514640E+03  0.14298320593E+03  0.19573848569E+03  0.00000000000E+00 0.  1.
         13    1    5    5    0    0  0.17997376631E+03  0.22362210178E+03 -0.28023705044E+03  0.40116107164E+03  0.00000000000E+00 0. -1.
        -14    1    5    5    0    0  0.10361843573E+03  0.51453318522E+02 -0.12316169276E+03  0.16897640892E+03  0.00000000000E+00 0.  1.
          4    1    6    6  502    0 -0.49098174411E+02  0.26762014476E+02  0.39883568575E+01  0.56060174275E+02  0.00000000000E+00 0. -1.
         -3    1    6    6    0  502 -0.21944914061E+03  0.13958446655E+03 -0.15838471240E+03  0.30451184827E+03  0.00000000000E+00 0.  1.
<mgrwt>
<rscale>  0 0.58383549E+03</rscale>
<asrwt>0</asrwt>
<pdfrwt beam="1">  1        1 0.12778283E+00 0.58383549E+03</pdfrwt>
<pdfrwt beam="2">  1       -2 0.11849481E+00 0.58383549E+03</pdfrwt>
<totfact> 0.10426791E+01</totfact>
</mgrwt>
</event>
<event>
12    3  0.2422421E-007  0.2550621E+03  0.7818608E-02  0.1110147E+00
         -2   -1    0    0    0  501 -0.00000000000E+00  0.00000000000E+00  0.14373062220E+03  0.14373062220E+03  0.00000000000E+00 0.  1.
          1   -1    0    0  501    0  0.00000000000E+00 -0.00000000000E+00 -0.82922254553E+03  0.82922254553E+03  0.00000000000E+00 0. -1.
        -24    2    1    2    0    0 -0.74871920905E+01  0.33359233667E+01 -0.14490975851E+03  0.16500357990E+03  0.78486666625E+02 0.  0.
    5000000    2    1    2    0    0  0.74871920905E+01 -0.33359233667E+01 -0.54058216482E+03  0.80794958783E+03  0.60040509086E+03 0.  0.
        -24    2    4    4    0    0  0.23816850413E+03  0.40617361304E+01 -0.44459101223E+02  0.25407807658E+03  0.76408921315E+02 0.  0.
         24    2    4    4    0    0 -0.23068131204E+03 -0.73976594971E+01 -0.49612306360E+03  0.55387151125E+03  0.85831018004E+02 0.  0.
         11    1    3    3    0    0  0.95997851457E+01  0.13328399435E+02 -0.14426676826E+03  0.14519883791E+03  0.00000000000E+00 0. -1.
        -12    1    3    3    0    0 -0.17086977236E+02 -0.99924760685E+01 -0.64299025769E+00  0.19804741996E+02  0.00000000000E+00 0.  1.
         13    1    5    5    0    0  0.94899981377E+02 -0.17206577411E+02  0.14818000477E+02  0.97578921442E+02  0.00000000000E+00 0. -1.
        -14    1    5    5    0    0  0.14326852276E+03  0.21268313542E+02 -0.59277101700E+02  0.15649915514E+03  0.00000000000E+00 0.  1.
          4    1    6    6  502    0 -0.13101667627E+03  0.10196049679E+02 -0.18665372974E+03  0.22827383493E+03  0.00000000000E+00 0. -1.
         -3    1    6    6    0  502 -0.99664635777E+02 -0.17593709176E+02 -0.30946933385E+03  0.32559767632E+03  0.00000000000E+00 0.  1.
<mgrwt>
<rscale>  0 0.25506211E+03</rscale>
<asrwt>0</asrwt>
<pdfrwt beam="1">  1        1 0.12757270E+00 0.25506211E+03</pdfrwt>
<pdfrwt beam="2">  1       -2 0.22112403E-01 0.25506211E+03</pdfrwt>
<totfact> 0.34062799E+02</totfact>
</mgrwt>
</event>
<event>
12    3  0.2422421E-007  0.9589788E+03  0.7818608E-02  0.9354717E-01
         -4   -1    0    0    0  501 -0.00000000000E+00  0.00000000000E+00  0.69044740716E+03  0.69044740716E+03  0.00000000000E+00 0.  1.
          3   -1    0    0  501    0  0.00000000000E+00 -0.00000000000E+00 -0.16236299815E+04  0.16236299815E+04  0.00000000000E+00 0. -1.
        -24    2    1    2    0    0 -0.73252466214E+03 -0.60813707050E+03 -0.64351820351E+03  0.11520620606E+04  0.81903821465E+02 0.  0.
    5000000    2    1    2    0    0  0.73252466214E+03  0.60813707050E+03 -0.28966437087E+03  0.11620153281E+04  0.59995924687E+03 0.  0.
        -24    2    4    4    0    0  0.27997975079E+03  0.28196273628E+03 -0.41988694207E+03  0.58353289046E+03  0.79460333689E+02 0.  0.
         24    2    4    4    0    0  0.45254491136E+03  0.32617433422E+03  0.13022257120E+03  0.57848243767E+03  0.80606572619E+02 0.  0.
         11    1    5    5    0    0  0.15787199396E+03  0.11592041716E+03 -0.16778008789E+03  0.25789778495E+03  0.00000000000E+00 0. -1.
        -12    1    5    5    0    0  0.12210775683E+03  0.16604231912E+03 -0.25210685418E+03  0.32563510551E+03  0.00000000000E+00 0.  1.
         11    1    3    3    0    0 -0.62225173544E+03 -0.50369551931E+03 -0.50525568635E+03  0.94667296731E+03  0.00000000000E+00 0. -1.
        -12    1    3    3    0    0 -0.11027292670E+03 -0.10444155119E+03 -0.13826251715E+03  0.20538909325E+03  0.00000000000E+00 0.  1.
          4    1    6    6  502    0  0.35636544446E+03  0.21360470523E+03  0.91376856179E+02  0.42540924995E+03  0.00000000000E+00 0. -1.
         -3    1    6    6    0  502  0.96179466897E+02  0.11256962899E+03  0.38845715022E+02  0.15307318772E+03  0.00000000000E+00 0.  1.
<mgrwt>
<rscale>  0 0.95897884E+03</rscale>
<asrwt>0</asrwt>
<pdfrwt beam="1">  1        3 0.24978923E+00 0.95897884E+03</pdfrwt>
<pdfrwt beam="2">  1       -4 0.10622268E+00 0.95897884E+03</pdfrwt>
<totfact> 0.11793684E-01</totfact>
</mgrwt>
</event>
<event>
12    3  0.2422421E-007  0.4523301E+03  0.7818608E-02  0.1027029E+00
         -2   -1    0    0    0  501 -0.00000000000E+00  0.00000000000E+00  0.17599306172E+03  0.17599306172E+03  0.00000000000E+00 0.  1.
          1   -1    0    0  501    0  0.00000000000E+00 -0.00000000000E+00 -0.15947433140E+04  0.15947433140E+04  0.00000000000E+00 0. -1.
        -24    2    1    2    0    0 -0.19254648468E+03 -0.28595190555E+03 -0.34819500984E+03  0.49599792933E+03  0.77016491513E+02 0.  0.
    5000000    2    1    2    0    0  0.19254648468E+03  0.28595190555E+03 -0.10705552424E+04  0.12747384463E+04  0.60002244835E+03 0.  0.
        -24    2    4    4    0    0  0.16139462178E+03 -0.80295550884E+02 -0.60636647161E+02  0.19710554969E+03  0.51751283161E+02 0.  0.
         24    2    4    4    0    0  0.31151862900E+02  0.36624745643E+03 -0.10099185952E+04  0.10776328967E+04  0.79053482201E+02 0.  0.
         11    1    3    3    0    0 -0.12216331191E+03 -0.22852534603E+03 -0.22668942831E+03  0.34429029243E+03  0.00000000000E+00 0. -1.
        -12    1    3    3    0    0 -0.70383172775E+02 -0.57426559514E+02 -0.12150558154E+03  0.15170763689E+03  0.00000000000E+00 0.  1.
         11    1    5    5    0    0  0.19486279680E+02 -0.46429077085E+01  0.88764158959E+01  0.21910327403E+02  0.00000000000E+00 0. -1.
        -12    1    5    5    0    0  0.14190834210E+03 -0.75652643176E+02 -0.69513063057E+02  0.17519522229E+03  0.00000000000E+00 0.  1.
          4    1    6    6  502    0  0.52209376283E+02  0.22114158603E+03 -0.55667666530E+03  0.60126394348E+03  0.00000000000E+00 0. -1.
         -3    1    6    6    0  502 -0.21057513384E+02  0.14510587040E+03 -0.45324192993E+03  0.47636895317E+03  0.00000000000E+00 0.  1.
<mgrwt>
<rscale>  0 0.45233012E+03</rscale>
<asrwt>0</asrwt>
<pdfrwt beam="1">  1        1 0.24534513E+00 0.45233012E+03</pdfrwt>
<pdfrwt beam="2">  1       -2 0.27075855E-01 0.45233012E+03</pdfrwt>
<totfact> 0.65223978E+01</totfact>
</mgrwt>
</event>
<event>
12    3  0.2422421E-007  0.4598426E+03  0.7818608E-02  0.1024827E+00
          1   -1    0    0  501    0  0.00000000000E+00  0.00000000000E+00  0.18924055776E+04  0.18924055776E+04  0.00000000000E+00 0. -1.
         -2   -1    0    0    0  501 -0.00000000000E+00 -0.00000000000E+00 -0.19450053225E+03  0.19450053225E+03  0.00000000000E+00 0.  1.
        -24    2    1    2    0    0  0.44955846861E+02  0.41166161434E+03  0.32535728047E+03  0.53272901623E+03  0.80352547530E+02 0.  0.
    5000000    2    1    2    0    0 -0.44955846861E+02 -0.41166161434E+03  0.13725477648E+04  0.15541770936E+04  0.60007729379E+03 0.  0.
        -24    2    4    4    0    0 -0.83774734202E+02 -0.40235131326E+03  0.40505024105E+03  0.58239738808E+03  0.78843100479E+02 0.  0.
         24    2    4    4    0    0  0.38818887341E+02 -0.93103010744E+01  0.96749752379E+03  0.97177970549E+03  0.81919165897E+02 0.  0.
         13    1    5    5    0    0 -0.85439501864E+02 -0.22062140030E+03  0.23677576782E+03  0.33471850110E+03  0.00000000000E+00 0. -1.
        -14    1    5    5    0    0  0.16647676623E+01 -0.18172991296E+03  0.16827447322E+03  0.24767888698E+03  0.00000000000E+00 0.  1.
         13    1    3    3    0    0  0.40177716681E+01  0.10947505496E+03  0.44797694110E+02  0.11835439808E+03  0.00000000000E+00 0. -1.
        -14    1    3    3    0    0  0.40938075193E+02  0.30218655938E+03  0.28055958636E+03  0.41437461815E+03  0.00000000000E+00 0.  1.
          2    1    6    6  502    0  0.42730352112E+02  0.26867820292E+02  0.40990480736E+03  0.41300086423E+03  0.00000000000E+00 0. -1.
         -1    1    6    6    0  502 -0.39114647712E+01 -0.36178121367E+02  0.55759271644E+03  0.55877884126E+03  0.00000000000E+00 0.  1.
<mgrwt>
<rscale>  0 0.45984260E+03</rscale>
<asrwt>0</asrwt>
<pdfrwt beam="1">  1        1 0.29113931E+00 0.45984260E+03</pdfrwt>
<pdfrwt beam="2">  1       -2 0.29923160E-01 0.45984260E+03</pdfrwt>
<totfact> 0.34452142E+01</totfact>
</mgrwt>
</event>
<event>
12    3  0.2422421E-007  0.2116382E+03  0.7818608E-02  0.1140275E+00
         -2   -1    0    0    0  501 -0.00000000000E+00  0.00000000000E+00  0.22561271052E+03  0.22561271052E+03  0.00000000000E+00 0.  1.
          1   -1    0    0  501    0  0.00000000000E+00 -0.00000000000E+00 -0.10399288131E+04  0.10399288131E+04  0.00000000000E+00 0. -1.
        -24    2    1    2    0    0 -0.14908808139E+03  0.97048052619E+02  0.46078872622E+02  0.20160540503E+03  0.82921024516E+02 0.  0.
    5000000    2    1    2    0    0  0.14908808139E+03 -0.97048052619E+02 -0.86039497522E+03  0.10639361186E+04  0.60002914142E+03 0.  0.
        -24    2    4    4    0    0  0.11233217517E+03 -0.40356850078E+02 -0.92186134979E+03  0.93294147334E+03  0.79399316898E+02 0.  0.
         24    2    4    4    0    0  0.36755906213E+02 -0.56691202541E+02  0.61466374562E+02  0.13099464527E+03  0.93896713464E+02 0.  0.
         13    1    3    3    0    0 -0.64010103795E+02  0.23307108455E+02 -0.20078941777E+02  0.71018860841E+02  0.00000000000E+00 0. -1.
        -14    1    3    3    0    0 -0.85077977593E+02  0.73740944164E+02  0.66157814398E+02  0.13058654419E+03  0.00000000000E+00 0.  1.
         13    1    5    5    0    0  0.60532068838E+02 -0.44259651670E+02 -0.74050376953E+03  0.74429085767E+03  0.00000000000E+00 0. -1.
        -14    1    5    5    0    0  0.51800106336E+02  0.39028015921E+01 -0.18135758025E+03  0.18865061567E+03  0.00000000000E+00 0.  1.
          2    1    6    6  502    0  0.22791508624E+02 -0.82878653821E+02  0.47273908568E+02  0.98097637871E+02  0.00000000000E+00 0. -1.
         -1    1    6    6    0  502  0.13964397589E+02  0.26187451279E+02  0.14192465994E+02  0.32897007395E+02  0.00000000000E+00 0.  1.
<mgrwt>
<rscale>  0 0.21163817E+03</rscale>
<asrwt>0</asrwt>
<pdfrwt beam="1">  1        1 0.15998905E+00 0.21163817E+03</pdfrwt>
<pdfrwt beam="2">  1       -2 0.34709648E-01 0.21163817E+03</pdfrwt>
<totfact> 0.10498198E+02</totfact>
</mgrwt>
</event>
<event>
12    3  0.2422421E-007  0.1437767E+04  0.7818608E-02  0.8926926E-01
         -2   -1    0    0    0  501 -0.00000000000E+00  0.00000000000E+00  0.16970644914E+04  0.16970644914E+04  0.00000000000E+00 0.  1.
          1   -1    0    0  501    0  0.00000000000E+00 -0.00000000000E+00 -0.13268897705E+04  0.13268897705E+04  0.00000000000E+00 0. -1.
        -24    2    1    2    0    0 -0.11624119463E+04  0.81706963507E+03 -0.55051329742E+02  0.14240740673E+04  0.78434551797E+02 0.  0.
    5000000    2    1    2    0    0  0.11624119463E+04 -0.81706963507E+03  0.42522605068E+03  0.15998801945E+04  0.59999593436E+03 0.  0.
        -24    2    4    4    0    0  0.55507049105E+03 -0.55873291601E+03 -0.34328577753E+02  0.79162130787E+03  0.72111873905E+02 0.  0.
         24    2    4    4    0    0  0.60734145524E+03 -0.25833671906E+03  0.45955462843E+03  0.80825888666E+03  0.80563438917E+02 0.  0.
         11    1    3    3    0    0 -0.80796682825E+03  0.57122437621E+03 -0.23049473495E+01  0.98950138773E+03  0.00000000000E+00 0. -1.
        -12    1    3    3    0    0 -0.35444511804E+03  0.24584525886E+03 -0.52746382393E+02  0.43457267960E+03  0.00000000000E+00 0.  1.
         13    1    5    5    0    0  0.49725117856E+03 -0.52542465237E+03 -0.21901547966E+02  0.72374683260E+03  0.00000000000E+00 0. -1.
        -14    1    5    5    0    0  0.57819312494E+02 -0.33308263633E+02 -0.12427029787E+02  0.67874475268E+02  0.00000000000E+00 0.  1.
          4    1    6    6  502    0  0.52159515302E+03 -0.24990606519E+03  0.39074605944E+03  0.69799500574E+03  0.00000000000E+00 0. -1.
         -3    1    6    6    0  502  0.85746302219E+02 -0.84306538676E+01  0.68808568994E+02  0.11026388092E+03  0.00000000000E+00 0.  1.
<mgrwt>
<rscale>  0 0.14377665E+04</rscale>
<asrwt>0</asrwt>
<pdfrwt beam="1">  1        1 0.20413689E+00 0.14377665E+04</pdfrwt>
<pdfrwt beam="2">  1       -2 0.26108684E+00 0.14377665E+04</pdfrwt>
<totfact> 0.39611114E-01</totfact>
</mgrwt>
</event>
<event>
12    3  0.2422421E-007  0.1311157E+04  0.7818608E-02  0.9020764E-01
         -2   -1    0    0    0  501 -0.00000000000E+00  0.00000000000E+00  0.20276405949E+04  0.20276405949E+04  0.00000000000E+00 0.  1.
          1   -1    0    0  501    0  0.00000000000E+00 -0.00000000000E+00 -0.89553932116E+03  0.89553932116E+03  0.00000000000E+00 0. -1.
        -24    2    1    2    0    0  0.31088458451E+03 -0.12396450857E+04  0.60286215621E+03  0.14154005013E+04  0.80911285756E+02 0.  0.
    5000000    2    1    2    0    0 -0.31088458451E+03  0.12396450857E+04  0.52923911751E+03  0.15077794148E+04  0.59994629477E+03 0.  0.
        -24    2    4    4    0    0 -0.16268421184E+03  0.11272914803E+04  0.60402659740E+03  0.12912460422E+04  0.72221719238E+02 0.  0.
         24    2    4    4    0    0 -0.14820037267E+03  0.11235360540E+03 -0.74787479897E+02  0.21653337256E+03  0.81895367237E+02 0.  0.
         11    1    3    3    0    0  0.79824022023E+02 -0.20663525400E+03  0.12002485811E+03  0.25194437730E+03  0.00000000000E+00 0. -1.
        -12    1    3    3    0    0  0.23106056249E+03 -0.10330098317E+04  0.48283729810E+03  0.11634561240E+04  0.00000000000E+00 0.  1.
         11    1    5    5    0    0 -0.86084826345E+02  0.44238427033E+03  0.27021600827E+03  0.52548180853E+03  0.00000000000E+00 0. -1.
        -12    1    5    5    0    0 -0.76599385499E+02  0.68490721000E+03  0.33381058913E+03  0.76576423368E+03  0.00000000000E+00 0.  1.
          2    1    6    6  502    0 -0.13620458305E+03  0.60252619798E+02 -0.63404448609E+02  0.16187090764E+03  0.00000000000E+00 0. -1.
         -1    1    6    6    0  502 -0.11995789620E+02  0.52100985605E+02 -0.11383031287E+02  0.54662464918E+02  0.00000000000E+00 0.  1.
<mgrwt>
<rscale>  0 0.13111567E+04</rscale>
<asrwt>0</asrwt>
<pdfrwt beam="1">  1        1 0.13777528E+00 0.13111567E+04</pdfrwt>
<pdfrwt beam="2">  1       -2 0.31194471E+00 0.13111567E+04</pdfrwt>
<totfact> 0.41897742E-01</totfact>
</mgrwt>
</event>
<event>
12    3  0.2422421E-007  0.4593980E+03  0.7818608E-02  0.1024956E+00
         -2   -1    0    0    0  501 -0.00000000000E+00  0.00000000000E+00  0.44785413571E+03  0.44785413571E+03  0.00000000000E+00 0.  1.
          1   -1    0    0  501    0  0.00000000000E+00 -0.00000000000E+00 -0.12875101228E+04  0.12875101228E+04  0.00000000000E+00 0. -1.
        -24    2    1    2    0    0 -0.38979320035E+03  0.15776033937E+03 -0.90359948669E+03  0.99987766399E+03  0.80226223130E+02 0.  0.
    5000000    2    1    2    0    0  0.38979320035E+03 -0.15776033937E+03  0.63943499610E+02  0.73548659451E+03  0.60002057951E+03 0.  0.
        -24    2    4    4    0    0 -0.12228292138E+01 -0.80639469817E+02 -0.21406678514E+03  0.24301893180E+03  0.82032879445E+02 0.  0.
         24    2    4    4    0    0  0.39101602956E+03 -0.77120869556E+02  0.27801028475E+03  0.49246766270E+03  0.79959467768E+02 0.  0.
         11    1    5    5    0    0  0.20271257215E+02 -0.25745724974E+02 -0.15902455895E+03  0.16236556462E+03  0.00000000000E+00 0. -1.
        -12    1    5    5    0    0 -0.21494086429E+02 -0.54893744843E+02 -0.55042226185E+02  0.80653367182E+02  0.00000000000E+00 0.  1.
         13    1    3    3    0    0 -0.32113352281E+03  0.10119028680E+03 -0.75516166966E+03  0.82682244826E+03  0.00000000000E+00 0. -1.
        -14    1    3    3    0    0 -0.68659677541E+02  0.56570052569E+02 -0.14843781703E+03  0.17305521573E+03  0.00000000000E+00 0.  1.
          4    1    6    6  502    0  0.15076630068E+03 -0.61104277739E+01  0.67749768817E+02  0.16540207352E+03  0.00000000000E+00 0. -1.
         -3    1    6    6    0  502  0.24024972888E+03 -0.71010441782E+02  0.21026051593E+03  0.32706558919E+03  0.00000000000E+00 0.  1.
<mgrwt>
<rscale>  0 0.45939802E+03</rscale>
<asrwt>0</asrwt>
<pdfrwt beam="1">  1        1 0.19807848E+00 0.45939802E+03</pdfrwt>
<pdfrwt beam="2">  1       -2 0.68900637E-01 0.45939802E+03</pdfrwt>
<totfact> 0.16744877E+01</totfact>
</mgrwt>
</event>
<event>
12    3  0.2422421E-007  0.6753272E+03  0.7818608E-02  0.9760382E-01
         -2   -1    0    0    0  501 -0.00000000000E+00  0.00000000000E+00  0.22104672027E+04  0.22104672027E+04  0.00000000000E+00 0.  1.
          1   -1    0    0  501    0  0.00000000000E+00 -0.00000000000E+00 -0.30478839927E+03  0.30478839927E+03  0.00000000000E+00 0. -1.
        -24    2    1    2    0    0  0.17819126469E+03 -0.61160375012E+03  0.13039282148E+04  0.14533805018E+04  0.79213759443E+02 0.  0.
    5000000    2    1    2    0    0 -0.17819126469E+03  0.61160375012E+03  0.60175058861E+03  0.10618751001E+04  0.59971967072E+03 0.  0.
        -24    2    4    4    0    0 -0.36744309792E+02 -0.11780234450E+02 -0.85525275588E+02  0.11969446646E+03  0.74318734597E+02 0.  0.
         24    2    4    4    0    0 -0.14144695490E+03  0.62338398457E+03  0.68727586419E+03  0.94218063368E+03  0.82106027279E+02 0.  0.
         13    1    5    5    0    0 -0.32874685825E+02 -0.36481084683E+02 -0.26974420331E+02  0.56028866310E+02  0.00000000000E+00 0. -1.
        -14    1    5    5    0    0 -0.38696239666E+01  0.24700850232E+02 -0.58550855257E+02  0.63665600155E+02  0.00000000000E+00 0.  1.
         13    1    3    3    0    0  0.15424689818E+03 -0.50750462926E+03  0.10131294828E+04  0.11435840167E+04  0.00000000000E+00 0. -1.
        -14    1    3    3    0    0  0.23944366513E+02 -0.10409912086E+03  0.29079873198E+03  0.30979648509E+03  0.00000000000E+00 0.  1.
          4    1    6    6  502    0 -0.26659684352E+02  0.13501995173E+03  0.20028528537E+03  0.24301300720E+03  0.00000000000E+00 0. -1.
         -3    1    6    6    0  502 -0.11478727055E+03  0.48836403284E+03  0.48699057882E+03  0.69916762648E+03  0.00000000000E+00 0.  1.
<mgrwt>
<rscale>  0 0.67532724E+03</rscale>
<asrwt>0</asrwt>
<pdfrwt beam="1">  1        1 0.46890524E-01 0.67532724E+03</pdfrwt>
<pdfrwt beam="2">  1       -2 0.34007187E+00 0.67532724E+03</pdfrwt>
<totfact> 0.14395521E+00</totfact>
</mgrwt>
</event>
<event>
12    3  0.2422421E-007  0.1112851E+04  0.7818608E-02  0.9192756E-01
          1   -1    0    0  501    0  0.00000000000E+00  0.00000000000E+00  0.23587515090E+04  0.23587515090E+04  0.00000000000E+00 0. -1.
         -2   -1    0    0    0  501 -0.00000000000E+00 -0.00000000000E+00 -0.57552302045E+03  0.57552302045E+03  0.00000000000E+00 0.  1.
        -24    2    1    2    0    0  0.30104919587E+03 -0.10379518034E+04  0.97252077734E+03  0.14560721614E+04  0.79843048391E+02 0.  0.
    5000000    2    1    2    0    0 -0.30104919587E+03  0.10379518034E+04  0.81070771122E+03  0.14782023680E+04  0.59988389152E+03 0.  0.
        -24    2    4    4    0    0 -0.32861675975E+03  0.10003734970E+04  0.53199146860E+03  0.11846266427E+04  0.10765338698E+03 0.  0.
         24    2    4    4    0    0  0.27567563872E+02  0.37578306415E+02  0.27871624262E+03  0.29357572531E+03  0.79573003578E+02 0.  0.
         11    1    3    3    0    0  0.28649802409E+03 -0.89286049296E+03  0.84994579158E+03  0.12655784552E+04  0.00000000000E+00 0. -1.
        -12    1    3    3    0    0  0.14551171780E+02 -0.14509131045E+03  0.12257498576E+03  0.19049370620E+03  0.00000000000E+00 0.  1.
         13    1    5    5    0    0 -0.10461756386E+03  0.20353663344E+03  0.14487726531E+03  0.27085312962E+03  0.00000000000E+00 0. -1.
        -14    1    5    5    0    0 -0.22399919588E+03  0.79683686355E+03  0.38711420329E+03  0.91377351311E+03  0.00000000000E+00 0.  1.
          4    1    6    6  502    0 -0.19885865382E+02  0.32212325296E+02  0.17970669901E+03  0.18365069892E+03  0.00000000000E+00 0. -1.
         -3    1    6    6    0  502  0.47453429254E+02  0.53659811188E+01  0.99009543607E+02  0.10992502639E+03  0.00000000000E+00 0.  1.
<mgrwt>
<rscale>  0 0.11128514E+04</rscale>
<asrwt>0</asrwt>
<pdfrwt beam="1">  1        1 0.36288484E+00 0.11128514E+04</pdfrwt>
<pdfrwt beam="2">  1       -2 0.88542004E-01 0.11128514E+04</pdfrwt>
<totfact> 0.16290084E+00</totfact>
</mgrwt>
</event>
<event>
12    3  0.2422421E-007  0.1732999E+03  0.7818608E-02  0.1174450E+00
         -2   -1    0    0    0  501 -0.00000000000E+00  0.00000000000E+00  0.84087956251E+02  0.84087956251E+02  0.00000000000E+00 0.  1.
          1   -1    0    0  501    0  0.00000000000E+00 -0.00000000000E+00 -0.17169925023E+04  0.17169925023E+04  0.00000000000E+00 0. -1.
        -24    2    1    2    0    0 -0.51815924791E+02  0.10838382073E+03 -0.40211409209E+03  0.42674588764E+03  0.77358689863E+02 0.  0.
    5000000    2    1    2    0    0  0.51815924791E+02 -0.10838382073E+03 -0.12307904540E+04  0.13743345709E+04  0.59959855621E+03 0.  0.
        -24    2    4    4    0    0 -0.42257592065E+02 -0.68540422121E+02  0.21697965219E+02  0.11519600528E+03  0.79472161079E+02 0.  0.
         24    2    4    4    0    0  0.94073516856E+02 -0.39843398608E+02 -0.12524884192E+04  0.12591385656E+04  0.79154054274E+02 0.  0.
         11    1    5    5    0    0 -0.56503141898E+02 -0.48454014133E+02 -0.99503068661E+01  0.75095972840E+02  0.00000000000E+00 0. -1.
        -12    1    5    5    0    0  0.14245549834E+02 -0.20086407988E+02  0.31648272085E+02  0.40100032442E+02  0.00000000000E+00 0.  1.
         13    1    3    3    0    0 -0.23605281296E+01  0.54459648626E+02 -0.27256199018E+03  0.27795946451E+03  0.00000000000E+00 0. -1.
        -14    1    3    3    0    0 -0.49455396661E+02  0.53924172103E+02 -0.12955210191E+03  0.14878642313E+03  0.00000000000E+00 0.  1.
          2    1    6    6  502    0  0.73885975621E+02 -0.57040327346E+02 -0.11280754764E+04  0.11319306590E+04  0.00000000000E+00 0. -1.
         -1    1    6    6    0  502  0.20187541234E+02  0.17196928738E+02 -0.12441294284E+03  0.12720790669E+03  0.00000000000E+00 0.  1.
<mgrwt>
<rscale>  0 0.17329988E+03</rscale>
<asrwt>0</asrwt>
<pdfrwt beam="1">  1        1 0.26415268E+00 0.17329988E+03</pdfrwt>
<pdfrwt beam="2">  1       -2 0.12936609E-01 0.17329988E+03</pdfrwt>
<totfact> 0.20371849E+02</totfact>
</mgrwt>
</event>
<event>
12    3  0.2422421E-007  0.7346865E+03  0.7818608E-02  0.9659686E-01
         -2   -1    0    0    0  501 -0.00000000000E+00  0.00000000000E+00  0.17432047531E+04  0.17432047531E+04  0.00000000000E+00 0.  1.
          1   -1    0    0  501    0  0.00000000000E+00 -0.00000000000E+00 -0.60623224520E+03  0.60623224520E+03  0.00000000000E+00 0. -1.
        -24    2    1    2    0    0 -0.54680024858E+03  0.31558488290E+03 -0.27257692322E+03  0.69228434937E+03  0.79844293182E+02 0.  0.
    5000000    2    1    2    0    0  0.54680024858E+03 -0.31558488290E+03  0.14095494311E+04  0.16571526489E+04  0.60061716003E+03 0.  0.
        -24    2    4    4    0    0 -0.62345061776E+02 -0.20186676580E+03  0.23054806415E+03  0.32285337199E+03  0.80279462229E+02 0.  0.
         24    2    4    4    0    0  0.60914531035E+03 -0.11371811710E+03  0.11790013669E+04  0.13342992769E+04  0.79501684653E+02 0.  0.
         13    1    3    3    0    0 -0.21096690210E+03  0.93350550190E+02 -0.67511899665E+02  0.24037307586E+03  0.00000000000E+00 0. -1.
        -14    1    3    3    0    0 -0.33583334648E+03  0.22223433271E+03 -0.20506502355E+03  0.45191127351E+03  0.00000000000E+00 0.  1.
         13    1    5    5    0    0 -0.32096255372E+02 -0.10586712590E+03  0.17730580709E+03  0.20898652393E+03  0.00000000000E+00 0. -1.
        -14    1    5    5    0    0 -0.30248806404E+02 -0.95999639898E+02  0.53242257062E+02  0.11386684806E+03  0.00000000000E+00 0.  1.
          2    1    6    6  502    0  0.31251273387E+03 -0.98501802411E+02  0.62740575945E+03  0.70781692612E+03  0.00000000000E+00 0. -1.
         -3    1    6    6    0  502  0.29663257648E+03 -0.15216314686E+02  0.55159560749E+03  0.62648235080E+03  0.00000000000E+00 0.  1.
<mgrwt>
<rscale>  0 0.73468648E+03</rscale>
<asrwt>0</asrwt>
<pdfrwt beam="1">  1        1 0.93266500E-01 0.73468648E+03</pdfrwt>
<pdfrwt beam="2">  1       -2 0.26818534E+00 0.73468648E+03</pdfrwt>
<totfact> 0.15322334E+00</totfact>
</mgrwt>
</event>
<event>
12    3  0.2422421E-007  0.4001975E+03  0.7818608E-02  0.1043711E+00
         -4   -1    0    0    0  501 -0.00000000000E+00  0.00000000000E+00  0.98888731899E+03  0.98888731899E+03  0.00000000000E+00 0.  1.
          3   -1    0    0  501    0  0.00000000000E+00 -0.00000000000E+00 -0.24944994910E+03  0.24944994910E+03  0.00000000000E+00 0. -1.
        -24    2    1    2    0    0  0.27146763785E+02 -0.22922330076E+03 -0.18218842777E+02  0.24468165635E+03  0.79100684746E+02 0.  0.
    5000000    2    1    2    0    0 -0.27146763785E+02  0.22922330076E+03  0.75765621266E+03  0.99365561174E+03  0.60002355768E+03 0.  0.
        -24    2    4    4    0    0  0.63037446332E+01 -0.16327950400E+03  0.45759296737E+03  0.49237843658E+03  0.79657186747E+02 0.  0.
         24    2    4    4    0    0 -0.33450508418E+02  0.39250280476E+03  0.30006324529E+03  0.50127717516E+03  0.77868266370E+02 0.  0.
         11    1    5    5    0    0 -0.23593487678E+02 -0.11397356270E+03  0.36679377030E+03  0.38481722361E+03  0.00000000000E+00 0. -1.
        -12    1    5    5    0    0  0.29897232311E+02 -0.49305941302E+02  0.90799197070E+02  0.10756121297E+03  0.00000000000E+00 0.  1.
         13    1    3    3    0    0  0.90629452474E+01 -0.79596659744E+02  0.31346176034E+02  0.86025275186E+02  0.00000000000E+00 0. -1.
        -14    1    3    3    0    0  0.18083818537E+02 -0.14962664101E+03 -0.49565018811E+02  0.15865638116E+03  0.00000000000E+00 0.  1.
          2    1    6    6  502    0 -0.41087178874E+02  0.32837615874E+03  0.28044341075E+03  0.43378285412E+03  0.00000000000E+00 0. -1.
         -1    1    6    6    0  502  0.76366704556E+01  0.64126646022E+02  0.19619834540E+02  0.67494321042E+02  0.00000000000E+00 0.  1.
<mgrwt>
<rscale>  0 0.40019746E+03</rscale>
<asrwt>0</asrwt>
<pdfrwt beam="1">  1        3 0.38376916E-01 0.40019746E+03</pdfrwt>
<pdfrwt beam="2">  1       -4 0.15213651E+00 0.40019746E+03</pdfrwt>
<totfact> 0.43730985E+00</totfact>
</mgrwt>
</event>
<event>
12    3  0.2422421E-007  0.6836587E+03  0.7818608E-02  0.9745593E-01
          1   -1    0    0  501    0  0.00000000000E+00  0.00000000000E+00  0.16110875218E+04  0.16110875218E+04  0.00000000000E+00 0. -1.
         -2   -1    0    0    0  501 -0.00000000000E+00 -0.00000000000E+00 -0.56716824445E+03  0.56716824445E+03  0.00000000000E+00 0.  1.
        -24    2    1    2    0    0  0.61523161806E+02  0.64847626091E+03 -0.16787029701E+03  0.67734883958E+03  0.79463535376E+02 0.  0.
    5000000    2    1    2    0    0 -0.61523161806E+02 -0.64847626091E+03  0.12117895743E+04  0.15009069266E+04  0.59998422443E+03 0.  0.
        -24    2    4    4    0    0 -0.16312849334E+03 -0.52620748455E+03  0.12001168782E+04  0.13229166317E+04  0.79515225629E+02 0.  0.
         24    2    4    4    0    0  0.10160533153E+03 -0.12226877636E+03  0.11672696143E+02  0.17799029489E+03  0.79189621612E+02 0.  0.
         11    1    5    5    0    0 -0.42024716409E+02 -0.24371984275E+03  0.59060547232E+03  0.64029701114E+03  0.00000000000E+00 0. -1.
        -12    1    5    5    0    0 -0.12110377693E+03 -0.28248764180E+03  0.60951140587E+03  0.68261962061E+03  0.00000000000E+00 0.  1.
         11    1    3    3    0    0  0.44527416372E+02  0.30924849170E+03 -0.42588712959E+02  0.31532700312E+03  0.00000000000E+00 0. -1.
        -12    1    3    3    0    0  0.16995745434E+02  0.33922776921E+03 -0.12528158405E+03  0.36202183646E+03  0.00000000000E+00 0.  1.
          4    1    6    6  502    0  0.62143764681E+02 -0.57217430255E+02  0.44090443083E+02  0.95287192136E+02  0.00000000000E+00 0. -1.
         -3    1    6    6    0  502  0.39461566852E+02 -0.65051346105E+02 -0.32417746941E+02  0.82703102754E+02  0.00000000000E+00 0.  1.
<mgrwt>
<rscale>  0 0.68365870E+03</rscale>
<asrwt>0</asrwt>
<pdfrwt beam="1">  1        1 0.24785962E+00 0.68365870E+03</pdfrwt>
<pdfrwt beam="2">  1       -2 0.87256654E-01 0.68365870E+03</pdfrwt>
<totfact> 0.57111289E+00</totfact>
</mgrwt>
</event>
<event>
12    3  0.2422421E-007  0.3252586E+03  0.7818608E-02  0.1073254E+00
          1   -1    0    0  501    0  0.00000000000E+00  0.00000000000E+00  0.55520224149E+03  0.55520224149E+03  0.00000000000E+00 0. -1.
         -2   -1    0    0    0  501 -0.00000000000E+00 -0.00000000000E+00 -0.34966842314E+03  0.34966842314E+03  0.00000000000E+00 0.  1.
        -24    2    1    2    0    0 -0.17698592552E+02  0.80344861899E+02 -0.16058519777E+03  0.19717596478E+03  0.79512378471E+02 0.  0.
    5000000    2    1    2    0    0  0.17698592552E+02 -0.80344861899E+02  0.36611901612E+03  0.70769469984E+03  0.60001676411E+03 0.  0.
        -24    2    4    4    0    0 -0.15663383300E+03  0.15528606849E+03  0.32710434179E+03  0.40267402741E+03  0.80630026812E+02 0.  0.
         24    2    4    4    0    0  0.17433242555E+03 -0.23563093039E+03  0.39014674329E+02  0.30502067243E+03  0.74844744918E+02 0.  0.
         11    1    5    5    0    0 -0.35952092073E+02  0.90205638802E+02  0.15018149928E+03  0.17884097104E+03  0.00000000000E+00 0. -1.
        -12    1    5    5    0    0 -0.12068174093E+03  0.65080429690E+02  0.17692284251E+03  0.22383305637E+03  0.00000000000E+00 0.  1.
         11    1    3    3    0    0 -0.37437572486E+02  0.71711132791E+01 -0.62729956923E+02  0.73403298256E+02  0.00000000000E+00 0. -1.
        -12    1    3    3    0    0  0.19738979934E+02  0.73173748620E+02 -0.97855240849E+02  0.12377266652E+03  0.00000000000E+00 0.  1.
          4    1    6    6  502    0  0.82514086560E+02 -0.53256276624E+02  0.85996586545E+01  0.98583769504E+02  0.00000000000E+00 0. -1.
         -3    1    6    6    0  502  0.91818338994E+02 -0.18237465377E+03  0.30415015675E+02  0.20643690293E+03  0.00000000000E+00 0.  1.
<mgrwt>
<rscale>  0 0.32525858E+03</rscale>
<asrwt>0</asrwt>
<pdfrwt beam="1">  1        1 0.85415729E-01 0.32525858E+03</pdfrwt>
<pdfrwt beam="2">  1       -2 0.53795142E-01 0.32525858E+03</pdfrwt>
<totfact> 0.11451988E+02</totfact>
</mgrwt>
</event>
<event>
12    3  0.2422421E-007  0.6310491E+03  0.7818608E-02  0.9843004E-01
         -2   -1    0    0    0  501 -0.00000000000E+00  0.00000000000E+00  0.22680243499E+04  0.22680243499E+04  0.00000000000E+00 0.  1.
          1   -1    0    0  501    0  0.00000000000E+00 -0.00000000000E+00 -0.35320353381E+03  0.35320353381E+03  0.00000000000E+00 0. -1.
        -24    2    1    2    0    0 -0.51621861044E+03 -0.16536605411E+03  0.16976833944E+04  0.17839759222E+04  0.81324030845E+02 0.  0.
    5000000    2    1    2    0    0  0.51621861044E+03  0.16536605411E+03  0.21713742171E+03  0.83725196146E+03  0.60001216776E+03 0.  0.
        -24    2    4    4    0    0  0.44433799787E+03  0.31152442053E+03  0.31323482571E+03  0.63154543811E+03  0.79056077722E+02 0.  0.
         24    2    4    4    0    0  0.71880612565E+02 -0.14615836642E+03 -0.96097403996E+02  0.20570652335E+03  0.80940547065E+02 0.  0.
         11    1    3    3    0    0 -0.28466716453E+03 -0.57252911929E+02  0.82268767900E+03  0.87242667753E+03  0.00000000000E+00 0. -1.
        -12    1    3    3    0    0 -0.23155144590E+03 -0.10811314218E+03  0.87499571538E+03  0.91154924472E+03  0.00000000000E+00 0.  1.
         13    1    5    5    0    0  0.11593139559E+03  0.44186545349E+02  0.86080130369E+02  0.15100439768E+03  0.00000000000E+00 0. -1.
        -14    1    5    5    0    0  0.32840660228E+03  0.26733787518E+03  0.22715469534E+03  0.48054104044E+03  0.00000000000E+00 0.  1.
          4    1    6    6  502    0  0.86145070462E+01 -0.65887566927E+02 -0.15357860365E+01  0.66466080417E+02  0.00000000000E+00 0. -1.
         -3    1    6    6    0  502  0.63266105519E+02 -0.80270799491E+02 -0.94561617959E+02  0.13924044294E+03  0.00000000000E+00 0.  1.
<mgrwt>
<rscale>  0 0.63104907E+03</rscale>
<asrwt>0</asrwt>
<pdfrwt beam="1">  1        1 0.54339007E-01 0.63104907E+03</pdfrwt>
<pdfrwt beam="2">  1       -2 0.34892681E+00 0.63104907E+03</pdfrwt>
<totfact> 0.10571612E+00</totfact>
</mgrwt>
</event>
<event>
12    3  0.2422421E-007  0.1297396E+04  0.7818608E-02  0.9031633E-01
          1   -1    0    0  501    0  0.00000000000E+00  0.00000000000E+00  0.23036158819E+04  0.23036158819E+04  0.00000000000E+00 0. -1.
         -2   -1    0    0    0  501 -0.00000000000E+00 -0.00000000000E+00 -0.73801712688E+03  0.73801712688E+03  0.00000000000E+00 0.  1.
        -24    2    1    2    0    0  0.87962129660E+03 -0.86407902533E+03  0.77952378719E+03  0.14610015350E+04  0.80634750773E+02 0.  0.
    5000000    2    1    2    0    0 -0.87962129660E+03  0.86407902533E+03  0.78607496782E+03  0.15806314738E+04  0.60009650339E+03 0.  0.
        -24    2    4    4    0    0 -0.13443549354E+03  0.51634927171E+03  0.38406216391E+03  0.66247873284E+03  0.81760952808E+02 0.  0.
         24    2    4    4    0    0 -0.74518580306E+03  0.34772975362E+03  0.40201280391E+03  0.91815274093E+03  0.71918693887E+02 0.  0.
         13    1    3    3    0    0  0.72717966327E+03 -0.67018461905E+03  0.63177783143E+03  0.11734909095E+04  0.00000000000E+00 0. -1.
        -14    1    3    3    0    0  0.15244163333E+03 -0.19389440628E+03  0.14774595575E+03  0.28751062554E+03  0.00000000000E+00 0.  1.
         13    1    5    5    0    0 -0.95951313263E+02  0.24990549351E+03  0.22572224797E+03  0.35015702682E+03  0.00000000000E+00 0. -1.
        -14    1    5    5    0    0 -0.38484180281E+02  0.26644377820E+03  0.15833991594E+03  0.31232170602E+03  0.00000000000E+00 0.  1.
          4    1    6    6  502    0 -0.29848924371E+03  0.13675120856E+03  0.19991221703E+03  0.38439773175E+03  0.00000000000E+00 0. -1.
         -3    1    6    6    0  502 -0.44669655934E+03  0.21097854507E+03  0.20210058689E+03  0.53375500918E+03  0.00000000000E+00 0.  1.
<mgrwt>
<rscale>  0 0.12973956E+04</rscale>
<asrwt>0</asrwt>
<pdfrwt beam="1">  1        1 0.35440244E+00 0.12973956E+04</pdfrwt>
<pdfrwt beam="2">  1       -2 0.11354110E+00 0.12973956E+04</pdfrwt>
<totfact> 0.96035894E-01</totfact>
</mgrwt>
</event>
<event>
12    3  0.2422421E-007  0.5619386E+03  0.7818608E-02  0.9987678E-01
          1   -1    0    0  501    0  0.00000000000E+00  0.00000000000E+00  0.78173319720E+03  0.78173319720E+03  0.00000000000E+00 0. -1.
         -2   -1    0    0    0  501 -0.00000000000E+00 -0.00000000000E+00 -0.50225461260E+03  0.50225461260E+03  0.00000000000E+00 0.  1.
        -24    2    1    2    0    0  0.22164843665E+03  0.37722348532E+03 -0.91583212266E+02  0.45386614538E+03  0.78621916862E+02 0.  0.
    5000000    2    1    2    0    0 -0.22164843665E+03 -0.37722348532E+03  0.37106179686E+03  0.83012166442E+03  0.59999127768E+03 0.  0.
        -24    2    4    4    0    0 -0.35083613179E+03 -0.39236087176E+03  0.13708135027E+03  0.55103748488E+03  0.88419274393E+02 0.  0.
         24    2    4    4    0    0  0.12918769514E+03  0.15137386444E+02  0.23398044659E+03  0.27908417954E+03  0.78883007269E+02 0.  0.
         11    1    3    3    0    0  0.14241339073E+03  0.30102905108E+03 -0.52118109913E+02  0.33707026098E+03  0.00000000000E+00 0. -1.
        -12    1    3    3    0    0  0.79235045916E+02  0.76194434234E+02 -0.39465102352E+02  0.11679588440E+03  0.00000000000E+00 0.  1.
         13    1    5    5    0    0 -0.33548009507E+03 -0.35501631292E+03  0.10534800278E+03  0.49968157692E+03  0.00000000000E+00 0. -1.
        -14    1    5    5    0    0 -0.15356036729E+02 -0.37344558842E+02  0.31733347485E+02  0.51355907954E+02  0.00000000000E+00 0.  1.
          2    1    6    6  502    0  0.52530247423E+02  0.45654568482E+02  0.10502300698E+03  0.12599046993E+03  0.00000000000E+00 0. -1.
         -1    1    6    6    0  502  0.76657447722E+02 -0.30517182038E+02  0.12895743961E+03  0.15309370961E+03  0.00000000000E+00 0.  1.
<mgrwt>
<rscale>  0 0.56193860E+03</rscale>
<asrwt>0</asrwt>
<pdfrwt beam="1">  1        1 0.12026665E+00 0.56193860E+03</pdfrwt>
<pdfrwt beam="2">  1       -2 0.77269941E-01 0.56193860E+03</pdfrwt>
<totfact> 0.31240836E+01</totfact>
</mgrwt>
</event>
<event>
12    3  0.2422421E-007  0.5008090E+03  0.7818608E-02  0.1013568E+00
          1   -1    0    0  501    0  0.00000000000E+00  0.00000000000E+00  0.19406481868E+04  0.19406481868E+04  0.00000000000E+00 0. -1.
         -2   -1    0    0    0  501 -0.00000000000E+00 -0.00000000000E+00 -0.23383701254E+03  0.23383701254E+03  0.00000000000E+00 0.  1.
        -24    2    1    2    0    0  0.37868735387E+03 -0.21589143371E+03  0.11919988974E+04  0.12718054551E+04  0.81329707025E+02 0.  0.
    5000000    2    1    2    0    0 -0.37868735387E+03  0.21589143371E+03  0.51481227686E+03  0.90267974418E+03  0.59982148762E+03 0.  0.
        -24    2    4    4    0    0 -0.42321795350E+03  0.22359800233E+03  0.12295551242E+03  0.50056797210E+03  0.79628725074E+02 0.  0.
         24    2    4    4    0    0  0.44530599624E+02 -0.77065686146E+01  0.39185676444E+03  0.40211177207E+03  0.78101138890E+02 0.  0.
         11    1    5    5    0    0 -0.25469455820E+03  0.14783043991E+03  0.37075531662E+02  0.29681265470E+03  0.00000000000E+00 0. -1.
        -12    1    5    5    0    0 -0.16852339530E+03  0.75767562414E+02  0.85879980757E+02  0.20375531741E+03  0.00000000000E+00 0.  1.
         11    1    3    3    0    0  0.25308486470E+03 -0.10238626872E+03  0.77907673810E+03  0.82552738332E+03  0.00000000000E+00 0. -1.
        -12    1    3    3    0    0  0.12560248917E+03 -0.11350516499E+03  0.41292215927E+03  0.44627807181E+03  0.00000000000E+00 0.  1.
          2    1    6    6  502    0  0.62019633016E+02 -0.82030884231E+01  0.20237363419E+03  0.21182259878E+03  0.00000000000E+00 0. -1.
         -1    1    6    6    0  502 -0.17489033392E+02  0.49651980843E+00  0.18948313025E+03  0.19028917329E+03  0.00000000000E+00 0.  1.
<mgrwt>
<rscale>  0 0.50080898E+03</rscale>
<asrwt>0</asrwt>
<pdfrwt beam="1">  1        1 0.29856125E+00 0.50080898E+03</pdfrwt>
<pdfrwt beam="2">  1       -2 0.35974926E-01 0.50080898E+03</pdfrwt>
<totfact> 0.22501339E+01</totfact>
</mgrwt>
</event>
<event>
12    3  0.2422421E-007  0.1184990E+04  0.7818608E-02  0.9126097E-01
          1   -1    0    0  501    0  0.00000000000E+00  0.00000000000E+00  0.30241035474E+04  0.30241035474E+04  0.00000000000E+00 0. -1.
         -2   -1    0    0    0  501 -0.00000000000E+00 -0.00000000000E+00 -0.51350607554E+03  0.51350607554E+03  0.00000000000E+00 0.  1.
        -24    2    1    2    0    0  0.11193612743E+04  0.13371930462E+03  0.72637450790E+03  0.13434521897E+04  0.79958398400E+02 0.  0.
    5000000    2    1    2    0    0 -0.11193612743E+04 -0.13371930462E+03  0.17842229640E+04  0.21941574332E+04  0.60002061780E+03 0.  0.
        -24    2    4    4    0    0 -0.98509560391E+03 -0.29110804858E+03  0.12775795968E+04  0.16411394342E+04  0.77277238280E+02 0.  0.
         24    2    4    4    0    0 -0.13426567040E+03  0.15738874396E+03  0.50664336719E+03  0.55301799904E+03  0.79642443284E+02 0.  0.
         11    1    3    3    0    0  0.42809603094E+03  0.54997066524E+02  0.23253639945E+03  0.49026938116E+03  0.00000000000E+00 0. -1.
        -12    1    3    3    0    0  0.69126524338E+03  0.78722238096E+02  0.49383810844E+03  0.85318280856E+03  0.00000000000E+00 0.  1.
         13    1    5    5    0    0 -0.31673220371E+03 -0.71274949023E+02  0.45019159943E+03  0.55504223571E+03  0.00000000000E+00 0. -1.
        -14    1    5    5    0    0 -0.66836340020E+03 -0.21983309956E+03  0.82738799736E+03  0.10860971985E+04  0.00000000000E+00 0.  1.
          4    1    6    6  502    0 -0.11285568502E+03  0.92054123116E+02  0.40424441793E+03  0.42967885293E+03  0.00000000000E+00 0. -1.
         -3    1    6    6    0  502 -0.21409985378E+02  0.65334620842E+02  0.10239894926E+03  0.12333914611E+03  0.00000000000E+00 0.  1.
<mgrwt>
<rscale>  0 0.11849897E+04</rscale>
<asrwt>0</asrwt>
<pdfrwt beam="1">  1        1 0.46524669E+00 0.11849897E+04</pdfrwt>
<pdfrwt beam="2">  1       -2 0.79000936E-01 0.11849897E+04</pdfrwt>
<totfact> 0.71482041E-01</totfact>
</mgrwt>
</event>
<event>
12    3  0.2422421E-007  0.5840333E+03  0.7818608E-02  0.9939097E-01
          1   -1    0    0  501    0  0.00000000000E+00  0.00000000000E+00  0.14054769322E+04  0.14054769322E+04  0.00000000000E+00 0. -1.
         -2   -1    0    0    0  501 -0.00000000000E+00 -0.00000000000E+00 -0.59156825585E+03  0.59156825585E+03  0.00000000000E+00 0.  1.
        -24    2    1    2    0    0  0.23026550175E+03  0.42802390781E+03 -0.34708932497E+03  0.60278716224E+03  0.81576323161E+02 0.  0.
    5000000    2    1    2    0    0 -0.23026550175E+03 -0.42802390781E+03  0.11609980013E+04  0.13942580258E+04  0.59984366008E+03 0.  0.
        -24    2    4    4    0    0 -0.32358885787E+03 -0.13112989456E+03  0.27433248874E+03  0.45114950794E+03  0.79829605695E+02 0.  0.
         24    2    4    4    0    0  0.93323356125E+02 -0.29689401325E+03  0.88666551258E+03  0.94310851788E+03  0.80141383810E+02 0.  0.
         11    1    5    5    0    0 -0.67290725729E+02 -0.11940079346E+00  0.76471798451E+02  0.10186261328E+03  0.00000000000E+00 0. -1.
        -12    1    5    5    0    0 -0.25629813214E+03 -0.13101049377E+03  0.19786069029E+03  0.34928689466E+03  0.00000000000E+00 0.  1.
         13    1    3    3    0    0  0.22040396390E+03  0.34622904137E+03 -0.28741452448E+03  0.50105844497E+03  0.00000000000E+00 0. -1.
        -14    1    3    3    0    0  0.98615378521E+01  0.81794866440E+02 -0.59674800489E+02  0.10172871727E+03  0.00000000000E+00 0.  1.
          2    1    6    6  502    0 -0.13088318884E+02 -0.38782946007E+02  0.14383365682E+03  0.14954444766E+03  0.00000000000E+00 0. -1.
         -1    1    6    6    0  502  0.10641167501E+03 -0.25811106725E+03  0.74283185576E+03  0.79356407022E+03  0.00000000000E+00 0.  1.
<mgrwt>
<rscale>  0 0.58403325E+03</rscale>
<asrwt>0</asrwt>
<pdfrwt beam="1">  1        1 0.21622722E+00 0.58403325E+03</pdfrwt>
<pdfrwt beam="2">  1       -2 0.91010501E-01 0.58403325E+03</pdfrwt>
<totfact> 0.72810808E+00</totfact>
</mgrwt>
</event>
<event>
12    3  0.2422421E-007  0.1329899E+04  0.7818608E-02  0.9006185E-01
         -4   -1    0    0    0  501 -0.00000000000E+00  0.00000000000E+00  0.19513186284E+04  0.19513186284E+04  0.00000000000E+00 0.  1.
          3   -1    0    0  501    0  0.00000000000E+00 -0.00000000000E+00 -0.10860031540E+04  0.10860031540E+04  0.00000000000E+00 0. -1.
        -24    2    1    2    0    0 -0.12112161217E+04 -0.38669104672E+03 -0.17804630017E+03  0.12864960419E+04  0.82444658233E+02 0.  0.
    5000000    2    1    2    0    0  0.12112161217E+04  0.38669104672E+03  0.10433617745E+04  0.17508257406E+04  0.60017707558E+03 0.  0.
        -24    2    4    4    0    0  0.10560588509E+04  0.52319688610E+03  0.91847650395E+03  0.14962884257E+04  0.79276015030E+02 0.  0.
         24    2    4    4    0    0  0.15515727087E+03 -0.13650583938E+03  0.12488527060E+03  0.25453731483E+03  0.80531304074E+02 0.  0.
         11    1    5    5    0    0  0.16725389097E+03  0.78509030237E+02  0.18162494603E+03  0.25908522322E+03  0.00000000000E+00 0. -1.
        -12    1    5    5    0    0  0.88880495989E+03  0.44468785586E+03  0.73685155792E+03  0.12372032025E+04  0.00000000000E+00 0.  1.
         13    1    3    3    0    0 -0.63555301085E+03 -0.17133602600E+03 -0.12049845122E+03  0.66918124611E+03  0.00000000000E+00 0. -1.
        -14    1    3    3    0    0 -0.57566311089E+03 -0.21535502072E+03 -0.57547848946E+02  0.61731479579E+03  0.00000000000E+00 0.  1.
          4    1    6    6  502    0  0.95279667512E+02 -0.10034426338E+03  0.12208457785E+03  0.18453138048E+03  0.00000000000E+00 0. -1.
         -3    1    6    6    0  502  0.59877603361E+02 -0.36161576006E+02  0.28006927485E+01  0.70005934344E+02  0.00000000000E+00 0.  1.
<mgrwt>
<rscale>  0 0.13298990E+04</rscale>
<asrwt>0</asrwt>
<pdfrwt beam="1">  1        3 0.16707741E+00 0.13298990E+04</pdfrwt>
<pdfrwt beam="2">  1       -4 0.30020286E+00 0.13298990E+04</pdfrwt>
<totfact> 0.16088343E-02</totfact>
</mgrwt>
</event>
<event>
12    3  0.2422421E-007  0.9210681E+03  0.7818608E-02  0.9399622E-01
         -2   -1    0    0    0  501 -0.00000000000E+00  0.00000000000E+00  0.67836663733E+03  0.67836663733E+03  0.00000000000E+00 0.  1.
          1   -1    0    0  501    0  0.00000000000E+00 -0.00000000000E+00 -0.16188575120E+04  0.16188575120E+04  0.00000000000E+00 0. -1.
        -24    2    1    2    0    0 -0.86127995944E+03 -0.28435912526E+03 -0.86183611452E+02  0.91434278463E+03  0.77018389125E+02 0.  0.
    5000000    2    1    2    0    0  0.86127995944E+03  0.28435912526E+03 -0.85430726317E+03  0.13828813647E+04  0.59988056157E+03 0.  0.
        -24    2    4    4    0    0  0.61118679378E+02  0.30542347290E+02  0.73314556677E+02  0.12924620982E+03  0.81616362237E+02 0.  0.
         24    2    4    4    0    0  0.80016128006E+03  0.25381677797E+03 -0.92762181984E+03  0.12536351548E+04  0.80236088491E+02 0.  0.
         11    1    5    5    0    0  0.56452220054E+02 -0.24883529591E+01  0.77190547854E+02  0.95663084455E+02  0.00000000000E+00 0. -1.
        -12    1    5    5    0    0  0.46664593235E+01  0.33030700249E+02 -0.38759911767E+01  0.33583125364E+02  0.00000000000E+00 0.  1.
         11    1    3    3    0    0 -0.69630371941E+03 -0.19724392939E+03 -0.67164482624E+02  0.72681160218E+03  0.00000000000E+00 0. -1.
        -12    1    3    3    0    0 -0.16497624004E+03 -0.87115195877E+02 -0.19019128827E+02  0.18753118245E+03  0.00000000000E+00 0.  1.
          2    1    6    6  502    0  0.16876576777E+03  0.25948669217E+02 -0.16122412381E+03  0.23483704116E+03  0.00000000000E+00 0. -1.
         -1    1    6    6    0  502  0.63139551230E+03  0.22786810876E+03 -0.76639769603E+03  0.10187981137E+04  0.00000000000E+00 0.  1.
<mgrwt>
<rscale>  0 0.92106813E+03</rscale>
<asrwt>0</asrwt>
<pdfrwt beam="1">  1        1 0.24905500E+00 0.92106813E+03</pdfrwt>
<pdfrwt beam="2">  1       -2 0.10436410E+00 0.92106813E+03</pdfrwt>
<totfact> 0.35843585E+00</totfact>
</mgrwt>
</event>
<event>
12    3  0.2422421E-007  0.6358610E+03  0.7818608E-02  0.9833678E-01
          1   -1    0    0  501    0  0.00000000000E+00  0.00000000000E+00  0.17764814286E+04  0.17764814286E+04  0.00000000000E+00 0. -1.
         -2   -1    0    0    0  501 -0.00000000000E+00 -0.00000000000E+00 -0.45880133699E+03  0.45880133699E+03  0.00000000000E+00 0.  1.
        -24    2    1    2    0    0  0.50447589796E+03 -0.45407938936E+02 -0.18014607634E+03  0.54417899455E+03  0.84382206385E+02 0.  0.
    5000000    2    1    2    0    0 -0.50447589796E+03  0.45407938936E+02  0.14978261679E+04  0.16911037710E+04  0.59982574343E+03 0.  0.
        -24    2    4    4    0    0 -0.43388760804E+03  0.27758511215E+03  0.88278079451E+03  0.10250624106E+04  0.78352176467E+02 0.  0.
         24    2    4    4    0    0 -0.70588289915E+02 -0.23217717321E+03  0.61504537341E+03  0.66604136042E+03  0.80257934203E+02 0.  0.
         11    1    5    5    0    0 -0.20281411834E+03  0.11749037804E+03  0.47624985224E+03  0.53080267265E+03  0.00000000000E+00 0. -1.
        -12    1    5    5    0    0 -0.23107348970E+03  0.16009473411E+03  0.40653094227E+03  0.49425973795E+03  0.00000000000E+00 0.  1.
         13    1    3    3    0    0  0.17122629095E+03  0.24500038979E+02 -0.58273109316E+02  0.18252246408E+03  0.00000000000E+00 0. -1.
        -14    1    3    3    0    0  0.33324960700E+03 -0.69907977916E+02 -0.12187296702E+03  0.36165653048E+03  0.00000000000E+00 0.  1.
          2    1    6    6  502    0 -0.17218349970E+02 -0.66029059700E+02  0.28091836704E+03  0.28908724849E+03  0.00000000000E+00 0. -1.
         -1    1    6    6    0  502 -0.53369939946E+02 -0.16614811351E+03  0.33412700637E+03  0.37695411193E+03  0.00000000000E+00 0.  1.
<mgrwt>
<rscale>  0 0.63586099E+03</rscale>
<asrwt>0</asrwt>
<pdfrwt beam="1">  1        1 0.27330483E+00 0.63586099E+03</pdfrwt>
<pdfrwt beam="2">  1       -2 0.70584822E-01 0.63586099E+03</pdfrwt>
<totfact> 0.71619857E+00</totfact>
</mgrwt>
</event>
<event>
12    3  0.2580432E-007  0.7899202E+03  0.7818608E-02  0.9574723E-01
         -2   -1    0    0    0  501 -0.00000000000E+00  0.00000000000E+00  0.73546061130E+03  0.73546061130E+03  0.00000000000E+00 0.  1.
          1   -1    0    0  501    0  0.00000000000E+00 -0.00000000000E+00 -0.11276100424E+04  0.11276100424E+04  0.00000000000E+00 0. -1.
        -24    2    1    2    0    0 -0.33996159454E+03 -0.69651609116E+03 -0.41449977059E+03  0.88258005509E+03  0.80180688534E+02 0.  0.
    5000000    2    1    2    0    0  0.33996159454E+03  0.69651609116E+03  0.22350339468E+02  0.98049059863E+03  0.60012809076E+03 0.  0.
        -24    2    4    4    0    0  0.13693051481E+03  0.45602457977E+03 -0.26321947858E+03  0.54830277338E+03  0.68139959970E+02 0.  0.
         24    2    4    4    0    0  0.20303107974E+03  0.24049151139E+03  0.28556981805E+03  0.43218782525E+03  0.78602855712E+02 0.  0.
         11    1    3    3    0    0 -0.17793855188E+03 -0.27463645070E+03 -0.17053924364E+03  0.36901347119E+03  0.00000000000E+00 0. -1.
        -12    1    3    3    0    0 -0.16202304266E+03 -0.42187964046E+03 -0.24396052696E+03  0.51356658390E+03  0.00000000000E+00 0.  1.
         13    1    5    5    0    0  0.51777490256E+02  0.89739275999E+02 -0.74068705376E+02  0.12735862464E+03  0.00000000000E+00 0. -1.
        -14    1    5    5    0    0  0.85153024549E+02  0.36628530377E+03 -0.18915077321E+03  0.42094414874E+03  0.00000000000E+00 0.  1.
          2    1    6    6  502    0  0.97769999186E+02  0.68523271922E+02  0.13707994884E+03  0.18178372840E+03  0.00000000000E+00 0. -1.
         -1    1    6    6    0  502  0.10526108055E+03  0.17196823947E+03  0.14848986921E+03  0.25040409686E+03  0.00000000000E+00 0.  1.
<mgrwt>
<rscale>  0 0.78992023E+03</rscale>
<asrwt>0</asrwt>
<pdfrwt beam="1">  1        1 0.17347847E+00 0.78992023E+03</pdfrwt>
<pdfrwt beam="2">  1       -2 0.11314779E+00 0.78992023E+03</pdfrwt>
<totfact> 0.66408092E+00</totfact>
</mgrwt>
</event>
<event>
12    3  0.2422421E-007  0.5077279E+03  0.7818608E-02  0.1011781E+00
          1   -1    0    0  501    0  0.00000000000E+00  0.00000000000E+00  0.10344788756E+04  0.10344788756E+04  0.00000000000E+00 0. -1.
         -2   -1    0    0    0  501 -0.00000000000E+00 -0.00000000000E+00 -0.29225042373E+03  0.29225042373E+03  0.00000000000E+00 0.  1.
        -24    2    1    2    0    0 -0.32879978292E+03 -0.19026907608E+03  0.29062296276E+03  0.48468177801E+03  0.78377936215E+02 0.  0.
    5000000    2    1    2    0    0  0.32879978292E+03  0.19026907608E+03  0.45160548910E+03  0.84204752131E+03  0.60065372038E+03 0.  0.
        -24    2    4    4    0    0 -0.11295892835E+03 -0.23818498027E+02  0.28540930455E+03  0.31761237901E+03  0.78051981592E+02 0.  0.
         24    2    4    4    0    0  0.44175871127E+03  0.21408757411E+03  0.16619618454E+03  0.52443514231E+03  0.80167314781E+02 0.  0.
         13    1    3    3    0    0 -0.82597142382E+02 -0.19902149435E+02  0.38550096692E+02  0.93297874771E+02  0.00000000000E+00 0. -1.
        -14    1    3    3    0    0 -0.24620264054E+03 -0.17036692664E+03  0.25207286607E+03  0.39138390323E+03  0.00000000000E+00 0.  1.
         13    1    5    5    0    0 -0.99354365702E+02  0.12904811037E+02  0.20456364507E+03  0.22778083549E+03  0.00000000000E+00 0. -1.
        -14    1    5    5    0    0 -0.13604562649E+02 -0.36723309064E+02  0.80845659484E+02  0.89831543518E+02  0.00000000000E+00 0.  1.
          4    1    6    6  502    0  0.20185354630E+03  0.11377533586E+03  0.11780544749E+03  0.25993807851E+03  0.00000000000E+00 0. -1.
         -3    1    6    6    0  502  0.23990516498E+03  0.10031223825E+03  0.48390737055E+02  0.26449706380E+03  0.00000000000E+00 0.  1.
<mgrwt>
<rscale>  0 0.50772793E+03</rscale>
<asrwt>0</asrwt>
<pdfrwt beam="1">  1        1 0.15915060E+00 0.50772793E+03</pdfrwt>
<pdfrwt beam="2">  1       -2 0.44961604E-01 0.50772793E+03</pdfrwt>
<totfact> 0.61233240E+01</totfact>
</mgrwt>
</event>
<event>
12    3  0.2422421E-007  0.9688559E+03  0.7818608E-02  0.9343378E-01
         -2   -1    0    0    0  501 -0.00000000000E+00  0.00000000000E+00  0.97166251747E+03  0.97166251747E+03  0.00000000000E+00 0.  1.
          1   -1    0    0  501    0  0.00000000000E+00 -0.00000000000E+00 -0.12190325085E+04  0.12190325085E+04  0.00000000000E+00 0. -1.
        -24    2    1    2    0    0 -0.31418755073E+03  0.82465832099E+03 -0.59655322692E+03  0.10678847008E+04  0.75675743514E+02 0.  0.
    5000000    2    1    2    0    0  0.31418755073E+03 -0.82465832099E+03  0.34918323589E+03  0.11228103252E+04  0.59999910894E+03 0.  0.
        -24    2    4    4    0    0  0.47265497346E+03 -0.54583418595E+03  0.31163270981E+03  0.79040024867E+03  0.79245976520E+02 0.  0.
         24    2    4    4    0    0 -0.15846742272E+03 -0.27882413503E+03  0.37550526089E+02  0.33241007652E+03  0.78940449859E+02 0.  0.
         11    1    3    3    0    0 -0.79547594149E+02  0.24740933136E+03 -0.13817317595E+03  0.29433148579E+03  0.00000000000E+00 0. -1.
        -12    1    3    3    0    0 -0.23463995658E+03  0.57724898963E+03 -0.45838005097E+03  0.77355321497E+03  0.00000000000E+00 0.  1.
         13    1    5    5    0    0  0.20204959206E+03 -0.17538047174E+03  0.10984388152E+03  0.28921968437E+03  0.00000000000E+00 0. -1.
        -14    1    5    5    0    0  0.27060538140E+03 -0.37045371422E+03  0.20178882829E+03  0.50118056431E+03  0.00000000000E+00 0.  1.
          4    1    6    6  502    0 -0.48128422376E+02 -0.31333470341E+02  0.20214584641E+02  0.60883173671E+02  0.00000000000E+00 0. -1.
         -3    1    6    6    0  502 -0.11033900034E+03 -0.24749066469E+03  0.17335941448E+02  0.27152690285E+03  0.00000000000E+00 0.  1.
<mgrwt>
<rscale>  0 0.96885591E+03</rscale>
<asrwt>0</asrwt>
<pdfrwt beam="1">  1        1 0.18754346E+00 0.96885591E+03</pdfrwt>
<pdfrwt beam="2">  1       -2 0.14948654E+00 0.96885591E+03</pdfrwt>
<totfact> 0.27444561E+00</totfact>
</mgrwt>
</event>
<event>
12    3  0.2422421E-007  0.1734210E+04  0.7818608E-02  0.8742090E-01
          1   -1    0    0  501    0  0.00000000000E+00  0.00000000000E+00  0.19512351897E+04  0.19512351897E+04  0.00000000000E+00 0. -1.
         -2   -1    0    0    0  501 -0.00000000000E+00 -0.00000000000E+00 -0.22340163229E+04  0.22340163229E+04  0.00000000000E+00 0.  1.
        -24    2    1    2    0    0 -0.11665769804E+04 -0.12575750464E+04 -0.12525214407E+04  0.21255425474E+04  0.82001907230E+02 0.  0.
    5000000    2    1    2    0    0  0.11665769804E+04  0.12575750464E+04  0.96974030751E+03  0.20597089652E+04  0.59967316809E+03 0.  0.
        -24    2    4    4    0    0  0.76749820094E+02  0.42784259395E+02  0.24493259125E+03  0.27221163591E+03  0.79913532835E+02 0.  0.
         24    2    4    4    0    0  0.10898271603E+04  0.12147907870E+04  0.72480771626E+03  0.17874973292E+04  0.79753250211E+02 0.  0.
         11    1    3    3    0    0 -0.81292800344E+03 -0.90980331718E+03 -0.85374686630E+03  0.14891197824E+04  0.00000000000E+00 0. -1.
        -12    1    3    3    0    0 -0.35364897699E+03 -0.34777172922E+03 -0.39877457444E+03  0.63642276499E+03  0.00000000000E+00 0.  1.
         13    1    5    5    0    0  0.32771394825E+02  0.62229553745E+02  0.13497720598E+03  0.15220160253E+03  0.00000000000E+00 0. -1.
        -14    1    5    5    0    0  0.43978425270E+02 -0.19445294350E+02  0.10995538527E+03  0.12001003338E+03  0.00000000000E+00 0.  1.
          2    1    6    6  502    0  0.85265981528E+03  0.99756917617E+03  0.57815630177E+03  0.14340284973E+04  0.00000000000E+00 0. -1.
         -1    1    6    6    0  502  0.23716734506E+03  0.21722161083E+03  0.14665141450E+03  0.35346883193E+03  0.00000000000E+00 0.  1.
<mgrwt>
<rscale>  0 0.17342099E+04</rscale>
<asrwt>0</asrwt>
<pdfrwt beam="1">  1        1 0.30019003E+00 0.17342099E+04</pdfrwt>
<pdfrwt beam="2">  1       -2 0.34369482E+00 0.17342099E+04</pdfrwt>
<totfact> 0.43981471E-02</totfact>
</mgrwt>
</event>
<event>
12    3  0.2422421E-007  0.9106032E+03  0.7818608E-02  0.9412423E-01
          1   -1    0    0  501    0  0.00000000000E+00  0.00000000000E+00  0.16033570138E+04  0.16033570138E+04  0.00000000000E+00 0. -1.
         -2   -1    0    0    0  501 -0.00000000000E+00 -0.00000000000E+00 -0.64623465165E+03  0.64623465165E+03  0.00000000000E+00 0.  1.
        -24    2    1    2    0    0 -0.76665503775E+03  0.32137411919E+03 -0.17209798362E+02  0.83528245309E+03  0.79745394044E+02 0.  0.
    5000000    2    1    2    0    0  0.76665503775E+03 -0.32137411919E+03  0.97433216050E+03  0.14143092124E+04  0.59992175971E+03 0.  0.
        -24    2    4    4    0    0  0.66231370602E+03 -0.23204481402E+02  0.48049353665E+03  0.82251116514E+03  0.80328605590E+02 0.  0.
         24    2    4    4    0    0  0.10434133174E+03 -0.29816963779E+03  0.49383862385E+03  0.59179804722E+03  0.80969721986E+02 0.  0.
         11    1    3    3    0    0 -0.38590584886E+03  0.16928957814E+03  0.30547292811E+02  0.42251085495E+03  0.00000000000E+00 0. -1.
        -12    1    3    3    0    0 -0.38074918890E+03  0.15208454105E+03 -0.47757091173E+02  0.41277159814E+03  0.00000000000E+00 0.  1.
         11    1    5    5    0    0  0.33147581023E+03  0.28015195055E+02  0.23125011323E+03  0.40513908573E+03  0.00000000000E+00 0. -1.
        -12    1    5    5    0    0  0.33083789579E+03 -0.51219676457E+02  0.24924342342E+03  0.41737207940E+03  0.00000000000E+00 0.  1.
          4    1    6    6  502    0  0.77102096595E+02 -0.12355624775E+03  0.26817064962E+03  0.30516614651E+03  0.00000000000E+00 0. -1.
         -3    1    6    6    0  502  0.27239235140E+02 -0.17461339004E+03  0.22566797423E+03  0.28663190071E+03  0.00000000000E+00 0.  1.
<mgrwt>
<rscale>  0 0.91060318E+03</rscale>
<asrwt>0</asrwt>
<pdfrwt beam="1">  1        1 0.24667031E+00 0.91060318E+03</pdfrwt>
<pdfrwt beam="2">  1       -2 0.99420716E-01 0.91060318E+03</pdfrwt>
<totfact> 0.41297459E+00</totfact>
</mgrwt>
</event>
<event>
12    3  0.2422421E-007  0.3156824E+03  0.7818608E-02  0.1077654E+00
          1   -1    0    0  501    0  0.00000000000E+00  0.00000000000E+00  0.12199112744E+04  0.12199112744E+04  0.00000000000E+00 0. -1.
         -4   -1    0    0    0  501 -0.00000000000E+00 -0.00000000000E+00 -0.25126307920E+03  0.25126307920E+03  0.00000000000E+00 0.  1.
        -24    2    1    2    0    0 -0.43478764912E+02  0.23531909752E+03  0.74663509236E+03  0.78820142756E+03  0.80821090068E+02 0.  0.
    5000000    2    1    2    0    0  0.43478764912E+02 -0.23531909752E+03  0.22201310289E+03  0.68297292609E+03  0.59991392654E+03 0.  0.
        -24    2    4    4    0    0  0.10526284804E+03  0.21445204794E+02  0.35294924783E+03  0.37739403674E+03  0.79453907645E+02 0.  0.
         24    2    4    4    0    0 -0.61784083132E+02 -0.25676430232E+03 -0.13093614494E+03  0.30557888934E+03  0.80554352385E+02 0.  0.
         11    1    5    5    0    0  0.43681810667E+02  0.43436027130E+02  0.11306790076E+03  0.12876000629E+03  0.00000000000E+00 0. -1.
        -12    1    5    5    0    0  0.61581037378E+02 -0.21990822336E+02  0.23988134706E+03  0.24863403046E+03  0.00000000000E+00 0.  1.
         11    1    3    3    0    0 -0.36913859385E+01  0.69180197451E+02  0.34258551860E+03  0.34952019055E+03  0.00000000000E+00 0. -1.
        -12    1    3    3    0    0 -0.39787378974E+02  0.16613890007E+03  0.40404957376E+03  0.43868123701E+03  0.00000000000E+00 0.  1.
          2    1    6    6  502    0 -0.45623071017E+02 -0.20563370601E+03 -0.13752049223E+03  0.25155232347E+03  0.00000000000E+00 0. -1.
         -1    1    6    6    0  502 -0.16161012115E+02 -0.51130596308E+02  0.65843472952E+01  0.54026565879E+02  0.00000000000E+00 0.  1.
<mgrwt>
<rscale>  0 0.31568238E+03</rscale>
<asrwt>0</asrwt>
<pdfrwt beam="1">  1        1 0.18767866E+00 0.31568238E+03</pdfrwt>
<pdfrwt beam="2">  1       -4 0.38655859E-01 0.31568238E+03</pdfrwt>
<totfact> 0.34061968E+01</totfact>
</mgrwt>
</event>
<event>
12    3  0.2422421E-007  0.1484875E+04  0.7818608E-02  0.8894574E-01
          1   -1    0    0  501    0  0.00000000000E+00  0.00000000000E+00  0.21846706683E+04  0.21846706683E+04  0.00000000000E+00 0. -1.
         -2   -1    0    0    0  501 -0.00000000000E+00 -0.00000000000E+00 -0.12309495304E+04  0.12309495304E+04  0.00000000000E+00 0.  1.
        -24    2    1    2    0    0  0.11045631845E+04  0.96514926174E+03 -0.16138682286E+03  0.14778696861E+04  0.80499543545E+02 0.  0.
    5000000    2    1    2    0    0 -0.11045631845E+04 -0.96514926174E+03  0.11151079608E+04  0.19377505127E+04  0.59986528436E+03 0.  0.
        -24    2    4    4    0    0 -0.71787990762E+03 -0.42705716263E+03  0.91420957222E+03  0.12408762103E+04  0.79153303477E+02 0.  0.
         24    2    4    4    0    0 -0.38668327684E+03 -0.53809209911E+03  0.20089838857E+03  0.69687430240E+03  0.78781768852E+02 0.  0.
         11    1    3    3    0    0  0.53001674489E+03  0.45956704933E+03 -0.36829565083E+02  0.70247849758E+03  0.00000000000E+00 0. -1.
        -12    1    3    3    0    0  0.57454643956E+03  0.50558221241E+03 -0.12455725778E+03  0.77539118849E+03  0.00000000000E+00 0.  1.
         11    1    5    5    0    0 -0.19845425640E+03 -0.10566140566E+03  0.19815535967E+03  0.29968979144E+03  0.00000000000E+00 0. -1.
        -12    1    5    5    0    0 -0.51942565122E+03 -0.32139575697E+03  0.71605421255E+03  0.94118641887E+03  0.00000000000E+00 0.  1.
          4    1    6    6  502    0 -0.28745335809E+03 -0.33639536054E+03  0.13580176193E+03  0.46285352997E+03  0.00000000000E+00 0. -1.
         -3    1    6    6    0  502 -0.99229918748E+02 -0.20169673857E+03  0.65096626642E+02  0.23402077242E+03  0.00000000000E+00 0.  1.
<mgrwt>
<rscale>  0 0.14848745E+04</rscale>
<asrwt>0</asrwt>
<pdfrwt beam="1">  1        1 0.33610318E+00 0.14848745E+04</pdfrwt>
<pdfrwt beam="2">  1       -2 0.18937685E+00 0.14848745E+04</pdfrwt>
<totfact> 0.28910513E-01</totfact>
</mgrwt>
</event>
<event>
12    3  0.2422421E-007  0.7017505E+03  0.7818608E-02  0.9714243E-01
          1   -1    0    0  501    0  0.00000000000E+00  0.00000000000E+00  0.11783022975E+04  0.11783022975E+04  0.00000000000E+00 0. -1.
         -2   -1    0    0    0  501 -0.00000000000E+00 -0.00000000000E+00 -0.55680500035E+03  0.55680500035E+03  0.00000000000E+00 0.  1.
        -24    2    1    2    0    0  0.58326329071E+03  0.46558219369E+02  0.67394610799E+03  0.89543456754E+03  0.72360031804E+02 0.  0.
    5000000    2    1    2    0    0 -0.58326329071E+03 -0.46558219369E+02 -0.52448810820E+02  0.83967273032E+03  0.59994639944E+03 0.  0.
        -24    2    4    4    0    0 -0.23477576776E+02  0.18945697214E+03 -0.89290538212E+02  0.22594319261E+03  0.81439457089E+02 0.  0.
         24    2    4    4    0    0 -0.55978571393E+03 -0.23601519151E+03  0.36841727391E+02  0.61372953770E+03  0.79015292365E+02 0.  0.
         11    1    5    5    0    0  0.24110835718E+02  0.25734861940E+02 -0.45810045434E+01  0.35561230585E+02  0.00000000000E+00 0. -1.
        -12    1    5    5    0    0 -0.47588412494E+02  0.16372211020E+03 -0.84709533669E+02  0.19038196203E+03  0.00000000000E+00 0.  1.
         11    1    3    3    0    0  0.11163043819E+03 -0.15259014006E+02  0.15281153270E+03  0.18985667427E+03  0.00000000000E+00 0. -1.
        -12    1    3    3    0    0  0.47163285252E+03  0.61817233375E+02  0.52113457529E+03  0.70557789327E+03  0.00000000000E+00 0.  1.
          4    1    6    6  502    0 -0.36570512369E+03 -0.17873464831E+03 -0.50719474979E+01  0.40707743323E+03  0.00000000000E+00 0. -1.
         -3    1    6    6    0  502 -0.19408059025E+03 -0.57280543201E+02  0.41913674889E+02  0.20665210447E+03  0.00000000000E+00 0.  1.
<mgrwt>
<rscale>  0 0.70175055E+03</rscale>
<asrwt>0</asrwt>
<pdfrwt beam="1">  1        1 0.18127728E+00 0.70175055E+03</pdfrwt>
<pdfrwt beam="2">  1       -2 0.85662307E-01 0.70175055E+03</pdfrwt>
<totfact> 0.11886321E+01</totfact>
</mgrwt>
</event>
<event>
12    3  0.2422421E-007  0.4169819E+03  0.7818608E-02  0.1038053E+00
         -2   -1    0    0    0  501 -0.00000000000E+00  0.00000000000E+00  0.15565188509E+03  0.15565188509E+03  0.00000000000E+00 0.  1.
          1   -1    0    0  501    0  0.00000000000E+00 -0.00000000000E+00 -0.22529735087E+04  0.22529735087E+04  0.00000000000E+00 0. -1.
        -24    2    1    2    0    0  0.20483420207E+03  0.94274639817E+02 -0.24344853703E+02  0.23889318049E+03  0.75050128142E+02 0.  0.
    5000000    2    1    2    0    0 -0.20483420207E+03 -0.94274639817E+02 -0.20729767699E+04  0.21697322133E+04  0.59971695889E+03 0.  0.
        -24    2    4    4    0    0 -0.39208901511E+03 -0.23464253435E+02 -0.16032949673E+04  0.16528658214E+04  0.84417440924E+02 0.  0.
         24    2    4    4    0    0  0.18725481304E+03 -0.70810386382E+02 -0.46968180257E+03  0.51686639189E+03  0.80444984754E+02 0.  0.
         13    1    5    5    0    0 -0.38632592085E+03 -0.22782482222E+02 -0.16001143969E+04  0.16462481106E+04  0.00000000000E+00 0. -1.
        -14    1    5    5    0    0 -0.57630942565E+01 -0.68177121245E+00 -0.31805704199E+01  0.66177107516E+01  0.00000000000E+00 0.  1.
         13    1    3    3    0    0  0.69294297662E+02  0.66311757445E+02 -0.29672810159E+02  0.10039633722E+03  0.00000000000E+00 0. -1.
        -14    1    3    3    0    0  0.13553990441E+03  0.27962882372E+02  0.53279564555E+01  0.13849684328E+03  0.00000000000E+00 0.  1.
          2    1    6    6  502    0  0.11513273412E+03 -0.69977964632E+02 -0.22988832429E+03  0.26646032283E+03  0.00000000000E+00 0. -1.
         -1    1    6    6    0  502  0.72122078920E+02 -0.83242174973E+00 -0.23979347828E+03  0.25040606905E+03  0.00000000000E+00 0.  1.
<mgrwt>
<rscale>  0 0.41698191E+03</rscale>
<asrwt>0</asrwt>
<pdfrwt beam="1">  1        1 0.34661131E+00 0.41698191E+03</pdfrwt>
<pdfrwt beam="2">  1       -2 0.23946444E-01 0.41698191E+03</pdfrwt>
<totfact> 0.30063972E+01</totfact>
</mgrwt>
</event>
<event>
12    3  0.2422421E-007  0.1600428E+04  0.7818608E-02  0.8820285E-01
         -2   -1    0    0    0  501 -0.00000000000E+00  0.00000000000E+00  0.94243637486E+03  0.94243637486E+03  0.00000000000E+00 0.  1.
          1   -1    0    0  501    0  0.00000000000E+00 -0.00000000000E+00 -0.28293035780E+04  0.28293035780E+04  0.00000000000E+00 0. -1.
        -24    2    1    2    0    0 -0.11887464868E+04  0.10010166354E+04 -0.12210418807E+04  0.19778078940E+04  0.75021841684E+02 0.  0.
    5000000    2    1    2    0    0  0.11887464868E+04 -0.10010166354E+04 -0.66582532253E+03  0.17939320589E+04  0.59976358465E+03 0.  0.
        -24    2    4    4    0    0  0.56803571842E+03 -0.81145082399E+03 -0.52912742914E+03  0.11258013383E+04  0.79597738313E+02 0.  0.
         24    2    4    4    0    0  0.62071076842E+03 -0.18956581146E+03 -0.13669789339E+03  0.66813072060E+03  0.80593367218E+02 0.  0.
         13    1    3    3    0    0 -0.43268916161E+03  0.31870073951E+03 -0.43099559969E+03  0.68887392090E+03  0.00000000000E+00 0. -1.
        -14    1    3    3    0    0 -0.75605732523E+03  0.68231589594E+03 -0.79004628097E+03  0.12889339731E+04  0.00000000000E+00 0.  1.
         13    1    5    5    0    0  0.38357556213E+03 -0.60406656109E+03 -0.39861590015E+03  0.81909783173E+03  0.00000000000E+00 0. -1.
        -14    1    5    5    0    0  0.18446015629E+03 -0.20738426290E+03 -0.13051152899E+03  0.30670350660E+03  0.00000000000E+00 0.  1.
          2    1    6    6  502    0  0.38557294496E+03 -0.86263561058E+02 -0.56838902698E+02  0.39917234212E+03  0.00000000000E+00 0. -1.
         -1    1    6    6    0  502  0.23513782346E+03 -0.10330225040E+03 -0.79858990692E+02  0.26895837848E+03  0.00000000000E+00 0.  1.
<mgrwt>
<rscale>  0 0.16004275E+04</rscale>
<asrwt>0</asrwt>
<pdfrwt beam="1">  1        1 0.43527746E+00 0.16004275E+04</pdfrwt>
<pdfrwt beam="2">  1       -2 0.14499021E+00 0.16004275E+04</pdfrwt>
<totfact> 0.21424593E-01</totfact>
</mgrwt>
</event>
<event>
12    3  0.2422421E-007  0.9096587E+03  0.7818608E-02  0.9413587E-01
         -2   -1    0    0    0  501 -0.00000000000E+00  0.00000000000E+00  0.39696989166E+03  0.39696989166E+03  0.00000000000E+00 0.  1.
          1   -1    0    0  501    0  0.00000000000E+00 -0.00000000000E+00 -0.23800905802E+04  0.23800905802E+04  0.00000000000E+00 0. -1.
        -24    2    1    2    0    0 -0.25261906493E+03  0.77550155196E+03 -0.43714414569E+03  0.92900577402E+03  0.82083341733E+02 0.  0.
    5000000    2    1    2    0    0  0.25261906493E+03 -0.77550155196E+03 -0.15459765428E+04  0.18480546978E+04  0.60003637064E+03 0.  0.
        -24    2    4    4    0    0  0.38611211228E+03 -0.27652830485E+03 -0.86304324151E+03  0.98834721639E+03  0.80225412339E+02 0.  0.
         24    2    4    4    0    0 -0.13349304735E+03 -0.49897324711E+03 -0.68293330128E+03  0.85970748140E+03  0.76839863086E+02 0.  0.
         13    1    5    5    0    0  0.37557638349E+03 -0.28134221227E+03 -0.83202115315E+03  0.95523309173E+03  0.00000000000E+00 0. -1.
        -14    1    5    5    0    0  0.10535728793E+02  0.48139074139E+01 -0.31022088361E+02  0.33114124661E+02  0.00000000000E+00 0.  1.
         13    1    3    3    0    0 -0.61382289601E+02  0.28259805180E+03 -0.18460367209E+03  0.34308593691E+03  0.00000000000E+00 0. -1.
        -14    1    3    3    0    0 -0.19123677533E+03  0.49290350016E+03 -0.25254047360E+03  0.58591983711E+03  0.00000000000E+00 0.  1.
          4    1    6    6  502    0 -0.92201839257E+02 -0.43331326934E+03 -0.60391094012E+03  0.74897930022E+03  0.00000000000E+00 0. -1.
         -3    1    6    6    0  502 -0.41291208093E+02 -0.65659977762E+02 -0.79022361163E+02  0.11072818119E+03  0.00000000000E+00 0.  1.
<mgrwt>
<rscale>  0 0.90965870E+03</rscale>
<asrwt>0</asrwt>
<pdfrwt beam="1">  1        1 0.36616777E+00 0.90965870E+03</pdfrwt>
<pdfrwt beam="2">  1       -2 0.61072292E-01 0.90965870E+03</pdfrwt>
<totfact> 0.36867570E+00</totfact>
</mgrwt>
</event>
<event>
12    3  0.2422421E-007  0.1124411E+04  0.7818608E-02  0.9181720E-01
          1   -1    0    0  501    0  0.00000000000E+00  0.00000000000E+00  0.17210103256E+04  0.17210103256E+04  0.00000000000E+00 0. -1.
         -2   -1    0    0    0  501 -0.00000000000E+00 -0.00000000000E+00 -0.89583535777E+03  0.89583535777E+03  0.00000000000E+00 0.  1.
        -24    2    1    2    0    0  0.65878986851E+03  0.82700017851E+03 -0.13324710215E+03  0.10687053495E+04  0.80267973954E+02 0.  0.
    5000000    2    1    2    0    0 -0.65878986851E+03 -0.82700017851E+03  0.95842207003E+03  0.15481403339E+04  0.60019350476E+03 0.  0.
        -24    2    4    4    0    0 -0.12657598239E+03  0.71066599110E+02  0.18482267567E+03  0.24635548070E+03  0.73889516188E+02 0.  0.
         24    2    4    4    0    0 -0.53221388612E+03 -0.89806677762E+03  0.77359939436E+03  0.13017848532E+04  0.80076360665E+02 0.  0.
         13    1    3    3    0    0  0.25387601621E+03  0.32342797512E+03 -0.91231783057E+02  0.42116733602E+03  0.00000000000E+00 0. -1.
        -14    1    3    3    0    0  0.40491385231E+03  0.50357220339E+03 -0.42015319096E+02  0.64753801345E+03  0.00000000000E+00 0.  1.
         13    1    5    5    0    0 -0.60271620330E+01  0.12281345141E+01  0.56852071611E+02  0.57183852992E+02  0.00000000000E+00 0. -1.
        -14    1    5    5    0    0 -0.12054882036E+03  0.69838464595E+02  0.12797060406E+03  0.18917162771E+03  0.00000000000E+00 0.  1.
          2    1    6    6  502    0 -0.13666651844E+03 -0.29036705486E+03  0.21168530770E+03  0.38444951985E+03  0.00000000000E+00 0. -1.
         -1    1    6    6    0  502 -0.39554736768E+03 -0.60769972276E+03  0.56191408666E+03  0.91733533340E+03  0.00000000000E+00 0.  1.
<mgrwt>
<rscale>  0 0.11244111E+04</rscale>
<asrwt>0</asrwt>
<pdfrwt beam="1">  1        1 0.26477082E+00 0.11244111E+04</pdfrwt>
<pdfrwt beam="2">  1       -2 0.13782082E+00 0.11244111E+04</pdfrwt>
<totfact> 0.14913319E+00</totfact>
</mgrwt>
</event>
<event>
12    3  0.2422421E-007  0.1062428E+04  0.7818608E-02  0.9242606E-01
          1   -1    0    0  501    0  0.00000000000E+00  0.00000000000E+00  0.14902635902E+04  0.14902635902E+04  0.00000000000E+00 0. -1.
         -2   -1    0    0    0  501 -0.00000000000E+00 -0.00000000000E+00 -0.97184199488E+03  0.97184199488E+03  0.00000000000E+00 0.  1.
        -24    2    1    2    0    0 -0.86604935438E+03 -0.55842134730E+03  0.71059182026E+03  0.12542770095E+04  0.79963718655E+02 0.  0.
    5000000    2    1    2    0    0  0.86604935438E+03  0.55842134730E+03 -0.19217022492E+03  0.12078285756E+04  0.60003715489E+03 0.  0.
        -24    2    4    4    0    0  0.67725605466E+03  0.24803722733E+03 -0.34802161705E+03  0.80475372357E+03  0.79443564560E+02 0.  0.
         24    2    4    4    0    0  0.18879329972E+03  0.31038411997E+03  0.15585139213E+03  0.40307485199E+03  0.78730349490E+02 0.  0.
         11    1    5    5    0    0  0.30475067869E+03  0.81029416442E+02 -0.12189008699E+03  0.33807681937E+03  0.00000000000E+00 0. -1.
        -12    1    5    5    0    0  0.37250537597E+03  0.16700781089E+03 -0.22613153005E+03  0.46667690420E+03  0.00000000000E+00 0.  1.
         13    1    3    3    0    0 -0.16136831065E+03 -0.14099799407E+03  0.15858015477E+03  0.26658550505E+03  0.00000000000E+00 0. -1.
        -14    1    3    3    0    0 -0.70468104373E+03 -0.41742335323E+03  0.55201166549E+03  0.98769150450E+03  0.00000000000E+00 0.  1.
          4    1    6    6  502    0  0.18665413295E+03  0.27411965346E+03  0.12183090913E+03  0.35330457141E+03  0.00000000000E+00 0. -1.
         -3    1    6    6    0  502  0.21391667737E+01  0.36264466509E+02  0.34020483000E+02  0.49770280582E+02  0.00000000000E+00 0.  1.
<mgrwt>
<rscale>  0 0.10624278E+04</rscale>
<asrwt>0</asrwt>
<pdfrwt beam="1">  1        1 0.22927132E+00 0.10624278E+04</pdfrwt>
<pdfrwt beam="2">  1       -2 0.14951415E+00 0.10624278E+04</pdfrwt>
<totfact> 0.17448665E+00</totfact>
</mgrwt>
</event>
<event>
12    3  0.2422421E-007  0.8874573E+03  0.7818608E-02  0.9441398E-01
          1   -1    0    0  501    0  0.00000000000E+00  0.00000000000E+00  0.18113187531E+04  0.18113187531E+04  0.00000000000E+00 0. -1.
         -2   -1    0    0    0  501 -0.00000000000E+00 -0.00000000000E+00 -0.52538297867E+03  0.52538297867E+03  0.00000000000E+00 0.  1.
        -24    2    1    2    0    0 -0.79139525068E+03  0.36739230673E+03  0.43446382720E+03  0.97794621642E+03  0.79601728730E+02 0.  0.
    5000000    2    1    2    0    0  0.79139525068E+03 -0.36739230673E+03  0.85147194721E+03  0.13587555153E+04  0.59994043346E+03 0.  0.
        -24    2    4    4    0    0  0.33026913744E+03 -0.56765055563E+02  0.69469480390E+03  0.77538455975E+03  0.79500756321E+02 0.  0.
         24    2    4    4    0    0  0.46112611324E+03 -0.31062725117E+03  0.15677714332E+03  0.58337095558E+03  0.81338906262E+02 0.  0.
         11    1    5    5    0    0  0.22726604758E+03 -0.65380814124E+02  0.53785590415E+03  0.58754870510E+03  0.00000000000E+00 0. -1.
        -12    1    5    5    0    0  0.10300308986E+03  0.86157585611E+01  0.15683889974E+03  0.18783585464E+03  0.00000000000E+00 0.  1.
         13    1    3    3    0    0 -0.72358174207E+03  0.31056623498E+03  0.39751192396E+03  0.88206442705E+03  0.00000000000E+00 0. -1.
        -14    1    3    3    0    0 -0.67813508613E+02  0.56826071747E+02  0.36951903240E+02  0.95881789375E+02  0.00000000000E+00 0.  1.
          2    1    6    6  502    0  0.30165497827E+03 -0.23654464174E+03  0.13389071219E+03  0.40604903184E+03  0.00000000000E+00 0. -1.
         -1    1    6    6    0  502  0.15947113497E+03 -0.74082609425E+02  0.22886431123E+02  0.17732192374E+03  0.00000000000E+00 0.  1.
<mgrwt>
<rscale>  0 0.88745729E+03</rscale>
<asrwt>0</asrwt>
<pdfrwt beam="1">  1        1 0.27866442E+00 0.88745729E+03</pdfrwt>
<pdfrwt beam="2">  1       -2 0.80828151E-01 0.88745729E+03</pdfrwt>
<totfact> 0.48356579E+00</totfact>
</mgrwt>
</event>
<event>
12    3  0.2422421E-007  0.6284313E+03  0.7818608E-02  0.9848115E-01
          1   -1    0    0  501    0  0.00000000000E+00  0.00000000000E+00  0.11421635823E+04  0.11421635823E+04  0.00000000000E+00 0. -1.
         -2   -1    0    0    0  501 -0.00000000000E+00 -0.00000000000E+00 -0.40451258362E+03  0.40451258362E+03  0.00000000000E+00 0.  1.
        -24    2    1    2    0    0 -0.51099539378E+03 -0.83350270792E+02  0.48858977727E+03  0.71594014017E+03  0.76070715534E+02 0.  0.
    5000000    2    1    2    0    0  0.51099539378E+03  0.83350270792E+02  0.24906122139E+03  0.83073602571E+03  0.60002274317E+03 0.  0.
        -24    2    4    4    0    0 -0.10592629619E+03 -0.14792901078E+02  0.14376336638E+03  0.19215299852E+03  0.69394950669E+02 0.  0.
         24    2    4    4    0    0  0.61692168997E+03  0.98143171870E+02  0.10529785501E+03  0.63858302720E+03  0.80474782471E+02 0.  0.
         11    1    3    3    0    0 -0.16444214177E+03 -0.85023790463E+01  0.19802857906E+03  0.25754383426E+03  0.00000000000E+00 0. -1.
        -12    1    3    3    0    0 -0.34655325201E+03 -0.74847891746E+02  0.29056119820E+03  0.45839630592E+03  0.00000000000E+00 0.  1.
         13    1    5    5    0    0 -0.58744202770E+02  0.37558805036E+01  0.12487140705E+03  0.13805019484E+03  0.00000000000E+00 0. -1.
        -14    1    5    5    0    0 -0.47182093423E+02 -0.18548781582E+02  0.18891959329E+02  0.54102803673E+02  0.00000000000E+00 0.  1.
          4    1    6    6  502    0  0.17559688447E+03  0.58093929876E+02  0.94553620627E+01  0.18519874296E+03  0.00000000000E+00 0. -1.
         -3    1    6    6    0  502  0.44132480550E+03  0.40049241994E+02  0.95842492949E+02  0.45338428423E+03  0.00000000000E+00 0.  1.
<mgrwt>
<rscale>  0 0.62843126E+03</rscale>
<asrwt>0</asrwt>
<pdfrwt beam="1">  1        1 0.17571747E+00 0.62843126E+03</pdfrwt>
<pdfrwt beam="2">  1       -2 0.62232706E-01 0.62843126E+03</pdfrwt>
<totfact> 0.25752535E+01</totfact>
</mgrwt>
</event>
<event>
12    3  0.2422421E-007  0.3015200E+03  0.7818608E-02  0.1084483E+00
         -2   -1    0    0    0  501 -0.00000000000E+00  0.00000000000E+00  0.71918447789E+03  0.71918447789E+03  0.00000000000E+00 0.  1.
          1   -1    0    0  501    0  0.00000000000E+00 -0.00000000000E+00 -0.32643901084E+03  0.32643901084E+03  0.00000000000E+00 0. -1.
        -24    2    1    2    0    0 -0.18002126329E+03  0.15862978156E+03 -0.54024005079E+02  0.25996820673E+03  0.84224773963E+02 0.  0.
    5000000    2    1    2    0    0  0.18002126329E+03 -0.15862978156E+03  0.44676947213E+03  0.78565528201E+03  0.60006682802E+03 0.  0.
        -24    2    4    4    0    0 -0.35866665322E+02 -0.90518845261E+02  0.51930145407E+03  0.53461225151E+03  0.81585416843E+02 0.  0.
         24    2    4    4    0    0  0.21588792861E+03 -0.68110936303E+02 -0.72531981935E+02  0.25104303050E+03  0.80715657681E+02 0.  0.
         11    1    5    5    0    0 -0.30374903685E+02  0.15382328349E+00  0.21202767174E+03  0.21419241822E+03  0.00000000000E+00 0. -1.
        -12    1    5    5    0    0 -0.54917616370E+01 -0.90672668545E+02  0.30727378232E+03  0.32041983330E+03  0.00000000000E+00 0.  1.
         13    1    3    3    0    0 -0.56225453120E+02  0.10554726261E+03 -0.24419420492E+02  0.12205668487E+03  0.00000000000E+00 0. -1.
        -14    1    3    3    0    0 -0.12379581017E+03  0.53082518952E+02 -0.29604584587E+02  0.13791152186E+03  0.00000000000E+00 0.  1.
          4    1    6    6  502    0  0.33510359156E+02 -0.20714016782E+01 -0.43448023368E+02  0.54908702500E+02  0.00000000000E+00 0. -1.
         -3    1    6    6    0  502  0.18237756945E+03 -0.66039534625E+02 -0.29083958567E+02  0.19613432800E+03  0.00000000000E+00 0.  1.
<mgrwt>
<rscale>  0 0.30151997E+03</rscale>
<asrwt>0</asrwt>
<pdfrwt beam="1">  1        1 0.50221387E-01 0.30151997E+03</pdfrwt>
<pdfrwt beam="2">  1       -2 0.11064376E+00 0.30151997E+03</pdfrwt>
<totfact> 0.46980740E+01</totfact>
</mgrwt>
</event>
<event>
12    3  0.2422421E-007  0.1403800E+04  0.7818608E-02  0.8951073E-01
          1   -1    0    0  501    0  0.00000000000E+00  0.00000000000E+00  0.23660900425E+04  0.23660900425E+04  0.00000000000E+00 0. -1.
         -2   -1    0    0    0  501 -0.00000000000E+00 -0.00000000000E+00 -0.12381182305E+04  0.12381182305E+04  0.00000000000E+00 0.  1.
        -24    2    1    2    0    0 -0.95966394333E+03 -0.96296820213E+03 -0.45252063695E+03  0.14350305550E+04  0.79215684154E+02 0.  0.
    5000000    2    1    2    0    0  0.95966394333E+03  0.96296820213E+03  0.15804924490E+04  0.21691777180E+04  0.59926033450E+03 0.  0.
        -24    2    4    4    0    0 -0.13565583141E+02  0.17502240679E+03  0.69273642243E+02  0.20497522798E+03  0.79994616382E+02 0.  0.
         24    2    4    4    0    0  0.97322952648E+03  0.78794579534E+03  0.15112188067E+04  0.19642024900E+04  0.79213965616E+02 0.  0.
         13    1    3    3    0    0 -0.15660138115E+03 -0.11970344017E+03 -0.56352727945E+02  0.20500862449E+03  0.00000000000E+00 0. -1.
        -14    1    3    3    0    0 -0.80306256218E+03 -0.84326476196E+03 -0.39616790900E+03  0.12300219306E+04  0.00000000000E+00 0.  1.
         13    1    5    5    0    0 -0.40423913357E+02  0.15222755577E+03  0.60027841189E+02  0.16855462979E+03  0.00000000000E+00 0. -1.
        -14    1    5    5    0    0  0.26858330216E+02  0.22794851023E+02  0.92458010537E+01  0.36420598186E+02  0.00000000000E+00 0.  1.
          2    1    6    6  502    0  0.63905764845E+03  0.54865722500E+03  0.10590985115E+04  0.13531847936E+04  0.00000000000E+00 0. -1.
         -1    1    6    6    0  502  0.33417187802E+03  0.23928857034E+03  0.45212029522E+03  0.61101769639E+03  0.00000000000E+00 0.  1.
<mgrwt>
<rscale>  0 0.14037999E+04</rscale>
<asrwt>0</asrwt>
<pdfrwt beam="1">  1        1 0.36401385E+00 0.14037999E+04</pdfrwt>
<pdfrwt beam="2">  1       -2 0.19047973E+00 0.14037999E+04</pdfrwt>
<totfact> 0.21556099E-01</totfact>
</mgrwt>
</event>
<event>
12    3  0.2422421E-007  0.6615062E+03  0.7818608E-02  0.9785425E-01
          1   -1    0    0  501    0  0.00000000000E+00  0.00000000000E+00  0.29897093767E+04  0.29897093767E+04  0.00000000000E+00 0. -1.
         -2   -1    0    0    0  501 -0.00000000000E+00 -0.00000000000E+00 -0.20653710133E+03  0.20653710133E+03  0.00000000000E+00 0.  1.
        -24    2    1    2    0    0 -0.33841779645E+03  0.47808184652E+03  0.53683294494E+03  0.79857070180E+03  0.80229035114E+02 0.  0.
    5000000    2    1    2    0    0  0.33841779645E+03 -0.47808184652E+03  0.22463393304E+04  0.23976757762E+04  0.59976652418E+03 0.  0.
        -24    2    4    4    0    0  0.35467804742E+03 -0.52832179634E+03  0.21991343340E+04  0.22907436077E+04  0.79962613778E+02 0.  0.
         24    2    4    4    0    0 -0.16260250966E+02  0.50239949829E+02  0.47204996452E+02  0.10693216850E+03  0.80110727439E+02 0.  0.
         11    1    5    5    0    0  0.24897316906E+03 -0.43044030495E+03  0.17117458442E+04  0.17825095597E+04  0.00000000000E+00 0. -1.
        -12    1    5    5    0    0  0.10570487836E+03 -0.97881491392E+02  0.48738848973E+03  0.50823404804E+03  0.00000000000E+00 0.  1.
         11    1    3    3    0    0 -0.24415612059E+03  0.33974876933E+03  0.43021249830E+03  0.60010351705E+03  0.00000000000E+00 0. -1.
        -12    1    3    3    0    0 -0.94261675864E+02  0.13833307719E+03  0.10662044664E+03  0.19846718475E+03  0.00000000000E+00 0.  1.
          2    1    6    6  502    0 -0.48557724466E+02  0.36824618336E+02  0.28614409158E+02  0.67325251818E+02  0.00000000000E+00 0. -1.
         -1    1    6    6    0  502  0.32297473499E+02  0.13415331493E+02  0.18590587294E+02  0.39606916687E+02  0.00000000000E+00 0.  1.
<mgrwt>
<rscale>  0 0.66150618E+03</rscale>
<asrwt>0</asrwt>
<pdfrwt beam="1">  1        1 0.45995526E+00 0.66150618E+03</pdfrwt>
<pdfrwt beam="2">  1       -2 0.31774941E-01 0.66150618E+03</pdfrwt>
<totfact> 0.53218968E+00</totfact>
</mgrwt>
</event>
<event>
12    3  0.2422421E-007  0.5920298E+03  0.7818608E-02  0.9922081E-01
         -2   -1    0    0    0  501 -0.00000000000E+00  0.00000000000E+00  0.97311772787E+03  0.97311772787E+03  0.00000000000E+00 0.  1.
          1   -1    0    0  501    0  0.00000000000E+00 -0.00000000000E+00 -0.82573380809E+03  0.82573380809E+03  0.00000000000E+00 0. -1.
        -24    2    1    2    0    0 -0.36853525905E+03 -0.25337447105E+03  0.72315790680E+03  0.85445195003E+03  0.84344039490E+02 0.  0.
    5000000    2    1    2    0    0  0.36853525905E+03  0.25337447105E+03 -0.57577398702E+03  0.94439958593E+03  0.60029828755E+03 0.  0.
        -24    2    4    4    0    0 -0.89551306484E+02  0.25116539023E+03 -0.16550228330E+03  0.32427759283E+03  0.81617778049E+02 0.  0.
         24    2    4    4    0    0  0.45808656553E+03  0.22090808242E+01 -0.41027170372E+03  0.62012199310E+03  0.79876366296E+02 0.  0.
         11    1    3    3    0    0 -0.18620139423E+03 -0.15173168840E+03  0.45616808975E+03  0.51554125983E+03  0.00000000000E+00 0. -1.
        -12    1    3    3    0    0 -0.18233386481E+03 -0.10164278266E+03  0.26698981705E+03  0.33891069020E+03  0.00000000000E+00 0.  1.
         13    1    5    5    0    0  0.58841242194E+01  0.28553014935E+02 -0.45334661800E+02  0.53899249905E+02  0.00000000000E+00 0. -1.
        -14    1    5    5    0    0 -0.95435430703E+02  0.22261237530E+03 -0.12016762150E+03  0.27037834293E+03  0.00000000000E+00 0.  1.
          4    1    6    6  502    0  0.33997666123E+03  0.33348392442E+02 -0.32171730887E+03  0.46925288735E+03  0.00000000000E+00 0. -1.
         -3    1    6    6    0  502  0.11810990430E+03 -0.31139311618E+02 -0.88554394848E+02  0.15086910575E+03  0.00000000000E+00 0.  1.
<mgrwt>
<rscale>  0 0.59202976E+03</rscale>
<asrwt>0</asrwt>
<pdfrwt beam="1">  1        1 0.12703597E+00 0.59202976E+03</pdfrwt>
<pdfrwt beam="2">  1       -2 0.14971042E+00 0.59202976E+03</pdfrwt>
<totfact> 0.58014398E+00</totfact>
</mgrwt>
</event>
<event>
12    3  0.2422421E-007  0.8830129E+03  0.7818608E-02  0.9447069E-01
         -2   -1    0    0    0  501 -0.00000000000E+00  0.00000000000E+00  0.43751918957E+03  0.43751918957E+03  0.00000000000E+00 0.  1.
          1   -1    0    0  501    0  0.00000000000E+00 -0.00000000000E+00 -0.18479292220E+04  0.18479292220E+04  0.00000000000E+00 0. -1.
        -24    2    1    2    0    0  0.80982870293E+02 -0.77984872015E+03 -0.80910971724E+03  0.11294795457E+04  0.79644573734E+02 0.  0.
    5000000    2    1    2    0    0 -0.80982870293E+02  0.77984872015E+03 -0.60130031523E+03  0.11559688659E+04  0.59998308156E+03 0.  0.
        -24    2    4    4    0    0 -0.24349227035E+03  0.90413303602E+02 -0.12919975822E+03  0.30097718198E+03  0.80197477253E+02 0.  0.
         24    2    4    4    0    0  0.16250940006E+03  0.68943541654E+03 -0.47210055701E+03  0.85499168389E+03  0.80008405157E+02 0.  0.
         11    1    5    5    0    0 -0.14295751560E+03  0.10818331922E+02 -0.74517194337E+02  0.16157567832E+03  0.00000000000E+00 0. -1.
        -12    1    5    5    0    0 -0.10053475475E+03  0.79594971680E+02 -0.54682563881E+02  0.13940150366E+03  0.00000000000E+00 0.  1.
         13    1    3    3    0    0  0.30493339990E+02 -0.32509934788E+03 -0.28155343224E+03  0.43115167283E+03  0.00000000000E+00 0. -1.
        -14    1    3    3    0    0  0.50489530303E+02 -0.45474937226E+03 -0.52755628501E+03  0.69832787292E+03  0.00000000000E+00 0.  1.
          4    1    6    6  502    0  0.72751982083E+02  0.42305531481E+03 -0.25014547205E+03  0.49683136724E+03  0.00000000000E+00 0. -1.
         -3    1    6    6    0  502  0.89757417976E+02  0.26638010173E+03 -0.22195508497E+03  0.35816031665E+03  0.00000000000E+00 0.  1.
<mgrwt>
<rscale>  0 0.88301289E+03</rscale>
<asrwt>0</asrwt>
<pdfrwt beam="1">  1        1 0.28429681E+00 0.88301289E+03</pdfrwt>
<pdfrwt beam="2">  1       -2 0.67310644E-01 0.88301289E+03</pdfrwt>
<totfact> 0.68554837E+00</totfact>
</mgrwt>
</event>
<event>
12    3  0.2422421E-007  0.6919095E+03  0.7818608E-02  0.9731169E-01
         -2   -1    0    0    0  501 -0.00000000000E+00  0.00000000000E+00  0.62299169688E+03  0.62299169688E+03  0.00000000000E+00 0.  1.
          1   -1    0    0  501    0  0.00000000000E+00 -0.00000000000E+00 -0.10487815604E+04  0.10487815604E+04  0.00000000000E+00 0. -1.
        -24    2    1    2    0    0 -0.35108656278E+03  0.44410772751E+03 -0.59985375648E+03  0.82874246573E+03  0.80598369315E+02 0.  0.
    5000000    2    1    2    0    0  0.35108656278E+03 -0.44410772751E+03  0.17406389296E+03  0.84303079155E+03  0.59992435229E+03 0.  0.
        -24    2    4    4    0    0 -0.71804165511E+02 -0.36964074176E+03  0.11981874663E+03  0.40303997954E+03  0.79338369729E+02 0.  0.
         24    2    4    4    0    0  0.42289072829E+03 -0.74466985743E+02  0.54245146338E+02  0.43999081200E+03  0.79167409378E+02 0.  0.
         13    1    5    5    0    0 -0.77411802313E+02 -0.29043993860E+03  0.11998076613E+03  0.32364074112E+03  0.00000000000E+00 0. -1.
        -14    1    5    5    0    0  0.56076368027E+01 -0.79200803166E+02 -0.16201949831E+00  0.79399238428E+02  0.00000000000E+00 0.  1.
         13    1    3    3    0    0 -0.25670637333E+03  0.28293666371E+03 -0.44179188364E+03  0.58406453943E+03  0.00000000000E+00 0. -1.
        -14    1    3    3    0    0 -0.94380189449E+02  0.16117106380E+03 -0.15806187285E+03  0.24467792629E+03  0.00000000000E+00 0.  1.
          2    1    6    6  502    0  0.22654373499E+03 -0.44880131086E+01  0.47052715413E+02  0.23142204768E+03  0.00000000000E+00 0. -1.
         -1    1    6    6    0  502  0.19634699330E+03 -0.69978972635E+02  0.71924309243E+01  0.20856876432E+03  0.00000000000E+00 0.  1.
<mgrwt>
<rscale>  0 0.69190947E+03</rscale>
<asrwt>0</asrwt>
<pdfrwt beam="1">  1        1 0.16135101E+00 0.69190947E+03</pdfrwt>
<pdfrwt beam="2">  1       -2 0.95844878E-01 0.69190947E+03</pdfrwt>
<totfact> 0.11456498E+01</totfact>
</mgrwt>
</event>
<event>
12    3  0.2422421E-007  0.3973567E+03  0.7818608E-02  0.1044699E+00
         -2   -1    0    0    0  501 -0.00000000000E+00  0.00000000000E+00  0.42538793835E+03  0.42538793835E+03  0.00000000000E+00 0.  1.
          1   -1    0    0  501    0  0.00000000000E+00 -0.00000000000E+00 -0.70927543844E+03  0.70927543844E+03  0.00000000000E+00 0. -1.
        -24    2    1    2    0    0 -0.29977418103E+03 -0.23291236334E+03 -0.12181700158E+03  0.40637442603E+03  0.78664246314E+02 0.  0.
    5000000    2    1    2    0    0  0.29977418103E+03  0.23291236334E+03 -0.16207049851E+03  0.72828895076E+03  0.60002101689E+03 0.  0.
        -24    2    4    4    0    0  0.13206121521E+03  0.79080120654E+02  0.21804198947E+03  0.27810333322E+03  0.78136577430E+02 0.  0.
         24    2    4    4    0    0  0.16771296582E+03  0.15383224269E+03 -0.38011248798E+03  0.45018561754E+03  0.79934904306E+02 0.  0.
         11    1    3    3    0    0 -0.22536101431E+03 -0.15534525603E+03 -0.12001448977E+03  0.29886989326E+03  0.00000000000E+00 0. -1.
        -12    1    3    3    0    0 -0.74413166717E+02 -0.77567107310E+02 -0.18025118140E+01  0.10750453277E+03  0.00000000000E+00 0.  1.
         11    1    5    5    0    0  0.18525242762E+01 -0.12948199702E+02  0.14166679637E+02  0.19281663145E+02  0.00000000000E+00 0. -1.
        -12    1    5    5    0    0  0.13020869094E+03  0.92028320356E+02  0.20387530983E+03  0.25882167008E+03  0.00000000000E+00 0.  1.
          2    1    6    6  502    0  0.75577917849E+02  0.19437366772E+02 -0.11408190329E+03  0.13821907811E+03  0.00000000000E+00 0. -1.
         -1    1    6    6    0  502  0.92135047966E+02  0.13439487592E+03 -0.26603058469E+03  0.31196653943E+03  0.00000000000E+00 0.  1.
<mgrwt>
<rscale>  0 0.39735670E+03</rscale>
<asrwt>0</asrwt>
<pdfrwt beam="1">  1        1 0.10911930E+00 0.39735670E+03</pdfrwt>
<pdfrwt beam="2">  1       -2 0.65444299E-01 0.39735670E+03</pdfrwt>
<totfact> 0.53143735E+01</totfact>
</mgrwt>
</event>
<event>
12    3  0.2422421E-007  0.4207768E+03  0.7818608E-02  0.1036814E+00
          1   -1    0    0  501    0  0.00000000000E+00  0.00000000000E+00  0.86545058498E+03  0.86545058498E+03  0.00000000000E+00 0. -1.
         -2   -1    0    0    0  501 -0.00000000000E+00 -0.00000000000E+00 -0.30399404348E+03  0.30399404348E+03  0.00000000000E+00 0.  1.
        -24    2    1    2    0    0 -0.14795587257E+03  0.23832535954E+03  0.38614914744E+03  0.48463852363E+03  0.84103610424E+02 0.  0.
    5000000    2    1    2    0    0  0.14795587257E+03 -0.23832535954E+03  0.17530739406E+03  0.68480610483E+03  0.59961387706E+03 0.  0.
        -24    2    4    4    0    0 -0.17312248370E+03 -0.14054260576E+03  0.23518384958E+03  0.33479241228E+03  0.83969624355E+02 0.  0.
         24    2    4    4    0    0  0.32107835627E+03 -0.97782753785E+02 -0.59876455521E+02  0.35001369255E+03  0.79193542944E+02 0.  0.
         13    1    3    3    0    0 -0.10234146313E+03  0.17078592729E+03  0.33088282165E+03  0.38616712665E+03  0.00000000000E+00 0. -1.
        -14    1    3    3    0    0 -0.45614409443E+02  0.67539432253E+02  0.55266325785E+02  0.98471396982E+02  0.00000000000E+00 0.  1.
         13    1    5    5    0    0 -0.89784974678E+02 -0.83248779050E+02  0.18511599785E+03  0.22194511383E+03  0.00000000000E+00 0. -1.
        -14    1    5    5    0    0 -0.83337509026E+02 -0.57293826709E+02  0.50067851731E+02  0.11284729845E+03  0.00000000000E+00 0.  1.
          4    1    6    6  502    0  0.68910333840E+02 -0.65762578791E+01 -0.42645755690E+02  0.81305238183E+02  0.00000000000E+00 0. -1.
         -3    1    6    6    0  502  0.25216802243E+03 -0.91206495906E+02 -0.17230699831E+02  0.26870845437E+03  0.00000000000E+00 0.  1.
<mgrwt>
<rscale>  0 0.42077683E+03</rscale>
<asrwt>0</asrwt>
<pdfrwt beam="1">  1        1 0.13314624E+00 0.42077683E+03</pdfrwt>
<pdfrwt beam="2">  1       -2 0.46768315E-01 0.42077683E+03</pdfrwt>
<totfact> 0.77661878E+01</totfact>
</mgrwt>
</event>
<event>
12    3  0.2422421E-007  0.6545012E+03  0.7818608E-02  0.9798370E-01
          1   -1    0    0  501    0  0.00000000000E+00  0.00000000000E+00  0.14130062490E+04  0.14130062490E+04  0.00000000000E+00 0. -1.
         -2   -1    0    0    0  501 -0.00000000000E+00 -0.00000000000E+00 -0.32167798698E+03  0.32167798698E+03  0.00000000000E+00 0.  1.
        -24    2    1    2    0    0 -0.10758549794E+03  0.52563937399E+03  0.48429020273E+03  0.72658340390E+03  0.74263392728E+02 0.  0.
    5000000    2    1    2    0    0  0.10758549794E+03 -0.52563937399E+03  0.60703805930E+03  0.10081008321E+04  0.59991723709E+03 0.  0.
        -24    2    4    4    0    0  0.32614701226E+03 -0.29644348915E+03  0.21309031489E+03  0.49592456010E+03  0.79265825806E+02 0.  0.
         24    2    4    4    0    0 -0.21856151432E+03 -0.22919588484E+03  0.39394774441E+03  0.51217627198E+03  0.82642719553E+02 0.  0.
         11    1    3    3    0    0 -0.10139128386E+03  0.32772427426E+03  0.29058853097E+03  0.44958323669E+03  0.00000000000E+00 0. -1.
        -12    1    3    3    0    0 -0.61942140880E+01  0.19791509973E+03  0.19370167176E+03  0.27700016720E+03  0.00000000000E+00 0.  1.
         11    1    5    5    0    0  0.41776267135E+02 -0.37714171065E+02  0.59559347450E+02  0.81944682949E+02  0.00000000000E+00 0. -1.
        -12    1    5    5    0    0  0.28437074513E+03 -0.25872931809E+03  0.15353096744E+03  0.41397987715E+03  0.00000000000E+00 0.  1.
          2    1    6    6  502    0 -0.15849432370E+03 -0.10756947580E+03  0.22419325613E+03  0.29488007539E+03  0.00000000000E+00 0. -1.
         -1    1    6    6    0  502 -0.60067190615E+02 -0.12162640904E+03  0.16975448828E+03  0.21729619659E+03  0.00000000000E+00 0.  1.
<mgrwt>
<rscale>  0 0.65450116E+03</rscale>
<asrwt>0</asrwt>
<pdfrwt beam="1">  1        1 0.21738557E+00 0.65450116E+03</pdfrwt>
<pdfrwt beam="2">  1       -2 0.49488922E-01 0.65450116E+03</pdfrwt>
<totfact> 0.26536706E+01</totfact>
</mgrwt>
</event>
<event>
12    3  0.2422421E-007  0.1056924E+04  0.7818608E-02  0.9248225E-01
          3   -1    0    0  501    0  0.00000000000E+00  0.00000000000E+00  0.12948898244E+04  0.12948898244E+04  0.00000000000E+00 0. -1.
         -4   -1    0    0    0  501 -0.00000000000E+00 -0.00000000000E+00 -0.13957270494E+04  0.13957270494E+04  0.00000000000E+00 0.  1.
        -24    2    1    2    0    0  0.10187896631E+04  0.11212926087E+03  0.71287087513E+03  0.12508397643E+04  0.76875760191E+02 0.  0.
    5000000    2    1    2    0    0 -0.10187896631E+04 -0.11212926087E+03 -0.81370810007E+03  0.14397771095E+04  0.60027652313E+03 0.  0.
        -24    2    4    4    0    0 -0.28039120204E+03 -0.19155465148E+03 -0.19260243422E+02  0.34928489725E+03  0.79476863188E+02 0.  0.
         24    2    4    4    0    0 -0.73839846107E+03  0.79425390611E+02 -0.79444785665E+03  0.10904922123E+04  0.80530665848E+02 0.  0.
         11    1    5    5    0    0 -0.15118399858E+03 -0.11964983475E+03  0.26229840549E+02  0.19457823341E+03  0.00000000000E+00 0. -1.
        -12    1    5    5    0    0 -0.12920720346E+03 -0.71904816731E+02 -0.45490083971E+02  0.15470666384E+03  0.00000000000E+00 0.  1.
         13    1    3    3    0    0  0.53958344644E+03  0.91549980040E+02  0.40566146689E+03  0.68124365703E+03  0.00000000000E+00 0. -1.
        -14    1    3    3    0    0  0.47920621667E+03  0.20579280832E+02  0.30720940824E+03  0.56959610726E+03  0.00000000000E+00 0.  1.
          2    1    6    6  502    0 -0.23834009149E+03  0.60113209717E+02 -0.28532718060E+03  0.37660482894E+03  0.00000000000E+00 0. -1.
         -1    1    6    6    0  502 -0.50005836959E+03  0.19312180894E+02 -0.50912067605E+03  0.71388738335E+03  0.00000000000E+00 0.  1.
<mgrwt>
<rscale>  0 0.10569238E+04</rscale>
<asrwt>0</asrwt>
<pdfrwt beam="1">  1        3 0.19921382E+00 0.10569238E+04</pdfrwt>
<pdfrwt beam="2">  1       -4 0.21472724E+00 0.10569238E+04</pdfrwt>
<totfact> 0.34390108E-02</totfact>
</mgrwt>
</event>
<event>
12    3  0.2422421E-007  0.9936077E+03  0.7818608E-02  0.9315584E-01
          1   -1    0    0  501    0  0.00000000000E+00  0.00000000000E+00  0.32270200427E+04  0.32270200427E+04  0.00000000000E+00 0. -1.
         -2   -1    0    0    0  501 -0.00000000000E+00 -0.00000000000E+00 -0.34155106363E+03  0.34155106363E+03  0.00000000000E+00 0.  1.
        -24    2    1    2    0    0  0.51786156408E+03 -0.81096082713E+03  0.13034548363E+04  0.16221468621E+04  0.80795230012E+02 0.  0.
    5000000    2    1    2    0    0 -0.51786156408E+03  0.81096082713E+03  0.15820141427E+04  0.19464242442E+04  0.59996710574E+03 0.  0.
        -24    2    4    4    0    0 -0.15944474039E+02  0.31164401511E+03  0.91696521014E+03  0.97179627233E+03  0.78654814887E+02 0.  0.
         24    2    4    4    0    0 -0.50191709004E+03  0.49931681202E+03  0.66504893257E+03  0.97462797187E+03  0.79822031985E+02 0.  0.
         11    1    3    3    0    0  0.27610587167E+03 -0.36844553240E+03  0.65760078012E+03  0.80276107824E+03  0.00000000000E+00 0. -1.
        -12    1    3    3    0    0  0.24175569241E+03 -0.44251529473E+03  0.64585405620E+03  0.81938578386E+03  0.00000000000E+00 0.  1.
         13    1    5    5    0    0  0.18428557951E+01  0.25202757543E+03  0.63799221045E+03  0.68597037508E+03  0.00000000000E+00 0. -1.
        -14    1    5    5    0    0 -0.17787329834E+02  0.59616439676E+02  0.27897299969E+03  0.28582589724E+03  0.00000000000E+00 0.  1.
          4    1    6    6  502    0 -0.20717420155E+03  0.22091880429E+03  0.23285005598E+03  0.38202803097E+03  0.00000000000E+00 0. -1.
         -3    1    6    6    0  502 -0.29474288849E+03  0.27839800772E+03  0.43219887659E+03  0.59259994090E+03  0.00000000000E+00 0.  1.
<mgrwt>
<rscale>  0 0.99360765E+03</rscale>
<asrwt>0</asrwt>
<pdfrwt beam="1">  1        1 0.49646460E+00 0.99360765E+03</pdfrwt>
<pdfrwt beam="2">  1       -2 0.52546320E-01 0.99360765E+03</pdfrwt>
<totfact> 0.12559270E+00</totfact>
</mgrwt>
</event>
<event>
12    3  0.2422421E-007  0.5990347E+03  0.7818608E-02  0.9907411E-01
          1   -1    0    0  501    0  0.00000000000E+00  0.00000000000E+00  0.83939671187E+03  0.83939671187E+03  0.00000000000E+00 0. -1.
         -2   -1    0    0    0  501 -0.00000000000E+00 -0.00000000000E+00 -0.52872461445E+03  0.52872461445E+03  0.00000000000E+00 0.  1.
        -24    2    1    2    0    0 -0.46512102143E+03 -0.14141008480E+03 -0.85956236192E+02  0.49995512039E+03  0.78944735152E+02 0.  0.
    5000000    2    1    2    0    0  0.46512102143E+03  0.14141008480E+03  0.39662833362E+03  0.86816620592E+03  0.60005345547E+03 0.  0.
        -24    2    4    4    0    0  0.50337329580E+02  0.26692142739E+03  0.30971189874E+03  0.41916233760E+03  0.77425511908E+02 0.  0.
         24    2    4    4    0    0  0.41478369185E+03 -0.12551134259E+03  0.86916434877E+02  0.44900386832E+03  0.79065788882E+02 0.  0.
         13    1    3    3    0    0 -0.30933855889E+03 -0.11994253613E+03 -0.30368817469E+02  0.33316485569E+03  0.00000000000E+00 0. -1.
        -14    1    3    3    0    0 -0.15578246254E+03 -0.21467548666E+02 -0.55587418723E+02  0.16679026471E+03  0.00000000000E+00 0.  1.
         13    1    5    5    0    0  0.40539874110E+02  0.22437642921E+03  0.20862815754E+03  0.30905334733E+03  0.00000000000E+00 0. -1.
        -14    1    5    5    0    0  0.97974554705E+01  0.42544998183E+02  0.10108374120E+03  0.11010899028E+03  0.00000000000E+00 0.  1.
          2    1    6    6  502    0  0.12159883207E+03 -0.91692157522E+01  0.46004744267E+00  0.12194491429E+03  0.00000000000E+00 0. -1.
         -1    1    6    6    0  502  0.29318485978E+03 -0.11634212684E+03  0.86456387434E+02  0.32705895403E+03  0.00000000000E+00 0.  1.
<mgrwt>
<rscale>  0 0.59903467E+03</rscale>
<asrwt>0</asrwt>
<pdfrwt beam="1">  1        1 0.12913796E+00 0.59903467E+03</pdfrwt>
<pdfrwt beam="2">  1       -2 0.81342248E-01 0.59903467E+03</pdfrwt>
<totfact> 0.24757118E+01</totfact>
</mgrwt>
</event>
<event>
12    3  0.2422421E-007  0.6347962E+03  0.7818608E-02  0.9835734E-01
         -4   -1    0    0    0  501 -0.00000000000E+00  0.00000000000E+00  0.51666788565E+03  0.51666788565E+03  0.00000000000E+00 0.  1.
          3   -1    0    0  501    0  0.00000000000E+00 -0.00000000000E+00 -0.28912587736E+04  0.28912587736E+04  0.00000000000E+00 0. -1.
        -24    2    1    2    0    0  0.29497509883E+03  0.40042822316E+03  0.32402544679E+03  0.59903054035E+03  0.80573117563E+02 0.  0.
    5000000    2    1    2    0    0 -0.29497509883E+03 -0.40042822316E+03 -0.26986163348E+04  0.28088961189E+04  0.60001184478E+03 0.  0.
        -24    2    4    4    0    0 -0.29263127970E+03  0.56025493020E+02 -0.12766446480E+04  0.13133404558E+04  0.79181272186E+02 0.  0.
         24    2    4    4    0    0 -0.23438191306E+01 -0.45645371617E+03 -0.14219716867E+04  0.14955556631E+04  0.79547313293E+02 0.  0.
         13    1    5    5    0    0 -0.79026509882E+02 -0.10975216542E+02 -0.24417334390E+03  0.25687792142E+03  0.00000000000E+00 0. -1.
        -14    1    5    5    0    0 -0.21360476981E+03  0.67000709562E+02 -0.10324713041E+04  0.10564625344E+04  0.00000000000E+00 0.  1.
         13    1    3    3    0    0  0.24223463510E+03  0.26780639933E+03  0.23208822470E+03  0.42925846527E+03  0.00000000000E+00 0. -1.
        -14    1    3    3    0    0  0.52740463722E+02  0.13262182383E+03  0.91937222091E+02  0.16977207507E+03  0.00000000000E+00 0.  1.
          4    1    6    6  502    0 -0.37213037805E+02 -0.23820513387E+03 -0.79607625796E+03  0.83178356829E+03  0.00000000000E+00 0. -1.
         -3    1    6    6    0  502  0.34869218674E+02 -0.21824858230E+03 -0.62589542875E+03  0.66377209479E+03  0.00000000000E+00 0.  1.
<mgrwt>
<rscale>  0 0.63479624E+03</rscale>
<asrwt>0</asrwt>
<pdfrwt beam="1">  1        3 0.44480904E+00 0.63479624E+03</pdfrwt>
<pdfrwt beam="2">  1       -4 0.79487367E-01 0.63479624E+03</pdfrwt>
<totfact> 0.21724370E-02</totfact>
</mgrwt>
</event>
<event>
12    3  0.2422421E-007  0.7214444E+03  0.7818608E-02  0.9681246E-01
         -2   -1    0    0    0  501 -0.00000000000E+00  0.00000000000E+00  0.14337090254E+04  0.14337090254E+04  0.00000000000E+00 0.  1.
          1   -1    0    0  501    0  0.00000000000E+00 -0.00000000000E+00 -0.92505122135E+03  0.92505122135E+03  0.00000000000E+00 0. -1.
        -24    2    1    2    0    0  0.65827148419E+03 -0.28931065199E+03  0.10518035090E+04  0.12762017175E+04  0.73336225076E+02 0.  0.
    5000000    2    1    2    0    0 -0.65827148419E+03  0.28931065199E+03 -0.54314570489E+03  0.10825585293E+04  0.59991975498E+03 0.  0.
        -24    2    4    4    0    0 -0.55683416380E+03  0.22941819977E+03 -0.98052087496E+02  0.61517372820E+03  0.78278398343E+02 0.  0.
         24    2    4    4    0    0 -0.10143732038E+03  0.59892452224E+02 -0.44509361740E+03  0.46738480112E+03  0.80396444367E+02 0.  0.
         11    1    3    3    0    0  0.60871883647E+03 -0.27183812399E+03  0.10039401473E+04  0.12051267182E+04  0.00000000000E+00 0. -1.
        -12    1    3    3    0    0  0.49552647716E+02 -0.17472528007E+02  0.47863361658E+02  0.71074999260E+02  0.00000000000E+00 0.  1.
         11    1    5    5    0    0 -0.12955901560E+03  0.35437052382E+02 -0.50602801888E+02  0.14353385232E+03  0.00000000000E+00 0. -1.
        -12    1    5    5    0    0 -0.42727514820E+03  0.19398114739E+03 -0.47449285608E+02  0.47163987588E+03  0.00000000000E+00 0.  1.
          4    1    6    6  502    0 -0.14967965933E+02  0.56519134652E-01 -0.64246338964E+01  0.16288619318E+02  0.00000000000E+00 0. -1.
         -1    1    6    6    0  502 -0.86469354452E+02  0.59835933089E+02 -0.43866898350E+03  0.45109618180E+03  0.00000000000E+00 0.  1.
<mgrwt>
<rscale>  0 0.72144442E+03</rscale>
<asrwt>0</asrwt>
<pdfrwt beam="1">  1        1 0.14231557E+00 0.72144442E+03</pdfrwt>
<pdfrwt beam="2">  1       -2 0.22057062E+00 0.72144442E+03</pdfrwt>
<totfact> 0.15499750E+00</totfact>
</mgrwt>
</event>
<event>
12    3  0.2422421E-007  0.5279962E+03  0.7818608E-02  0.1006719E+00
          1   -1    0    0  501    0  0.00000000000E+00  0.00000000000E+00  0.31382982008E+03  0.31382982008E+03  0.00000000000E+00 0. -1.
         -2   -1    0    0    0  501 -0.00000000000E+00 -0.00000000000E+00 -0.10313085744E+04  0.10313085744E+04  0.00000000000E+00 0.  1.
        -24    2    1    2    0    0 -0.34324131151E+03 -0.17518238571E+03 -0.11054464797E+03  0.40875245287E+03  0.79718143114E+02 0.  0.
    5000000    2    1    2    0    0  0.34324131151E+03  0.17518238571E+03 -0.60693410630E+03  0.93638594158E+03  0.59995512832E+03 0.  0.
        -24    2    4    4    0    0 -0.11567612711E+03 -0.47714602007E+02 -0.30082604726E+03  0.33594296710E+03  0.81876228564E+02 0.  0.
         24    2    4    4    0    0  0.45891743862E+03  0.22289698772E+03 -0.30610805904E+03  0.60044297448E+03  0.80878545913E+02 0.  0.
         11    1    5    5    0    0 -0.52250161534E+02  0.20224261864E+02 -0.12756674612E+03  0.13932829886E+03  0.00000000000E+00 0. -1.
        -12    1    5    5    0    0 -0.63425965578E+02 -0.67938863871E+02 -0.17325930114E+03  0.19661466824E+03  0.00000000000E+00 0.  1.
         13    1    3    3    0    0 -0.22478884110E+03 -0.71655731440E+02 -0.73721229992E+02  0.24718290128E+03  0.00000000000E+00 0. -1.
        -14    1    3    3    0    0 -0.11845247040E+03 -0.10352665427E+03 -0.36823417981E+02  0.16156955159E+03  0.00000000000E+00 0.  1.
          4    1    6    6  502    0  0.36350175221E+03  0.14802491772E+03 -0.25947544935E+03  0.47050229430E+03  0.00000000000E+00 0. -1.
         -3    1    6    6    0  502  0.95415686404E+02  0.74872070000E+02 -0.46632609690E+02  0.12994068018E+03  0.00000000000E+00 0.  1.
<mgrwt>
<rscale>  0 0.52799622E+03</rscale>
<asrwt>0</asrwt>
<pdfrwt beam="1">  1        1 0.48281511E-01 0.52799622E+03</pdfrwt>
<pdfrwt beam="2">  1       -2 0.15866286E+00 0.52799622E+03</pdfrwt>
<totfact> 0.19341139E+01</totfact>
</mgrwt>
</event>
<event>
12    3  0.2422421E-007  0.3819372E+03  0.7818608E-02  0.1050220E+00
         -2   -1    0    0    0  501 -0.00000000000E+00  0.00000000000E+00  0.80136766698E+02  0.80136766698E+02  0.00000000000E+00 0.  1.
          1   -1    0    0  501    0  0.00000000000E+00 -0.00000000000E+00 -0.21404067164E+04  0.21404067164E+04  0.00000000000E+00 0. -1.
        -24    2    1    2    0    0 -0.12249811864E+02  0.13745247312E+03 -0.17200488599E+03  0.23424134624E+03  0.78994222756E+02 0.  0.
    5000000    2    1    2    0    0  0.12249811864E+02 -0.13745247312E+03 -0.18882650637E+04  0.19863021369E+04  0.60067294577E+03 0.  0.
        -24    2    4    4    0    0 -0.19248652729E+03 -0.28155937681E+03 -0.97532409087E+03  0.10364151560E+04  0.81071248927E+02 0.  0.
         24    2    4    4    0    0  0.20473633915E+03  0.14410690369E+03 -0.91294097284E+03  0.94988698090E+03  0.78359991891E+02 0.  0.
         13    1    3    3    0    0 -0.44920433292E+02  0.73041584052E+02 -0.79975422738E+02  0.11725607264E+03  0.00000000000E+00 0. -1.
        -14    1    3    3    0    0  0.32670621427E+02  0.64410889064E+02 -0.92029463247E+02  0.11698527360E+03  0.00000000000E+00 0.  1.
         13    1    5    5    0    0 -0.90983694720E+02 -0.19716513806E+03 -0.65081682230E+03  0.68608648183E+03  0.00000000000E+00 0. -1.
        -14    1    5    5    0    0 -0.10150283257E+03 -0.84394238742E+02 -0.32450726858E+03  0.35032867412E+03  0.00000000000E+00 0.  1.
          2    1    6    6  502    0  0.16557834363E+03  0.85722591061E+02 -0.56681605562E+03  0.59669505730E+03  0.00000000000E+00 0. -1.
         -1    1    6    6    0  502  0.39157995522E+02  0.58384312630E+02 -0.34612491722E+03  0.35319192360E+03  0.00000000000E+00 0.  1.
<mgrwt>
<rscale>  0 0.38193720E+03</rscale>
<asrwt>0</asrwt>
<pdfrwt beam="1">  1        1 0.32929334E+00 0.38193720E+03</pdfrwt>
<pdfrwt beam="2">  1       -2 0.12328733E-01 0.38193720E+03</pdfrwt>
<totfact> 0.11119608E+02</totfact>
</mgrwt>
</event>
<event>
12    3  0.2422421E-007  0.6073374E+03  0.7818608E-02  0.9890299E-01
         -2   -1    0    0    0  501 -0.00000000000E+00  0.00000000000E+00  0.10119194548E+04  0.10119194548E+04  0.00000000000E+00 0.  1.
          1   -1    0    0  501    0  0.00000000000E+00 -0.00000000000E+00 -0.10437151772E+04  0.10437151772E+04  0.00000000000E+00 0. -1.
        -24    2    1    2    0    0 -0.49463446377E+03 -0.25475229355E+03 -0.77010742052E+03  0.95352867173E+03  0.81175765179E+02 0.  0.
    5000000    2    1    2    0    0  0.49463446377E+03  0.25475229355E+03  0.73831169814E+03  0.11021059603E+04  0.59997616645E+03 0.  0.
        -24    2    4    4    0    0  0.25627785679E+03 -0.45357654436E+02  0.64502849689E+03  0.70012526185E+03  0.79862154946E+02 0.  0.
         24    2    4    4    0    0  0.23835660698E+03  0.30010994799E+03  0.93283201251E+02  0.40198069845E+03  0.77504021300E+02 0.  0.
         11    1    3    3    0    0 -0.35701798100E+03 -0.14696809465E+03 -0.49837524934E+03  0.63042790925E+03  0.00000000000E+00 0. -1.
        -12    1    3    3    0    0 -0.13761648276E+03 -0.10778419890E+03 -0.27173217118E+03  0.32310076248E+03  0.00000000000E+00 0.  1.
         13    1    5    5    0    0  0.15734444180E+03  0.87200945790E+01  0.33449797227E+03  0.36975966096E+03  0.00000000000E+00 0. -1.
        -14    1    5    5    0    0  0.98933414989E+02 -0.54077749015E+02  0.31053052461E+03  0.33036560090E+03  0.00000000000E+00 0.  1.
          4    1    6    6  502    0  0.23337230634E+03  0.29051560011E+03  0.10387140369E+03  0.38684779407E+03  0.00000000000E+00 0. -1.
         -3    1    6    6    0  502  0.49843006363E+01  0.95943478761E+01 -0.10588202435E+02  0.15132904375E+02  0.00000000000E+00 0.  1.
<mgrwt>
<rscale>  0 0.60733739E+03</rscale>
<asrwt>0</asrwt>
<pdfrwt beam="1">  1        1 0.16057156E+00 0.60733739E+03</pdfrwt>
<pdfrwt beam="2">  1       -2 0.15567992E+00 0.60733739E+03</pdfrwt>
<totfact> 0.34983856E+00</totfact>
</mgrwt>
</event>
<event>
12    3  0.2422421E-007  0.7054352E+03  0.7818608E-02  0.9707982E-01
          1   -1    0    0  501    0  0.00000000000E+00  0.00000000000E+00  0.12448010548E+04  0.12448010548E+04  0.00000000000E+00 0. -1.
         -2   -1    0    0    0  501 -0.00000000000E+00 -0.00000000000E+00 -0.48136135557E+03  0.48136135557E+03  0.00000000000E+00 0.  1.
        -24    2    1    2    0    0  0.57267217760E+03  0.30049914255E+03  0.44072467349E+03  0.78675389189E+03  0.80562341765E+02 0.  0.
    5000000    2    1    2    0    0 -0.57267217760E+03 -0.30049914255E+03  0.32271502572E+03  0.93940851846E+03  0.60007517783E+03 0.  0.
        -24    2    4    4    0    0 -0.54412580459E+03 -0.38393323398E+03  0.88253429337E+02  0.67643618067E+03  0.79370141446E+02 0.  0.
         24    2    4    4    0    0 -0.28546373010E+02  0.83434091434E+02  0.23446159639E+03  0.26297233778E+03  0.80037911228E+02 0.  0.
         11    1    5    5    0    0 -0.40263134786E+03 -0.32471174072E+03  0.69922052317E+02  0.52195671300E+03  0.00000000000E+00 0. -1.
        -12    1    5    5    0    0 -0.14149445673E+03 -0.59221493260E+02  0.18331377020E+02  0.15447946767E+03  0.00000000000E+00 0.  1.
         13    1    3    3    0    0  0.37550459718E+03  0.15572113011E+03  0.25874697199E+03  0.48187422464E+03  0.00000000000E+00 0. -1.
        -14    1    3    3    0    0  0.19716758042E+03  0.14477801244E+03  0.18197770150E+03  0.30487966724E+03  0.00000000000E+00 0.  1.
          4    1    6    6  502    0 -0.93932970202E+01  0.12538551720E+02  0.15096463127E+03  0.15177539064E+03  0.00000000000E+00 0. -1.
         -3    1    6    6    0  502 -0.19153075990E+02  0.70895539713E+02  0.83496965114E+02  0.11119694714E+03  0.00000000000E+00 0.  1.
<mgrwt>
<rscale>  0 0.70543520E+03</rscale>
<asrwt>0</asrwt>
<pdfrwt beam="1">  1        1 0.19150785E+00 0.70543520E+03</pdfrwt>
<pdfrwt beam="2">  1       -2 0.74055594E-01 0.70543520E+03</pdfrwt>
<totfact> 0.14750699E+01</totfact>
</mgrwt>
</event>
<event>
12    3  0.2422421E-007  0.1494043E+04  0.7818608E-02  0.8888424E-01
          1   -1    0    0  501    0  0.00000000000E+00  0.00000000000E+00  0.44618409625E+04  0.44618409625E+04  0.00000000000E+00 0. -1.
         -2   -1    0    0    0  501 -0.00000000000E+00 -0.00000000000E+00 -0.56339841238E+03  0.56339841238E+03  0.00000000000E+00 0.  1.
        -24    2    1    2    0    0 -0.13381304708E+04 -0.62781218579E+03  0.24923277963E+04  0.28988144198E+04  0.81767344006E+02 0.  0.
    5000000    2    1    2    0    0  0.13381304708E+04  0.62781218579E+03  0.14061147538E+04  0.21264249551E+04  0.59981921547E+03 0.  0.
        -24    2    4    4    0    0  0.21787769767E+03  0.72270658132E+01  0.13495775221E+02  0.23280161370E+03  0.80570055041E+02 0.  0.
         24    2    4    4    0    0  0.11202527731E+04  0.62058511998E+03  0.13926189786E+04  0.18936233414E+04  0.79558611683E+02 0.  0.
         11    1    3    3    0    0 -0.67719365390E+03 -0.36283054272E+03  0.12956147620E+04  0.15062718410E+04  0.00000000000E+00 0. -1.
        -12    1    3    3    0    0 -0.66093681691E+03 -0.26498164307E+03  0.11967130343E+04  0.13925425788E+04  0.00000000000E+00 0.  1.
         13    1    5    5    0    0  0.18716901463E+03  0.28655764510E+02 -0.81944648412E+01  0.18952715407E+03  0.00000000000E+00 0. -1.
        -14    1    5    5    0    0  0.30708683044E+02 -0.21428698697E+02  0.21690240062E+02  0.43274459628E+02  0.00000000000E+00 0.  1.
          4    1    6    6  502    0  0.75816736824E+02  0.34415170280E+02  0.65203009192E+02  0.10575449842E+03  0.00000000000E+00 0. -1.
         -3    1    6    6    0  502  0.10444360363E+04  0.58616994970E+03  0.13274159694E+04  0.17878688430E+04  0.00000000000E+00 0.  1.
<mgrwt>
<rscale>  0 0.14940427E+04</rscale>
<asrwt>0</asrwt>
<pdfrwt beam="1">  1        1 0.68643705E+00 0.14940427E+04</pdfrwt>
<pdfrwt beam="2">  1       -2 0.86676682E-01 0.14940427E+04</pdfrwt>
<totfact> 0.34908127E-02</totfact>
</mgrwt>
</event>
<event>
12    3  0.2422421E-007  0.1181800E+04  0.7818608E-02  0.9128938E-01
          1   -1    0    0  501    0  0.00000000000E+00  0.00000000000E+00  0.11526358665E+04  0.11526358665E+04  0.00000000000E+00 0. -1.
         -2   -1    0    0    0  501 -0.00000000000E+00 -0.00000000000E+00 -0.14386493454E+04  0.14386493454E+04  0.00000000000E+00 0.  1.
        -24    2    1    2    0    0 -0.99003514400E+03 -0.52772402354E+03 -0.60841677169E+03  0.12787970575E+04  0.80552559970E+02 0.  0.
    5000000    2    1    2    0    0  0.99003514400E+03  0.52772402354E+03  0.32240329278E+03  0.13124881543E+04  0.60001586696E+03 0.  0.
        -24    2    4    4    0    0  0.30654553977E+03 -0.84724259055E+02  0.19763928584E+03  0.38299366325E+03  0.80464220381E+02 0.  0.
         24    2    4    4    0    0  0.68348960424E+03  0.61244828260E+03  0.12476400695E+03  0.92949449105E+03  0.78377378792E+02 0.  0.
         13    1    3    3    0    0 -0.65682134495E+03 -0.36101138075E+03 -0.44763333150E+03  0.87299432741E+03  0.00000000000E+00 0. -1.
        -14    1    3    3    0    0 -0.33321379905E+03 -0.16671264279E+03 -0.16078344019E+03  0.40580273013E+03  0.00000000000E+00 0.  1.
         13    1    5    5    0    0  0.23345873082E+03 -0.42241092106E+02  0.17692553753E+03  0.29595596748E+03  0.00000000000E+00 0. -1.
        -14    1    5    5    0    0  0.73086808947E+02 -0.42483166949E+02  0.20713748311E+02  0.87037695772E+02  0.00000000000E+00 0.  1.
          2    1    6    6  502    0  0.28699728619E+03  0.21759643651E+03  0.73511529427E+02  0.36758617551E+03  0.00000000000E+00 0. -1.
         -1    1    6    6    0  502  0.39649231804E+03  0.39485184608E+03  0.51252477520E+02  0.56190831554E+03  0.00000000000E+00 0.  1.
<mgrwt>
<rscale>  0 0.11818001E+04</rscale>
<asrwt>0</asrwt>
<pdfrwt beam="1">  1        1 0.17732859E+00 0.11818001E+04</pdfrwt>
<pdfrwt beam="2">  1       -2 0.22133067E+00 0.11818001E+04</pdfrwt>
<totfact> 0.96151980E-01</totfact>
</mgrwt>
</event>
<event>
12    3  0.2422421E-007  0.9939443E+03  0.7818608E-02  0.9315212E-01
          1   -1    0    0  501    0  0.00000000000E+00  0.00000000000E+00  0.13754108194E+04  0.13754108194E+04  0.00000000000E+00 0. -1.
         -2   -1    0    0    0  501 -0.00000000000E+00 -0.00000000000E+00 -0.73922238642E+03  0.73922238642E+03  0.00000000000E+00 0.  1.
        -24    2    1    2    0    0  0.90429038820E+02 -0.91244237087E+03  0.26193673779E+03  0.95671306104E+03  0.77204503363E+02 0.  0.
    5000000    2    1    2    0    0 -0.90429038820E+02  0.91244237087E+03  0.37425169517E+03  0.11579201448E+04  0.59998853245E+03 0.  0.
        -24    2    4    4    0    0  0.58363993784E+02 -0.44668601499E+02  0.93675446631E+02  0.14634821679E+03  0.85094485869E+02 0.  0.
         24    2    4    4    0    0 -0.14879303260E+03  0.95711097237E+03  0.28057624854E+03  0.10115719280E+04  0.79711694402E+02 0.  0.
         11    1    5    5    0    0  0.39817304105E+02  0.11389399578E+02  0.78165642439E+01  0.42145400763E+02  0.00000000000E+00 0. -1.
        -12    1    5    5    0    0  0.18546689680E+02 -0.56058001077E+02  0.85858882387E+02  0.10420281603E+03  0.00000000000E+00 0.  1.
         13    1    3    3    0    0  0.71705791505E+02 -0.68202446157E+03  0.23008327160E+03  0.72335150417E+03  0.00000000000E+00 0. -1.
        -14    1    3    3    0    0  0.18723247316E+02 -0.23041790930E+03  0.31853466189E+02  0.23336155687E+03  0.00000000000E+00 0.  1.
          2    1    6    6  502    0 -0.23951801268E+01  0.16035936578E+03  0.26349934049E+02  0.16252748108E+03  0.00000000000E+00 0. -1.
         -1    1    6    6    0  502 -0.14639785248E+03  0.79675160659E+03  0.25422631449E+03  0.84904444689E+03  0.00000000000E+00 0.  1.
<mgrwt>
<rscale>  0 0.99394429E+03</rscale>
<asrwt>0</asrwt>
<pdfrwt beam="1">  1        1 0.21160166E+00 0.99394429E+03</pdfrwt>
<pdfrwt beam="2">  1       -2 0.11372652E+00 0.99394429E+03</pdfrwt>
<totfact> 0.42482210E+00</totfact>
</mgrwt>
</event>
<event>
12    3  0.2422421E-007  0.1050559E+04  0.7818608E-02  0.9254767E-01
          1   -1    0    0  501    0  0.00000000000E+00  0.00000000000E+00  0.16143016682E+04  0.16143016682E+04  0.00000000000E+00 0. -1.
         -2   -1    0    0    0  501 -0.00000000000E+00 -0.00000000000E+00 -0.97329915497E+03  0.97329915497E+03  0.00000000000E+00 0.  1.
        -24    2    1    2    0    0  0.70350476499E+02 -0.97790350591E+03  0.98058467077E+03  0.13890175384E+04  0.81110843369E+02 0.  0.
    5000000    2    1    2    0    0 -0.70350476499E+02  0.97790350591E+03 -0.33958215753E+03  0.11985832848E+04  0.60003449276E+03 0.  0.
        -24    2    4    4    0    0 -0.17200677037E+03  0.71742123253E+02  0.40474582571E+02  0.20774536541E+03  0.82381331094E+02 0.  0.
         24    2    4    4    0    0  0.10165629387E+03  0.90616138266E+03 -0.38005674010E+03  0.99083791940E+03  0.76512765737E+02 0.  0.
         11    1    5    5    0    0 -0.46220781364E+02 -0.17055827924E+02  0.16262621379E+02  0.51881930864E+02  0.00000000000E+00 0. -1.
        -12    1    5    5    0    0 -0.12578598901E+03  0.88797951177E+02  0.24211961193E+02  0.15586343455E+03  0.00000000000E+00 0.  1.
         13    1    3    3    0    0 -0.19553847269E+01 -0.51064999242E+03  0.52660660916E+03  0.73354056404E+03  0.00000000000E+00 0. -1.
        -14    1    3    3    0    0  0.72305861226E+02 -0.46725351349E+03  0.45397806161E+03  0.65547697432E+03  0.00000000000E+00 0.  1.
          2    1    6    6  502    0  0.61623203020E+01  0.35391988546E+03 -0.12914191534E+03  0.37679555970E+03  0.00000000000E+00 0. -1.
         -1    1    6    6    0  502  0.95493973571E+02  0.55224149720E+03 -0.25091482476E+03  0.61404235970E+03  0.00000000000E+00 0.  1.
<mgrwt>
<rscale>  0 0.10505590E+04</rscale>
<asrwt>0</asrwt>
<pdfrwt beam="1">  1        1 0.24835410E+00 0.10505590E+04</pdfrwt>
<pdfrwt beam="2">  1       -2 0.14973833E+00 0.10505590E+04</pdfrwt>
<totfact> 0.14301757E+00</totfact>
</mgrwt>
</event>
<event>
12    3  0.2422421E-007  0.1330787E+04  0.7818608E-02  0.9005501E-01
         -2   -1    0    0    0  501 -0.00000000000E+00  0.00000000000E+00  0.15888484078E+04  0.15888484078E+04  0.00000000000E+00 0.  1.
          1   -1    0    0  501    0  0.00000000000E+00 -0.00000000000E+00 -0.17039423633E+04  0.17039423633E+04  0.00000000000E+00 0. -1.
        -24    2    1    2    0    0  0.12380797122E+04  0.43680955995E+03  0.84128037249E+03  0.15612925549E+04  0.78979816488E+02 0.  0.
    5000000    2    1    2    0    0 -0.12380797122E+04 -0.43680955995E+03 -0.95637432801E+03  0.17314982163E+04  0.59982518477E+03 0.  0.
        -24    2    4    4    0    0 -0.11569466505E+04 -0.34242116642E+03 -0.10137109048E+04  0.15768200789E+04  0.54533983840E+02 0.  0.
         24    2    4    4    0    0 -0.81133061662E+02 -0.94388393527E+02  0.57336576762E+02  0.15467813737E+03  0.71736327048E+02 0.  0.
         11    1    5    5    0    0 -0.63509622454E+03 -0.20734366291E+03 -0.58675501289E+03  0.88916818101E+03  0.00000000000E+00 0. -1.
        -12    1    5    5    0    0 -0.52185042597E+03 -0.13507750351E+03 -0.42695589189E+03  0.68765189788E+03  0.00000000000E+00 0.  1.
         11    1    3    3    0    0  0.59619493474E+03  0.24436165242E+03  0.38507592804E+03  0.75062939439E+03  0.00000000000E+00 0. -1.
        -12    1    3    3    0    0  0.64188477744E+03  0.19244790753E+03  0.45620444446E+03  0.81066316049E+03  0.00000000000E+00 0.  1.
          4    1    6    6  502    0 -0.67556198389E+02 -0.29524858154E+02  0.47449030148E+02  0.87675353731E+02  0.00000000000E+00 0. -1.
         -3    1    6    6    0  502 -0.13576863272E+02 -0.64863535373E+02  0.98875466140E+01  0.67002783639E+02  0.00000000000E+00 0.  1.
<mgrwt>
<rscale>  0 0.13307869E+04</rscale>
<asrwt>0</asrwt>
<pdfrwt beam="1">  1        1 0.26214498E+00 0.13307869E+04</pdfrwt>
<pdfrwt beam="2">  1       -2 0.24443822E+00 0.13307869E+04</pdfrwt>
<totfact> 0.27713590E-01</totfact>
</mgrwt>
</event>
<event>
12    3  0.2422421E-007  0.1265037E+04  0.7818608E-02  0.9057760E-01
         -2   -1    0    0    0  501 -0.00000000000E+00  0.00000000000E+00  0.10104632303E+04  0.10104632303E+04  0.00000000000E+00 0.  1.
          1   -1    0    0  501    0  0.00000000000E+00 -0.00000000000E+00 -0.15981001495E+04  0.15981001495E+04  0.00000000000E+00 0. -1.
        -24    2    1    2    0    0 -0.11907769592E+04 -0.13553647891E+03 -0.27100994807E+03  0.12313145983E+04  0.79808171453E+02 0.  0.
    5000000    2    1    2    0    0  0.11907769592E+04  0.13553647891E+03 -0.31662697113E+03  0.13772487816E+04  0.60020135281E+03 0.  0.
        -24    2    4    4    0    0  0.73469609116E+02  0.18332335166E+03 -0.10027019138E+03  0.23537437656E+03  0.79635112456E+02 0.  0.
         24    2    4    4    0    0  0.11173073501E+04 -0.47786872751E+02 -0.21635677975E+03  0.11418744051E+04  0.80047492111E+02 0.  0.
         11    1    5    5    0    0  0.89874672640E+02  0.15754983396E+03 -0.93577139383E+02  0.20409823120E+03  0.00000000000E+00 0. -1.
        -12    1    5    5    0    0 -0.16405063524E+02  0.25773517702E+02 -0.66930519943E+01  0.31276145366E+02  0.00000000000E+00 0.  1.
         13    1    3    3    0    0 -0.65667836942E+03 -0.49984031281E+02 -0.11680472029E+03  0.66885590895E+03  0.00000000000E+00 0. -1.
        -14    1    3    3    0    0 -0.53409858979E+03 -0.85552447627E+02 -0.15420522778E+03  0.56245868931E+03  0.00000000000E+00 0.  1.
          4    1    6    6  502    0  0.10313919335E+04 -0.36881479208E+02 -0.21981527078E+03  0.10552006052E+04  0.00000000000E+00 0. -1.
         -3    1    6    6    0  502  0.85915416589E+02 -0.10905393543E+02  0.34584910293E+01  0.86673799826E+02  0.00000000000E+00 0.  1.
<mgrwt>
<rscale>  0 0.12650373E+04</rscale>
<asrwt>0</asrwt>
<pdfrwt beam="1">  1        1 0.24586156E+00 0.12650373E+04</pdfrwt>
<pdfrwt beam="2">  1       -2 0.15545588E+00 0.12650373E+04</pdfrwt>
<totfact> 0.12953753E+00</totfact>
</mgrwt>
</event>
<event>
12    3  0.2422421E-007  0.5853302E+03  0.7818608E-02  0.9936317E-01
          1   -1    0    0  501    0  0.00000000000E+00  0.00000000000E+00  0.14561921780E+04  0.14561921780E+04  0.00000000000E+00 0. -1.
         -2   -1    0    0    0  501 -0.00000000000E+00 -0.00000000000E+00 -0.35471264477E+03  0.35471264477E+03  0.00000000000E+00 0.  1.
        -24    2    1    2    0    0  0.11495957241E+03  0.56012821133E+03  0.27140199573E+03  0.63790760989E+03  0.79421401788E+02 0.  0.
    5000000    2    1    2    0    0 -0.11495957241E+03 -0.56012821133E+03  0.83007753749E+03  0.11729972129E+04  0.59994535314E+03 0.  0.
        -24    2    4    4    0    0 -0.14703414777E+03 -0.40882727452E+03  0.13955900686E+03  0.46117439424E+03  0.66680765638E+02 0.  0.
         24    2    4    4    0    0  0.32074575357E+02 -0.15130093681E+03  0.69051853064E+03  0.71182281863E+03  0.77169502492E+02 0.  0.
         11    1    5    5    0    0 -0.96326300279E+02 -0.17314164213E+03  0.53956664343E+02  0.20534874237E+03  0.00000000000E+00 0. -1.
        -12    1    5    5    0    0 -0.50707847487E+02 -0.23568563239E+03  0.85602342513E+02  0.25582565187E+03  0.00000000000E+00 0.  1.
         13    1    3    3    0    0  0.21494730554E+02  0.27636513690E+03  0.15229829273E+03  0.31628228263E+03  0.00000000000E+00 0. -1.
        -14    1    3    3    0    0  0.93464841855E+02  0.28376307443E+03  0.11910370300E+03  0.32162532727E+03  0.00000000000E+00 0.  1.
          2    1    6    6  502    0  0.26385550937E+02 -0.86392392285E+02  0.54428404838E+03  0.55172907125E+03  0.00000000000E+00 0. -1.
         -1    1    6    6    0  502  0.56890244197E+01 -0.64908544520E+02  0.14623448226E+03  0.16009374738E+03  0.00000000000E+00 0.  1.
<mgrwt>
<rscale>  0 0.58533022E+03</rscale>
<asrwt>0</asrwt>
<pdfrwt beam="1">  1        1 0.22402956E+00 0.58533022E+03</pdfrwt>
<pdfrwt beam="2">  1       -2 0.54571177E-01 0.58533022E+03</pdfrwt>
<totfact> 0.20492276E+01</totfact>
</mgrwt>
</event>
<event>
12    3  0.2422421E-007  0.6057635E+03  0.7818608E-02  0.9893520E-01
         -2   -1    0    0    0  501 -0.00000000000E+00  0.00000000000E+00  0.87219837809E+03  0.87219837809E+03  0.00000000000E+00 0.  1.
          1   -1    0    0  501    0  0.00000000000E+00 -0.00000000000E+00 -0.46144083202E+03  0.46144083202E+03  0.00000000000E+00 0. -1.
        -24    2    1    2    0    0  0.98080261486E+01 -0.46187765061E+03  0.32751852712E+03  0.57178590798E+03  0.79016311257E+02 0.  0.
    5000000    2    1    2    0    0 -0.98080261486E+01  0.46187765061E+03  0.83239018956E+02  0.76185330214E+03  0.60005379608E+03 0.  0.
        -24    2    4    4    0    0 -0.23972172492E+03  0.24517763378E+02  0.60481572506E+02  0.26097808516E+03  0.79899400495E+02 0.  0.
         24    2    4    4    0    0  0.22991369877E+03  0.43735988723E+03  0.22757446450E+02  0.50087521698E+03  0.78829574246E+02 0.  0.
         13    1    3    3    0    0  0.27501028925E+02 -0.15251750787E+03  0.75581856299E+02  0.17242538618E+03  0.00000000000E+00 0. -1.
        -14    1    3    3    0    0 -0.17693002777E+02 -0.30936014274E+03  0.25193667082E+03  0.39936052179E+03  0.00000000000E+00 0.  1.
         13    1    5    5    0    0 -0.21016319155E+03  0.10997711615E+01  0.29608454409E+02  0.21224145955E+03  0.00000000000E+00 0. -1.
        -14    1    5    5    0    0 -0.29558533367E+02  0.23417992217E+02  0.30873118097E+02  0.48736625605E+02  0.00000000000E+00 0.  1.
          4    1    6    6  502    0  0.14796982076E+03  0.34466465029E+03  0.42664454754E-01  0.37508504480E+03  0.00000000000E+00 0. -1.
         -3    1    6    6    0  502  0.81943878015E+02  0.92695236941E+02  0.22714781995E+02  0.12579017218E+03  0.00000000000E+00 0.  1.
<mgrwt>
<rscale>  0 0.60576352E+03</rscale>
<asrwt>0</asrwt>
<pdfrwt beam="1">  1        1 0.70990897E-01 0.60576352E+03</pdfrwt>
<pdfrwt beam="2">  1       -2 0.13418437E+00 0.60576352E+03</pdfrwt>
<totfact> 0.17906310E+01</totfact>
</mgrwt>
</event>
<event>
12    3  0.2422421E-007  0.1021941E+04  0.7818608E-02  0.9284803E-01
          1   -1    0    0  501    0  0.00000000000E+00  0.00000000000E+00  0.16468332877E+04  0.16468332877E+04  0.00000000000E+00 0. -1.
         -2   -1    0    0    0  501 -0.00000000000E+00 -0.00000000000E+00 -0.95981282123E+03  0.95981282123E+03  0.00000000000E+00 0.  1.
        -24    2    1    2    0    0  0.78761057780E+03  0.53925374838E+03  0.10507325249E+04  0.14219315702E+04  0.82009293313E+02 0.  0.
    5000000    2    1    2    0    0 -0.78761057780E+03 -0.53925374838E+03 -0.36371205838E+03  0.11847145387E+04  0.60011419702E+03 0.  0.
        -24    2    4    4    0    0 -0.66682110049E+03 -0.16264145423E+03 -0.91432345635E+02  0.69722123080E+03  0.81577865599E+02 0.  0.
         24    2    4    4    0    0 -0.12078947730E+03 -0.37661229416E+03 -0.27227971275E+03  0.48749330793E+03  0.84181740099E+02 0.  0.
         11    1    3    3    0    0  0.45717403709E+03  0.35772808605E+03  0.61371469061E+03  0.84476221815E+03  0.00000000000E+00 0. -1.
        -12    1    3    3    0    0  0.33043654071E+03  0.18152566233E+03  0.43701783428E+03  0.57716935210E+03  0.00000000000E+00 0.  1.
         11    1    5    5    0    0 -0.47516973923E+03 -0.13634312628E+03 -0.34387097472E+02  0.49553829482E+03  0.00000000000E+00 0. -1.
        -12    1    5    5    0    0 -0.19165136126E+03 -0.26298327948E+02 -0.57045248163E+02  0.20168293598E+03  0.00000000000E+00 0.  1.
          4    1    6    6  502    0 -0.12478055460E+03 -0.34812364023E+03 -0.27139883968E+03  0.45871296676E+03  0.00000000000E+00 0. -1.
         -3    1    6    6    0  502  0.39910772943E+01 -0.28488653927E+02 -0.88087306451E+00  0.28780341171E+02  0.00000000000E+00 0.  1.
<mgrwt>
<rscale>  0 0.10219405E+04</rscale>
<asrwt>0</asrwt>
<pdfrwt beam="1">  1        1 0.25335897E+00 0.10219405E+04</pdfrwt>
<pdfrwt beam="2">  1       -2 0.14766351E+00 0.10219405E+04</pdfrwt>
<totfact> 0.14153208E+00</totfact>
</mgrwt>
</event>
<event>
12    3  0.2422421E-007  0.1213909E+04  0.7818608E-02  0.9100769E-01
          1   -1    0    0  501    0  0.00000000000E+00  0.00000000000E+00  0.15058901672E+04  0.15058901672E+04  0.00000000000E+00 0. -1.
         -2   -1    0    0    0  501 -0.00000000000E+00 -0.00000000000E+00 -0.11103415618E+04  0.11103415618E+04  0.00000000000E+00 0.  1.
        -24    2    1    2    0    0  0.10766687261E+04  0.45174132107E+03  0.55266506387E+03  0.12941413402E+04  0.77957479982E+02 0.  0.
    5000000    2    1    2    0    0 -0.10766687261E+04 -0.45174132107E+03 -0.15711645848E+03  0.13220903889E+04  0.59995970525E+03 0.  0.
        -24    2    4    4    0    0 -0.17163044098E+03 -0.28858707951E+03  0.10868644039E+03  0.36158436722E+03  0.78682917837E+02 0.  0.
         24    2    4    4    0    0 -0.90503828509E+03 -0.16315424156E+03 -0.26580289887E+03  0.96050602164E+03  0.78784722744E+02 0.  0.
         13    1    5    5    0    0 -0.71812939903E+02 -0.89989525940E+02  0.73376475788E+02  0.13652589613E+03  0.00000000000E+00 0. -1.
        -14    1    5    5    0    0 -0.99817501078E+02 -0.19859755357E+03  0.35309964604E+02  0.22505847108E+03  0.00000000000E+00 0.  1.
         13    1    3    3    0    0  0.42724206875E+03  0.17573030607E+03  0.17690902356E+03  0.49468548432E+03  0.00000000000E+00 0. -1.
        -14    1    3    3    0    0  0.64942665732E+03  0.27601101500E+03  0.37575604031E+03  0.79945585586E+03  0.00000000000E+00 0.  1.
          2    1    6    6  502    0 -0.65486285840E+03 -0.15255766884E+03 -0.20248983469E+03  0.70222598840E+03  0.00000000000E+00 0. -1.
         -1    1    6    6    0  502 -0.25017542669E+03 -0.10596572720E+02 -0.63313064182E+02  0.25828003324E+03  0.00000000000E+00 0.  1.
<mgrwt>
<rscale>  0 0.12139088E+04</rscale>
<asrwt>0</asrwt>
<pdfrwt beam="1">  1        1 0.23167541E+00 0.12139088E+04</pdfrwt>
<pdfrwt beam="2">  1       -2 0.17082178E+00 0.12139088E+04</pdfrwt>
<totfact> 0.11630633E+00</totfact>
</mgrwt>
</event>
<event>
12    3  0.2871181E-007  0.1635696E+04  0.7818608E-02  0.8798914E-01
          1   -1    0    0  501    0  0.00000000000E+00  0.00000000000E+00  0.22071818728E+04  0.22071818728E+04  0.00000000000E+00 0. -1.
         -2   -1    0    0    0  501 -0.00000000000E+00 -0.00000000000E+00 -0.13842973311E+04  0.13842973311E+04  0.00000000000E+00 0.  1.
        -24    2    1    2    0    0  0.68966427715E+03 -0.14514952768E+04  0.95512280957E+03  0.18710446920E+04  0.77931407559E+02 0.  0.
    5000000    2    1    2    0    0 -0.68966427715E+03  0.14514952768E+04 -0.13223826787E+03  0.17204345118E+04  0.59994382766E+03 0.  0.
        -24    2    4    4    0    0  0.20984199862E+01  0.39325093989E+03 -0.20729897173E+03  0.45143599824E+03  0.78555023612E+02 0.  0.
         24    2    4    4    0    0 -0.69176269713E+03  0.10582443369E+04  0.75060703861E+02  0.12689985136E+04  0.79412924322E+02 0.  0.
         11    1    5    5    0    0 -0.25549423975E+02  0.15790953066E+03 -0.11555776952E+03  0.19733674527E+03  0.00000000000E+00 0. -1.
        -12    1    5    5    0    0  0.27647843961E+02  0.23534140923E+03 -0.91741202210E+02  0.25409925297E+03  0.00000000000E+00 0.  1.
         11    1    3    3    0    0  0.75084080084E+02 -0.20657098126E+03  0.15039555644E+03  0.26632313601E+03  0.00000000000E+00 0. -1.
        -12    1    3    3    0    0  0.61458019706E+03 -0.12449242955E+04  0.80472725314E+03  0.16047215560E+04  0.00000000000E+00 0.  1.
          4    1    6    6  502    0 -0.40564793584E+03  0.55530955201E+03  0.23685196906E+02  0.68809878284E+03  0.00000000000E+00 0. -1.
         -3    1    6    6    0  502 -0.28611476130E+03  0.50293478489E+03  0.51375506955E+02  0.58089973076E+03  0.00000000000E+00 0.  1.
<mgrwt>
<rscale>  0 0.16356958E+04</rscale>
<asrwt>0</asrwt>
<pdfrwt beam="1">  1        1 0.33956644E+00 0.16356958E+04</pdfrwt>
<pdfrwt beam="2">  1       -2 0.21296882E+00 0.16356958E+04</pdfrwt>
<totfact> 0.19193493E-01</totfact>
</mgrwt>
</event>
<event>
12    3  0.2422421E-007  0.6525563E+03  0.7818608E-02  0.9801994E-01
         -2   -1    0    0    0  501 -0.00000000000E+00  0.00000000000E+00  0.19861268727E+04  0.19861268727E+04  0.00000000000E+00 0.  1.
          3   -1    0    0  501    0  0.00000000000E+00 -0.00000000000E+00 -0.43139429910E+03  0.43139429910E+03  0.00000000000E+00 0. -1.
        -24    2    1    2    0    0 -0.29518282842E+03  0.49932489160E+03 -0.71002001647E+02  0.59011378741E+03  0.82065512197E+02 0.  0.
    5000000    2    1    2    0    0  0.29518282842E+03 -0.49932489160E+03  0.16257345752E+04  0.18274073844E+04  0.59995548986E+03 0.  0.
        -24    2    4    4    0    0  0.39780169865E+03 -0.34367819098E+03  0.69657667068E+03  0.87634265416E+03  0.79978115543E+02 0.  0.
         24    2    4    4    0    0 -0.10261887023E+03 -0.15564670063E+03  0.92915790455E+03  0.95106473022E+03  0.80207116464E+02 0.  0.
         11    1    5    5    0    0  0.29154866124E+03 -0.29097967459E+03  0.51505101704E+03  0.65950537757E+03  0.00000000000E+00 0. -1.
        -12    1    5    5    0    0  0.10625303741E+03 -0.52698516385E+02  0.18152565364E+03  0.21683727659E+03  0.00000000000E+00 0.  1.
         13    1    3    3    0    0 -0.48506597627E+02  0.13031015021E+03  0.79662837265E+01  0.13927342509E+03  0.00000000000E+00 0. -1.
        -14    1    3    3    0    0 -0.24667623079E+03  0.36901474139E+03 -0.78968285374E+02  0.45084036232E+03  0.00000000000E+00 0.  1.
          2    1    6    6  502    0 -0.63067565754E+02 -0.13015054483E+03  0.81253673440E+03  0.82530759533E+03  0.00000000000E+00 0. -1.
         -1    1    6    6    0  502 -0.39551304478E+02 -0.25496155801E+02  0.11662117015E+03  0.12575713488E+03  0.00000000000E+00 0.  1.
<mgrwt>
<rscale>  0 0.65255629E+03</rscale>
<asrwt>0</asrwt>
<pdfrwt beam="1">  1        3 0.66368355E-01 0.65255629E+03</pdfrwt>
<pdfrwt beam="2">  1       -2 0.30555798E+00 0.65255629E+03</pdfrwt>
<totfact> 0.28172510E-01</totfact>
</mgrwt>
</event>
<event>
12    3  0.2422421E-007  0.9159714E+03  0.7818608E-02  0.9405834E-01
          1   -1    0    0  501    0  0.00000000000E+00  0.00000000000E+00  0.20925611054E+04  0.20925611054E+04  0.00000000000E+00 0. -1.
         -2   -1    0    0    0  501 -0.00000000000E+00 -0.00000000000E+00 -0.10662232509E+04  0.10662232509E+04  0.00000000000E+00 0.  1.
        -24    2    1    2    0    0 -0.17726573152E+03  0.88209694466E+03 -0.68581540470E+03  0.11337039373E+04  0.73645697455E+02 0.  0.
    5000000    2    1    2    0    0  0.17726573152E+03 -0.88209694466E+03  0.17121532592E+04  0.20250804190E+04  0.59996979994E+03 0.  0.
        -24    2    4    4    0    0  0.21923660079E+03 -0.52814954583E+03  0.51574367907E+03  0.77416346339E+03  0.79566925689E+02 0.  0.
         24    2    4    4    0    0 -0.41970869266E+02 -0.35394739883E+03  0.11964095801E+04  0.12509169556E+04  0.79730993001E+02 0.  0.
         11    1    3    3    0    0 -0.39197620380E+02  0.29462896319E+03 -0.19099707508E+03  0.35330236637E+03  0.00000000000E+00 0. -1.
        -12    1    3    3    0    0 -0.13806811114E+03  0.58746798147E+03 -0.49481832962E+03  0.78040157092E+03  0.00000000000E+00 0.  1.
         11    1    5    5    0    0  0.97409809861E+02 -0.30684213479E+03  0.25089596269E+03  0.40815383231E+03  0.00000000000E+00 0. -1.
        -12    1    5    5    0    0  0.12182679093E+03 -0.22130741104E+03  0.26484771638E+03  0.36600963108E+03  0.00000000000E+00 0.  1.
          2    1    6    6  502    0 -0.33727164192E+02 -0.22930290795E+03  0.64047074424E+03  0.68111681775E+03  0.00000000000E+00 0. -1.
         -1    1    6    6    0  502 -0.82437050741E+01 -0.12464449088E+03  0.55593883590E+03  0.56980013781E+03  0.00000000000E+00 0.  1.
<mgrwt>
<rscale>  0 0.91597141E+03</rscale>
<asrwt>0</asrwt>
<pdfrwt beam="1">  1        1 0.32193248E+00 0.91597141E+03</pdfrwt>
<pdfrwt beam="2">  1       -2 0.16403435E+00 0.91597141E+03</pdfrwt>
<totfact> 0.54202661E-01</totfact>
</mgrwt>
</event>
<event>
12    3  0.2422421E-007  0.1750661E+04  0.7818608E-02  0.8732987E-01
          1   -1    0    0  501    0  0.00000000000E+00  0.00000000000E+00  0.22943426743E+04  0.22943426743E+04  0.00000000000E+00 0. -1.
         -4   -1    0    0    0  501 -0.00000000000E+00 -0.00000000000E+00 -0.18048711093E+04  0.18048711093E+04  0.00000000000E+00 0.  1.
        -24    2    1    2    0    0  0.14404141140E+04  0.98822455434E+03 -0.72038893589E+03  0.18912778600E+04  0.81185807309E+02 0.  0.
    5000000    2    1    2    0    0 -0.14404141140E+04 -0.98822455434E+03  0.12098605009E+04  0.22079359236E+04  0.59986500255E+03 0.  0.
        -24    2    4    4    0    0 -0.47083262899E+03 -0.33049075869E+03  0.74540954469E+03  0.94500337334E+03  0.80551103136E+02 0.  0.
         24    2    4    4    0    0 -0.96958148501E+03 -0.65773379565E+03  0.46445095625E+03  0.12629325502E+04  0.81129117293E+02 0.  0.
         11    1    3    3    0    0  0.69871406192E+03  0.43580187825E+03 -0.31904171339E+03  0.88312639656E+03  0.00000000000E+00 0. -1.
        -12    1    3    3    0    0  0.74170005208E+03  0.55242267609E+03 -0.40134722250E+03  0.10081514635E+04  0.00000000000E+00 0.  1.
         13    1    5    5    0    0 -0.21897949600E+03 -0.19622897152E+03  0.41119244999E+03  0.50550673572E+03  0.00000000000E+00 0. -1.
        -14    1    5    5    0    0 -0.25185313299E+03 -0.13426178717E+03  0.33421709470E+03  0.43949663762E+03  0.00000000000E+00 0.  1.
          4    1    6    6  502    0 -0.47131367628E+03 -0.27892572435E+03  0.19276180913E+03  0.58059732708E+03  0.00000000000E+00 0. -1.
         -3    1    6    6    0  502 -0.49826780873E+03 -0.37880807130E+03  0.27168914712E+03  0.68233522316E+03  0.00000000000E+00 0.  1.
<mgrwt>
<rscale>  0 0.17506606E+04</rscale>
<asrwt>0</asrwt>
<pdfrwt beam="1">  1        1 0.35297580E+00 0.17506606E+04</pdfrwt>
<pdfrwt beam="2">  1       -4 0.27767248E+00 0.17506606E+04</pdfrwt>
<totfact> 0.34788560E-02</totfact>
</mgrwt>
</event>
<event>
12    3  0.2422421E-007  0.3760911E+03  0.7818608E-02  0.1052388E+00
         -2   -1    0    0    0  501 -0.00000000000E+00  0.00000000000E+00  0.46984391531E+03  0.46984391531E+03  0.00000000000E+00 0.  1.
          1   -1    0    0  501    0  0.00000000000E+00 -0.00000000000E+00 -0.35596621185E+03  0.35596621185E+03  0.00000000000E+00 0. -1.
        -24    2    1    2    0    0 -0.14832003067E+03  0.87772656875E+02 -0.26784321352E+01  0.19039230274E+03  0.80865222138E+02 0.  0.
    5000000    2    1    2    0    0  0.14832003067E+03 -0.87772656875E+02  0.11655613559E+03  0.63541782442E+03  0.60038954692E+03 0.  0.
        -24    2    4    4    0    0  0.20402328012E+03  0.18174444145E+03  0.18722841273E+03  0.34051026179E+03  0.78969734840E+02 0.  0.
         24    2    4    4    0    0 -0.55703249456E+02 -0.26951709833E+03 -0.70672277136E+02  0.29490756263E+03  0.78953033193E+02 0.  0.
         11    1    5    5    0    0  0.14228200707E+03  0.92823881880E+02  0.78718812366E+02  0.18723539730E+03  0.00000000000E+00 0. -1.
        -12    1    5    5    0    0  0.61741273056E+02  0.88920559571E+02  0.10850960037E+03  0.15327486449E+03  0.00000000000E+00 0.  1.
         13    1    3    3    0    0 -0.77756001941E+02  0.91026976975E+02 -0.29663311266E+01  0.11975268471E+03  0.00000000000E+00 0. -1.
        -14    1    3    3    0    0 -0.70564028725E+02 -0.32543200999E+01  0.28789899140E+00  0.70639618027E+02  0.00000000000E+00 0.  1.
          2    1    6    6  502    0  0.95802141001E+01 -0.12196662161E+03 -0.10833204072E+02  0.12282099006E+03  0.00000000000E+00 0. -1.
         -1    1    6    6    0  502 -0.65283463556E+02 -0.14755047671E+03 -0.59839073064E+02  0.17208657257E+03  0.00000000000E+00 0.  1.
<mgrwt>
<rscale>  0 0.37609110E+03</rscale>
<asrwt>0</asrwt>
<pdfrwt beam="1">  1        1 0.54764032E-01 0.37609110E+03</pdfrwt>
<pdfrwt beam="2">  1       -2 0.72283679E-01 0.37609110E+03</pdfrwt>
<totfact> 0.11009738E+02</totfact>
</mgrwt>
</event>
<event>
12    3  0.2422421E-007  0.1076914E+04  0.7818608E-02  0.9227990E-01
         -4   -1    0    0    0  501 -0.00000000000E+00  0.00000000000E+00  0.71764025604E+03  0.71764025604E+03  0.00000000000E+00 0.  1.
          1   -1    0    0  501    0  0.00000000000E+00 -0.00000000000E+00 -0.16857375979E+04  0.16857375979E+04  0.00000000000E+00 0. -1.
        -24    2    1    2    0    0  0.55856758810E+03 -0.84784894868E+03 -0.39913117408E+03  0.10938421405E+04  0.79619997880E+02 0.  0.
    5000000    2    1    2    0    0 -0.55856758810E+03  0.84784894868E+03 -0.56896616778E+03  0.13095357134E+04  0.60026302097E+03 0.  0.
        -24    2    4    4    0    0 -0.27087318421E+03  0.35967104807E+02 -0.30418715444E+02  0.29054010384E+03  0.93927307732E+02 0.  0.
         24    2    4    4    0    0 -0.28769440388E+03  0.81188184387E+03 -0.53854745233E+03  0.10189956096E+04  0.79990595995E+02 0.  0.
         11    1    5    5    0    0 -0.10041436396E+03  0.25954558384E+02 -0.56023500107E+02  0.11787839563E+03  0.00000000000E+00 0. -1.
        -12    1    5    5    0    0 -0.17045882025E+03  0.10012546423E+02  0.25604784663E+02  0.17266170822E+03  0.00000000000E+00 0.  1.
         11    1    3    3    0    0  0.48553732961E+03 -0.70793569262E+03 -0.31074720950E+03  0.91295305002E+03  0.00000000000E+00 0. -1.
        -12    1    3    3    0    0  0.73030258486E+02 -0.13991325606E+03 -0.88383964586E+02  0.18088909053E+03  0.00000000000E+00 0.  1.
          2    1    6    6  502    0 -0.70632662539E+02  0.27662544186E+03 -0.21081516371E+03  0.35489948063E+03  0.00000000000E+00 0. -1.
         -1    1    6    6    0  502 -0.21706174134E+03  0.53525640201E+03 -0.32773228863E+03  0.66409612893E+03  0.00000000000E+00 0.  1.
<mgrwt>
<rscale>  0 0.10769142E+04</rscale>
<asrwt>0</asrwt>
<pdfrwt beam="1">  1        1 0.25934424E+00 0.10769142E+04</pdfrwt>
<pdfrwt beam="2">  1       -4 0.11040620E+00 0.10769142E+04</pdfrwt>
<totfact> 0.15096263E+00</totfact>
</mgrwt>
</event>
<event>
12    3  0.2422421E-007  0.7952599E+03  0.7818608E-02  0.9566904E-01
          1   -1    0    0  501    0  0.00000000000E+00  0.00000000000E+00  0.14999259849E+04  0.14999259849E+04  0.00000000000E+00 0. -1.
         -2   -1    0    0    0  501 -0.00000000000E+00 -0.00000000000E+00 -0.61666412963E+03  0.61666412963E+03  0.00000000000E+00 0.  1.
        -24    2    1    2    0    0  0.39060160768E+03  0.57467622559E+03  0.96818474090E+03  0.11943803308E+04  0.79626013354E+02 0.  0.
    5000000    2    1    2    0    0 -0.39060160768E+03 -0.57467622559E+03 -0.84922885667E+02  0.92220978365E+03  0.60036373007E+03 0.  0.
        -24    2    4    4    0    0 -0.57275232329E+02  0.11395537973E+03 -0.36558387474E+01  0.15106605764E+03  0.80878351902E+02 0.  0.
         24    2    4    4    0    0 -0.33332637535E+03 -0.68863160532E+03 -0.81267046919E+02  0.77114372601E+03  0.52329273929E+02 0.  0.
         13    1    3    3    0    0  0.32587374093E+03  0.43547880320E+03  0.79082692398E+03  0.95981389173E+03  0.00000000000E+00 0. -1.
        -14    1    3    3    0    0  0.64727866745E+02  0.13919742239E+03  0.17735781692E+03  0.23456643910E+03  0.00000000000E+00 0.  1.
         13    1    5    5    0    0 -0.88230671435E+00  0.19556580322E+01 -0.23943755057E+02  0.24039685308E+02  0.00000000000E+00 0. -1.
        -14    1    5    5    0    0 -0.56392925615E+02  0.11199972170E+03  0.20287916310E+02  0.12702637233E+03  0.00000000000E+00 0.  1.
          2    1    6    6  502    0 -0.38552964980E+02 -0.10175710877E+03 -0.27287157957E+02  0.11218479970E+03  0.00000000000E+00 0. -1.
         -1    1    6    6    0  502 -0.29477341037E+03 -0.58687449655E+03 -0.53979888963E+02  0.65895892631E+03  0.00000000000E+00 0.  1.
<mgrwt>
<rscale>  0 0.79525986E+03</rscale>
<asrwt>0</asrwt>
<pdfrwt beam="1">  1        1 0.23075784E+00 0.79525986E+03</pdfrwt>
<pdfrwt beam="2">  1       -2 0.94871405E-01 0.79525986E+03</pdfrwt>
<totfact> 0.55089406E+00</totfact>
</mgrwt>
</event>
<event>
12    3  0.2422421E-007  0.3352008E+03  0.7818608E-02  0.1068859E+00
          1   -1    0    0  501    0  0.00000000000E+00  0.00000000000E+00  0.81146171675E+03  0.81146171675E+03  0.00000000000E+00 0. -1.
         -2   -1    0    0    0  501 -0.00000000000E+00 -0.00000000000E+00 -0.31151809795E+03  0.31151809795E+03  0.00000000000E+00 0.  1.
        -24    2    1    2    0    0  0.62055476314E+02  0.29458183429E+03  0.49973987296E+02  0.31482170454E+03  0.77369031363E+02 0.  0.
    5000000    2    1    2    0    0 -0.62055476314E+02 -0.29458183429E+03  0.44996963150E+03  0.80815811016E+03  0.60001460192E+03 0.  0.
        -24    2    4    4    0    0 -0.11665073077E+03 -0.21966302516E+03 -0.72850359450E+02  0.27119664112E+03  0.79882449072E+02 0.  0.
         24    2    4    4    0    0  0.54595254460E+02 -0.74918809128E+02  0.52281999095E+03  0.53696146904E+03  0.79958780196E+02 0.  0.
         11    1    3    3    0    0  0.26265359162E+02  0.12708546579E+03 -0.17071770862E+02  0.13088938103E+03  0.00000000000E+00 0. -1.
        -12    1    3    3    0    0  0.35790117152E+02  0.16749636850E+03  0.67045758158E+02  0.18393232351E+03  0.00000000000E+00 0.  1.
         13    1    5    5    0    0 -0.63461508202E+02 -0.11344480397E+03 -0.79234115016E+02  0.15223380555E+03  0.00000000000E+00 0. -1.
        -14    1    5    5    0    0 -0.53189222572E+02 -0.10621822119E+03  0.63837555662E+01  0.11896283556E+03  0.00000000000E+00 0.  1.
          2    1    6    6  502    0  0.43424901724E+02  0.13933842981E+01  0.23526483284E+03  0.23924298355E+03  0.00000000000E+00 0. -1.
         -1    1    6    6    0  502  0.11170352736E+02 -0.76312193426E+02  0.28755515811E+03  0.29771848549E+03  0.00000000000E+00 0.  1.
<mgrwt>
<rscale>  0 0.33520080E+03</rscale>
<asrwt>0</asrwt>
<pdfrwt beam="1">  1        1 0.12484026E+00 0.33520080E+03</pdfrwt>
<pdfrwt beam="2">  1       -2 0.47925862E-01 0.33520080E+03</pdfrwt>
<totfact> 0.82980419E+01</totfact>
</mgrwt>
</event>
<event>
12    3  0.2422421E-007  0.5762707E+03  0.7818608E-02  0.9955898E-01
         -2   -1    0    0    0  501 -0.00000000000E+00  0.00000000000E+00  0.10824163486E+04  0.10824163486E+04  0.00000000000E+00 0.  1.
          1   -1    0    0  501    0  0.00000000000E+00 -0.00000000000E+00 -0.32402424906E+03  0.32402424906E+03  0.00000000000E+00 0. -1.
        -24    2    1    2    0    0  0.21633365201E+03  0.37749227933E+03  0.29115313711E+03  0.53030525605E+03  0.84574496163E+02 0.  0.
    5000000    2    1    2    0    0 -0.21633365201E+03 -0.37749227933E+03  0.46723896240E+03  0.87613534158E+03  0.60000018236E+03 0.  0.
        -24    2    4    4    0    0  0.53527936665E+02  0.11417633549E+03  0.16909290198E+02  0.15243455371E+03  0.83957688632E+02 0.  0.
         24    2    4    4    0    0 -0.26986158868E+03 -0.49166861482E+03  0.45032967220E+03  0.72370078787E+03  0.79891882238E+02 0.  0.
         11    1    3    3    0    0  0.19702508550E+03  0.27175008080E+03  0.21615475498E+03  0.39923660758E+03  0.00000000000E+00 0. -1.
        -12    1    3    3    0    0  0.19308566513E+02  0.10574219852E+03  0.74998382127E+02  0.13106864847E+03  0.00000000000E+00 0.  1.
         11    1    5    5    0    0  0.68454459052E+02  0.70288750964E+02 -0.10346887709E+02  0.98658905130E+02  0.00000000000E+00 0. -1.
        -12    1    5    5    0    0 -0.14926522388E+02  0.43887584530E+02  0.27256177907E+02  0.53775648583E+02  0.00000000000E+00 0.  1.
          4    1    6    6  502    0 -0.27190594845E+03 -0.49260987830E+03  0.45125374509E+03  0.72126782783E+03  0.00000000000E+00 0. -1.
         -3    1    6    6    0  502  0.20443597730E+01  0.94126348435E+00 -0.92407288704E+00  0.24329600344E+01  0.00000000000E+00 0.  1.
<mgrwt>
<rscale>  0 0.57627071E+03</rscale>
<asrwt>0</asrwt>
<pdfrwt beam="1">  1        1 0.49849885E-01 0.57627071E+03</pdfrwt>
<pdfrwt beam="2">  1       -2 0.16652559E+00 0.57627071E+03</pdfrwt>
<totfact> 0.16190872E+01</totfact>
</mgrwt>
</event>
<event>
12    3  0.2422421E-007  0.1360422E+04  0.7818608E-02  0.8982976E-01
         -2   -1    0    0    0  501 -0.00000000000E+00  0.00000000000E+00  0.98439626291E+03  0.98439626291E+03  0.00000000000E+00 0.  1.
          1   -1    0    0  501    0  0.00000000000E+00 -0.00000000000E+00 -0.20475404846E+04  0.20475404846E+04  0.00000000000E+00 0. -1.
        -24    2    1    2    0    0  0.32397869913E+02  0.13009415456E+04 -0.10650201886E+03  0.13089202609E+04  0.91820707660E+02 0.  0.
    5000000    2    1    2    0    0 -0.32397869913E+02 -0.13009415456E+04 -0.95664220279E+03  0.17230164866E+04  0.60010247628E+03 0.  0.
        -24    2    4    4    0    0  0.13471958583E+03 -0.59909103093E+02 -0.18652373646E+03  0.25082343464E+03  0.79892575773E+02 0.  0.
         24    2    4    4    0    0 -0.16711745574E+03 -0.12410324425E+04 -0.77011846633E+03  0.14721930520E+04  0.78614011616E+02 0.  0.
         13    1    3    3    0    0  0.64846673455E+02  0.84384181677E+03 -0.69591362159E+02  0.84918611651E+03  0.00000000000E+00 0. -1.
        -14    1    3    3    0    0 -0.32448803542E+02  0.45709972878E+03 -0.36910656705E+02  0.45973414435E+03  0.00000000000E+00 0.  1.
         13    1    5    5    0    0  0.13744336105E+03 -0.39909819018E+02 -0.17923053628E+03  0.22936228174E+03  0.00000000000E+00 0. -1.
        -14    1    5    5    0    0 -0.27237752209E+01 -0.19999284075E+02 -0.72932001811E+01  0.21461152902E+02  0.00000000000E+00 0.  1.
          4    1    6    6  502    0 -0.12163353383E+03 -0.10249941976E+04 -0.66328008648E+03  0.12269263608E+04  0.00000000000E+00 0. -1.
         -1    1    6    6    0  502 -0.45483921907E+02 -0.21603824486E+03 -0.10683837985E+03  0.24526669118E+03  0.00000000000E+00 0.  1.
<mgrwt>
<rscale>  0 0.13604222E+04</rscale>
<asrwt>0</asrwt>
<pdfrwt beam="1">  1        1 0.31500622E+00 0.13604222E+04</pdfrwt>
<pdfrwt beam="2">  1       -2 0.15144558E+00 0.13604222E+04</pdfrwt>
<totfact> 0.68044343E-01</totfact>
</mgrwt>
</event>
<event>
12    3  0.2422421E-007  0.5980988E+03  0.7818608E-02  0.9909358E-01
          1   -1    0    0  501    0  0.00000000000E+00  0.00000000000E+00  0.22763305148E+04  0.22763305148E+04  0.00000000000E+00 0. -1.
         -2   -1    0    0    0  501 -0.00000000000E+00 -0.00000000000E+00 -0.19212120260E+03  0.19212120260E+03  0.00000000000E+00 0.  1.
        -24    2    1    2    0    0  0.13849798213E+03  0.45117762080E+03  0.41681273539E+03  0.63462458908E+03  0.79199596751E+02 0.  0.
    5000000    2    1    2    0    0 -0.13849798213E+03 -0.45117762080E+03  0.16673965769E+04  0.18338271284E+04  0.59997304574E+03 0.  0.
        -24    2    4    4    0    0 -0.28153129887E+03 -0.49394313779E+02  0.46417279337E+03  0.55467986300E+03  0.10253632448E+03 0.  0.
         24    2    4    4    0    0  0.14303331674E+03 -0.40178330702E+03  0.12032237835E+04  0.12791472654E+04  0.81128896284E+02 0.  0.
         11    1    3    3    0    0  0.95776507827E+02  0.21520550537E+03  0.16998209459E+03  0.29048315180E+03  0.00000000000E+00 0. -1.
        -12    1    3    3    0    0  0.42721474306E+02  0.23597211543E+03  0.24683064079E+03  0.34414143729E+03  0.00000000000E+00 0.  1.
         13    1    5    5    0    0 -0.22423173006E+03 -0.93539333659E+01  0.40530134087E+03  0.46328883188E+03  0.00000000000E+00 0. -1.
        -14    1    5    5    0    0 -0.57299568817E+02 -0.40040380413E+02  0.58871452497E+02  0.91391031121E+02  0.00000000000E+00 0.  1.
          4    1    6    6  502    0  0.12230105510E+03 -0.33911987715E+03  0.10902513462E+04  0.11483065083E+04  0.00000000000E+00 0. -1.
         -3    1    6    6    0  502  0.20732261640E+02 -0.62663429866E+02  0.11297243733E+03  0.13084075708E+03  0.00000000000E+00 0.  1.
<mgrwt>
<rscale>  0 0.59809876E+03</rscale>
<asrwt>0</asrwt>
<pdfrwt beam="1">  1        1 0.35020468E+00 0.59809876E+03</pdfrwt>
<pdfrwt beam="2">  1       -2 0.29557110E-01 0.59809876E+03</pdfrwt>
<totfact> 0.19098049E+01</totfact>
</mgrwt>
</event>
<event>
12    3  0.2422421E-007  0.6564137E+03  0.7818608E-02  0.9794818E-01
         -2   -1    0    0    0  501 -0.00000000000E+00  0.00000000000E+00  0.86456841312E+03  0.86456841312E+03  0.00000000000E+00 0.  1.
          1   -1    0    0  501    0  0.00000000000E+00 -0.00000000000E+00 -0.86162183641E+03  0.86162183641E+03  0.00000000000E+00 0. -1.
        -24    2    1    2    0    0 -0.60393058961E+03  0.17665038380E+03 -0.41854896835E+03  0.75999518744E+03  0.80448311711E+02 0.  0.
    5000000    2    1    2    0    0  0.60393058961E+03 -0.17665038380E+03  0.42149554506E+03  0.96619506210E+03  0.59994740465E+03 0.  0.
        -24    2    4    4    0    0  0.17141430219E+03 -0.15406500472E+03  0.46316882888E+03  0.52417895835E+03  0.84376108317E+02 0.  0.
         24    2    4    4    0    0  0.43251628742E+03 -0.22585379082E+02 -0.41673283822E+02  0.44201610374E+03  0.77853292494E+02 0.  0.
         11    1    5    5    0    0  0.11142202599E+03 -0.47398323682E+02  0.26351376494E+03  0.29000167806E+03  0.00000000000E+00 0. -1.
        -12    1    5    5    0    0  0.59992276199E+02 -0.10666668104E+03  0.19965506395E+03  0.23417728030E+03  0.00000000000E+00 0.  1.
         13    1    3    3    0    0 -0.44895912150E+03  0.10041058747E+03 -0.32785430638E+03  0.56492037055E+03  0.00000000000E+00 0. -1.
        -14    1    3    3    0    0 -0.15497146812E+03  0.76239796329E+02 -0.90694661972E+02  0.19507481689E+03  0.00000000000E+00 0.  1.
          4    1    6    6  502    0  0.23536302127E+03 -0.39779112887E+02  0.47271425543E+01  0.23874772351E+03  0.00000000000E+00 0. -1.
         -3    1    6    6    0  502  0.19715326615E+03  0.17193733804E+02 -0.46400426376E+02  0.20326838024E+03  0.00000000000E+00 0.  1.
<mgrwt>
<rscale>  0 0.65641370E+03</rscale>
<asrwt>0</asrwt>
<pdfrwt beam="1">  1        1 0.13255721E+00 0.65641370E+03</pdfrwt>
<pdfrwt beam="2">  1       -2 0.13301052E+00 0.65641370E+03</pdfrwt>
<totfact> 0.72811889E+00</totfact>
</mgrwt>
</event>
<event>
12    3  0.2422421E-007  0.1156540E+04  0.7818608E-02  0.9151772E-01
          1   -1    0    0  501    0  0.00000000000E+00  0.00000000000E+00  0.80620741606E+03  0.80620741606E+03  0.00000000000E+00 0. -1.
         -2   -1    0    0    0  501 -0.00000000000E+00 -0.00000000000E+00 -0.18950874068E+04  0.18950874068E+04  0.00000000000E+00 0.  1.
        -24    2    1    2    0    0  0.56421974619E+03 -0.98239146145E+03 -0.79402912272E+03  0.13858758746E+04  0.82053558290E+02 0.  0.
    5000000    2    1    2    0    0 -0.56421974619E+03  0.98239146145E+03 -0.29485086800E+03  0.13154189483E+04  0.59996089010E+03 0.  0.
        -24    2    4    4    0    0 -0.47086253607E+03  0.51150692066E+03 -0.41560775160E+03  0.81411929376E+03  0.81911925451E+02 0.  0.
         24    2    4    4    0    0 -0.93357210115E+02  0.47088454079E+03  0.12075688360E+03  0.50129965453E+03  0.79191535261E+02 0.  0.
         11    1    3    3    0    0  0.34889933967E+03 -0.59694692771E+03 -0.53255378378E+03  0.87274848401E+03  0.00000000000E+00 0. -1.
        -12    1    3    3    0    0  0.21532040652E+03 -0.38544453374E+03 -0.26147533894E+03  0.51312739054E+03  0.00000000000E+00 0.  1.
         13    1    5    5    0    0 -0.47850781605E+02  0.38855833192E+02 -0.64117379707E+02  0.88941056064E+02  0.00000000000E+00 0. -1.
        -14    1    5    5    0    0 -0.42301175447E+03  0.47265108747E+03 -0.35149037189E+03  0.72517823770E+03  0.00000000000E+00 0.  1.
          2    1    6    6  502    0 -0.34199773698E+01  0.17298039324E+03  0.66854230049E+02  0.18548153753E+03  0.00000000000E+00 0. -1.
         -1    1    6    6    0  502 -0.89937232745E+02  0.29790414755E+03  0.53902653556E+02  0.31581811699E+03  0.00000000000E+00 0.  1.
<mgrwt>
<rscale>  0 0.11565396E+04</rscale>
<asrwt>0</asrwt>
<pdfrwt beam="1">  1        1 0.12403191E+00 0.11565396E+04</pdfrwt>
<pdfrwt beam="2">  1       -2 0.29155190E+00 0.11565396E+04</pdfrwt>
<totfact> 0.67635758E-01</totfact>
</mgrwt>
</event>
<event>
12    3  0.2422421E-007  0.3341264E+03  0.7818608E-02  0.1069326E+00
         -2   -1    0    0    0  501 -0.00000000000E+00  0.00000000000E+00  0.13920995953E+03  0.13920995953E+03  0.00000000000E+00 0.  1.
          1   -1    0    0  501    0  0.00000000000E+00 -0.00000000000E+00 -0.16751843136E+04  0.16751843136E+04  0.00000000000E+00 0. -1.
        -24    2    1    2    0    0  0.22355976608E+01 -0.27055456869E+03 -0.28347312455E+03  0.39948060982E+03  0.77607813678E+02 0.  0.
    5000000    2    1    2    0    0 -0.22355976608E+01  0.27055456869E+03 -0.12525012295E+04  0.14149136633E+04  0.60001380995E+03 0.  0.
        -24    2    4    4    0    0 -0.98528895198E+02  0.17016849733E+02 -0.10709073744E+04  0.10785363588E+04  0.80003476909E+02 0.  0.
         24    2    4    4    0    0  0.96293297538E+02  0.25353771896E+03 -0.18159385506E+03  0.33637730446E+03  0.81360854698E+02 0.  0.
         11    1    3    3    0    0  0.22638328674E+02 -0.17314015163E+03 -0.22221314877E+03  0.28261049081E+03  0.00000000000E+00 0. -1.
        -12    1    3    3    0    0 -0.20402731013E+02 -0.97414417062E+02 -0.61259975782E+02  0.11687011901E+03  0.00000000000E+00 0.  1.
         13    1    5    5    0    0 -0.89451046965E+02  0.38633293830E+02 -0.68228358983E+03  0.68920600559E+03  0.00000000000E+00 0. -1.
        -14    1    5    5    0    0 -0.90778482336E+01 -0.21616444098E+02 -0.38862378459E+03  0.38933035321E+03  0.00000000000E+00 0.  1.
          4    1    6    6  502    0  0.90343552890E+02  0.20118813663E+03 -0.17827679054E+03  0.28358638528E+03  0.00000000000E+00 0. -1.
         -3    1    6    6    0  502  0.59497446474E+01  0.52349582328E+02 -0.33170645168E+01  0.52790919184E+02  0.00000000000E+00 0.  1.
<mgrwt>
<rscale>  0 0.33412635E+03</rscale>
<asrwt>0</asrwt>
<pdfrwt beam="1">  1        1 0.25772069E+00 0.33412635E+03</pdfrwt>
<pdfrwt beam="2">  1       -2 0.21416915E-01 0.33412635E+03</pdfrwt>
<totfact> 0.89402465E+01</totfact>
</mgrwt>
</event>
<event>
12    3  0.2422421E-007  0.8874975E+03  0.7818608E-02  0.9441347E-01
         -2   -1    0    0    0  501 -0.00000000000E+00  0.00000000000E+00  0.53555418482E+03  0.53555418482E+03  0.00000000000E+00 0.  1.
          1   -1    0    0  501    0  0.00000000000E+00 -0.00000000000E+00 -0.33009008792E+04  0.33009008792E+04  0.00000000000E+00 0. -1.
        -24    2    1    2    0    0 -0.34721816760E+03  0.80079198107E+03 -0.26260044724E+04  0.27684705930E+04  0.81863801907E+02 0.  0.
    5000000    2    1    2    0    0  0.34721816760E+03 -0.80079198107E+03 -0.13934222193E+03  0.10679844710E+04  0.59945502142E+03 0.  0.
        -24    2    4    4    0    0  0.24162762113E+03 -0.29841721239E+03 -0.33141948950E+03  0.51311616301E+03  0.77540820095E+02 0.  0.
         24    2    4    4    0    0  0.10559054647E+03 -0.50237476868E+03  0.19207726757E+03  0.55486830802E+03  0.86344605047E+02 0.  0.
         11    1    5    5    0    0  0.13968096903E+03 -0.18395998561E+03 -0.14908274994E+03  0.27491401518E+03  0.00000000000E+00 0. -1.
        -12    1    5    5    0    0  0.10194665210E+03 -0.11445722678E+03 -0.18233673956E+03  0.23820214783E+03  0.00000000000E+00 0.  1.
         13    1    3    3    0    0 -0.17615825019E+03  0.30848123992E+03 -0.10327209967E+04  0.10921103706E+04  0.00000000000E+00 0. -1.
        -14    1    3    3    0    0 -0.17105991741E+03  0.49231074115E+03 -0.15932834757E+04  0.16763602224E+04  0.00000000000E+00 0.  1.
          2    1    6    6  502    0  0.63028936230E+02 -0.22355476932E+03  0.44324899353E+02  0.23646157910E+03  0.00000000000E+00 0. -1.
         -1    1    6    6    0  502  0.42561610245E+02 -0.27881999936E+03  0.14775236822E+03  0.31840672892E+03  0.00000000000E+00 0.  1.
<mgrwt>
<rscale>  0 0.88749749E+03</rscale>
<asrwt>0</asrwt>
<pdfrwt beam="1">  1        1 0.50783088E+00 0.88749749E+03</pdfrwt>
<pdfrwt beam="2">  1       -2 0.82392955E-01 0.88749749E+03</pdfrwt>
<totfact> 0.42579442E-01</totfact>
</mgrwt>
</event>
<event>
12    3  0.2422421E-007  0.8497218E+03  0.7818608E-02  0.9490710E-01
         -2   -1    0    0    0  501 -0.00000000000E+00  0.00000000000E+00  0.11302384047E+04  0.11302384047E+04  0.00000000000E+00 0.  1.
          1   -1    0    0  501    0  0.00000000000E+00 -0.00000000000E+00 -0.96158587328E+03  0.96158587328E+03  0.00000000000E+00 0. -1.
        -24    2    1    2    0    0 -0.19719671607E+03  0.81612256926E+03  0.53289378619E+03  0.99753098118E+03  0.78419883811E+02 0.  0.
    5000000    2    1    2    0    0  0.19719671607E+03 -0.81612256926E+03 -0.36424125472E+03  0.10942932968E+04  0.59988626838E+03 0.  0.
        -24    2    4    4    0    0  0.78670097118E+00 -0.26041702054E+03  0.14811864360E+03  0.30916212419E+03  0.76318038277E+02 0.  0.
         24    2    4    4    0    0  0.19641001510E+03 -0.55570554872E+03 -0.51235989832E+03  0.78513117265E+03  0.80825379378E+02 0.  0.
         11    1    5    5    0    0  0.14804574583E+02 -0.19966130076E+03  0.76809874338E+02  0.21443779342E+03  0.00000000000E+00 0. -1.
        -12    1    5    5    0    0 -0.14017873612E+02 -0.60755719781E+02  0.71308769265E+02  0.94724330775E+02  0.00000000000E+00 0.  1.
         13    1    3    3    0    0 -0.95128612887E+02  0.52593511352E+03  0.36342322487E+03  0.64632316762E+03  0.00000000000E+00 0. -1.
        -14    1    3    3    0    0 -0.10206810318E+03  0.29018745574E+03  0.16947056131E+03  0.35120781357E+03  0.00000000000E+00 0.  1.
          4    1    6    6  502    0  0.19945309911E+03 -0.49021400065E+03 -0.46057310659E+03  0.70158313242E+03  0.00000000000E+00 0. -1.
         -3    1    6    6    0  502 -0.30430840154E+01 -0.65491548074E+02 -0.51786791728E+02  0.83548040234E+02  0.00000000000E+00 0.  1.
<mgrwt>
<rscale>  0 0.84972179E+03</rscale>
<asrwt>0</asrwt>
<pdfrwt beam="1">  1        1 0.14793629E+00 0.84972179E+03</pdfrwt>
<pdfrwt beam="2">  1       -2 0.17388283E+00 0.84972179E+03</pdfrwt>
<totfact> 0.28845206E+00</totfact>
</mgrwt>
</event>
<event>
12    3  0.2422421E-007  0.6058722E+03  0.7818608E-02  0.9893298E-01
          1   -1    0    0  501    0  0.00000000000E+00  0.00000000000E+00  0.31541579154E+04  0.31541579154E+04  0.00000000000E+00 0. -1.
         -2   -1    0    0    0  501 -0.00000000000E+00 -0.00000000000E+00 -0.73197650756E+03  0.73197650756E+03  0.00000000000E+00 0.  1.
        -24    2    1    2    0    0 -0.58065329184E+03 -0.68635608028E+01 -0.54701072629E+03  0.80180780881E+03  0.80434282569E+02 0.  0.
    5000000    2    1    2    0    0  0.58065329184E+03  0.68635608028E+01  0.29691921341E+04  0.30843266141E+04  0.59980278389E+03 0.  0.
        -24    2    4    4    0    0  0.38706635224E+03 -0.75768935880E+02  0.26912573403E+04  0.27211622656E+04  0.79351820270E+02 0.  0.
         24    2    4    4    0    0  0.19358693960E+03  0.82632496682E+02  0.27793479378E+03  0.36316434849E+03  0.10166888279E+03 0.  0.
         13    1    5    5    0    0  0.20552284114E+03 -0.40424503464E+02  0.11581361332E+04  0.11769252660E+04  0.00000000000E+00 0. -1.
        -14    1    5    5    0    0  0.18154351110E+03 -0.35344432416E+02  0.15331212071E+04  0.15442369996E+04  0.00000000000E+00 0.  1.
         13    1    3    3    0    0 -0.49525852262E+03 -0.33905352169E+02 -0.45487208051E+03  0.67330467603E+03  0.00000000000E+00 0. -1.
        -14    1    3    3    0    0 -0.85394769215E+02  0.27041791366E+02 -0.92138645781E+02  0.12850313279E+03  0.00000000000E+00 0.  1.
          2    1    6    6  502    0  0.11230607605E+03 -0.42210704963E+01  0.10908599669E+03  0.15662128472E+03  0.00000000000E+00 0. -1.
         -1    1    6    6    0  502  0.81280863551E+02  0.86853567179E+02  0.16884879709E+03  0.20654306377E+03  0.00000000000E+00 0.  1.
<mgrwt>
<rscale>  0 0.60587215E+03</rscale>
<asrwt>0</asrwt>
<pdfrwt beam="1">  1        1 0.48525506E+00 0.60587215E+03</pdfrwt>
<pdfrwt beam="2">  1       -2 0.11261177E+00 0.60587215E+03</pdfrwt>
<totfact> 0.28087175E-01</totfact>
</mgrwt>
</event>
<event>
12    3  0.2422421E-007  0.1127526E+04  0.7818608E-02  0.9178771E-01
         -2   -1    0    0    0  501 -0.00000000000E+00  0.00000000000E+00  0.51853077351E+03  0.51853077351E+03  0.00000000000E+00 0.  1.
          1   -1    0    0  501    0  0.00000000000E+00 -0.00000000000E+00 -0.27499476752E+04  0.27499476752E+04  0.00000000000E+00 0. -1.
        -24    2    1    2    0    0 -0.95506702130E+03 -0.48135663681E+03 -0.14889250062E+04  0.18349341231E+04  0.78919801620E+02 0.  0.
    5000000    2    1    2    0    0  0.95506702130E+03  0.48135663681E+03 -0.74249189545E+03  0.14335443256E+04  0.59991490359E+03 0.  0.
        -24    2    4    4    0    0  0.56031615161E+03  0.47026794167E+01 -0.18066107064E+03  0.59401345436E+03  0.78976303837E+02 0.  0.
         24    2    4    4    0    0  0.39475086969E+03  0.47665395740E+03 -0.56183082481E+03  0.83953087119E+03  0.78300471016E+02 0.  0.
         11    1    3    3    0    0 -0.37127728857E+03 -0.22941580285E+03 -0.59107432578E+03  0.73474301235E+03  0.00000000000E+00 0. -1.
        -12    1    3    3    0    0 -0.58378973273E+03 -0.25194083397E+03 -0.89785068045E+03  0.11001911108E+04  0.00000000000E+00 0.  1.
         13    1    5    5    0    0  0.10877409309E+03  0.25993066049E+02 -0.56120154120E+02  0.12512759291E+03  0.00000000000E+00 0. -1.
        -14    1    5    5    0    0  0.45154205853E+03 -0.21290386632E+02 -0.12454091652E+03  0.46888586145E+03  0.00000000000E+00 0.  1.
          4    1    6    6  502    0  0.33336243968E+02  0.38998920593E+02 -0.20708345470E+02  0.55326815753E+02  0.00000000000E+00 0. -1.
         -3    1    6    6    0  502  0.36141462572E+03  0.43765503680E+03 -0.54112247934E+03  0.78420405544E+03  0.00000000000E+00 0.  1.
<mgrwt>
<rscale>  0 0.11275256E+04</rscale>
<asrwt>0</asrwt>
<pdfrwt beam="1">  1        1 0.42306889E+00 0.11275256E+04</pdfrwt>
<pdfrwt beam="2">  1       -2 0.79773962E-01 0.11275256E+04</pdfrwt>
<totfact> 0.11061696E+00</totfact>
</mgrwt>
</event>
<event>
12    3  0.2422421E-007  0.7341089E+03  0.7818608E-02  0.9660616E-01
          1   -1    0    0  501    0  0.00000000000E+00  0.00000000000E+00  0.64285696486E+03  0.64285696486E+03  0.00000000000E+00 0. -1.
         -2   -1    0    0    0  501 -0.00000000000E+00 -0.00000000000E+00 -0.10162776747E+04  0.10162776747E+04  0.00000000000E+00 0.  1.
        -24    2    1    2    0    0 -0.42231907084E+03 -0.54583243965E+03 -0.79686826492E+02  0.69871458777E+03  0.74603184061E+02 0.  0.
    5000000    2    1    2    0    0  0.42231907084E+03  0.54583243965E+03 -0.29373388339E+03  0.96042005185E+03  0.59986717860E+03 0.  0.
        -24    2    4    4    0    0  0.20944017336E+03  0.24179496645E+02  0.12151919142E+03  0.25603664278E+03  0.79611646652E+02 0.  0.
         24    2    4    4    0    0  0.21287889748E+03  0.52165294300E+03 -0.41525307482E+03  0.70438340907E+03  0.79256879150E+02 0.  0.
         11    1    5    5    0    0  0.72123443187E+02  0.14682477421E+02  0.18202641509E+01  0.73625264428E+02  0.00000000000E+00 0. -1.
        -12    1    5    5    0    0  0.13731673018E+03  0.94970192238E+01  0.11969892727E+03  0.18241137835E+03  0.00000000000E+00 0.  1.
         13    1    3    3    0    0 -0.13016223117E+03 -0.22207266090E+03 -0.14916088507E+02  0.25783902505E+03  0.00000000000E+00 0. -1.
        -14    1    3    3    0    0 -0.29215683967E+03 -0.32375977875E+03 -0.64770737986E+02  0.44087556272E+03  0.00000000000E+00 0.  1.
          2    1    6    6  502    0  0.22809643671E+02  0.49784065386E+02 -0.14137812247E+02  0.56556261775E+02  0.00000000000E+00 0. -1.
         -1    1    6    6    0  502  0.19006925381E+03  0.47186887762E+03 -0.40111526257E+03  0.64782714729E+03  0.00000000000E+00 0.  1.
<mgrwt>
<rscale>  0 0.73410892E+03</rscale>
<asrwt>0</asrwt>
<pdfrwt beam="1">  1        1 0.98901072E-01 0.73410892E+03</pdfrwt>
<pdfrwt beam="2">  1       -2 0.15635041E+00 0.73410892E+03</pdfrwt>
<totfact> 0.74412244E+00</totfact>
</mgrwt>
</event>
<event>
12    3  0.2422421E-007  0.6921998E+03  0.7818608E-02  0.9730665E-01
         -2   -1    0    0    0  501 -0.00000000000E+00  0.00000000000E+00  0.49009315900E+03  0.49009315900E+03  0.00000000000E+00 0.  1.
          1   -1    0    0  501    0  0.00000000000E+00 -0.00000000000E+00 -0.11579767860E+04  0.11579767860E+04  0.00000000000E+00 0. -1.
        -24    2    1    2    0    0  0.55975179108E+03  0.23225480274E+03 -0.47128795822E+03  0.77290651223E+03  0.89486178089E+02 0.  0.
    5000000    2    1    2    0    0 -0.55975179108E+03 -0.23225480274E+03 -0.19659566874E+03  0.87516343273E+03  0.59999734667E+03 0.  0.
        -24    2    4    4    0    0 -0.50876720508E+03 -0.35934009514E+03 -0.28881378384E+03  0.69156821450E+03  0.82968793110E+02 0.  0.
         24    2    4    4    0    0 -0.50984585999E+02  0.12708529241E+03  0.92218115104E+02  0.18359521823E+03  0.80330093034E+02 0.  0.
         11    1    3    3    0    0  0.22862813056E+03  0.48809542829E+02 -0.16881392842E+03  0.28835973364E+03  0.00000000000E+00 0. -1.
        -12    1    3    3    0    0  0.33112366052E+03  0.18344525991E+03 -0.30247402980E+03  0.48454677859E+03  0.00000000000E+00 0.  1.
         13    1    5    5    0    0 -0.13615752417E+03 -0.10494882895E+03 -0.40643611257E+02  0.17664945860E+03  0.00000000000E+00 0. -1.
        -14    1    5    5    0    0 -0.37260968091E+03 -0.25439126619E+03 -0.24817017258E+03  0.51491875590E+03  0.00000000000E+00 0.  1.
          4    1    6    6  502    0  0.10738873948E+02  0.45180704928E+02  0.60451862740E+02  0.76230225110E+02  0.00000000000E+00 0. -1.
         -3    1    6    6    0  502 -0.61723459948E+02  0.81904587477E+02  0.31766252364E+02  0.10736499312E+03  0.00000000000E+00 0.  1.
<mgrwt>
<rscale>  0 0.69219979E+03</rscale>
<asrwt>0</asrwt>
<pdfrwt beam="1">  1        1 0.17815027E+00 0.69219979E+03</pdfrwt>
<pdfrwt beam="2">  1       -2 0.75398948E-01 0.69219979E+03</pdfrwt>
<totfact> 0.16405713E+01</totfact>
</mgrwt>
</event>
<event>
12    3  0.2422421E-007  0.1062926E+04  0.7818608E-02  0.9242100E-01
          1   -1    0    0  501    0  0.00000000000E+00  0.00000000000E+00  0.24087063581E+04  0.24087063581E+04  0.00000000000E+00 0. -1.
         -2   -1    0    0    0  501 -0.00000000000E+00 -0.00000000000E+00 -0.79072103662E+03  0.79072103662E+03  0.00000000000E+00 0.  1.
        -24    2    1    2    0    0 -0.60180541669E+03  0.84271778858E+03  0.17080619418E+04  0.19990061329E+04  0.78783829306E+02 0.  0.
    5000000    2    1    2    0    0  0.60180541669E+03 -0.84271778858E+03 -0.90076620292E+02  0.12004212618E+04  0.60046180357E+03 0.  0.
        -24    2    4    4    0    0  0.41617079932E+03 -0.30569111711E+03  0.19714035288E+03  0.55850443452E+03  0.80110494656E+02 0.  0.
         24    2    4    4    0    0  0.18563461736E+03 -0.53702667146E+03 -0.28721697317E+03  0.64191682729E+03  0.81888744379E+02 0.  0.
         11    1    5    5    0    0  0.28925278712E+03 -0.18049637729E+03  0.99145967684E+02  0.35507188002E+03  0.00000000000E+00 0. -1.
        -12    1    5    5    0    0  0.12691801220E+03 -0.12519473982E+03  0.97994385195E+02  0.20343255450E+03  0.00000000000E+00 0.  1.
         11    1    3    3    0    0 -0.38850449827E+03  0.60001143783E+03  0.11442311600E+04  0.13491532227E+04  0.00000000000E+00 0. -1.
        -12    1    3    3    0    0 -0.21330091842E+03  0.24270635075E+03  0.56383078176E+03  0.64985291024E+03  0.00000000000E+00 0.  1.
          4    1    6    6  502    0  0.60826862910E+02 -0.21147305448E+03 -0.15442707279E+03  0.26882797628E+03  0.00000000000E+00 0. -1.
         -3    1    6    6    0  502  0.12480775445E+03 -0.32555361699E+03 -0.13278990038E+03  0.37308885101E+03  0.00000000000E+00 0.  1.
<mgrwt>
<rscale>  0 0.10629256E+04</rscale>
<asrwt>0</asrwt>
<pdfrwt beam="1">  1        1 0.37057020E+00 0.10629256E+04</pdfrwt>
<pdfrwt beam="2">  1       -2 0.12164939E+00 0.10629256E+04</pdfrwt>
<totfact> 0.70651495E-01</totfact>
</mgrwt>
</event>
<event>
12    3  0.2422421E-007  0.5331825E+03  0.7818608E-02  0.1005463E+00
         -2   -1    0    0    0  501 -0.00000000000E+00  0.00000000000E+00  0.22989510118E+03  0.22989510118E+03  0.00000000000E+00 0.  1.
          1   -1    0    0  501    0  0.00000000000E+00 -0.00000000000E+00 -0.14854915557E+04  0.14854915557E+04  0.00000000000E+00 0. -1.
        -24    2    1    2    0    0  0.34496485321E+03 -0.21757617267E+03 -0.28586290421E+03  0.50431500828E+03  0.79220494259E+02 0.  0.
    5000000    2    1    2    0    0 -0.34496485321E+03  0.21757617267E+03 -0.96973355035E+03  0.12110716486E+04  0.59997603169E+03 0.  0.
        -24    2    4    4    0    0 -0.30935761920E+03 -0.10723568444E+03 -0.26195441976E+03  0.42746106730E+03  0.83073566475E+02 0.  0.
         24    2    4    4    0    0 -0.35607234004E+02  0.32481185711E+03 -0.70777913059E+03  0.78361058134E+03  0.79521241564E+02 0.  0.
         13    1    5    5    0    0 -0.29046181328E+03 -0.96293346488E+02 -0.26575461685E+03  0.40529740923E+03  0.00000000000E+00 0. -1.
        -14    1    5    5    0    0 -0.18895805922E+02 -0.10942337952E+02  0.38001970805E+01  0.22163658072E+02  0.00000000000E+00 0.  1.
         13    1    3    3    0    0  0.11753746498E+03 -0.10458021915E+03 -0.75278023771E+02  0.17441003060E+03  0.00000000000E+00 0. -1.
        -14    1    3    3    0    0  0.22742738823E+03 -0.11299595352E+03 -0.21058488044E+03  0.32990497768E+03  0.00000000000E+00 0.  1.
          2    1    6    6  502    0 -0.31961581017E+02  0.21423422175E+03 -0.54809269052E+03  0.58934153242E+03  0.00000000000E+00 0. -1.
         -1    1    6    6    0  502 -0.36456529868E+01  0.11057763536E+03 -0.15968644006E+03  0.19426904892E+03  0.00000000000E+00 0.  1.
<mgrwt>
<rscale>  0 0.53318252E+03</rscale>
<asrwt>0</asrwt>
<pdfrwt beam="1">  1        1 0.22853716E+00 0.53318252E+03</pdfrwt>
<pdfrwt beam="2">  1       -2 0.35368477E-01 0.53318252E+03</pdfrwt>
<totfact> 0.46504820E+01</totfact>
</mgrwt>
</event>
<event>
12    3  0.2422421E-007  0.4341286E+03  0.7818608E-02  0.1032564E+00
         -2   -1    0    0    0  501 -0.00000000000E+00  0.00000000000E+00  0.12119334885E+03  0.12119334885E+03  0.00000000000E+00 0.  1.
          1   -1    0    0  501    0  0.00000000000E+00 -0.00000000000E+00 -0.20925363483E+04  0.20925363483E+04  0.00000000000E+00 0. -1.
        -24    2    1    2    0    0  0.57073532999E+02  0.30798630352E+03 -0.76786758510E+03  0.83301669269E+03  0.78633521669E+02 0.  0.
    5000000    2    1    2    0    0 -0.57073532999E+02 -0.30798630352E+03 -0.12034754143E+04  0.13807130044E+04  0.59991864147E+03 0.  0.
        -24    2    4    4    0    0  0.13567425838E+03  0.42820484827E+02 -0.73964436797E+02  0.17977896679E+03  0.81293546356E+02 0.  0.
         24    2    4    4    0    0 -0.19274779138E+03 -0.35080678835E+03 -0.11295109775E+04  0.12009340376E+04  0.78932886530E+02 0.  0.
         11    1    5    5    0    0  0.73460776122E+02  0.24879515317E+02 -0.83917253174E+02  0.11426977418E+03  0.00000000000E+00 0. -1.
        -12    1    5    5    0    0  0.62213482262E+02  0.17940969511E+02  0.99528163768E+01  0.65509192606E+02  0.00000000000E+00 0.  1.
         11    1    3    3    0    0 -0.79511970030E+01  0.99721059222E+02 -0.17942849894E+03  0.20543149081E+03  0.00000000000E+00 0. -1.
        -12    1    3    3    0    0  0.65024730002E+02  0.20826524430E+03 -0.58843908617E+03  0.62758520188E+03  0.00000000000E+00 0.  1.
          4    1    6    6  502    0 -0.21299319013E-01 -0.53015395364E+02 -0.13326251227E+03  0.14342081361E+03  0.00000000000E+00 0. -1.
         -3    1    6    6    0  502 -0.19272649206E+03 -0.29779139298E+03 -0.99624846526E+03  0.10575132240E+04  0.00000000000E+00 0.  1.
<mgrwt>
<rscale>  0 0.43412855E+03</rscale>
<asrwt>0</asrwt>
<pdfrwt beam="1">  1        1 0.32192862E+00 0.43412855E+03</pdfrwt>
<pdfrwt beam="2">  1       -2 0.18645133E-01 0.43412855E+03</pdfrwt>
<totfact> 0.59185606E+01</totfact>
</mgrwt>
</event>
<event>
12    3  0.2422421E-007  0.9342498E+03  0.7818608E-02  0.9383752E-01
          3   -1    0    0  501    0  0.00000000000E+00  0.00000000000E+00  0.26811900831E+04  0.26811900831E+04  0.00000000000E+00 0. -1.
         -4   -1    0    0    0  501 -0.00000000000E+00 -0.00000000000E+00 -0.33093749749E+03  0.33093749749E+03  0.00000000000E+00 0.  1.
        -24    2    1    2    0    0  0.33369049583E+03 -0.77447190003E+03  0.11224248079E+04  0.14062429359E+04  0.80781647621E+02 0.  0.
    5000000    2    1    2    0    0 -0.33369049583E+03  0.77447190003E+03  0.12278277778E+04  0.16058846447E+04  0.60012362830E+03 0.  0.
        -24    2    4    4    0    0  0.53127911963E+02  0.57621794896E+03  0.59315849554E+03  0.83253517540E+03  0.80175543066E+02 0.  0.
         24    2    4    4    0    0 -0.38681840779E+03  0.19825395107E+03  0.63466928223E+03  0.77334946930E+03  0.79568801241E+02 0.  0.
         13    1    3    3    0    0  0.10536526337E+03 -0.25520040398E+03  0.43177215570E+03  0.51250002864E+03  0.00000000000E+00 0. -1.
        -14    1    3    3    0    0  0.22832523246E+03 -0.51927149605E+03  0.69065265217E+03  0.89374290730E+03  0.00000000000E+00 0.  1.
         13    1    5    5    0    0  0.28224681144E+02  0.50285892420E+02  0.57742369103E+02  0.81605666420E+02  0.00000000000E+00 0. -1.
        -14    1    5    5    0    0  0.24903230819E+02  0.52593205654E+03  0.53541612644E+03  0.75092950898E+03  0.00000000000E+00 0.  1.
          2    1    6    6  502    0 -0.15662733747E+03  0.40102036758E+02  0.25713135964E+03  0.30373809821E+03  0.00000000000E+00 0. -1.
         -1    1    6    6    0  502 -0.23019107032E+03  0.15815191432E+03  0.37753792259E+03  0.46961137108E+03  0.00000000000E+00 0.  1.
<mgrwt>
<rscale>  0 0.93424983E+03</rscale>
<asrwt>0</asrwt>
<pdfrwt beam="1">  1        3 0.41249077E+00 0.93424983E+03</pdfrwt>
<pdfrwt beam="2">  1       -4 0.50913463E-01 0.93424983E+03</pdfrwt>
<totfact> 0.81640246E-02</totfact>
</mgrwt>
</event>
<event>
12    3  0.2422421E-007  0.3226429E+03  0.7818608E-02  0.1074439E+00
         -2   -1    0    0    0  501 -0.00000000000E+00  0.00000000000E+00  0.20034460984E+03  0.20034460984E+03  0.00000000000E+00 0.  1.
          1   -1    0    0  501    0  0.00000000000E+00 -0.00000000000E+00 -0.10701730498E+04  0.10701730498E+04  0.00000000000E+00 0. -1.
        -24    2    1    2    0    0 -0.16741156806E+03  0.73177947228E+02 -0.50956613380E+03  0.54721139621E+03  0.80006389403E+02 0.  0.
    5000000    2    1    2    0    0  0.16741156806E+03 -0.73177947228E+02 -0.36026230616E+03  0.72330626344E+03  0.60000114700E+03 0.  0.
        -24    2    4    4    0    0  0.82860940589E+02  0.16844604163E+03 -0.40249687033E+03  0.45188000756E+03  0.83377492116E+02 0.  0.
         24    2    4    4    0    0  0.84550627468E+02 -0.24162398886E+03  0.42234564166E+02  0.27142625588E+03  0.79733890978E+02 0.  0.
         11    1    5    5    0    0  0.92860072248E+02  0.16390163058E+03 -0.34251258655E+03  0.39089846440E+03  0.00000000000E+00 0. -1.
        -12    1    5    5    0    0 -0.99991316585E+01  0.45444110488E+01 -0.59984283778E+02  0.60981543159E+02  0.00000000000E+00 0.  1.
         13    1    3    3    0    0 -0.13066381032E+03  0.78347897143E+02 -0.32481864094E+03  0.35877370836E+03  0.00000000000E+00 0. -1.
        -14    1    3    3    0    0 -0.36747757739E+02 -0.51699499143E+01 -0.18474749286E+03  0.18843768784E+03  0.00000000000E+00 0.  1.
          2    1    6    6  502    0  0.16959049390E+02 -0.69543283102E+02  0.48459837812E+02  0.86442081544E+02  0.00000000000E+00 0. -1.
         -1    1    6    6    0  502  0.67591578078E+02 -0.17208070576E+03 -0.62252736468E+01  0.18498417433E+03  0.00000000000E+00 0.  1.
<mgrwt>
<rscale>  0 0.32264294E+03</rscale>
<asrwt>0</asrwt>
<pdfrwt beam="1">  1        1 0.16464201E+00 0.32264294E+03</pdfrwt>
<pdfrwt beam="2">  1       -2 0.30822247E-01 0.32264294E+03</pdfrwt>
<totfact> 0.12150081E+02</totfact>
</mgrwt>
</event>
<event>
12    3  0.4933300E-007  0.9816398E+03  0.7818608E-02  0.9328914E-01
         -4   -1    0    0    0  501 -0.00000000000E+00  0.00000000000E+00  0.54923878955E+03  0.54923878955E+03  0.00000000000E+00 0.  1.
          1   -1    0    0  501    0  0.00000000000E+00 -0.00000000000E+00 -0.20126791564E+04  0.20126791564E+04  0.00000000000E+00 0. -1.
        -24    2    1    2    0    0 -0.20213823792E+03 -0.91854245051E+03 -0.41552215921E+03  0.10313463899E+04  0.80228489571E+02 0.  0.
    5000000    2    1    2    0    0  0.20213823792E+03  0.91854245051E+03 -0.10479182076E+04  0.15305715560E+04  0.59994717905E+03 0.  0.
        -24    2    4    4    0    0  0.19798979860E+03  0.14715408654E+03 -0.45489909473E+02  0.26330904289E+03  0.80050200939E+02 0.  0.
         24    2    4    4    0    0  0.41484393213E+01  0.77138836397E+03 -0.10024282981E+04  0.12672625131E+04  0.77682473394E+02 0.  0.
         11    1    3    3    0    0 -0.35129270425E+02 -0.31031432497E+03 -0.11654472116E+03  0.33333424360E+03  0.00000000000E+00 0. -1.
        -12    1    3    3    0    0 -0.16700896749E+03 -0.60822812553E+03 -0.29897743805E+03  0.69801214630E+03  0.00000000000E+00 0.  1.
         11    1    5    5    0    0  0.10087832554E+03  0.82415218311E+02  0.16248547882E+02  0.13127345536E+03  0.00000000000E+00 0. -1.
        -12    1    5    5    0    0  0.97111473052E+02  0.64738868230E+02 -0.61738457355E+02  0.13203558753E+03  0.00000000000E+00 0.  1.
          2    1    6    6  502    0 -0.23378905520E+02  0.48357627604E+03 -0.58255780928E+03  0.75747355672E+03  0.00000000000E+00 0. -1.
         -1    1    6    6    0  502  0.27527344842E+02  0.28781208793E+03 -0.41987048885E+03  0.50978895641E+03  0.00000000000E+00 0.  1.
<mgrwt>
<rscale>  0 0.98163983E+03</rscale>
<asrwt>0</asrwt>
<pdfrwt beam="1">  1        1 0.30964294E+00 0.98163983E+03</pdfrwt>
<pdfrwt beam="2">  1       -4 0.84498276E-01 0.98163983E+03</pdfrwt>
<totfact> 0.17368721E+00</totfact>
</mgrwt>
</event>
<event>
12    3  0.2422421E-007  0.6173537E+03  0.7818608E-02  0.9870043E-01
          1   -1    0    0  501    0  0.00000000000E+00  0.00000000000E+00  0.84373748424E+03  0.84373748424E+03  0.00000000000E+00 0. -1.
         -2   -1    0    0    0  501 -0.00000000000E+00 -0.00000000000E+00 -0.61619101186E+03  0.61619101186E+03  0.00000000000E+00 0.  1.
        -24    2    1    2    0    0  0.53665493147E+03 -0.24267436357E+03  0.16533764015E+03  0.61681849177E+03  0.78988317644E+02 0.  0.
    5000000    2    1    2    0    0 -0.53665493147E+03  0.24267436357E+03  0.62208832228E+02  0.84311000433E+03  0.60006264539E+03 0.  0.
        -24    2    4    4    0    0 -0.39511980353E+03  0.57390795154E+02 -0.22486553215E+03  0.46518304386E+03  0.80108640201E+02 0.  0.
         24    2    4    4    0    0 -0.14153512794E+03  0.18528356842E+03  0.28707436438E+03  0.37792696047E+03  0.77813261082E+02 0.  0.
         11    1    5    5    0    0 -0.30863543943E+03  0.34507836781E+02 -0.20897489636E+03  0.37432223094E+03  0.00000000000E+00 0. -1.
        -12    1    5    5    0    0 -0.86484364106E+02  0.22882958373E+02 -0.15890635795E+02  0.90860812921E+02  0.00000000000E+00 0.  1.
         13    1    3    3    0    0  0.34153662398E+02 -0.14127438758E+02  0.32051668567E+02  0.48922046554E+02  0.00000000000E+00 0. -1.
        -14    1    3    3    0    0  0.50250126907E+03 -0.22854692482E+03  0.13328597158E+03  0.56789644521E+03  0.00000000000E+00 0.  1.
          2    1    6    6  502    0 -0.15988721280E+02  0.80774972564E+02  0.91048989653E+02  0.12276055522E+03  0.00000000000E+00 0. -1.
         -1    1    6    6    0  502 -0.12554640666E+03  0.10450859586E+03  0.19602537473E+03  0.25516640525E+03  0.00000000000E+00 0.  1.
<mgrwt>
<rscale>  0 0.61735368E+03</rscale>
<asrwt>0</asrwt>
<pdfrwt beam="1">  1        1 0.12980577E+00 0.61735368E+03</pdfrwt>
<pdfrwt beam="2">  1       -2 0.94798617E-01 0.61735368E+03</pdfrwt>
<totfact> 0.17257782E+01</totfact>
</mgrwt>
</event>
<event>
12    3  0.2422421E-007  0.5311035E+03  0.7818608E-02  0.1005965E+00
          1   -1    0    0  501    0  0.00000000000E+00  0.00000000000E+00  0.95452062411E+03  0.95452062411E+03  0.00000000000E+00 0. -1.
         -2   -1    0    0    0  501 -0.00000000000E+00 -0.00000000000E+00 -0.47999755687E+03  0.47999755687E+03  0.00000000000E+00 0.  1.
        -24    2    1    2    0    0  0.51454262073E+03  0.38948577531E+02  0.23301460181E+02  0.52380143893E+03  0.86913112585E+02 0.  0.
    5000000    2    1    2    0    0 -0.51454262073E+03 -0.38948577531E+02  0.45122160706E+03  0.91071674204E+03  0.59961066145E+03 0.  0.
        -24    2    4    4    0    0 -0.13767890624E+03 -0.61749940767E+01 -0.13636574986E+03  0.20943077451E+03  0.79196084512E+02 0.  0.
         24    2    4    4    0    0 -0.37686371449E+03 -0.32773583454E+02  0.58758735692E+03  0.70128596753E+03  0.58674859912E+02 0.  0.
         11    1    5    5    0    0 -0.61009047519E+02  0.36563272847E+02 -0.63602761342E+02  0.95416392988E+02  0.00000000000E+00 0. -1.
        -12    1    5    5    0    0 -0.76669858724E+02 -0.42738266924E+02 -0.72762988513E+02  0.11401438152E+03  0.00000000000E+00 0.  1.
         13    1    3    3    0    0  0.23284583567E+03 -0.24624205822E+02  0.80939230939E+00  0.23414565941E+03  0.00000000000E+00 0. -1.
        -14    1    3    3    0    0  0.28169678505E+03  0.63572783353E+02  0.22492067872E+02  0.28965577952E+03  0.00000000000E+00 0.  1.
          4    1    6    6  502    0 -0.13486330006E+03  0.73977926207E+01  0.17193457413E+03  0.21864202437E+03  0.00000000000E+00 0. -1.
         -3    1    6    6    0  502 -0.24200041443E+03 -0.40171376075E+02  0.41565278279E+03  0.48264394317E+03  0.00000000000E+00 0.  1.
<mgrwt>
<rscale>  0 0.53110353E+03</rscale>
<asrwt>0</asrwt>
<pdfrwt beam="1">  1        1 0.14684933E+00 0.53110353E+03</pdfrwt>
<pdfrwt beam="2">  1       -2 0.73845778E-01 0.53110353E+03</pdfrwt>
<totfact> 0.24989785E+01</totfact>
</mgrwt>
</event>
<event>
12    3  0.2422421E-007  0.6768537E+03  0.7818608E-02  0.9757655E-01
          1   -1    0    0  501    0  0.00000000000E+00  0.00000000000E+00  0.36945050560E+03  0.36945050560E+03  0.00000000000E+00 0. -1.
         -2   -1    0    0    0  501 -0.00000000000E+00 -0.00000000000E+00 -0.17114338338E+04  0.17114338338E+04  0.00000000000E+00 0.  1.
        -24    2    1    2    0    0  0.55112134133E+03  0.33286656744E+03 -0.29376793135E+03  0.71226969709E+03  0.80583120549E+02 0.  0.
    5000000    2    1    2    0    0 -0.55112134133E+03 -0.33286656744E+03 -0.10482153968E+04  0.13686146423E+04  0.59984634393E+03 0.  0.
        -24    2    4    4    0    0 -0.32992976739E+03 -0.36003450623E+02 -0.11274523863E+03  0.35944027597E+03  0.79598513130E+02 0.  0.
         24    2    4    4    0    0 -0.22119157394E+03 -0.29686311681E+03 -0.93547015818E+03  0.10091743663E+04  0.79215290376E+02 0.  0.
         11    1    5    5    0    0 -0.14729958800E+02  0.80646602641E+01 -0.23528114450E+02  0.28906445665E+02  0.00000000000E+00 0. -1.
        -12    1    5    5    0    0 -0.31519980859E+03 -0.44068110887E+02 -0.89217124180E+02  0.33053383031E+03  0.00000000000E+00 0.  1.
         11    1    3    3    0    0  0.10825453127E+03  0.10159446164E+03 -0.52724294106E+02  0.15754469006E+03  0.00000000000E+00 0. -1.
        -12    1    3    3    0    0  0.44286681006E+03  0.23127210580E+03 -0.24104363725E+03  0.55472500703E+03  0.00000000000E+00 0.  1.
          4    1    6    6  502    0 -0.48627474270E+02 -0.54350717417E+02 -0.27911362817E+03  0.28848405357E+03  0.00000000000E+00 0. -1.
         -1    1    6    6    0  502 -0.17256409967E+03 -0.24251239940E+03 -0.65635653002E+03  0.72069031273E+03  0.00000000000E+00 0.  1.
<mgrwt>
<rscale>  0 0.67685370E+03</rscale>
<asrwt>0</asrwt>
<pdfrwt beam="1">  1        1 0.56838540E-01 0.67685370E+03</pdfrwt>
<pdfrwt beam="2">  1       -2 0.26329751E+00 0.67685370E+03</pdfrwt>
<totfact> 0.32513515E+00</totfact>
</mgrwt>
</event>
<event>
12    3  0.2422421E-007  0.1609646E+04  0.7818608E-02  0.8814644E-01
         -2   -1    0    0    0  501 -0.00000000000E+00  0.00000000000E+00  0.10108799236E+04  0.10108799236E+04  0.00000000000E+00 0.  1.
          1   -1    0    0  501    0  0.00000000000E+00 -0.00000000000E+00 -0.30953049902E+04  0.30953049902E+04  0.00000000000E+00 0. -1.
        -24    2    1    2    0    0 -0.15483215436E+04  0.23353338621E+03 -0.18303151087E+04  0.24101988658E+04  0.84662450918E+02 0.  0.
    5000000    2    1    2    0    0  0.15483215436E+04 -0.23353338621E+03 -0.25410995788E+03  0.16959860480E+04  0.59996613198E+03 0.  0.
        -24    2    4    4    0    0  0.34427476492E+02  0.90856538990E+02 -0.29146526631E+02  0.12938718791E+03  0.80320374542E+02 0.  0.
         24    2    4    4    0    0  0.15138940671E+04 -0.32438992520E+03 -0.22496343125E+03  0.15665988601E+04  0.80742634890E+02 0.  0.
         13    1    5    5    0    0  0.31685871057E+02  0.42567992106E+02 -0.53397526151E+02  0.75281632392E+02  0.00000000000E+00 0. -1.
        -14    1    5    5    0    0  0.27416054346E+01  0.48288546885E+02  0.24250999519E+02  0.54105555521E+02  0.00000000000E+00 0.  1.
         13    1    3    3    0    0 -0.71554892324E+03  0.15055173664E+03 -0.85762202390E+03  0.11270277826E+04  0.00000000000E+00 0. -1.
        -14    1    3    3    0    0 -0.83277262031E+03  0.82981649570E+02 -0.97269308481E+03  0.12831710831E+04  0.00000000000E+00 0.  1.
          2    1    6    6  502    0  0.50108611214E+03 -0.74801981569E+02 -0.52862251413E+02  0.50938889451E+03  0.00000000000E+00 0. -1.
         -1    1    6    6    0  502  0.10128079549E+04 -0.24958794363E+03 -0.17210117983E+03  0.10572099656E+04  0.00000000000E+00 0.  1.
<mgrwt>
<rscale>  0 0.16096456E+04</rscale>
<asrwt>0</asrwt>
<pdfrwt beam="1">  1        1 0.47620075E+00 0.16096456E+04</pdfrwt>
<pdfrwt beam="2">  1       -2 0.15551999E+00 0.16096456E+04</pdfrwt>
<totfact> 0.11372613E-01</totfact>
</mgrwt>
</event>
<event>
12    3  0.2422421E-007  0.5103517E+03  0.7818608E-02  0.1011112E+00
         -2   -1    0    0    0  501 -0.00000000000E+00  0.00000000000E+00  0.75519123653E+03  0.75519123653E+03  0.00000000000E+00 0.  1.
          1   -1    0    0  501    0  0.00000000000E+00 -0.00000000000E+00 -0.97056602123E+03  0.97056602123E+03  0.00000000000E+00 0. -1.
        -24    2    1    2    0    0  0.33431307894E+03  0.24604916373E+02 -0.76933774986E+03  0.84294436582E+03  0.79397694222E+02 0.  0.
    5000000    2    1    2    0    0 -0.33431307894E+03 -0.24604916373E+02  0.55396296517E+03  0.88281289194E+03  0.60009415823E+03 0.  0.
        -24    2    4    4    0    0 -0.48067231273E+03  0.71094809217E+02  0.36107463952E+03  0.61054574716E+03  0.79315004627E+02 0.  0.
         24    2    4    4    0    0  0.14635923379E+03 -0.95699725590E+02  0.19288832565E+03  0.27226714478E+03  0.79649414060E+02 0.  0.
         11    1    5    5    0    0 -0.78943106441E+02  0.40031244189E+02  0.79578739744E+02  0.11902642726E+03  0.00000000000E+00 0. -1.
        -12    1    5    5    0    0 -0.40172920629E+03  0.31063565027E+02  0.28149589977E+03  0.49151931991E+03  0.00000000000E+00 0.  1.
         13    1    3    3    0    0  0.10810411144E+03 -0.12617485273E+02 -0.32849246081E+03  0.34605345925E+03  0.00000000000E+00 0. -1.
        -14    1    3    3    0    0  0.22620896750E+03  0.37222401646E+02 -0.44084528905E+03  0.49689090657E+03  0.00000000000E+00 0.  1.
          2    1    6    6  502    0  0.10868660607E+03 -0.25705910934E+02  0.12606979948E+03  0.16842555191E+03  0.00000000000E+00 0. -1.
         -1    1    6    6    0  502  0.37672627718E+02 -0.69993814656E+02  0.66818526174E+02  0.10384159287E+03  0.00000000000E+00 0.  1.
<mgrwt>
<rscale>  0 0.51035169E+03</rscale>
<asrwt>0</asrwt>
<pdfrwt beam="1">  1        1 0.14931785E+00 0.51035169E+03</pdfrwt>
<pdfrwt beam="2">  1       -2 0.11618327E+00 0.51035169E+03</pdfrwt>
<totfact> 0.85355664E+00</totfact>
</mgrwt>
</event>
<event>
12    3  0.2422421E-007  0.9030040E+03  0.7818608E-02  0.9421834E-01
          1   -1    0    0  501    0  0.00000000000E+00  0.00000000000E+00  0.12275627153E+04  0.12275627153E+04  0.00000000000E+00 0. -1.
         -2   -1    0    0    0  501 -0.00000000000E+00 -0.00000000000E+00 -0.11727672387E+04  0.11727672387E+04  0.00000000000E+00 0.  1.
        -24    2    1    2    0    0  0.79243084404E+03  0.43011254536E+03 -0.64444751624E+03  0.11111851687E+04  0.80476293146E+02 0.  0.
    5000000    2    1    2    0    0 -0.79243084404E+03 -0.43011254536E+03  0.69924299280E+03  0.12891447852E+04  0.60000839162E+03 0.  0.
        -24    2    4    4    0    0 -0.42873646000E+03 -0.26329408944E+03  0.36571515888E+02  0.51094482230E+03  0.81168996480E+02 0.  0.
         24    2    4    4    0    0 -0.36369438404E+03 -0.16681845592E+03  0.66267147691E+03  0.77819996292E+03  0.79747688141E+02 0.  0.
         11    1    5    5    0    0 -0.14373634520E+03 -0.10167785631E+03  0.50026908153E+02  0.18303337109E+03  0.00000000000E+00 0. -1.
        -12    1    5    5    0    0 -0.28500011480E+03 -0.16161623313E+03 -0.13455392265E+02  0.32791145120E+03  0.00000000000E+00 0.  1.
         13    1    3    3    0    0  0.28569908975E+03  0.17210890458E+03 -0.19480751350E+03  0.38625821964E+03  0.00000000000E+00 0. -1.
        -14    1    3    3    0    0  0.50673175429E+03  0.25800364078E+03 -0.44964000274E+03  0.72492694910E+03  0.00000000000E+00 0.  1.
          2    1    6    6  502    0 -0.19534758467E+03 -0.91434134227E+02  0.43197566742E+03  0.48282901423E+03  0.00000000000E+00 0. -1.
         -1    1    6    6    0  502 -0.16834679937E+03 -0.75384321694E+02  0.23069580949E+03  0.29537094870E+03  0.00000000000E+00 0.  1.
<mgrwt>
<rscale>  0 0.90300399E+03</rscale>
<asrwt>0</asrwt>
<pdfrwt beam="1">  1        1 0.18885580E+00 0.90300399E+03</pdfrwt>
<pdfrwt beam="2">  1       -2 0.18042573E+00 0.90300399E+03</pdfrwt>
<totfact> 0.16263794E+00</totfact>
</mgrwt>
</event>
<event>
12    3  0.2422421E-007  0.1254557E+04  0.7818608E-02  0.9066399E-01
         -2   -1    0    0    0  501 -0.00000000000E+00  0.00000000000E+00  0.16329965466E+04  0.16329965466E+04  0.00000000000E+00 0.  1.
          1   -1    0    0  501    0  0.00000000000E+00 -0.00000000000E+00 -0.10837270364E+04  0.10837270364E+04  0.00000000000E+00 0. -1.
        -24    2    1    2    0    0  0.10576081543E+04  0.63298435810E+03 -0.12031992161E+02  0.12354249041E+04  0.83220907243E+02 0.  0.
    5000000    2    1    2    0    0 -0.10576081543E+04 -0.63298435810E+03  0.56130150238E+03  0.14812986788E+04  0.59998516124E+03 0.  0.
        -24    2    4    4    0    0 -0.16362341263E+03 -0.22946545398E+03 -0.83818792958E+02  0.30462284191E+03  0.79639625987E+02 0.  0.
         24    2    4    4    0    0 -0.89398474163E+03 -0.40351890412E+03  0.64512029534E+03  0.11766758369E+04  0.79684411495E+02 0.  0.
         11    1    5    5    0    0  0.56601944752E+00 -0.47313299849E+02 -0.83884270967E+01  0.48054494376E+02  0.00000000000E+00 0. -1.
        -12    1    5    5    0    0 -0.16418943208E+03 -0.18215215413E+03 -0.75430365862E+02  0.25656834753E+03  0.00000000000E+00 0.  1.
         13    1    3    3    0    0  0.51623546864E+03  0.28723975398E+03 -0.42925387829E+02  0.59232450926E+03  0.00000000000E+00 0. -1.
        -14    1    3    3    0    0  0.54137268561E+03  0.34574460411E+03  0.30893395667E+02  0.64310039488E+03  0.00000000000E+00 0.  1.
          4    1    6    6  502    0 -0.37989621558E+03 -0.21046882267E+03  0.30573688203E+03  0.53112456257E+03  0.00000000000E+00 0. -1.
         -3    1    6    6    0  502 -0.51408852604E+03 -0.19305008145E+03  0.33938341332E+03  0.64555127433E+03  0.00000000000E+00 0.  1.
<mgrwt>
<rscale>  0 0.12545570E+04</rscale>
<asrwt>0</asrwt>
<pdfrwt beam="1">  1        1 0.16672724E+00 0.12545570E+04</pdfrwt>
<pdfrwt beam="2">  1       -2 0.25123024E+00 0.12545570E+04</pdfrwt>
<totfact> 0.70096274E-01</totfact>
</mgrwt>
</event>
<event>
12    3  0.4255589E-007  0.6700807E+03  0.7818608E-02  0.9769812E-01
         -2   -1    0    0    0  501 -0.00000000000E+00  0.00000000000E+00  0.19274994142E+03  0.19274994142E+03  0.00000000000E+00 0.  1.
          1   -1    0    0  501    0  0.00000000000E+00 -0.00000000000E+00 -0.26962177591E+04  0.26962177591E+04  0.00000000000E+00 0. -1.
        -24    2    1    2    0    0  0.39859157982E+03 -0.38706335195E+03 -0.14527796899E+04  0.15575707065E+04  0.82245926527E+02 0.  0.
    5000000    2    1    2    0    0 -0.39859157982E+03  0.38706335195E+03 -0.10506881279E+04  0.13313969941E+04  0.59998260636E+03 0.  0.
        -24    2    4    4    0    0 -0.85964533606E+01 -0.12443541092E+03 -0.88239318100E+02  0.17115560245E+03  0.77136194413E+02 0.  0.
         24    2    4    4    0    0 -0.38999512646E+03  0.51149876287E+03 -0.96244880976E+03  0.11602413916E+04  0.78263608415E+02 0.  0.
         11    1    5    5    0    0 -0.31940915849E+02 -0.51378806934E+02 -0.95042285435E+01  0.61239972791E+02  0.00000000000E+00 0. -1.
        -12    1    5    5    0    0  0.23344462489E+02 -0.73056603990E+02 -0.78735089557E+02  0.10991562966E+03  0.00000000000E+00 0.  1.
         13    1    3    3    0    0  0.16443908482E+03 -0.11543979029E+03 -0.58814693474E+03  0.62151699465E+03  0.00000000000E+00 0. -1.
        -14    1    3    3    0    0  0.23415249499E+03 -0.27162356166E+03 -0.86463275512E+03  0.93605371181E+03  0.00000000000E+00 0.  1.
          2    1    6    6  502    0 -0.30963297845E+03  0.39461524338E+03 -0.68961443108E+03  0.85273784671E+03  0.00000000000E+00 0. -1.
         -1    1    6    6    0  502 -0.80362148005E+02  0.11688351950E+03 -0.27283437868E+03  0.30750354494E+03  0.00000000000E+00 0.  1.
<mgrwt>
<rscale>  0 0.67008072E+03</rscale>
<asrwt>0</asrwt>
<pdfrwt beam="1">  1        1 0.41480274E+00 0.67008072E+03</pdfrwt>
<pdfrwt beam="2">  1       -2 0.29653837E-01 0.67008072E+03</pdfrwt>
<totfact> 0.97129910E+00</totfact>
</mgrwt>
</event>
<event>
12    3  0.2422421E-007  0.3178011E+03  0.7818608E-02  0.1076666E+00
          1   -1    0    0  501    0  0.00000000000E+00  0.00000000000E+00  0.34732322510E+03  0.34732322510E+03  0.00000000000E+00 0. -1.
         -2   -1    0    0    0  501 -0.00000000000E+00 -0.00000000000E+00 -0.10474293740E+04  0.10474293740E+04  0.00000000000E+00 0.  1.
        -24    2    1    2    0    0  0.17256947937E+03  0.10751809247E+03 -0.72848680435E+03  0.76059475957E+03  0.80442518293E+02 0.  0.
    5000000    2    1    2    0    0 -0.17256947937E+03 -0.10751809247E+03  0.28380655454E+02  0.63415783952E+03  0.60000861527E+03 0.  0.
        -24    2    4    4    0    0  0.45033162272E+01  0.10805877469E+03  0.23883107120E+03  0.27486194650E+03  0.82533813789E+02 0.  0.
         24    2    4    4    0    0 -0.17707279560E+03 -0.21557686717E+03 -0.21045041575E+03  0.35929589301E+03  0.83522455953E+02 0.  0.
         11    1    5    5    0    0 -0.33363165240E+02  0.67683363801E+02  0.17372227339E+03  0.18940318583E+03  0.00000000000E+00 0. -1.
        -12    1    5    5    0    0  0.37866481467E+02  0.40375410894E+02  0.65108797812E+02  0.85458760675E+02  0.00000000000E+00 0.  1.
         13    1    3    3    0    0  0.15932028064E+03  0.61563982889E+02 -0.57435233238E+03  0.59921087901E+03  0.00000000000E+00 0. -1.
        -14    1    3    3    0    0  0.13249198735E+02  0.45954109585E+02 -0.15413447197E+03  0.16138388056E+03  0.00000000000E+00 0.  1.
          4    1    6    6  502    0 -0.95295693860E+02 -0.16339606625E+03 -0.10634525362E+03  0.21699966982E+03  0.00000000000E+00 0. -1.
         -1    1    6    6    0  502 -0.81777101739E+02 -0.52180800919E+02 -0.10410516213E+03  0.14229622320E+03  0.00000000000E+00 0.  1.
<mgrwt>
<rscale>  0 0.31780111E+03</rscale>
<asrwt>0</asrwt>
<pdfrwt beam="1">  1        1 0.53434343E-01 0.31780111E+03</pdfrwt>
<pdfrwt beam="2">  1       -2 0.16114298E+00 0.31780111E+03</pdfrwt>
<totfact> 0.16806706E+01</totfact>
</mgrwt>
</event>
<event>
12    3  0.2422421E-007  0.7345554E+03  0.7818608E-02  0.9659897E-01
         -2   -1    0    0    0  501 -0.00000000000E+00  0.00000000000E+00  0.20702998097E+03  0.20702998097E+03  0.00000000000E+00 0.  1.
          1   -1    0    0  501    0  0.00000000000E+00 -0.00000000000E+00 -0.34384564759E+04  0.34384564759E+04  0.00000000000E+00 0. -1.
        -24    2    1    2    0    0  0.65651810945E+03  0.29591078903E+03 -0.11011666757E+04  0.13181372370E+04  0.79614727547E+02 0.  0.
    5000000    2    1    2    0    0 -0.65651810945E+03 -0.29591078903E+03 -0.21302598192E+04  0.23273492198E+04  0.59997355824E+03 0.  0.
        -24    2    4    4    0    0 -0.10529009370E+03 -0.82509141281E+02 -0.49936997201E+02  0.16325237535E+03  0.79144628013E+02 0.  0.
         24    2    4    4    0    0 -0.55122801576E+03 -0.21340164775E+03 -0.20803228220E+04  0.21640968445E+04  0.78609922265E+02 0.  0.
         11    1    3    3    0    0  0.33036264739E+03  0.15722677524E+03 -0.48814962972E+03  0.61004081718E+03  0.00000000000E+00 0. -1.
        -12    1    3    3    0    0  0.32615546207E+03  0.13868401380E+03 -0.61301704596E+03  0.70809641981E+03  0.00000000000E+00 0.  1.
         11    1    5    5    0    0 -0.77044707800E+01 -0.50286276338E+02 -0.50964483497E+01  0.51127705246E+02  0.00000000000E+00 0. -1.
        -12    1    5    5    0    0 -0.97585622918E+02 -0.32222864943E+02 -0.44840548851E+02  0.11212467011E+03  0.00000000000E+00 0.  1.
          2    1    6    6  502    0 -0.26210648182E+03 -0.13882187745E+03 -0.11027957553E+04  0.11419850259E+04  0.00000000000E+00 0. -1.
         -1    1    6    6    0  502 -0.28912153394E+03 -0.74579770297E+02 -0.97752706675E+03  0.10221118186E+04  0.00000000000E+00 0.  1.
<mgrwt>
<rscale>  0 0.73455537E+03</rscale>
<asrwt>0</asrwt>
<pdfrwt beam="1">  1        1 0.52899331E+00 0.73455537E+03</pdfrwt>
<pdfrwt beam="2">  1       -2 0.31850766E-01 0.73455537E+03</pdfrwt>
<totfact> 0.24351770E+00</totfact>
</mgrwt>
</event>
<event>
12    3  0.2422421E-007  0.6778897E+03  0.7818608E-02  0.9755809E-01
         -2   -1    0    0    0  501 -0.00000000000E+00  0.00000000000E+00  0.73424834398E+03  0.73424834398E+03  0.00000000000E+00 0.  1.
          1   -1    0    0  501    0  0.00000000000E+00 -0.00000000000E+00 -0.71979598271E+03  0.71979598271E+03  0.00000000000E+00 0. -1.
        -24    2    1    2    0    0 -0.24685671835E+03 -0.49668069976E+03  0.23606272064E+03  0.60757481649E+03  0.76102514072E+02 0.  0.
    5000000    2    1    2    0    0  0.24685671835E+03  0.49668069976E+03 -0.22161035937E+03  0.84646951020E+03  0.59980790543E+03 0.  0.
        -24    2    4    4    0    0  0.16961306188E+03 -0.93484289980E+02 -0.10861289630E+03  0.23561209096E+03  0.78793355860E+02 0.  0.
         24    2    4    4    0    0  0.77243656468E+02  0.59016498974E+03 -0.11299746307E+03  0.61085741925E+03  0.78211651388E+02 0.  0.
         11    1    5    5    0    0  0.23159083308E+02 -0.40029987707E+02 -0.11524773279E+01  0.46260904223E+02  0.00000000000E+00 0. -1.
        -12    1    5    5    0    0  0.14645397857E+03 -0.53454302273E+02 -0.10746041897E+03  0.18935118673E+03  0.00000000000E+00 0.  1.
         13    1    3    3    0    0 -0.16838128605E+03 -0.39939300752E+03  0.16490715522E+03  0.46374713130E+03  0.00000000000E+00 0. -1.
        -14    1    3    3    0    0 -0.78475432301E+02 -0.97287692233E+02  0.71155565419E+02  0.14382768518E+03  0.00000000000E+00 0.  1.
          2    1    6    6  502    0  0.22381804482E+02  0.17390668464E+03  0.26579378505E+01  0.17536118376E+03  0.00000000000E+00 0. -1.
         -1    1    6    6    0  502  0.54861851987E+02  0.41625830509E+03 -0.11565540092E+03  0.43549623549E+03  0.00000000000E+00 0.  1.
<mgrwt>
<rscale>  0 0.67788968E+03</rscale>
<asrwt>0</asrwt>
<pdfrwt beam="1">  1        1 0.11073784E+00 0.67788968E+03</pdfrwt>
<pdfrwt beam="2">  1       -2 0.11296128E+00 0.67788968E+03</pdfrwt>
<totfact> 0.14483703E+01</totfact>
</mgrwt>
</event>
<event>
12    3  0.2422421E-007  0.7429927E+03  0.7818608E-02  0.9646408E-01
         -2   -1    0    0    0  501 -0.00000000000E+00  0.00000000000E+00  0.11857773439E+04  0.11857773439E+04  0.00000000000E+00 0.  1.
          1   -1    0    0  501    0  0.00000000000E+00 -0.00000000000E+00 -0.48607901269E+03  0.48607901269E+03  0.00000000000E+00 0. -1.
        -24    2    1    2    0    0  0.58885862199E+03 -0.24162208465E+03  0.34158758566E+03  0.72677160471E+03  0.79869758098E+02 0.  0.
    5000000    2    1    2    0    0 -0.58885862199E+03  0.24162208465E+03  0.35811074558E+03  0.94508475191E+03  0.59983845634E+03 0.  0.
        -24    2    4    4    0    0 -0.61313295560E+02 -0.16054244940E+03  0.14015135343E+01  0.18850165523E+03  0.77444893382E+02 0.  0.
         24    2    4    4    0    0 -0.52754532643E+03  0.40216453405E+03  0.35670923205E+03  0.75658309668E+03  0.71666743112E+02 0.  0.
         13    1    5    5    0    0 -0.72497102820E+02 -0.14425050792E+03 -0.15915885602E+02  0.16222624439E+03  0.00000000000E+00 0. -1.
        -14    1    5    5    0    0  0.11183807260E+02 -0.16291941478E+02  0.17317399136E+02  0.26275410840E+02  0.00000000000E+00 0.  1.
         13    1    3    3    0    0  0.55059159522E+03 -0.20237515720E+03  0.31543083402E+03  0.66603559967E+03  0.00000000000E+00 0. -1.
        -14    1    3    3    0    0  0.38267026761E+02 -0.39246927447E+02  0.26156751637E+02  0.60736005034E+02  0.00000000000E+00 0.  1.
          4    1    6    6  502    0 -0.30212580018E+03  0.23174840866E+03  0.16427892472E+03  0.41469855215E+03  0.00000000000E+00 0. -1.
         -3    1    6    6    0  502 -0.22541952624E+03  0.17041612539E+03  0.19243030733E+03  0.34188454452E+03  0.00000000000E+00 0.  1.
<mgrwt>
<rscale>  0 0.74299269E+03</rscale>
<asrwt>0</asrwt>
<pdfrwt beam="1">  1        1 0.74781387E-01 0.74299269E+03</pdfrwt>
<pdfrwt beam="2">  1       -2 0.18242728E+00 0.74299269E+03</pdfrwt>
<totfact> 0.71989768E+00</totfact>
</mgrwt>
</event>
<event>
12    3  0.2422421E-007  0.3863626E+03  0.7818608E-02  0.1048607E+00
          1   -1    0    0  501    0  0.00000000000E+00  0.00000000000E+00  0.15931950982E+04  0.15931950982E+04  0.00000000000E+00 0. -1.
         -2   -1    0    0    0  501 -0.00000000000E+00 -0.00000000000E+00 -0.25141881641E+03  0.25141881641E+03  0.00000000000E+00 0.  1.
        -24    2    1    2    0    0  0.17132228076E+03  0.29279813565E+03  0.13914495263E+02  0.34855570162E+03  0.78837756349E+02 0.  0.
    5000000    2    1    2    0    0 -0.17132228076E+03 -0.29279813565E+03  0.13278617865E+04  0.14960582130E+04  0.59990931016E+03 0.  0.
        -24    2    4    4    0    0  0.32269435257E+02 -0.19861863227E+03  0.12119248813E+04  0.12311657640E+04  0.80725108018E+02 0.  0.
         24    2    4    4    0    0 -0.20359171602E+03 -0.94179503388E+02  0.11593690523E+03  0.26489244897E+03  0.80045473568E+02 0.  0.
         11    1    5    5    0    0  0.15735683184E+01 -0.14964654437E+03  0.68954591561E+03  0.70559913130E+03  0.00000000000E+00 0. -1.
        -12    1    5    5    0    0  0.30695866939E+02 -0.48972087898E+02  0.52237896566E+03  0.52556663270E+03  0.00000000000E+00 0.  1.
         11    1    3    3    0    0  0.97079638234E+02  0.14776578243E+03 -0.31109335329E+02  0.17951872705E+03  0.00000000000E+00 0. -1.
        -12    1    3    3    0    0  0.74242642527E+02  0.14503235322E+03  0.45023830592E+02  0.16903697457E+03  0.00000000000E+00 0.  1.
          2    1    6    6  502    0 -0.11951457007E+03 -0.67877874065E+02  0.27703228995E+02  0.14020915499E+03  0.00000000000E+00 0. -1.
         -1    1    6    6    0  502 -0.84077145949E+02 -0.26301629324E+02  0.88233676240E+02  0.12468329398E+03  0.00000000000E+00 0.  1.
<mgrwt>
<rscale>  0 0.38636259E+03</rscale>
<asrwt>0</asrwt>
<pdfrwt beam="1">  1        1 0.24510693E+00 0.38636259E+03</pdfrwt>
<pdfrwt beam="2">  1       -2 0.38679819E-01 0.38636259E+03</pdfrwt>
<totfact> 0.34083592E+01</totfact>
</mgrwt>
</event>
<event>
12    3  0.2422421E-007  0.6155175E+03  0.7818608E-02  0.9873725E-01
         -2   -1    0    0    0  501 -0.00000000000E+00  0.00000000000E+00  0.15787039025E+04  0.15787039025E+04  0.00000000000E+00 0.  1.
          1   -1    0    0  501    0  0.00000000000E+00 -0.00000000000E+00 -0.26268169222E+03  0.26268169222E+03  0.00000000000E+00 0. -1.
        -24    2    1    2    0    0  0.23939770333E+03 -0.43420079285E+03  0.42265992942E+03  0.65651818282E+03  0.80827715334E+02 0.  0.
    5000000    2    1    2    0    0 -0.23939770333E+03  0.43420079285E+03  0.89336228088E+03  0.11848674119E+04  0.59997752465E+03 0.  0.
        -24    2    4    4    0    0 -0.13321329734E+03 -0.11010142096E+03  0.37852405379E+03  0.42385747262E+03  0.80663450907E+02 0.  0.
         24    2    4    4    0    0 -0.10618440599E+03  0.54430221381E+03  0.51483822709E+03  0.76100993931E+03  0.80856042573E+02 0.  0.
         11    1    3    3    0    0  0.43120574762E+02 -0.59595632808E+02  0.30053219833E+02  0.79462062897E+02  0.00000000000E+00 0. -1.
        -12    1    3    3    0    0  0.19627712857E+03 -0.37460516004E+03  0.39260670958E+03  0.57705611992E+03  0.00000000000E+00 0.  1.
         11    1    5    5    0    0 -0.59912284556E+02 -0.35490207203E+02  0.72822318667E+02  0.10075776270E+03  0.00000000000E+00 0. -1.
        -12    1    5    5    0    0 -0.73301012780E+02 -0.74611213758E+02  0.30570173512E+03  0.32309970992E+03  0.00000000000E+00 0.  1.
          4    1    6    6  502    0 -0.49484464847E+01  0.23162666680E+03  0.21963335589E+03  0.31924005218E+03  0.00000000000E+00 0. -1.
         -3    1    6    6    0  502 -0.10123595951E+03  0.31267554700E+03  0.29520487120E+03  0.44176988713E+03  0.00000000000E+00 0.  1.
<mgrwt>
<rscale>  0 0.61551750E+03</rscale>
<asrwt>0</asrwt>
<pdfrwt beam="1">  1        1 0.40412569E-01 0.61551750E+03</pdfrwt>
<pdfrwt beam="2">  1       -2 0.24287752E+00 0.61551750E+03</pdfrwt>
<totfact> 0.67762465E+00</totfact>
</mgrwt>
</event>
<event>
12    3  0.2422421E-007  0.2090284E+04  0.7818608E-02  0.8565536E-01
         -2   -1    0    0    0  501 -0.00000000000E+00  0.00000000000E+00  0.17586165243E+04  0.17586165243E+04  0.00000000000E+00 0.  1.
          1   -1    0    0  501    0  0.00000000000E+00 -0.00000000000E+00 -0.26209369942E+04  0.26209369942E+04  0.00000000000E+00 0. -1.
        -24    2    1    2    0    0 -0.10080533020E+04 -0.17913817848E+04 -0.88206531853E+03  0.22381426859E+04  0.77609906202E+02 0.  0.
    5000000    2    1    2    0    0  0.10080533020E+04  0.17913817848E+04  0.19744848642E+02  0.21414108326E+04  0.60002527976E+03 0.  0.
        -24    2    4    4    0    0  0.14796864158E+03  0.78843606933E+03  0.11303554296E+03  0.81449522414E+03  0.84257236266E+02 0.  0.
         24    2    4    4    0    0  0.86008466047E+03  0.10029457155E+04 -0.93290694318E+02  0.13269156085E+04  0.79725447835E+02 0.  0.
         11    1    5    5    0    0  0.20760108488E+02  0.13749630899E+03  0.51923556674E+02  0.14843272155E+03  0.00000000000E+00 0. -1.
        -12    1    5    5    0    0  0.12720853309E+03  0.65093976035E+03  0.61111986285E+02  0.66606250259E+03  0.00000000000E+00 0.  1.
         13    1    3    3    0    0 -0.19297470958E+03 -0.40400152776E+03 -0.17973073103E+03  0.48245166457E+03  0.00000000000E+00 0. -1.
        -14    1    3    3    0    0 -0.81507859247E+03 -0.13873802570E+04 -0.70233458750E+03  0.17556910213E+04  0.00000000000E+00 0.  1.
          2    1    6    6  502    0  0.76308115446E+03  0.87794866155E+03 -0.57186430162E+02  0.11646274033E+04  0.00000000000E+00 0. -1.
         -1    1    6    6    0  502  0.97003506010E+02  0.12499705391E+03 -0.36104264156E+02  0.16228820523E+03  0.00000000000E+00 0.  1.
<mgrwt>
<rscale>  0 0.20902836E+04</rscale>
<asrwt>0</asrwt>
<pdfrwt beam="1">  1        1 0.40322107E+00 0.20902836E+04</pdfrwt>
<pdfrwt beam="2">  1       -2 0.27055639E+00 0.20902836E+04</pdfrwt>
<totfact> 0.41405748E-02</totfact>
</mgrwt>
</event>
<event>
12    3  0.2422421E-007  0.6693833E+03  0.7818608E-02  0.9771072E-01
          1   -1    0    0  501    0  0.00000000000E+00  0.00000000000E+00  0.10905858306E+04  0.10905858306E+04  0.00000000000E+00 0. -1.
         -2   -1    0    0    0  501 -0.00000000000E+00 -0.00000000000E+00 -0.49316159312E+03  0.49316159312E+03  0.00000000000E+00 0.  1.
        -24    2    1    2    0    0 -0.21408944116E+03 -0.56873699483E+03  0.24524665325E+03  0.66005865838E+03  0.78964887575E+02 0.  0.
    5000000    2    1    2    0    0  0.21408944116E+03  0.56873699483E+03  0.35217758419E+03  0.92368876529E+03  0.59989651292E+03 0.  0.
        -24    2    4    4    0    0  0.30293259061E+03  0.53032869960E+03  0.45081260781E+03  0.76322744121E+03  0.79167137028E+02 0.  0.
         24    2    4    4    0    0 -0.88843149445E+02  0.38408295231E+02 -0.98635023623E+02  0.16046132408E+03  0.81551617356E+02 0.  0.
         11    1    3    3    0    0 -0.13489761183E+03 -0.24686895585E+03  0.11511005157E+03  0.30396047606E+03  0.00000000000E+00 0. -1.
        -12    1    3    3    0    0 -0.79191829335E+02 -0.32186803899E+03  0.13013660168E+03  0.35609818232E+03  0.00000000000E+00 0.  1.
         11    1    5    5    0    0  0.12088218034E+03  0.26876463610E+03  0.18247274674E+03  0.34661684097E+03  0.00000000000E+00 0. -1.
        -12    1    5    5    0    0  0.18205041027E+03  0.26156406350E+03  0.26833986107E+03  0.41661060025E+03  0.00000000000E+00 0.  1.
          2    1    6    6  502    0 -0.34615061981E+02 -0.13855032359E+02 -0.71079650593E+02  0.80265068156E+02  0.00000000000E+00 0. -1.
         -1    1    6    6    0  502 -0.54228087464E+02  0.52263327590E+02 -0.27555373029E+02  0.80196255920E+02  0.00000000000E+00 0.  1.
<mgrwt>
<rscale>  0 0.66938333E+03</rscale>
<asrwt>0</asrwt>
<pdfrwt beam="1">  1        1 0.16778243E+00 0.66938333E+03</pdfrwt>
<pdfrwt beam="2">  1       -2 0.75871015E-01 0.66938333E+03</pdfrwt>
<totfact> 0.18195922E+01</totfact>
</mgrwt>
</event>
<event>
12    3  0.2422421E-007  0.4818710E+03  0.7818608E-02  0.1018622E+00
         -2   -1    0    0    0  501 -0.00000000000E+00  0.00000000000E+00  0.67173459215E+03  0.67173459215E+03  0.00000000000E+00 0.  1.
          1   -1    0    0  501    0  0.00000000000E+00 -0.00000000000E+00 -0.51037994877E+03  0.51037994877E+03  0.00000000000E+00 0. -1.
        -24    2    1    2    0    0 -0.18031987619E+02  0.30660731778E+03  0.35953482865E+03  0.47959101607E+03  0.80056541164E+02 0.  0.
    5000000    2    1    2    0    0  0.18031987619E+02 -0.30660731778E+03 -0.19818018527E+03  0.70252352485E+03  0.59994226158E+03 0.  0.
        -24    2    4    4    0    0 -0.26645010952E+03 -0.59044485742E+02 -0.12877788687E+03  0.31202791928E+03  0.79345863843E+02 0.  0.
         24    2    4    4    0    0  0.28448209713E+03 -0.24756283204E+03 -0.69402298402E+02  0.39049560556E+03  0.73842532068E+02 0.  0.
         11    1    3    3    0    0  0.90840812857E+01  0.21338515970E+03  0.19863866156E+03  0.29167287289E+03  0.00000000000E+00 0. -1.
        -12    1    3    3    0    0 -0.27116068904E+02  0.93222158081E+02  0.16089616709E+03  0.18791814318E+03  0.00000000000E+00 0.  1.
         13    1    5    5    0    0 -0.12749910092E+03 -0.83082862138E+01 -0.22140432971E+02  0.12967361770E+03  0.00000000000E+00 0. -1.
        -14    1    5    5    0    0 -0.13895100859E+03 -0.50736199529E+02 -0.10663745390E+03  0.18235430158E+03  0.00000000000E+00 0.  1.
          2    1    6    6  502    0  0.97036832694E+02 -0.93456573944E+02  0.10207889227E+02  0.13510913779E+03  0.00000000000E+00 0. -1.
         -1    1    6    6    0  502  0.18744526444E+03 -0.15410625810E+03 -0.79610187628E+02  0.25538646777E+03  0.00000000000E+00 0.  1.
<mgrwt>
<rscale>  0 0.48187102E+03</rscale>
<asrwt>0</asrwt>
<pdfrwt beam="1">  1        1 0.78519991E-01 0.48187102E+03</pdfrwt>
<pdfrwt beam="2">  1       -2 0.10334378E+00 0.48187102E+03</pdfrwt>
<totfact> 0.30065264E+01</totfact>
</mgrwt>
</event>
<event>
12    3  0.2422421E-007  0.2225772E+04  0.7818608E-02  0.8507777E-01
          1   -1    0    0  501    0  0.00000000000E+00  0.00000000000E+00  0.25772048738E+04  0.25772048738E+04  0.00000000000E+00 0. -1.
         -2   -1    0    0    0  501 -0.00000000000E+00 -0.00000000000E+00 -0.21237795587E+04  0.21237795587E+04  0.00000000000E+00 0.  1.
        -24    2    1    2    0    0  0.22012998951E+04 -0.63419362759E+02  0.89086620467E+03  0.23769447524E+04  0.80501662957E+02 0.  0.
    5000000    2    1    2    0    0 -0.22012998951E+04  0.63419362759E+02 -0.43744088951E+03  0.23240396801E+04  0.60005221354E+03 0.  0.
        -24    2    4    4    0    0 -0.72616437125E+03 -0.19278251103E+03  0.21113492652E+02  0.75586526833E+03  0.80042074329E+02 0.  0.
         24    2    4    4    0    0 -0.14751355238E+04  0.25620187379E+03 -0.45855438216E+03  0.15681744117E+04  0.85056747956E+02 0.  0.
         11    1    5    5    0    0 -0.13970759492E+03 -0.29132968024E+02  0.34626714678E+02  0.14685350276E+03  0.00000000000E+00 0. -1.
        -12    1    5    5    0    0 -0.58645677633E+03 -0.16364954301E+03 -0.13513222026E+02  0.60901176557E+03  0.00000000000E+00 0.  1.
         13    1    3    3    0    0  0.39532089787E+03 -0.27682411824E+02  0.18891717375E+03  0.43901551995E+03  0.00000000000E+00 0. -1.
        -14    1    3    3    0    0  0.18059789972E+04 -0.35736950935E+02  0.70194903092E+03  0.19379292325E+04  0.00000000000E+00 0.  1.
          2    1    6    6  502    0 -0.15306070974E+03  0.20524338832E+02 -0.74236753408E+02  0.17134738080E+03  0.00000000000E+00 0. -1.
         -1    1    6    6    0  502 -0.13220748141E+04  0.23567753496E+03 -0.38431762875E+03  0.13968270309E+04  0.00000000000E+00 0.  1.
<mgrwt>
<rscale>  0 0.22257718E+04</rscale>
<asrwt>0</asrwt>
<pdfrwt beam="1">  1        1 0.39649306E+00 0.22257718E+04</pdfrwt>
<pdfrwt beam="2">  1       -2 0.32673532E+00 0.22257718E+04</pdfrwt>
<totfact> 0.19748020E-02</totfact>
</mgrwt>
</event>
<event>
12    3  0.2422421E-007  0.9086965E+03  0.7818608E-02  0.9414775E-01
          1   -1    0    0  501    0  0.00000000000E+00  0.00000000000E+00  0.31063847315E+04  0.31063847315E+04  0.00000000000E+00 0. -1.
         -2   -1    0    0    0  501 -0.00000000000E+00 -0.00000000000E+00 -0.34616348014E+03  0.34616348014E+03  0.00000000000E+00 0.  1.
        -24    2    1    2    0    0  0.88688504973E+03  0.30840814607E+02  0.18234484366E+04  0.20295192940E+04  0.80424601608E+02 0.  0.
    5000000    2    1    2    0    0 -0.88688504973E+03 -0.30840814607E+02  0.93677281474E+03  0.14230289176E+04  0.59995978751E+03 0.  0.
        -24    2    4    4    0    0 -0.73383334127E+03  0.68373289320E+02  0.38214729381E+03  0.83376971754E+03  0.77130462653E+02 0.  0.
         24    2    4    4    0    0 -0.15305170846E+03 -0.99214103927E+02  0.55462552093E+03  0.58925920007E+03  0.79678557440E+02 0.  0.
         11    1    3    3    0    0  0.18324427233E+03  0.19951281904E+02  0.44974069023E+03  0.48604856284E+03  0.00000000000E+00 0. -1.
        -12    1    3    3    0    0  0.70364077739E+03  0.10889532704E+02  0.13737077464E+04  0.15434707312E+04  0.00000000000E+00 0.  1.
         13    1    5    5    0    0 -0.20148665494E+03  0.48422752624E+02  0.86938678313E+02  0.22472198130E+03  0.00000000000E+00 0. -1.
        -14    1    5    5    0    0 -0.53234668633E+03  0.19950536696E+02  0.29520861550E+03  0.60904773624E+03  0.00000000000E+00 0.  1.
          4    1    6    6  502    0 -0.95735204489E+01  0.61571138792E+01  0.10595035402E+03  0.10656002939E+03  0.00000000000E+00 0. -1.
         -3    1    6    6    0  502 -0.14347818801E+03 -0.10537121781E+03  0.44867516691E+03  0.48269917068E+03  0.00000000000E+00 0.  1.
<mgrwt>
<rscale>  0 0.90869655E+03</rscale>
<asrwt>0</asrwt>
<pdfrwt beam="1">  1        1 0.47790533E+00 0.90869655E+03</pdfrwt>
<pdfrwt beam="2">  1       -2 0.53255922E-01 0.90869655E+03</pdfrwt>
<totfact> 0.15195790E+00</totfact>
</mgrwt>
</event>
<event>
12    3  0.2422421E-007  0.9449654E+03  0.7818608E-02  0.9371055E-01
         -4   -1    0    0    0  501 -0.00000000000E+00  0.00000000000E+00  0.68009663276E+03  0.68009663276E+03  0.00000000000E+00 0.  1.
          1   -1    0    0  501    0  0.00000000000E+00 -0.00000000000E+00 -0.15313077321E+04  0.15313077321E+04  0.00000000000E+00 0. -1.
        -24    2    1    2    0    0  0.68036248898E+03 -0.62709958523E+03 -0.29263608112E+03  0.97533349511E+03  0.97429690083E+02 0.  0.
    5000000    2    1    2    0    0 -0.68036248898E+03  0.62709958523E+03 -0.55857501820E+03  0.12360708697E+04  0.59976506887E+03 0.  0.
        -24    2    4    4    0    0 -0.37478018046E+03  0.50288395817E+03 -0.62578546382E+02  0.63513251639E+03  0.78260972721E+02 0.  0.
         24    2    4    4    0    0 -0.30558230852E+03  0.12421562706E+03 -0.49599647182E+03  0.60093835334E+03  0.79399843703E+02 0.  0.
         11    1    5    5    0    0 -0.29883600361E+03  0.34578804201E+03 -0.56861754093E+02  0.46054922227E+03  0.00000000000E+00 0. -1.
        -12    1    5    5    0    0 -0.75944176852E+02  0.15709591616E+03 -0.57167922890E+01  0.17458329412E+03  0.00000000000E+00 0.  1.
         11    1    3    3    0    0  0.26393312683E+03 -0.26504237502E+03 -0.16573037971E+03  0.40911454967E+03  0.00000000000E+00 0. -1.
        -12    1    3    3    0    0  0.41642936215E+03 -0.36205721021E+03 -0.12690570141E+03  0.56621894544E+03  0.00000000000E+00 0.  1.
          2    1    6    6  502    0 -0.12481244332E+03  0.28552586949E+02 -0.25120239506E+03  0.28195042031E+03  0.00000000000E+00 0. -1.
         -1    1    6    6    0  502 -0.18076986519E+03  0.95663040112E+02 -0.24479407676E+03  0.31898793304E+03  0.00000000000E+00 0.  1.
<mgrwt>
<rscale>  0 0.94496540E+03</rscale>
<asrwt>0</asrwt>
<pdfrwt beam="1">  1        1 0.23558580E+00 0.94496540E+03</pdfrwt>
<pdfrwt beam="2">  1       -4 0.10463025E+00 0.94496540E+03</pdfrwt>
<totfact> 0.22203299E+00</totfact>
</mgrwt>
</event>
<event>
12    3  0.2422421E-007  0.4416107E+03  0.7818608E-02  0.1030254E+00
          1   -1    0    0  501    0  0.00000000000E+00  0.00000000000E+00  0.11310434227E+04  0.11310434227E+04  0.00000000000E+00 0. -1.
         -2   -1    0    0    0  501 -0.00000000000E+00 -0.00000000000E+00 -0.19889059220E+03  0.19889059220E+03  0.00000000000E+00 0.  1.
        -24    2    1    2    0    0 -0.67747787401E+02  0.22643435707E+03  0.48411603540E+03  0.54471396203E+03  0.80515116237E+02 0.  0.
    5000000    2    1    2    0    0  0.67747787401E+02 -0.22643435707E+03  0.44803679511E+03  0.78522005288E+03  0.59997606695E+03 0.  0.
        -24    2    4    4    0    0  0.67486921255E+02  0.19125945950E+03  0.17635859625E+03  0.28072751054E+03  0.81061182530E+02 0.  0.
         24    2    4    4    0    0  0.26086614595E+00 -0.41769381658E+03  0.27167819886E+03  0.50449254233E+03  0.78965113053E+02 0.  0.
         13    1    5    5    0    0 -0.45109034303E+01  0.71357253543E+02  0.27856288871E+02  0.76734468869E+02  0.00000000000E+00 0. -1.
        -14    1    5    5    0    0  0.71997824686E+02  0.11990220596E+03  0.14850230738E+03  0.20399304167E+03  0.00000000000E+00 0.  1.
         13    1    3    3    0    0 -0.86160954689E+02  0.18941311564E+03  0.39441162651E+03  0.44593897521E+03  0.00000000000E+00 0. -1.
        -14    1    3    3    0    0  0.18413167288E+02  0.37021241429E+02  0.89704408890E+02  0.98774986818E+02  0.00000000000E+00 0.  1.
          4    1    6    6  502    0 -0.31348413545E+02 -0.19586412158E+03  0.15582413743E+03  0.25224321390E+03  0.00000000000E+00 0. -1.
         -3    1    6    6    0  502  0.31609279691E+02 -0.22182969500E+03  0.11585406142E+03  0.25224932844E+03  0.00000000000E+00 0.  1.
<mgrwt>
<rscale>  0 0.44161074E+03</rscale>
<asrwt>0</asrwt>
<pdfrwt beam="1">  1        1 0.17400668E+00 0.44161074E+03</pdfrwt>
<pdfrwt beam="2">  1       -2 0.30598553E-01 0.44161074E+03</pdfrwt>
<totfact> 0.10927098E+02</totfact>
</mgrwt>
</event>
<event>
12    3  0.2425461E-007  0.6014786E+03  0.7818608E-02  0.9902343E-01
          1   -1    0    0  501    0  0.00000000000E+00  0.00000000000E+00  0.92284330272E+03  0.92284330272E+03  0.00000000000E+00 0. -1.
         -2   -1    0    0    0  501 -0.00000000000E+00 -0.00000000000E+00 -0.45454758989E+03  0.45454758989E+03  0.00000000000E+00 0.  1.
        -24    2    1    2    0    0  0.48033221812E+03 -0.96387006010E+02  0.55394252652E+02  0.49967940666E+03  0.81249563174E+02 0.  0.
    5000000    2    1    2    0    0 -0.48033221812E+03  0.96387006010E+02  0.41290146017E+03  0.87771148595E+03  0.59990027676E+03 0.  0.
        -24    2    4    4    0    0 -0.49817629288E+03  0.24822122233E+03  0.42084917041E+03  0.70238796092E+03  0.80258516134E+02 0.  0.
         24    2    4    4    0    0  0.17844074757E+02 -0.15183421632E+03 -0.79477102335E+01  0.17532352503E+03  0.85458364590E+02 0.  0.
         11    1    3    3    0    0  0.22376302167E+03 -0.40667507173E+02  0.66324200969E+02  0.23690216470E+03  0.00000000000E+00 0. -1.
        -12    1    3    3    0    0  0.25656919645E+03 -0.55719498837E+02 -0.10929948317E+02  0.26277724196E+03  0.00000000000E+00 0.  1.
         11    1    5    5    0    0 -0.44870796856E+03  0.20742238149E+03  0.34371701997E+03  0.60208327930E+03  0.00000000000E+00 0. -1.
        -12    1    5    5    0    0 -0.49468324323E+02  0.40798840840E+02  0.77132150435E+02  0.10030468163E+03  0.00000000000E+00 0.  1.
          4    1    6    6  502    0  0.10164925076E-01 -0.94099304465E+02 -0.45142286987E+02  0.10436716571E+03  0.00000000000E+00 0. -1.
         -3    1    6    6    0  502  0.17833909831E+02 -0.57734911860E+02  0.37194576753E+02  0.70956359315E+02  0.00000000000E+00 0.  1.
<mgrwt>
<rscale>  0 0.60147860E+03</rscale>
<asrwt>0</asrwt>
<pdfrwt beam="1">  1        1 0.14197589E+00 0.60147860E+03</pdfrwt>
<pdfrwt beam="2">  1       -2 0.69930398E-01 0.60147860E+03</pdfrwt>
<totfact> 0.29551847E+01</totfact>
</mgrwt>
</event>
<event>
12    3  0.2422421E-007  0.9018912E+03  0.7818608E-02  0.9423220E-01
          1   -1    0    0  501    0  0.00000000000E+00  0.00000000000E+00  0.99704610589E+03  0.99704610589E+03  0.00000000000E+00 0. -1.
         -2   -1    0    0    0  501 -0.00000000000E+00 -0.00000000000E+00 -0.98455438716E+03  0.98455438716E+03  0.00000000000E+00 0.  1.
        -24    2    1    2    0    0 -0.67841351170E+03 -0.57346199757E+03 -0.12484597716E+03  0.90093882726E+03  0.83670167552E+02 0.  0.
    5000000    2    1    2    0    0  0.67841351170E+03  0.57346199757E+03  0.13733769589E+03  0.10806616658E+04  0.59988702075E+03 0.  0.
        -24    2    4    4    0    0  0.45094145693E+03  0.27733952205E+03  0.35270203398E+03  0.64199313097E+03  0.86550836934E+02 0.  0.
         24    2    4    4    0    0  0.22747205477E+03  0.29612247552E+03 -0.21536433808E+03  0.43866853482E+03  0.81340205971E+02 0.  0.
         13    1    5    5    0    0  0.30619752253E+03  0.14177025792E+03  0.23770565006E+03  0.41274653833E+03  0.00000000000E+00 0. -1.
        -14    1    5    5    0    0  0.14474393439E+03  0.13556926413E+03  0.11499638391E+03  0.22924659264E+03  0.00000000000E+00 0.  1.
         13    1    3    3    0    0 -0.37482374861E+03 -0.31050385688E+03 -0.11011559834E+03  0.49902999174E+03  0.00000000000E+00 0. -1.
        -14    1    3    3    0    0 -0.30358976309E+03 -0.26295814070E+03 -0.14730378822E+02  0.40190883552E+03  0.00000000000E+00 0.  1.
          4    1    6    6  502    0  0.69933165627E+02  0.14681612443E+03 -0.67697831457E+02  0.17614942075E+03  0.00000000000E+00 0. -1.
         -3    1    6    6    0  502  0.15753888915E+03  0.14930635109E+03 -0.14766650662E+03  0.26251911407E+03  0.00000000000E+00 0.  1.
<mgrwt>
<rscale>  0 0.90189118E+03</rscale>
<asrwt>0</asrwt>
<pdfrwt beam="1">  1        1 0.15339171E+00 0.90189118E+03</pdfrwt>
<pdfrwt beam="2">  1       -2 0.15146991E+00 0.90189118E+03</pdfrwt>
<totfact> 0.39191119E+00</totfact>
</mgrwt>
</event>
<event>
12    3  0.2422421E-007  0.7579061E+03  0.7818608E-02  0.9623028E-01
          3   -1    0    0  501    0  0.00000000000E+00  0.00000000000E+00  0.58979143285E+03  0.58979143285E+03  0.00000000000E+00 0. -1.
         -4   -1    0    0    0  501 -0.00000000000E+00 -0.00000000000E+00 -0.11633464194E+04  0.11633464194E+04  0.00000000000E+00 0.  1.
        -24    2    1    2    0    0 -0.62247009710E+03  0.26645431617E+03  0.82648552564E+00  0.68192067161E+03  0.80920917582E+02 0.  0.
    5000000    2    1    2    0    0  0.62247009710E+03 -0.26645431617E+03 -0.57438147209E+03  0.10712171807E+04  0.59927059686E+03 0.  0.
        -24    2    4    4    0    0  0.66866582969E+03 -0.11646483556E+03 -0.30460048069E+03  0.74897960575E+03  0.86665721512E+02 0.  0.
         24    2    4    4    0    0 -0.46195732591E+02 -0.14998948060E+03 -0.26978099141E+03  0.32223757490E+03  0.80152238598E+02 0.  0.
         11    1    5    5    0    0  0.45718812231E+03 -0.54527721581E+02 -0.17027406625E+03  0.49090478632E+03  0.00000000000E+00 0. -1.
        -12    1    5    5    0    0  0.21147770738E+03 -0.61937113980E+02 -0.13432641444E+03  0.25807481943E+03  0.00000000000E+00 0.  1.
         11    1    3    3    0    0 -0.27380473147E+03  0.12676127905E+03  0.39619705938E+02  0.30431426838E+03  0.00000000000E+00 0. -1.
        -12    1    3    3    0    0 -0.34866536563E+03  0.13969303711E+03 -0.38793220412E+02  0.37760640323E+03  0.00000000000E+00 0.  1.
          4    1    6    6  502    0 -0.25128269193E+02 -0.56173113981E+02 -0.18170696522E+03  0.19184438969E+03  0.00000000000E+00 0. -1.
         -3    1    6    6    0  502 -0.21067463398E+02 -0.93816366623E+02 -0.88074026190E+02  0.13039318521E+03  0.00000000000E+00 0.  1.
<mgrwt>
<rscale>  0 0.75790606E+03</rscale>
<asrwt>0</asrwt>
<pdfrwt beam="1">  1        3 0.90737145E-01 0.75790606E+03</pdfrwt>
<pdfrwt beam="2">  1       -4 0.17897637E+00 0.75790606E+03</pdfrwt>
<totfact> 0.45145013E-01</totfact>
</mgrwt>
</event>
<event>
12    3  0.2422421E-007  0.3242230E+03  0.7818608E-02  0.1073722E+00
         -2   -1    0    0    0  501 -0.00000000000E+00  0.00000000000E+00  0.16739293942E+03  0.16739293942E+03  0.00000000000E+00 0.  1.
          1   -1    0    0  501    0  0.00000000000E+00 -0.00000000000E+00 -0.11489880471E+04  0.11489880471E+04  0.00000000000E+00 0. -1.
        -24    2    1    2    0    0  0.10468819427E+03 -0.13642507375E+03 -0.52928963778E+02  0.19743625757E+03  0.81290724137E+02 0.  0.
    5000000    2    1    2    0    0 -0.10468819427E+03  0.13642507375E+03 -0.92866614386E+03  0.11189447289E+04  0.60003756619E+03 0.  0.
        -24    2    4    4    0    0 -0.87903139083E+02  0.29188584867E+03 -0.88271280369E+03  0.93730802444E+03  0.80250410359E+02 0.  0.
         24    2    4    4    0    0 -0.16785055185E+02 -0.15546077492E+03 -0.45953340173E+02  0.18163670448E+03  0.80189727045E+02 0.  0.
         11    1    3    3    0    0  0.99841957914E+02 -0.95547406191E+02 -0.67462475166E+02  0.15378201763E+03  0.00000000000E+00 0. -1.
        -12    1    3    3    0    0  0.48462363538E+01 -0.40877667560E+02  0.14533511388E+02  0.43654239946E+02  0.00000000000E+00 0.  1.
         13    1    5    5    0    0 -0.49621481888E+02  0.74951623435E+02 -0.33774384932E+03  0.34950099438E+03  0.00000000000E+00 0. -1.
        -14    1    5    5    0    0 -0.38281657195E+02  0.21693422524E+03 -0.54496895437E+03  0.58780703005E+03  0.00000000000E+00 0.  1.
          4    1    6    6  502    0 -0.22562406140E+02 -0.76952285263E+02 -0.61917101956E+02  0.10131359185E+03  0.00000000000E+00 0. -1.
         -3    1    6    6    0  502  0.57773509552E+01 -0.78508489660E+02  0.15963761783E+02  0.80323112633E+02  0.00000000000E+00 0.  1.
<mgrwt>
<rscale>  0 0.32422303E+03</rscale>
<asrwt>0</asrwt>
<pdfrwt beam="1">  1        1 0.17676739E+00 0.32422303E+03</pdfrwt>
<pdfrwt beam="2">  1       -2 0.25752760E-01 0.32422303E+03</pdfrwt>
<totfact> 0.14746434E+02</totfact>
</mgrwt>
</event>
<event>
12    3  0.2422421E-007  0.6067587E+03  0.7818608E-02  0.9891482E-01
          1   -1    0    0  501    0  0.00000000000E+00  0.00000000000E+00  0.82758682980E+03  0.82758682980E+03  0.00000000000E+00 0. -1.
         -2   -1    0    0    0  501 -0.00000000000E+00 -0.00000000000E+00 -0.10908473557E+04  0.10908473557E+04  0.00000000000E+00 0.  1.
        -24    2    1    2    0    0  0.11121891274E+03  0.54797433302E+03  0.53199778636E+03  0.77603285847E+03  0.80992817741E+02 0.  0.
    5000000    2    1    2    0    0 -0.11121891274E+03 -0.54797433302E+03 -0.79525831227E+03  0.11424013270E+04  0.59999957716E+03 0.  0.
        -24    2    4    4    0    0  0.10418968097E+03 -0.21197369716E+03 -0.67236718281E+03  0.71718763617E+03  0.80573811140E+02 0.  0.
         24    2    4    4    0    0 -0.21540859371E+03 -0.33600063586E+03 -0.12289112945E+03  0.42521369087E+03  0.80044760354E+02 0.  0.
         11    1    5    5    0    0  0.93012676937E+02 -0.99560261007E+02 -0.34874756162E+03  0.37441750143E+03  0.00000000000E+00 0. -1.
        -12    1    5    5    0    0  0.11177004037E+02 -0.11241343615E+03 -0.32361962119E+03  0.34277013474E+03  0.00000000000E+00 0.  1.
         13    1    3    3    0    0  0.42245864796E+02  0.70911087306E+02  0.88606748002E+02  0.12109604117E+03  0.00000000000E+00 0. -1.
        -14    1    3    3    0    0  0.68973047944E+02  0.47706324571E+03  0.44339103836E+03  0.65493681730E+03  0.00000000000E+00 0.  1.
          4    1    6    6  502    0 -0.71189954943E+02 -0.13091176941E+03 -0.74744441817E+01  0.14920378136E+03  0.00000000000E+00 0. -1.
         -3    1    6    6    0  502 -0.14421863877E+03 -0.20508886645E+03 -0.11541668527E+03  0.27600990951E+03  0.00000000000E+00 0.  1.
<mgrwt>
<rscale>  0 0.60675865E+03</rscale>
<asrwt>0</asrwt>
<pdfrwt beam="1">  1        1 0.12732105E+00 0.60675865E+03</pdfrwt>
<pdfrwt beam="2">  1       -2 0.16782267E+00 0.60675865E+03</pdfrwt>
<totfact> 0.42423098E+00</totfact>
</mgrwt>
</event>
<event>
12    3  0.2422421E-007  0.6616256E+03  0.7818608E-02  0.9785206E-01
          1   -1    0    0  501    0  0.00000000000E+00  0.00000000000E+00  0.37636004556E+03  0.37636004556E+03  0.00000000000E+00 0. -1.
         -2   -1    0    0    0  501 -0.00000000000E+00 -0.00000000000E+00 -0.15028598462E+04  0.15028598462E+04  0.00000000000E+00 0.  1.
        -24    2    1    2    0    0 -0.49569545720E+03  0.38347740842E+03 -0.54865830374E+03  0.83672828595E+03  0.79494535571E+02 0.  0.
    5000000    2    1    2    0    0  0.49569545720E+03 -0.38347740842E+03 -0.57784149686E+03  0.10424916058E+04  0.60009919478E+03 0.  0.
        -24    2    4    4    0    0  0.40401780845E+02  0.16541897968E+02  0.96467992491E+02  0.13248433158E+03  0.79624658588E+02 0.  0.
         24    2    4    4    0    0  0.45529367635E+03 -0.40001930639E+03 -0.67430948935E+03  0.91000727419E+03  0.78180396886E+02 0.  0.
         11    1    3    3    0    0 -0.18322597051E+03  0.10292817012E+03 -0.15503011136E+03  0.26115187133E+03  0.00000000000E+00 0. -1.
        -12    1    3    3    0    0 -0.31246948669E+03  0.28054923829E+03 -0.39362819238E+03  0.57557641461E+03  0.00000000000E+00 0.  1.
         13    1    5    5    0    0 -0.20112559022E+02 -0.15905187738E+01  0.41126154065E+01  0.20590249776E+02  0.00000000000E+00 0. -1.
        -14    1    5    5    0    0  0.60514339867E+02  0.18132416742E+02  0.92355377084E+02  0.11189408180E+03  0.00000000000E+00 0.  1.
          2    1    6    6  502    0  0.16233012518E+03 -0.18676425326E+03 -0.24509877535E+03  0.34828919810E+03  0.00000000000E+00 0. -1.
         -1    1    6    6    0  502  0.29296355117E+03 -0.21325505312E+03 -0.42921071400E+03  0.56171807609E+03  0.00000000000E+00 0.  1.
<mgrwt>
<rscale>  0 0.66162560E+03</rscale>
<asrwt>0</asrwt>
<pdfrwt beam="1">  1        1 0.57901544E-01 0.66162560E+03</pdfrwt>
<pdfrwt beam="2">  1       -2 0.23120921E+00 0.66162560E+03</pdfrwt>
<totfact> 0.49755375E+00</totfact>
</mgrwt>
</event>
<event>
12    3  0.2422421E-007  0.5514770E+03  0.7818608E-02  0.1001153E+00
          3   -1    0    0  501    0  0.00000000000E+00  0.00000000000E+00  0.98862950109E+03  0.98862950109E+03  0.00000000000E+00 0. -1.
         -4   -1    0    0    0  501 -0.00000000000E+00 -0.00000000000E+00 -0.32541713153E+03  0.32541713153E+03  0.00000000000E+00 0.  1.
        -24    2    1    2    0    0  0.36654762272E+03 -0.16821150614E+03  0.25046905947E+03  0.48161275057E+03  0.81017413212E+02 0.  0.
    5000000    2    1    2    0    0 -0.36654762272E+03  0.16821150614E+03  0.41274331009E+03  0.83243388205E+03  0.59994737889E+03 0.  0.
        -24    2    4    4    0    0 -0.11895260338E+03 -0.20408600971E+03  0.44457970157E+02  0.24770774729E+03  0.59848105639E+02 0.  0.
         24    2    4    4    0    0 -0.24759501934E+03  0.37229751585E+03  0.36828533993E+03  0.58472613475E+03  0.79761062839E+02 0.  0.
         11    1    5    5    0    0 -0.53872489309E+02 -0.12211762126E+03 -0.13018408658E+01  0.13347903699E+03  0.00000000000E+00 0. -1.
        -12    1    5    5    0    0 -0.65080114067E+02 -0.81968388453E+02  0.45759811023E+02  0.11422871030E+03  0.00000000000E+00 0.  1.
         13    1    3    3    0    0  0.10459844886E+03 -0.10927966377E+02  0.52512855612E+02  0.11754937667E+03  0.00000000000E+00 0. -1.
        -14    1    3    3    0    0  0.26194917386E+03 -0.15728353976E+03  0.19795620385E+03  0.36406337389E+03  0.00000000000E+00 0.  1.
          4    1    6    6  502    0 -0.72713625182E+02  0.18027154970E+03  0.15293050745E+03  0.24733144367E+03  0.00000000000E+00 0. -1.
         -3    1    6    6    0  502 -0.17488139416E+03  0.19202596614E+03  0.21535483248E+03  0.33739469108E+03  0.00000000000E+00 0.  1.
<mgrwt>
<rscale>  0 0.55147695E+03</rscale>
<asrwt>0</asrwt>
<pdfrwt beam="1">  1        3 0.15209685E+00 0.55147695E+03</pdfrwt>
<pdfrwt beam="2">  1       -4 0.50064174E-01 0.55147695E+03</pdfrwt>
<totfact> 0.27271536E+00</totfact>
</mgrwt>
</event>
<event>
12    3  0.2422421E-007  0.3685423E+03  0.7818608E-02  0.1055252E+00
          1   -1    0    0  501    0  0.00000000000E+00  0.00000000000E+00  0.60580957182E+03  0.60580957182E+03  0.00000000000E+00 0. -1.
         -2   -1    0    0    0  501 -0.00000000000E+00 -0.00000000000E+00 -0.37814081765E+03  0.37814081765E+03  0.00000000000E+00 0.  1.
        -24    2    1    2    0    0  0.27171296350E+03  0.73773487946E+02  0.97404579751E+02  0.30856245518E+03  0.80328541207E+02 0.  0.
    5000000    2    1    2    0    0 -0.27171296350E+03 -0.73773487946E+02  0.13026417442E+03  0.67538793429E+03  0.59992469910E+03 0.  0.
        -24    2    4    4    0    0  0.82898050486E+01 -0.14239836689E+03  0.29107044380E+03  0.33388658371E+03  0.80076412058E+02 0.  0.
         24    2    4    4    0    0 -0.28000276855E+03  0.68624878946E+02 -0.16080626938E+03  0.34150135058E+03  0.87484808813E+02 0.  0.
         11    1    3    3    0    0  0.92270071485E+02  0.58599758087E+02  0.14329330026E+02  0.11024077031E+03  0.00000000000E+00 0. -1.
        -12    1    3    3    0    0  0.17944289201E+03  0.15173729859E+02  0.83075249725E+02  0.19832168487E+03  0.00000000000E+00 0.  1.
         11    1    5    5    0    0  0.35139924285E+02 -0.10941246524E+03  0.16692141119E+03  0.20265403855E+03  0.00000000000E+00 0. -1.
        -12    1    5    5    0    0 -0.26850119237E+02 -0.32985901654E+02  0.12414903261E+03  0.13123254516E+03  0.00000000000E+00 0.  1.
          4    1    6    6  502    0 -0.71971167553E+02  0.33042490937E+02 -0.87653504750E+02  0.11813040278E+03  0.00000000000E+00 0. -1.
         -3    1    6    6    0  502 -0.20803160099E+03  0.35582388009E+02 -0.73152764629E+02  0.22337094780E+03  0.00000000000E+00 0.  1.
<mgrwt>
<rscale>  0 0.36854229E+03</rscale>
<asrwt>0</asrwt>
<pdfrwt beam="1">  1        1 0.93201472E-01 0.36854229E+03</pdfrwt>
<pdfrwt beam="2">  1       -2 0.58175510E-01 0.36854229E+03</pdfrwt>
<totfact> 0.85883390E+01</totfact>
</mgrwt>
</event>
<event>
12    3  0.2422421E-007  0.4861238E+03  0.7818608E-02  0.1017466E+00
         -2   -1    0    0    0  501 -0.00000000000E+00  0.00000000000E+00  0.47417092378E+03  0.47417092378E+03  0.00000000000E+00 0.  1.
          1   -1    0    0  501    0  0.00000000000E+00 -0.00000000000E+00 -0.53729479133E+03  0.53729479133E+03  0.00000000000E+00 0. -1.
        -24    2    1    2    0    0 -0.24486823186E+03 -0.18798834984E+03  0.64466410931E+02  0.32474107410E+03  0.77464678540E+02 0.  0.
    5000000    2    1    2    0    0  0.24486823186E+03  0.18798834984E+03 -0.12759027849E+03  0.68672464101E+03  0.60000948555E+03 0.  0.
        -24    2    4    4    0    0  0.42732326106E+03  0.18524455340E+03 -0.66825400408E+02  0.47725239447E+03  0.79896807656E+02 0.  0.
         24    2    4    4    0    0 -0.18245502921E+03  0.27437964414E+01 -0.60764878077E+02  0.20947224654E+03  0.82999310604E+02 0.  0.
         11    1    5    5    0    0  0.26390254318E+03  0.13873804958E+03 -0.10799954902E+02  0.29834449504E+03  0.00000000000E+00 0. -1.
        -12    1    5    5    0    0  0.16342071789E+03  0.46506503824E+02 -0.56025445506E+02  0.17890789942E+03  0.00000000000E+00 0.  1.
         11    1    3    3    0    0 -0.12911448697E+03 -0.14307732930E+03  0.24315632981E+02  0.19424964070E+03  0.00000000000E+00 0. -1.
        -12    1    3    3    0    0 -0.11575374489E+03 -0.44911020547E+02  0.40150777950E+02  0.13049143341E+03  0.00000000000E+00 0.  1.
          4    1    6    6  502    0 -0.13818465397E+03 -0.16243940423E+02 -0.10007243591E+02  0.13949555233E+03  0.00000000000E+00 0. -1.
         -3    1    6    6    0  502 -0.44270375233E+02  0.18987736864E+02 -0.50757634486E+02  0.69976694214E+02  0.00000000000E+00 0.  1.
<mgrwt>
<rscale>  0 0.48612381E+03</rscale>
<asrwt>0</asrwt>
<pdfrwt beam="1">  1        1 0.82660737E-01 0.48612381E+03</pdfrwt>
<pdfrwt beam="2">  1       -2 0.72949373E-01 0.48612381E+03</pdfrwt>
<totfact> 0.61888206E+01</totfact>
</mgrwt>
</event>
<event>
12    3  0.2422421E-007  0.9847338E+03  0.7818608E-02  0.9325449E-01
          1   -1    0    0  501    0  0.00000000000E+00  0.00000000000E+00  0.25411009864E+04  0.25411009864E+04  0.00000000000E+00 0. -1.
         -2   -1    0    0    0  501 -0.00000000000E+00 -0.00000000000E+00 -0.55705492309E+03  0.55705492309E+03  0.00000000000E+00 0.  1.
        -24    2    1    2    0    0  0.84517828266E+03 -0.31118622764E+03  0.79695648683E+02  0.90776927828E+03  0.80811313691E+02 0.  0.
    5000000    2    1    2    0    0 -0.84517828266E+03  0.31118622764E+03  0.19043504146E+04  0.21903866312E+04  0.60006657524E+03 0.  0.
        -24    2    4    4    0    0 -0.84750148181E+03  0.41822083782E+03  0.16671776721E+04  0.19181760720E+04  0.82162169799E+02 0.  0.
         24    2    4    4    0    0  0.23231991498E+01 -0.10703461017E+03  0.23717274255E+03  0.27221055918E+03  0.79911661810E+02 0.  0.
         11    1    3    3    0    0  0.63466960398E+03 -0.20827711931E+03  0.85238449341E+02  0.67338730155E+03  0.00000000000E+00 0. -1.
        -12    1    3    3    0    0  0.21050867868E+03 -0.10290910834E+03 -0.55428006582E+01  0.23438197674E+03  0.00000000000E+00 0.  1.
         13    1    5    5    0    0 -0.51431543000E+03  0.27611016391E+03  0.95778625097E+03  0.11216557791E+04  0.00000000000E+00 0. -1.
        -14    1    5    5    0    0 -0.33318605180E+03  0.14211067391E+03  0.70939142109E+03  0.79652029295E+03  0.00000000000E+00 0.  1.
          4    1    6    6  502    0 -0.26118883572E+02 -0.34307146615E+02  0.35182963602E+02  0.55650851887E+02  0.00000000000E+00 0. -1.
         -3    1    6    6    0  502  0.28442082722E+02 -0.72727463560E+02  0.20198977895E+03  0.21655970730E+03  0.00000000000E+00 0.  1.
<mgrwt>
<rscale>  0 0.98473380E+03</rscale>
<asrwt>0</asrwt>
<pdfrwt beam="1">  1        1 0.39093861E+00 0.98473380E+03</pdfrwt>
<pdfrwt beam="2">  1       -2 0.85700759E-01 0.98473380E+03</pdfrwt>
<totfact> 0.13396672E+00</totfact>
</mgrwt>
</event>
<event>
12    3  0.2422421E-007  0.8949707E+03  0.7818608E-02  0.9431890E-01
          1   -1    0    0  501    0  0.00000000000E+00  0.00000000000E+00  0.11566817607E+04  0.11566817607E+04  0.00000000000E+00 0. -1.
         -2   -1    0    0    0  501 -0.00000000000E+00 -0.00000000000E+00 -0.12085317758E+04  0.12085317758E+04  0.00000000000E+00 0.  1.
        -24    2    1    2    0    0  0.29531666066E+03 -0.78434586170E+03  0.69388464235E+03  0.10930119653E+04  0.10386962332E+03 0.  0.
    5000000    2    1    2    0    0 -0.29531666066E+03  0.78434586170E+03 -0.74573465742E+03  0.12722015712E+04  0.59997191412E+03 0.  0.
        -24    2    4    4    0    0  0.97748522643E+02  0.25103025637E+03 -0.47765902533E+03  0.55331249726E+03  0.73658752710E+02 0.  0.
         24    2    4    4    0    0 -0.39306518331E+03  0.53331560533E+03 -0.26807563209E+03  0.71888907397E+03  0.77531818860E+02 0.  0.
         13    1    5    5    0    0  0.58758220298E+02  0.59264210455E+02 -0.13505737289E+03  0.15876167380E+03  0.00000000000E+00 0. -1.
        -14    1    5    5    0    0  0.38990302345E+02  0.19176604592E+03 -0.34260165244E+03  0.39455082347E+03  0.00000000000E+00 0.  1.
         13    1    3    3    0    0  0.12411804670E+03 -0.20492999707E+03  0.17657174693E+03  0.29762253784E+03  0.00000000000E+00 0. -1.
        -14    1    3    3    0    0  0.17119861397E+03 -0.57941586463E+03  0.51731289542E+03  0.79538942750E+03  0.00000000000E+00 0.  1.
          4    1    6    6  502    0 -0.18350610338E+03  0.31402042025E+03 -0.14488330958E+03  0.39150285785E+03  0.00000000000E+00 0. -1.
         -3    1    6    6    0  502 -0.20955907992E+03  0.21929518508E+03 -0.12319232251E+03  0.32738621612E+03  0.00000000000E+00 0.  1.
<mgrwt>
<rscale>  0 0.89497070E+03</rscale>
<asrwt>0</asrwt>
<pdfrwt beam="1">  1        1 0.17795104E+00 0.89497070E+03</pdfrwt>
<pdfrwt beam="2">  1       -2 0.18592797E+00 0.89497070E+03</pdfrwt>
<totfact> 0.16822033E+00</totfact>
</mgrwt>
</event>
<event>
12    3  0.2422421E-007  0.1136604E+04  0.7818608E-02  0.9170232E-01
          1   -1    0    0  501    0  0.00000000000E+00  0.00000000000E+00  0.23331345143E+04  0.23331345143E+04  0.00000000000E+00 0. -1.
         -2   -1    0    0    0  501 -0.00000000000E+00 -0.00000000000E+00 -0.61666573328E+03  0.61666573328E+03  0.00000000000E+00 0.  1.
        -24    2    1    2    0    0  0.13726476704E+03 -0.10500304077E+04  0.12647576312E+04  0.16515414113E+04  0.81065987551E+02 0.  0.
    5000000    2    1    2    0    0 -0.13726476704E+03  0.10500304077E+04  0.45171114983E+03  0.12982588363E+04  0.60002297433E+03 0.  0.
        -24    2    4    4    0    0  0.19499184263E+03  0.68081029171E+03  0.23447664277E+03  0.75011630484E+03  0.78553820938E+02 0.  0.
         24    2    4    4    0    0 -0.33225660967E+03  0.36922011597E+03  0.21723450706E+03  0.54814253143E+03  0.80941058790E+02 0.  0.
         13    1    3    3    0    0  0.19583393104E+02 -0.45969071423E+03  0.54790384869E+03  0.71547025756E+03  0.00000000000E+00 0. -1.
        -14    1    3    3    0    0  0.11768137394E+03 -0.59033969345E+03  0.71685378250E+03  0.93607115377E+03  0.00000000000E+00 0.  1.
         13    1    5    5    0    0  0.17361621378E+03  0.57624806286E+03  0.16982264669E+03  0.62533523087E+03  0.00000000000E+00 0. -1.
        -14    1    5    5    0    0  0.21375628851E+02  0.10456222886E+03  0.64653996085E+02  0.12478107397E+03  0.00000000000E+00 0.  1.
          2    1    6    6  502    0 -0.19022144190E+03  0.15411340905E+03  0.11999196467E+03  0.27264117699E+03  0.00000000000E+00 0. -1.
         -1    1    6    6    0  502 -0.14203516777E+03  0.21510670692E+03  0.97242542396E+02  0.27550135443E+03  0.00000000000E+00 0.  1.
<mgrwt>
<rscale>  0 0.11366036E+04</rscale>
<asrwt>0</asrwt>
<pdfrwt beam="1">  1        1 0.35894377E+00 0.11366036E+04</pdfrwt>
<pdfrwt beam="2">  1       -2 0.94871652E-01 0.11366036E+04</pdfrwt>
<totfact> 0.14395886E+00</totfact>
</mgrwt>
</event>
<event>
12    3  0.3005828E-007  0.6683067E+03  0.7818608E-02  0.9773022E-01
          3   -1    0    0  501    0  0.00000000000E+00  0.00000000000E+00  0.77584076343E+03  0.77584076343E+03  0.00000000000E+00 0. -1.
         -4   -1    0    0    0  501 -0.00000000000E+00 -0.00000000000E+00 -0.71196121086E+03  0.71196121086E+03  0.00000000000E+00 0.  1.
        -24    2    1    2    0    0 -0.51847430607E+03 -0.15750835742E+03  0.32670409245E+03  0.63768208910E+03  0.79236317644E+02 0.  0.
    5000000    2    1    2    0    0  0.51847430607E+03  0.15750835742E+03 -0.26282453988E+03  0.85011988518E+03  0.60000215976E+03 0.  0.
        -24    2    4    4    0    0  0.58880849638E+03 -0.18998331980E+02 -0.24541355318E+03  0.64316420562E+03  0.79849867054E+02 0.  0.
         24    2    4    4    0    0 -0.70334190319E+02  0.17650668939E+03 -0.17410986696E+02  0.20695567956E+03  0.80162342264E+02 0.  0.
         13    1    5    5    0    0  0.33962230669E+03  0.18422443908E+02 -0.16937302854E+03  0.37996041957E+03  0.00000000000E+00 0. -1.
        -14    1    5    5    0    0  0.24918618969E+03 -0.37420775888E+02 -0.76040524638E+02  0.26320378605E+03  0.00000000000E+00 0.  1.
         13    1    3    3    0    0 -0.27351710636E+03 -0.12288713514E+03  0.19092654699E+03  0.35547967846E+03  0.00000000000E+00 0. -1.
        -14    1    3    3    0    0 -0.24495719971E+03 -0.34621222271E+02  0.13577754546E+03  0.28220241064E+03  0.00000000000E+00 0.  1.
          2    1    6    6  502    0 -0.42634823406E+02  0.41683678397E+02 -0.33478874065E+02  0.68381958295E+02  0.00000000000E+00 0. -1.
         -1    1    6    6    0  502 -0.27699366912E+02  0.13482301100E+03  0.16067887369E+02  0.13857372127E+03  0.00000000000E+00 0.  1.
<mgrwt>
<rscale>  0 0.66830666E+03</rscale>
<asrwt>0</asrwt>
<pdfrwt beam="1">  1        3 0.11936012E+00 0.66830666E+03</pdfrwt>
<pdfrwt beam="2">  1       -4 0.10953249E+00 0.66830666E+03</pdfrwt>
<totfact> 0.85804466E-01</totfact>
</mgrwt>
</event>
<event>
12    3  0.2422421E-007  0.6782500E+03  0.7818608E-02  0.9755168E-01
          1   -1    0    0  501    0  0.00000000000E+00  0.00000000000E+00  0.16241095601E+04  0.16241095601E+04  0.00000000000E+00 0. -1.
         -2   -1    0    0    0  501 -0.00000000000E+00 -0.00000000000E+00 -0.30165846032E+03  0.30165846032E+03  0.00000000000E+00 0.  1.
        -24    2    1    2    0    0  0.55994596159E+03  0.52405008970E+01  0.41105920724E+03  0.69927668128E+03  0.80319750795E+02 0.  0.
    5000000    2    1    2    0    0 -0.55994596159E+03 -0.52405008970E+01  0.91139189256E+03  0.12264913392E+04  0.60006573013E+03 0.  0.
        -24    2    4    4    0    0 -0.28313410260E+03  0.27396791465E+03  0.32884048213E+03  0.51913548293E+03  0.78372499227E+02 0.  0.
         24    2    4    4    0    0 -0.27681185900E+03 -0.27920841555E+03  0.58255141044E+03  0.70735585624E+03  0.80025102081E+02 0.  0.
         11    1    5    5    0    0 -0.19358167644E+03  0.13892813434E+03  0.17430897942E+03  0.29522620526E+03  0.00000000000E+00 0. -1.
        -12    1    5    5    0    0 -0.89552426160E+02  0.13503978031E+03  0.15453150270E+03  0.22390927767E+03  0.00000000000E+00 0.  1.
         13    1    3    3    0    0  0.28906819098E+03  0.20719306928E+02  0.16785414349E+03  0.33491002105E+03  0.00000000000E+00 0. -1.
        -14    1    3    3    0    0  0.27087777062E+03 -0.15478806031E+02  0.24320506375E+03  0.36436666022E+03  0.00000000000E+00 0.  1.
          2    1    6    6  502    0 -0.14876792664E+03 -0.12264320184E+03  0.22274884152E+03  0.29460193033E+03  0.00000000000E+00 0. -1.
         -1    1    6    6    0  502 -0.12804393235E+03 -0.15656521371E+03  0.35980256892E+03  0.41275392592E+03  0.00000000000E+00 0.  1.
<mgrwt>
<rscale>  0 0.67825005E+03</rscale>
<asrwt>0</asrwt>
<pdfrwt beam="1">  1        1 0.24986300E+00 0.67825005E+03</pdfrwt>
<pdfrwt beam="2">  1       -2 0.46408995E-01 0.67825005E+03</pdfrwt>
<totfact> 0.21618625E+01</totfact>
</mgrwt>
</event>
<event>
12    3  0.2422421E-007  0.3536318E+03  0.7818608E-02  0.1061134E+00
         -2   -1    0    0    0  501 -0.00000000000E+00  0.00000000000E+00  0.66730092799E+02  0.66730092799E+02  0.00000000000E+00 0.  1.
          1   -1    0    0  501    0  0.00000000000E+00 -0.00000000000E+00 -0.30643721721E+04  0.30643721721E+04  0.00000000000E+00 0. -1.
        -24    2    1    2    0    0  0.22569005086E+03 -0.55528386970E+02 -0.10435206997E+04  0.10737880919E+04  0.10032953107E+03 0.  0.
    5000000    2    1    2    0    0 -0.22569005086E+03  0.55528386970E+02 -0.19541213796E+04  0.20573141730E+04  0.59994319678E+03 0.  0.
        -24    2    4    4    0    0  0.10254943438E+03 -0.58462430771E+02 -0.13358970292E+04  0.13434893001E+04  0.80052386495E+02 0.  0.
         24    2    4    4    0    0 -0.32823948524E+03  0.11399081774E+03 -0.61822435046E+03  0.71382487294E+03  0.81299049947E+02 0.  0.
         13    1    5    5    0    0  0.66466080811E+02 -0.41479973121E+02 -0.11791024835E+04  0.11817025830E+04  0.00000000000E+00 0. -1.
        -14    1    5    5    0    0  0.36083353572E+02 -0.16982457650E+02 -0.15679454569E+03  0.16178671710E+03  0.00000000000E+00 0.  1.
         13    1    3    3    0    0  0.70246086206E+02 -0.53145568763E+01 -0.53642075301E+03  0.54102678437E+03  0.00000000000E+00 0. -1.
        -14    1    3    3    0    0  0.15544396465E+03 -0.50213830094E+02 -0.50709994665E+03  0.53276130750E+03  0.00000000000E+00 0.  1.
          2    1    6    6  502    0 -0.10448875614E+03  0.73753252127E+02 -0.25596313145E+03  0.28613732197E+03  0.00000000000E+00 0. -1.
         -1    1    6    6    0  502 -0.22375072910E+03  0.40237565615E+02 -0.36226121901E+03  0.42768755097E+03  0.00000000000E+00 0.  1.
<mgrwt>
<rscale>  0 0.35363181E+03</rscale>
<asrwt>0</asrwt>
<pdfrwt beam="1">  1        1 0.47144189E+00 0.35363181E+03</pdfrwt>
<pdfrwt beam="2">  1       -2 0.10266168E-01 0.35363181E+03</pdfrwt>
<totfact> 0.35536461E+01</totfact>
</mgrwt>
</event>
<event>
12    3  0.2422421E-007  0.1477462E+04  0.7818608E-02  0.8899580E-01
         -2   -1    0    0    0  501 -0.00000000000E+00  0.00000000000E+00  0.24610501336E+04  0.24610501336E+04  0.00000000000E+00 0.  1.
          1   -1    0    0  501    0  0.00000000000E+00 -0.00000000000E+00 -0.99742881408E+03  0.99742881408E+03  0.00000000000E+00 0. -1.
        -24    2    1    2    0    0 -0.12091884878E+04  0.77004621258E+03  0.18821147162E+03  0.14480670849E+04  0.79791953135E+02 0.  0.
    5000000    2    1    2    0    0  0.12091884878E+04 -0.77004621258E+03  0.12754098479E+04  0.20104118628E+04  0.59998134107E+03 0.  0.
        -24    2    4    4    0    0  0.22800483185E+03  0.44202101610E+02  0.37128013397E+03  0.44528702058E+03  0.80570240694E+02 0.  0.
         24    2    4    4    0    0  0.98118365590E+03 -0.81424831419E+03  0.90412971395E+03  0.15651248423E+04  0.80271716145E+02 0.  0.
         13    1    5    5    0    0  0.18897301928E+03  0.29871674413E+01  0.28987537370E+03  0.34604545577E+03  0.00000000000E+00 0. -1.
        -14    1    5    5    0    0  0.39031812574E+02  0.41214934169E+02  0.81404760271E+02  0.99241564811E+02  0.00000000000E+00 0.  1.
         13    1    3    3    0    0 -0.20373310082E+03  0.14407267070E+03  0.49167224219E+01  0.24957621075E+03  0.00000000000E+00 0. -1.
        -14    1    3    3    0    0 -0.10054553869E+04  0.62597354188E+03  0.18329474920E+03  0.11984908741E+04  0.00000000000E+00 0.  1.
          2    1    6    6  502    0  0.91002089075E+03 -0.74726786891E+03  0.85863870059E+03  0.14573289634E+04  0.00000000000E+00 0. -1.
         -1    1    6    6    0  502  0.71162765156E+02 -0.66980445282E+02  0.45491013367E+02  0.10779587883E+03  0.00000000000E+00 0.  1.
<mgrwt>
<rscale>  0 0.14774621E+04</rscale>
<asrwt>0</asrwt>
<pdfrwt beam="1">  1        1 0.15345059E+00 0.14774621E+04</pdfrwt>
<pdfrwt beam="2">  1       -2 0.37862310E+00 0.14774621E+04</pdfrwt>
<totfact> 0.12981636E-01</totfact>
</mgrwt>
</event>
<event>
12    3  0.2422421E-007  0.1159282E+04  0.7818608E-02  0.9149263E-01
         -2   -1    0    0    0  501 -0.00000000000E+00  0.00000000000E+00  0.64760108908E+03  0.64760108908E+03  0.00000000000E+00 0.  1.
          1   -1    0    0  501    0  0.00000000000E+00 -0.00000000000E+00 -0.21641280620E+04  0.21641280620E+04  0.00000000000E+00 0. -1.
        -24    2    1    2    0    0 -0.99968475248E+03  0.47342464143E+03 -0.73396659774E+03  0.13299143266E+04  0.80403071504E+02 0.  0.
    5000000    2    1    2    0    0  0.99968475248E+03 -0.47342464143E+03 -0.78256037521E+03  0.14818148246E+04  0.59989493910E+03 0.  0.
        -24    2    4    4    0    0  0.52291211955E+03  0.20761833835E+02 -0.52209949299E+03  0.74332101767E+03  0.77910950468E+02 0.  0.
         24    2    4    4    0    0  0.47677263293E+03 -0.49418647527E+03 -0.26046088221E+03  0.73849380688E+03  0.77464932660E+02 0.  0.
         11    1    3    3    0    0 -0.54084479386E+03  0.21844414306E+03 -0.36079868745E+03  0.68586195954E+03  0.00000000000E+00 0. -1.
        -12    1    3    3    0    0 -0.45883995862E+03  0.25498049837E+03 -0.37316791029E+03  0.64405236701E+03  0.00000000000E+00 0.  1.
         13    1    5    5    0    0  0.33158160902E+03  0.22204974731E+02 -0.38109599219E+03  0.50564175026E+03  0.00000000000E+00 0. -1.
        -14    1    5    5    0    0  0.19133051054E+03 -0.14431408955E+01 -0.14100350081E+03  0.23767926741E+03  0.00000000000E+00 0.  1.
          2    1    6    6  502    0  0.25686596119E+03 -0.26669624465E+03 -0.18158489947E+03  0.41240766802E+03  0.00000000000E+00 0. -1.
         -1    1    6    6    0  502  0.21990667174E+03 -0.22749023062E+03 -0.78875982742E+02  0.32608613886E+03  0.00000000000E+00 0.  1.
<mgrwt>
<rscale>  0 0.11592818E+04</rscale>
<asrwt>0</asrwt>
<pdfrwt beam="1">  1        1 0.33294277E+00 0.11592818E+04</pdfrwt>
<pdfrwt beam="2">  1       -2 0.99630939E-01 0.11592818E+04</pdfrwt>
<totfact> 0.16659329E+00</totfact>
</mgrwt>
</event>
<event>
12    3  0.2422421E-007  0.6118691E+03  0.7818608E-02  0.9881083E-01
          1   -1    0    0  501    0  0.00000000000E+00  0.00000000000E+00  0.20746185565E+03  0.20746185565E+03  0.00000000000E+00 0. -1.
         -2   -1    0    0    0  501 -0.00000000000E+00 -0.00000000000E+00 -0.28943929272E+04  0.28943929272E+04  0.00000000000E+00 0.  1.
        -24    2    1    2    0    0 -0.51358583192E+03  0.57344612681E+02 -0.33715755080E+03  0.62224003245E+03  0.80303378364E+02 0.  0.
    5000000    2    1    2    0    0  0.51358583192E+03 -0.57344612681E+02 -0.23497735207E+04  0.24796147504E+04  0.59999575019E+03 0.  0.
        -24    2    4    4    0    0  0.44438070177E+03  0.16005509254E+03 -0.10065603790E+04  0.11147623810E+04  0.80246673402E+02 0.  0.
         24    2    4    4    0    0  0.69205130149E+02 -0.21739970522E+03 -0.13432131417E+04  0.13648523694E+04  0.80922583048E+02 0.  0.
         11    1    3    3    0    0 -0.34258663570E+03  0.31878006154E+02 -0.17861656980E+03  0.38766698240E+03  0.00000000000E+00 0. -1.
        -12    1    3    3    0    0 -0.17099919622E+03  0.25466606527E+02 -0.15854098099E+03  0.23457305005E+03  0.00000000000E+00 0.  1.
         13    1    5    5    0    0  0.22486520512E+03  0.11825562301E+03 -0.49032787266E+03  0.55224104841E+03  0.00000000000E+00 0. -1.
        -14    1    5    5    0    0  0.21951549665E+03  0.41799469532E+02 -0.51623250639E+03  0.56252133255E+03  0.00000000000E+00 0.  1.
          4    1    6    6  502    0  0.19305579802E+02 -0.33018740597E+02 -0.44015586389E+03  0.44181458460E+03  0.00000000000E+00 0. -1.
         -3    1    6    6    0  502  0.49899550347E+02 -0.18438096462E+03 -0.90305727781E+03  0.92303778484E+03  0.00000000000E+00 0.  1.
<mgrwt>
<rscale>  0 0.61186912E+03</rscale>
<asrwt>0</asrwt>
<pdfrwt beam="1">  1        1 0.31917210E-01 0.61186912E+03</pdfrwt>
<pdfrwt beam="2">  1       -2 0.44529120E+00 0.61186912E+03</pdfrwt>
<totfact> 0.50630547E-01</totfact>
</mgrwt>
</event>
<event>
12    3  0.2893096E-007  0.1025590E+04  0.7818608E-02  0.9280915E-01
         -2   -1    0    0    0  501 -0.00000000000E+00  0.00000000000E+00  0.58152433503E+03  0.58152433503E+03  0.00000000000E+00 0.  1.
          1   -1    0    0  501    0  0.00000000000E+00 -0.00000000000E+00 -0.21565709510E+04  0.21565709510E+04  0.00000000000E+00 0. -1.
        -24    2    1    2    0    0  0.98394006368E+03  0.22622623377E+03 -0.10267775692E+04  0.14421672424E+04  0.79106387996E+02 0.  0.
    5000000    2    1    2    0    0 -0.98394006368E+03 -0.22622623377E+03 -0.54826904684E+03  0.12959280437E+04  0.59959502082E+03 0.  0.
        -24    2    4    4    0    0 -0.44189726915E+03  0.11587665561E+02  0.48278031358E+02  0.45169257264E+03  0.79296540847E+02 0.  0.
         24    2    4    4    0    0 -0.54204279453E+03 -0.23781389933E+03 -0.59654707820E+03  0.84423547107E+03  0.80618064275E+02 0.  0.
         11    1    5    5    0    0 -0.17999662768E+03 -0.33275808657E+02  0.11023553865E+02  0.18337825432E+03  0.00000000000E+00 0. -1.
        -12    1    5    5    0    0 -0.26190064147E+03  0.44863474219E+02  0.37254477493E+02  0.26831431832E+03  0.00000000000E+00 0.  1.
         11    1    3    3    0    0  0.34080376532E+03  0.59659516665E+02 -0.30562191470E+03  0.46163970705E+03  0.00000000000E+00 0. -1.
        -12    1    3    3    0    0  0.64313629836E+03  0.16656671711E+03 -0.72115565446E+03  0.98052753530E+03  0.00000000000E+00 0.  1.
          2    1    6    6  502    0 -0.28487318842E+03 -0.11752418681E+03 -0.25418086881E+03  0.39946537026E+03  0.00000000000E+00 0. -1.
         -1    1    6    6    0  502 -0.25716960611E+03 -0.12028971252E+03 -0.34236620939E+03  0.44477010081E+03  0.00000000000E+00 0.  1.
<mgrwt>
<rscale>  0 0.10255896E+04</rscale>
<asrwt>0</asrwt>
<pdfrwt beam="1">  1        1 0.33178015E+00 0.10255896E+04</pdfrwt>
<pdfrwt beam="2">  1       -2 0.89465281E-01 0.10255896E+04</pdfrwt>
<totfact> 0.22055155E+00</totfact>
</mgrwt>
</event>
<event>
12    3  0.2422421E-007  0.1079016E+04  0.7818608E-02  0.9225890E-01
         -2   -1    0    0    0  501 -0.00000000000E+00  0.00000000000E+00  0.16190512000E+04  0.16190512000E+04  0.00000000000E+00 0.  1.
          1   -1    0    0  501    0  0.00000000000E+00 -0.00000000000E+00 -0.10183526547E+04  0.10183526547E+04  0.00000000000E+00 0. -1.
        -24    2    1    2    0    0  0.79124378586E+03 -0.64249184426E+03  0.95919392712E+03  0.14016643425E+04  0.75811877249E+02 0.  0.
    5000000    2    1    2    0    0 -0.79124378586E+03  0.64249184426E+03 -0.35849538180E+03  0.12357395121E+04  0.59972552422E+03 0.  0.
        -24    2    4    4    0    0 -0.78095916311E+03  0.37946360020E+03 -0.39420673654E+03  0.95715751114E+03  0.82835449439E+02 0.  0.
         24    2    4    4    0    0 -0.10284622750E+02  0.26302824406E+03  0.35711354745E+02  0.27858200096E+03  0.83922581960E+02 0.  0.
         11    1    3    3    0    0  0.86425858392E+02 -0.97884676347E+02  0.10497048900E+03  0.16753997261E+03  0.00000000000E+00 0. -1.
        -12    1    3    3    0    0  0.70481792746E+03 -0.54460716791E+03  0.85422343812E+03  0.12341243699E+04  0.00000000000E+00 0.  1.
         13    1    5    5    0    0 -0.35973650930E+03  0.20794891465E+03 -0.15676939813E+03  0.44410556338E+03  0.00000000000E+00 0. -1.
        -14    1    5    5    0    0 -0.42122265380E+03  0.17151468555E+03 -0.23743733841E+03  0.51305194777E+03  0.00000000000E+00 0.  1.
          2    1    6    6  502    0 -0.20705427266E+01  0.25475964464E+03  0.15485376400E+02  0.25523824276E+03  0.00000000000E+00 0. -1.
         -1    1    6    6    0  502 -0.82140800231E+01  0.82685994207E+01  0.20225978345E+02  0.23343758202E+02  0.00000000000E+00 0.  1.
<mgrwt>
<rscale>  0 0.10790155E+04</rscale>
<asrwt>0</asrwt>
<pdfrwt beam="1">  1        1 0.15666964E+00 0.10790155E+04</pdfrwt>
<pdfrwt beam="2">  1       -2 0.24908480E+00 0.10790155E+04</pdfrwt>
<totfact> 0.82814661E-01</totfact>
</mgrwt>
</event>
<event>
12    3  0.2422421E-007  0.1350617E+04  0.7818608E-02  0.8990361E-01
          1   -1    0    0  501    0  0.00000000000E+00  0.00000000000E+00  0.28693774713E+04  0.28693774713E+04  0.00000000000E+00 0. -1.
         -2   -1    0    0    0  501 -0.00000000000E+00 -0.00000000000E+00 -0.86481381381E+03  0.86481381381E+03  0.00000000000E+00 0.  1.
        -24    2    1    2    0    0  0.16860269446E+02 -0.13428234224E+04  0.13025661506E+03  0.13516562958E+04  0.80925544128E+02 0.  0.
    5000000    2    1    2    0    0 -0.16860269446E+02  0.13428234224E+04  0.18743070424E+04  0.23825349893E+04  0.59998922764E+03 0.  0.
        -24    2    4    4    0    0 -0.66210364274E+02  0.93635950096E+03  0.16716469599E+04  0.19188570590E+04  0.80348784253E+02 0.  0.
         24    2    4    4    0    0  0.49350094828E+02  0.40646392148E+03  0.20266008253E+03  0.46367793024E+03  0.79232333105E+02 0.  0.
         13    1    5    5    0    0 -0.21332789061E+02  0.61115667244E+03  0.11506155605E+04  0.13030286774E+04  0.00000000000E+00 0. -1.
        -14    1    5    5    0    0 -0.44877575214E+02  0.32520282852E+03  0.52103139939E+03  0.61582838160E+03  0.00000000000E+00 0.  1.
         13    1    3    3    0    0 -0.32672271254E+02 -0.55995146158E+03  0.50313670623E+02  0.56315591276E+03  0.00000000000E+00 0. -1.
        -14    1    3    3    0    0  0.49532540701E+02 -0.78287196087E+03  0.79942944438E+02  0.78850038305E+03  0.00000000000E+00 0.  1.
          4    1    6    6  502    0  0.55269385936E+02  0.15524635396E+03  0.95790387341E+02  0.19060937476E+03  0.00000000000E+00 0. -1.
         -3    1    6    6    0  502 -0.59192911083E+01  0.25121756752E+03  0.10686969519E+03  0.27306855547E+03  0.00000000000E+00 0.  1.
<mgrwt>
<rscale>  0 0.13506167E+04</rscale>
<asrwt>0</asrwt>
<pdfrwt beam="1">  1        1 0.44144268E+00 0.13506167E+04</pdfrwt>
<pdfrwt beam="2">  1       -2 0.13304828E+00 0.13506167E+04</pdfrwt>
<totfact> 0.25834694E-01</totfact>
</mgrwt>
</event>
<event>
12    3  0.2422421E-007  0.5483565E+03  0.7818608E-02  0.1001875E+00
          1   -1    0    0  501    0  0.00000000000E+00  0.00000000000E+00  0.59885140925E+03  0.59885140925E+03  0.00000000000E+00 0. -1.
         -2   -1    0    0    0  501 -0.00000000000E+00 -0.00000000000E+00 -0.89360955093E+03  0.89360955093E+03  0.00000000000E+00 0.  1.
        -24    2    1    2    0    0 -0.46924815209E+02 -0.53981507975E+03 -0.39856086287E+03  0.67738371421E+03  0.79972971996E+02 0.  0.
    5000000    2    1    2    0    0  0.46924815209E+02  0.53981507975E+03  0.10380272120E+03  0.81507724597E+03  0.59997804406E+03 0.  0.
        -24    2    4    4    0    0 -0.19915249310E+02  0.14387679873E+03  0.31419890916E+03  0.35493337020E+03  0.78483070737E+02 0.  0.
         24    2    4    4    0    0  0.66840064519E+02  0.39593828103E+03 -0.21039618797E+03  0.46014387577E+03  0.78937404874E+02 0.  0.
         11    1    3    3    0    0 -0.35243260641E+02 -0.36972038728E+03 -0.22575152449E+03  0.43462512928E+03  0.00000000000E+00 0. -1.
        -12    1    3    3    0    0 -0.11681554568E+02 -0.17009469247E+03 -0.17280933838E+03  0.24275858493E+03  0.00000000000E+00 0.  1.
         11    1    5    5    0    0 -0.34365109091E+02  0.74074080504E+02  0.99540113603E+02  0.12874845374E+03  0.00000000000E+00 0. -1.
        -12    1    5    5    0    0  0.14449859781E+02  0.69802718222E+02  0.21465879556E+03  0.22618491645E+03  0.00000000000E+00 0.  1.
          2    1    6    6  502    0  0.23480542666E+02  0.18872472271E+03 -0.56431448117E+02  0.19837556599E+03  0.00000000000E+00 0. -1.
         -3    1    6    6    0  502  0.43359521853E+02  0.20721355831E+03 -0.15396473985E+03  0.26176830977E+03  0.00000000000E+00 0.  1.
<mgrwt>
<rscale>  0 0.54835651E+03</rscale>
<asrwt>0</asrwt>
<pdfrwt beam="1">  1        1 0.92130986E-01 0.54835651E+03</pdfrwt>
<pdfrwt beam="2">  1       -2 0.13747839E+00 0.54835651E+03</pdfrwt>
<totfact> 0.11825302E+01</totfact>
</mgrwt>
</event>
<event>
12    3  0.2422421E-007  0.4312645E+03  0.7818608E-02  0.1033461E+00
          1   -1    0    0  501    0  0.00000000000E+00  0.00000000000E+00  0.18486275643E+04  0.18486275643E+04  0.00000000000E+00 0. -1.
         -2   -1    0    0    0  501 -0.00000000000E+00 -0.00000000000E+00 -0.10920820567E+03  0.10920820567E+03  0.00000000000E+00 0.  1.
        -24    2    1    2    0    0  0.55600694143E+02  0.21336065647E+03  0.28350606282E+03  0.36783907336E+03  0.79471311250E+02 0.  0.
    5000000    2    1    2    0    0 -0.55600694143E+02 -0.21336065647E+03  0.14559132958E+04  0.15899966966E+04  0.59982644441E+03 0.  0.
        -24    2    4    4    0    0 -0.74827956445E+02  0.19643321338E+03  0.57875283736E+03  0.61852984905E+03  0.58643814893E+02 0.  0.
         24    2    4    4    0    0  0.19227262302E+02 -0.40979386985E+03  0.87716045842E+03  0.97146684754E+03  0.77695963080E+02 0.  0.
         13    1    3    3    0    0  0.46048880403E+02  0.55404971122E+02  0.58736707301E+02  0.92952735280E+02  0.00000000000E+00 0. -1.
        -14    1    3    3    0    0  0.95518137396E+01  0.15795568535E+03  0.22476935552E+03  0.27488633808E+03  0.00000000000E+00 0.  1.
         13    1    5    5    0    0  0.57556070016E+01  0.21836826292E+02  0.10173494205E+03  0.10421119148E+03  0.00000000000E+00 0. -1.
        -14    1    5    5    0    0 -0.80583563447E+02  0.17459638708E+03  0.47701789531E+03  0.51431865757E+03  0.00000000000E+00 0.  1.
          4    1    6    6  502    0  0.33690335661E+02 -0.74567699706E+02  0.18332589092E+03  0.20075797080E+03  0.00000000000E+00 0. -1.
         -3    1    6    6    0  502 -0.14463073359E+02 -0.33522617014E+03  0.69383456750E+03  0.77070887675E+03  0.00000000000E+00 0.  1.
<mgrwt>
<rscale>  0 0.43126445E+03</rscale>
<asrwt>0</asrwt>
<pdfrwt beam="1">  1        1 0.28440422E+00 0.43126445E+03</pdfrwt>
<pdfrwt beam="2">  1       -2 0.16801264E-01 0.43126445E+03</pdfrwt>
<totfact> 0.10239967E+02</totfact>
</mgrwt>
</event>
<event>
12    3  0.2422421E-007  0.7729474E+03  0.7818608E-02  0.9600022E-01
         -2   -1    0    0    0  501 -0.00000000000E+00  0.00000000000E+00  0.63697598972E+03  0.63697598972E+03  0.00000000000E+00 0.  1.
          1   -1    0    0  501    0  0.00000000000E+00 -0.00000000000E+00 -0.97835409031E+03  0.97835409031E+03  0.00000000000E+00 0. -1.
        -24    2    1    2    0    0 -0.58761346744E+03 -0.30964810609E+03 -0.38674913060E+02  0.67063382361E+03  0.84157232336E+02 0.  0.
    5000000    2    1    2    0    0  0.58761346744E+03  0.30964810609E+03 -0.30270318752E+03  0.94469625641E+03  0.59970847953E+03 0.  0.
        -24    2    4    4    0    0  0.10821385987E+02  0.30021127668E+03 -0.10943275391E+03  0.33071100324E+03  0.84559606191E+02 0.  0.
         24    2    4    4    0    0  0.57679208145E+03  0.94368294097E+01 -0.19327043362E+03  0.61398525317E+03  0.82742199797E+02 0.  0.
         11    1    5    5    0    0  0.17661039484E+02  0.20875479016E+03 -0.11470699486E+03  0.23884758613E+03  0.00000000000E+00 0. -1.
        -12    1    5    5    0    0 -0.68396534965E+01  0.91456486522E+02  0.52742409502E+01  0.91863417117E+02  0.00000000000E+00 0.  1.
         13    1    3    3    0    0 -0.28470975115E+03 -0.18392640122E+03  0.99062843468E+01  0.33909688577E+03  0.00000000000E+00 0. -1.
        -14    1    3    3    0    0 -0.30290371628E+03 -0.12572170486E+03 -0.48581197407E+02  0.33153693784E+03  0.00000000000E+00 0.  1.
          4    1    6    6  502    0  0.31841706290E+03 -0.10848777325E+02 -0.14632848443E+03  0.35059827049E+03  0.00000000000E+00 0. -1.
         -3    1    6    6    0  502  0.25837501855E+03  0.20285606735E+02 -0.46941949183E+02  0.26338698268E+03  0.00000000000E+00 0.  1.
<mgrwt>
<rscale>  0 0.77294739E+03</rscale>
<asrwt>0</asrwt>
<pdfrwt beam="1">  1        1 0.15051601E+00 0.77294739E+03</pdfrwt>
<pdfrwt beam="2">  1       -2 0.97996306E-01 0.77294739E+03</pdfrwt>
<totfact> 0.12204066E+01</totfact>
</mgrwt>
</event>
<event>
12    3  0.2422421E-007  0.2715808E+03  0.7818608E-02  0.1100378E+00
         -4   -1    0    0    0  501 -0.00000000000E+00  0.00000000000E+00  0.33238503161E+03  0.33238503161E+03  0.00000000000E+00 0.  1.
          3   -1    0    0  501    0  0.00000000000E+00 -0.00000000000E+00 -0.75016966214E+03  0.75016966214E+03  0.00000000000E+00 0. -1.
        -24    2    1    2    0    0 -0.44651483717E+02 -0.22092048578E+03 -0.36961819214E+03  0.43987667427E+03  0.77937568457E+02 0.  0.
    5000000    2    1    2    0    0  0.44651483717E+02  0.22092048578E+03 -0.48166438397E+02  0.64267801948E+03  0.59992950828E+03 0.  0.
        -24    2    4    4    0    0 -0.54684587501E+02  0.19299599789E+03 -0.29307709129E+03  0.36500724974E+03  0.84251122356E+02 0.  0.
         24    2    4    4    0    0  0.99336071218E+02  0.27924487890E+02  0.24491065289E+03  0.27767076973E+03  0.80451205069E+02 0.  0.
         13    1    5    5    0    0 -0.52914429204E+01  0.11267370978E+03 -0.10265277049E+03  0.15251542720E+03  0.00000000000E+00 0. -1.
        -14    1    5    5    0    0 -0.49393144580E+02  0.80322288107E+02 -0.19042432080E+03  0.21249182255E+03  0.00000000000E+00 0.  1.
         13    1    3    3    0    0 -0.76943976702E+01 -0.13925889252E+03 -0.16219456715E+03  0.21391428310E+03  0.00000000000E+00 0. -1.
        -14    1    3    3    0    0 -0.36957086047E+02 -0.81661593261E+02 -0.20742362499E+03  0.22596239117E+03  0.00000000000E+00 0.  1.
          4    1    6    6  502    0  0.99296660909E+02  0.30895491305E+02  0.14892862918E+03  0.18164276710E+03  0.00000000000E+00 0. -1.
         -3    1    6    6    0  502  0.39410308680E-01 -0.29710034147E+01  0.95982023707E+02  0.96028002631E+02  0.00000000000E+00 0.  1.
<mgrwt>
<rscale>  0 0.27158079E+03</rscale>
<asrwt>0</asrwt>
<pdfrwt beam="1">  1        3 0.11541072E+00 0.27158079E+03</pdfrwt>
<pdfrwt beam="2">  1       -4 0.51136159E-01 0.27158079E+03</pdfrwt>
<totfact> 0.50842707E+00</totfact>
</mgrwt>
</event>
<event>
12    3  0.2422421E-007  0.5039194E+03  0.7818608E-02  0.1012761E+00
         -2   -1    0    0    0  501 -0.00000000000E+00  0.00000000000E+00  0.53267688331E+03  0.53267688331E+03  0.00000000000E+00 0.  1.
          1   -1    0    0  501    0  0.00000000000E+00 -0.00000000000E+00 -0.54828840145E+03  0.54828840145E+03  0.00000000000E+00 0. -1.
        -24    2    1    2    0    0 -0.39059271564E+02 -0.36601455817E+03  0.11776005001E+01  0.37671825903E+03  0.80143474207E+02 0.  0.
    5000000    2    1    2    0    0  0.39059271564E+02  0.36601455817E+03 -0.16789118637E+02  0.70424702572E+03  0.60015807521E+03 0.  0.
        -24    2    4    4    0    0  0.22766765974E+03  0.22495211299E+02  0.13351792811E+03  0.27697168719E+03  0.80917739440E+02 0.  0.
         24    2    4    4    0    0 -0.18860838817E+03  0.34351934687E+03 -0.15030704675E+03  0.42727533853E+03  0.79958369485E+02 0.  0.
         11    1    5    5    0    0  0.91230271238E+02  0.45140597793E+02  0.76706873072E+02  0.12745422839E+03  0.00000000000E+00 0. -1.
        -12    1    5    5    0    0  0.13643738850E+03 -0.22645386494E+02  0.56811055041E+02  0.14951745879E+03  0.00000000000E+00 0.  1.
         13    1    3    3    0    0 -0.32936911567E+02 -0.30508450016E+03  0.31344661531E+02  0.30845401632E+03  0.00000000000E+00 0. -1.
        -14    1    3    3    0    0 -0.61223599977E+01 -0.60930058013E+02 -0.30167061031E+02  0.68264242709E+02  0.00000000000E+00 0.  1.
          2    1    6    6  502    0 -0.25249284601E+02  0.12101050122E+03 -0.54329454460E+02  0.13502872806E+03  0.00000000000E+00 0. -1.
         -1    1    6    6    0  502 -0.16335910357E+03  0.22250884565E+03 -0.95977592290E+02  0.29224661047E+03  0.00000000000E+00 0.  1.
<mgrwt>
<rscale>  0 0.50391942E+03</rscale>
<asrwt>0</asrwt>
<pdfrwt beam="1">  1        1 0.84352062E-01 0.50391942E+03</pdfrwt>
<pdfrwt beam="2">  1       -2 0.81950290E-01 0.50391942E+03</pdfrwt>
<totfact> 0.46404466E+01</totfact>
</mgrwt>
</event>
<event>
12    3  0.2422421E-007  0.1196244E+04  0.7818608E-02  0.9116150E-01
         -2   -1    0    0    0  501 -0.00000000000E+00  0.00000000000E+00  0.13993010122E+04  0.13993010122E+04  0.00000000000E+00 0.  1.
          1   -1    0    0  501    0  0.00000000000E+00 -0.00000000000E+00 -0.11622671351E+04  0.11622671351E+04  0.00000000000E+00 0. -1.
        -24    2    1    2    0    0 -0.40798287714E+03  0.10486203593E+04  0.54059880986E+03  0.12507793045E+04  0.78403503050E+02 0.  0.
    5000000    2    1    2    0    0  0.40798287714E+03 -0.10486203593E+04 -0.30356493269E+03  0.13107888428E+04  0.59996752928E+03 0.  0.
        -24    2    4    4    0    0 -0.10445696127E+03 -0.51678945721E+03 -0.12774887026E+03  0.54730089348E+03  0.72359479790E+02 0.  0.
         24    2    4    4    0    0  0.51243983841E+03 -0.53183090208E+03 -0.17581606243E+03  0.76348794936E+03  0.81017680810E+02 0.  0.
         13    1    5    5    0    0 -0.21271094211E+02 -0.13943967057E+03 -0.24174458785E+01  0.14107347455E+03  0.00000000000E+00 0. -1.
        -14    1    5    5    0    0 -0.83185867060E+02 -0.37734978664E+03 -0.12533142438E+03  0.40622741893E+03  0.00000000000E+00 0.  1.
         13    1    3    3    0    0 -0.27700643476E+03  0.77783402502E+03  0.42382593321E+03  0.92810923766E+03  0.00000000000E+00 0. -1.
        -14    1    3    3    0    0 -0.13097644237E+03  0.27078633427E+03  0.11677287665E+03  0.32267006680E+03  0.00000000000E+00 0.  1.
          2    1    6    6  502    0  0.28598887604E+03 -0.29580055057E+03 -0.56476875002E+02  0.41530379284E+03  0.00000000000E+00 0. -1.
         -1    1    6    6    0  502  0.22645096236E+03 -0.23603035151E+03 -0.11933918743E+03  0.34818415652E+03  0.00000000000E+00 0.  1.
<mgrwt>
<rscale>  0 0.11962440E+04</rscale>
<asrwt>0</asrwt>
<pdfrwt beam="1">  1        1 0.17881033E+00 0.11962440E+04</pdfrwt>
<pdfrwt beam="2">  1       -2 0.21527708E+00 0.11962440E+04</pdfrwt>
<totfact> 0.10316257E+00</totfact>
</mgrwt>
</event>
<event>
12    3  0.2422421E-007  0.8196048E+03  0.7818608E-02  0.9532066E-01
         -2   -1    0    0    0  501 -0.00000000000E+00  0.00000000000E+00  0.40507753810E+03  0.40507753810E+03  0.00000000000E+00 0.  1.
          1   -1    0    0  501    0  0.00000000000E+00 -0.00000000000E+00 -0.17934659972E+04  0.17934659972E+04  0.00000000000E+00 0. -1.
        -24    2    1    2    0    0  0.69564144984E+03  0.26068997628E+03 -0.55149889307E+03  0.92877740748E+03  0.81241326440E+02 0.  0.
    5000000    2    1    2    0    0 -0.69564144984E+03 -0.26068997628E+03 -0.83688956600E+03  0.12697661278E+04  0.60003798472E+03 0.  0.
        -24    2    4    4    0    0 -0.11068650736E+03 -0.27207644489E+03 -0.51135200891E+03  0.59545661372E+03  0.82526402034E+02 0.  0.
         24    2    4    4    0    0 -0.58495494248E+03  0.11386468603E+02 -0.32553755709E+03  0.67430951406E+03  0.80104202612E+02 0.  0.
         13    1    5    5    0    0 -0.85712450664E+02 -0.10240524598E+03 -0.22980399215E+03  0.26578813632E+03  0.00000000000E+00 0. -1.
        -14    1    5    5    0    0 -0.24974056699E+02 -0.16967119891E+03 -0.28154801676E+03  0.32966847740E+03  0.00000000000E+00 0.  1.
         13    1    3    3    0    0  0.62563279156E+03  0.25425009234E+03 -0.48018482475E+03  0.82863560462E+03  0.00000000000E+00 0. -1.
        -14    1    3    3    0    0  0.70008658286E+02  0.64398839406E+01 -0.71314068318E+02  0.10014180286E+03  0.00000000000E+00 0.  1.
          4    1    6    6  502    0 -0.14061109602E+03  0.30131654282E+02 -0.56353664479E+02  0.15445106802E+03  0.00000000000E+00 0. -1.
         -3    1    6    6    0  502 -0.44434384646E+03 -0.18745185678E+02 -0.26918389261E+03  0.51985844604E+03  0.00000000000E+00 0.  1.
<mgrwt>
<rscale>  0 0.81960485E+03</rscale>
<asrwt>0</asrwt>
<pdfrwt beam="1">  1        1 0.27591784E+00 0.81960485E+03</pdfrwt>
<pdfrwt beam="2">  1       -2 0.62319622E-01 0.81960485E+03</pdfrwt>
<totfact> 0.88746863E+00</totfact>
</mgrwt>
</event>
<event>
12    3  0.2422421E-007  0.5543396E+03  0.7818608E-02  0.1000494E+00
          1   -1    0    0  501    0  0.00000000000E+00  0.00000000000E+00  0.40015494646E+04  0.40015494646E+04  0.00000000000E+00 0. -1.
         -2   -1    0    0    0  501 -0.00000000000E+00 -0.00000000000E+00 -0.97705486942E+02  0.97705486942E+02  0.00000000000E+00 0.  1.
        -24    2    1    2    0    0  0.36862868443E+03 -0.27924011184E+03  0.11229126664E+04  0.12169916826E+04  0.79207021575E+02 0.  0.
    5000000    2    1    2    0    0 -0.36862868443E+03  0.27924011184E+03  0.27809313113E+04  0.28822632689E+04  0.60000037178E+03 0.  0.
        -24    2    4    4    0    0 -0.25141488399E+03  0.38470193847E+03  0.25350809132E+04  0.25776630138E+04  0.80661953789E+02 0.  0.
         24    2    4    4    0    0 -0.11721380045E+03 -0.10546182664E+03  0.24585039810E+03  0.30460025514E+03  0.86473263446E+02 0.  0.
         13    1    3    3    0    0  0.15109001890E+03 -0.12170442823E+03  0.57376656446E+03  0.60567997503E+03  0.00000000000E+00 0. -1.
        -14    1    3    3    0    0  0.21753866553E+03 -0.15753568361E+03  0.54914610190E+03  0.61131170759E+03  0.00000000000E+00 0.  1.
         13    1    5    5    0    0 -0.61005482761E+02  0.16434389060E+03  0.97377092839E+03  0.98942427920E+03  0.00000000000E+00 0. -1.
        -14    1    5    5    0    0 -0.19040940123E+03  0.22035804787E+03  0.15613099848E+04  0.15882387346E+04  0.00000000000E+00 0.  1.
          4    1    6    6  502    0  0.26486397456E+01 -0.45406890811E+02  0.55069088152E+02  0.71424124045E+02  0.00000000000E+00 0. -1.
         -3    1    6    6    0  502 -0.11986244019E+03 -0.60054935825E+02  0.19078130995E+03  0.23317613109E+03  0.00000000000E+00 0.  1.
<mgrwt>
<rscale>  0 0.55433962E+03</rscale>
<asrwt>0</asrwt>
<pdfrwt beam="1">  1        1 0.61562287E+00 0.55433962E+03</pdfrwt>
<pdfrwt beam="2">  1       -2 0.15031616E-01 0.55433962E+03</pdfrwt>
<totfact> 0.33720088E+00</totfact>
</mgrwt>
</event>
<event>
12    3  0.2422421E-007  0.4754968E+03  0.7818608E-02  0.1020380E+00
         -2   -1    0    0    0  501 -0.00000000000E+00  0.00000000000E+00  0.22018251427E+04  0.22018251427E+04  0.00000000000E+00 0.  1.
          1   -1    0    0  501    0  0.00000000000E+00 -0.00000000000E+00 -0.11304884004E+03  0.11304884004E+03  0.00000000000E+00 0. -1.
        -24    2    1    2    0    0 -0.46228125092E+02 -0.30781846282E+03  0.64032933583E+03  0.71640219725E+03  0.79506001633E+02 0.  0.
    5000000    2    1    2    0    0  0.46228125092E+02  0.30781846282E+03  0.14484469668E+04  0.15984717855E+04  0.60018679400E+03 0.  0.
        -24    2    4    4    0    0 -0.10199878425E+03 -0.13129160669E+03  0.25309219865E+03  0.31391847586E+03  0.82752102655E+02 0.  0.
         24    2    4    4    0    0  0.14822690934E+03  0.43911006951E+03  0.11953547682E+04  0.12845533096E+04  0.80095653269E+02 0.  0.
         11    1    5    5    0    0 -0.51286905220E+02 -0.51248877361E+02  0.45170473441E+02  0.85423449642E+02  0.00000000000E+00 0. -1.
        -12    1    5    5    0    0 -0.50711879027E+02 -0.80042729333E+02  0.20792172521E+03  0.22849502622E+03  0.00000000000E+00 0.  1.
         13    1    3    3    0    0 -0.65057917668E+02 -0.18825247284E+03  0.42581018540E+03  0.47009131046E+03  0.00000000000E+00 0. -1.
        -14    1    3    3    0    0  0.18829792575E+02 -0.11956598998E+03  0.21451915043E+03  0.24631088678E+03  0.00000000000E+00 0.  1.
          4    1    6    6  502    0  0.56239960960E+02  0.17849860581E+03  0.59282739649E+03  0.62166631525E+03  0.00000000000E+00 0. -1.
         -3    1    6    6    0  502  0.91986948379E+02  0.26061146371E+03  0.60252737169E+03  0.66288699438E+03  0.00000000000E+00 0.  1.
<mgrwt>
<rscale>  0 0.47549682E+03</rscale>
<asrwt>0</asrwt>
<pdfrwt beam="1">  1        1 0.17392131E-01 0.47549682E+03</pdfrwt>
<pdfrwt beam="2">  1       -2 0.33874230E+00 0.47549682E+03</pdfrwt>
<totfact> 0.55261901E+00</totfact>
</mgrwt>
</event>
<event>
12    3  0.2422421E-007  0.6847535E+03  0.7818608E-02  0.9743667E-01
         -2   -1    0    0    0  501 -0.00000000000E+00  0.00000000000E+00  0.42195349146E+03  0.42195349146E+03  0.00000000000E+00 0.  1.
          1   -1    0    0  501    0  0.00000000000E+00 -0.00000000000E+00 -0.17716012324E+04  0.17716012324E+04  0.00000000000E+00 0. -1.
        -24    2    1    2    0    0 -0.48493630211E+03 -0.32001469512E+03 -0.12129204613E+04  0.13472299234E+04  0.79245181812E+02 0.  0.
    5000000    2    1    2    0    0  0.48493630211E+03  0.32001469512E+03 -0.13672727967E+03  0.84632480049E+03  0.59999891393E+03 0.  0.
        -24    2    4    4    0    0 -0.10776961738E+03  0.99929351418E+02 -0.12473270152E+03  0.20889462512E+03  0.80489451926E+02 0.  0.
         24    2    4    4    0    0  0.59270591950E+03  0.22008534371E+03 -0.11994578153E+02  0.63743017537E+03  0.80221524806E+02 0.  0.
         13    1    5    5    0    0 -0.74300515054E+02  0.90767187676E+02 -0.52001996194E+02  0.12831000157E+03  0.00000000000E+00 0. -1.
        -14    1    5    5    0    0 -0.33469102329E+02  0.91621637415E+01 -0.72730705328E+02  0.80584623550E+02  0.00000000000E+00 0.  1.
         13    1    3    3    0    0 -0.92598888890E+02 -0.84982526351E+02 -0.32474560366E+03  0.34821874032E+03  0.00000000000E+00 0. -1.
        -14    1    3    3    0    0 -0.39233741322E+03 -0.23503216877E+03 -0.88817485763E+03  0.99901118307E+03  0.00000000000E+00 0.  1.
          2    1    6    6  502    0  0.20771289257E+03  0.10440287934E+03  0.24587177197E+02  0.23377154711E+03  0.00000000000E+00 0. -1.
         -1    1    6    6    0  502  0.38499302692E+03  0.11568246437E+03 -0.36581755349E+02  0.40365862826E+03  0.00000000000E+00 0.  1.
<mgrwt>
<rscale>  0 0.68475354E+03</rscale>
<asrwt>0</asrwt>
<pdfrwt beam="1">  1        1 0.27255403E+00 0.68475354E+03</pdfrwt>
<pdfrwt beam="2">  1       -2 0.64915922E-01 0.68475354E+03</pdfrwt>
<totfact> 0.85778708E+00</totfact>
</mgrwt>
</event>
<event>
12    3  0.2422421E-007  0.4358968E+03  0.7818608E-02  0.1032013E+00
         -2   -1    0    0    0  501 -0.00000000000E+00  0.00000000000E+00  0.12559021894E+04  0.12559021894E+04  0.00000000000E+00 0.  1.
          1   -1    0    0  501    0  0.00000000000E+00 -0.00000000000E+00 -0.32393288690E+03  0.32393288690E+03  0.00000000000E+00 0. -1.
        -24    2    1    2    0    0  0.10182910787E+03  0.20921175943E+03  0.90270660116E+03  0.93561720756E+03  0.79759788196E+02 0.  0.
    5000000    2    1    2    0    0 -0.10182910787E+03 -0.20921175943E+03  0.29262701355E+02  0.64421786874E+03  0.60001802409E+03 0.  0.
        -24    2    4    4    0    0 -0.29028798062E+03  0.57150431799E+02  0.12384804914E+02  0.30798905033E+03  0.84679325573E+02 0.  0.
         24    2    4    4    0    0  0.18845887276E+03 -0.26636219123E+03  0.16877896441E+02  0.33622881842E+03  0.79368704852E+02 0.  0.
         13    1    5    5    0    0 -0.96189017616E+02  0.12114925118E+01  0.39864359193E+02  0.10412954412E+03  0.00000000000E+00 0. -1.
        -14    1    5    5    0    0 -0.19409896301E+03  0.55938939287E+02 -0.27479554279E+02  0.20385950621E+03  0.00000000000E+00 0.  1.
         13    1    3    3    0    0  0.31681421181E+02  0.12346084711E+03  0.59700104472E+03  0.61045601039E+03  0.00000000000E+00 0. -1.
        -14    1    3    3    0    0  0.70147686684E+02  0.85750912319E+02  0.30570555643E+03  0.32516119717E+03  0.00000000000E+00 0.  1.
          4    1    6    6  502    0  0.14151992762E+02 -0.75727923893E+02  0.11258155261E+02  0.77857198872E+02  0.00000000000E+00 0. -1.
         -3    1    6    6    0  502  0.17430688000E+03 -0.19063426733E+03  0.56197411800E+01  0.25837161955E+03  0.00000000000E+00 0.  1.
<mgrwt>
<rscale>  0 0.43589684E+03</rscale>
<asrwt>0</asrwt>
<pdfrwt beam="1">  1        1 0.49835829E-01 0.43589684E+03</pdfrwt>
<pdfrwt beam="2">  1       -2 0.19321572E+00 0.43589684E+03</pdfrwt>
<totfact> 0.10863481E+01</totfact>
</mgrwt>
</event>
<event>
12    3  0.2422421E-007  0.1319200E+04  0.7818608E-02  0.9014477E-01
          1   -1    0    0  501    0  0.00000000000E+00  0.00000000000E+00  0.57934700888E+03  0.57934700888E+03  0.00000000000E+00 0. -1.
         -2   -1    0    0    0  501 -0.00000000000E+00 -0.00000000000E+00 -0.34639982145E+04  0.34639982145E+04  0.00000000000E+00 0.  1.
        -24    2    1    2    0    0 -0.11490879869E+04 -0.51720703665E+03 -0.68060418620E+03  0.14346146630E+04  0.83611318460E+02 0.  0.
    5000000    2    1    2    0    0  0.11490879869E+04  0.51720703665E+03 -0.22040470194E+04  0.26087305603E+04  0.59978792280E+03 0.  0.
        -24    2    4    4    0    0  0.40656584026E+03 -0.80072331134E+02 -0.87143632626E+03  0.96853796996E+03  0.83409638815E+02 0.  0.
         24    2    4    4    0    0  0.74252214667E+03  0.59727936779E+03 -0.13326106931E+04  0.16401925904E+04  0.79364303292E+02 0.  0.
         11    1    5    5    0    0  0.36054813185E+02 -0.32932845969E+02 -0.11408583295E+03  0.12409713606E+03  0.00000000000E+00 0. -1.
        -12    1    5    5    0    0  0.37051102708E+03 -0.47139485166E+02 -0.75735049331E+03  0.84444083390E+03  0.00000000000E+00 0.  1.
         13    1    3    3    0    0 -0.42728720899E+03 -0.18870259682E+03 -0.20693752717E+03  0.51088762870E+03  0.00000000000E+00 0. -1.
        -14    1    3    3    0    0 -0.72180077794E+03 -0.32850443983E+03 -0.47366665903E+03  0.92372703430E+03  0.00000000000E+00 0.  1.
          4    1    6    6  502    0  0.50223127316E+03  0.44826515169E+03 -0.95709761050E+03  0.11701340667E+04  0.00000000000E+00 0. -1.
         -3    1    6    6    0  502  0.24029087351E+03  0.14901421609E+03 -0.37551308261E+03  0.47005852370E+03  0.00000000000E+00 0.  1.
<mgrwt>
<rscale>  0 0.13191998E+04</rscale>
<asrwt>0</asrwt>
<pdfrwt beam="1">  1        1 0.89130308E-01 0.13191998E+04</pdfrwt>
<pdfrwt beam="2">  1       -2 0.53292281E+00 0.13191998E+04</pdfrwt>
<totfact> 0.31991082E-02</totfact>
</mgrwt>
</event>
<event>
12    3  0.2422421E-007  0.6068830E+03  0.7818608E-02  0.9891228E-01
         -2   -1    0    0    0  501 -0.00000000000E+00  0.00000000000E+00  0.24475273019E+03  0.24475273019E+03  0.00000000000E+00 0.  1.
          1   -1    0    0  501    0  0.00000000000E+00 -0.00000000000E+00 -0.19100521179E+04  0.19100521179E+04  0.00000000000E+00 0. -1.
        -24    2    1    2    0    0 -0.33086507348E+03 -0.40723365988E+03 -0.42276297893E+03  0.67860720799E+03  0.80425467308E+02 0.  0.
    5000000    2    1    2    0    0  0.33086507348E+03  0.40723365988E+03 -0.12425364088E+04  0.14761976401E+04  0.59995982778E+03 0.  0.
        -24    2    4    4    0    0  0.24359733105E+03  0.49479875374E+03 -0.60463250440E+03  0.82196565052E+03  0.76691582665E+02 0.  0.
         24    2    4    4    0    0  0.87267742431E+02 -0.87565093864E+02 -0.63790390440E+03  0.65423198962E+03  0.76254838900E+02 0.  0.
         11    1    3    3    0    0 -0.18009784514E+02 -0.34185518233E+02 -0.60345500827E+02  0.71655993924E+02  0.00000000000E+00 0. -1.
        -12    1    3    3    0    0 -0.31285528897E+03 -0.37304814165E+03 -0.36241747811E+03  0.60695121406E+03  0.00000000000E+00 0.  1.
         13    1    5    5    0    0  0.41125192695E+02  0.15760788729E+03 -0.19505604630E+03  0.25412278294E+03  0.00000000000E+00 0. -1.
        -14    1    5    5    0    0  0.20247213835E+03  0.33719086645E+03 -0.40957645810E+03  0.56784286757E+03  0.00000000000E+00 0.  1.
          4    1    6    6  502    0 -0.31126531431E+01 -0.17306422862E+02 -0.22698781868E+03  0.22766789565E+03  0.00000000000E+00 0. -1.
         -3    1    6    6    0  502  0.90380395574E+02 -0.70258671003E+02 -0.41091608572E+03  0.42656409396E+03  0.00000000000E+00 0.  1.
<mgrwt>
<rscale>  0 0.60688298E+03</rscale>
<asrwt>0</asrwt>
<pdfrwt beam="1">  1        1 0.29385417E+00 0.60688298E+03</pdfrwt>
<pdfrwt beam="2">  1       -2 0.37654267E-01 0.60688298E+03</pdfrwt>
<totfact> 0.21201588E+01</totfact>
</mgrwt>
</event>
<event>
12    3  0.2422421E-007  0.4144165E+03  0.7818608E-02  0.1038899E+00
         -2   -1    0    0    0  501 -0.00000000000E+00  0.00000000000E+00  0.11681034004E+03  0.11681034004E+03  0.00000000000E+00 0.  1.
          1   -1    0    0  501    0  0.00000000000E+00 -0.00000000000E+00 -0.15737164805E+04  0.15737164805E+04  0.00000000000E+00 0. -1.
        -24    2    1    2    0    0  0.68592064020E+02  0.19603709302E+03 -0.39665372066E+03  0.45461436410E+03  0.78769491801E+02 0.  0.
    5000000    2    1    2    0    0 -0.68592064020E+02 -0.19603709302E+03 -0.10602524198E+04  0.12359124564E+04  0.60017413576E+03 0.  0.
        -24    2    4    4    0    0 -0.11942354690E+01 -0.38776712939E+03 -0.82010675999E+03  0.91057326837E+03  0.78764245966E+02 0.  0.
         24    2    4    4    0    0 -0.67397828551E+02  0.19173003637E+03 -0.24014565976E+03  0.32533918804E+03  0.82902202846E+02 0.  0.
         11    1    5    5    0    0 -0.14193683603E+01 -0.20618743342E+03 -0.34461487450E+03  0.40159019414E+03  0.00000000000E+00 0. -1.
        -12    1    5    5    0    0  0.22513289129E+00 -0.18157969597E+03 -0.47549188550E+03  0.50898307422E+03  0.00000000000E+00 0.  1.
         13    1    3    3    0    0  0.10833546005E+02  0.14390405411E+03 -0.25585022557E+03  0.29374322194E+03  0.00000000000E+00 0. -1.
        -14    1    3    3    0    0  0.57758518015E+02  0.52133038910E+02 -0.14080349509E+03  0.16087114216E+03  0.00000000000E+00 0.  1.
          4    1    6    6  502    0  0.16921727794E+02  0.61605715250E+02 -0.80761841026E+02  0.10297613310E+03  0.00000000000E+00 0. -1.
         -3    1    6    6    0  502 -0.84319556344E+02  0.13012432112E+03 -0.15938381873E+03  0.22236305494E+03  0.00000000000E+00 0.  1.
<mgrwt>
<rscale>  0 0.41441647E+03</rscale>
<asrwt>0</asrwt>
<pdfrwt beam="1">  1        1 0.24211020E+00 0.41441647E+03</pdfrwt>
<pdfrwt beam="2">  1       -2 0.17970824E-01 0.41441647E+03</pdfrwt>
<totfact> 0.13925223E+02</totfact>
</mgrwt>
</event>
<event>
12    3  0.2422421E-007  0.3303475E+03  0.7818608E-02  0.1070983E+00
         -2   -1    0    0    0  501 -0.00000000000E+00  0.00000000000E+00  0.91210527416E+03  0.91210527416E+03  0.00000000000E+00 0.  1.
          1   -1    0    0  501    0  0.00000000000E+00 -0.00000000000E+00 -0.27632174480E+03  0.27632174480E+03  0.00000000000E+00 0. -1.
        -24    2    1    2    0    0  0.14224916949E+03  0.15880987383E+03  0.48242033367E+03  0.53357355479E+03  0.80721482795E+02 0.  0.
    5000000    2    1    2    0    0 -0.14224916949E+03 -0.15880987383E+03  0.15336319570E+03  0.65485346418E+03  0.59988114448E+03 0.  0.
        -24    2    4    4    0    0  0.28003529254E+02 -0.22290244249E+03  0.31540095849E+03  0.39465726693E+03  0.76202999995E+02 0.  0.
         24    2    4    4    0    0 -0.17025269874E+03  0.64092568655E+02 -0.16203776279E+03  0.26019619725E+03  0.91389199078E+02 0.  0.
         11    1    3    3    0    0  0.44868288837E+02  0.10505658219E+03  0.20492592664E+03  0.23461603571E+03  0.00000000000E+00 0. -1.
        -12    1    3    3    0    0  0.97380880648E+02  0.53753291643E+02  0.27749440703E+03  0.29895751907E+03  0.00000000000E+00 0.  1.
         11    1    5    5    0    0  0.37101863635E+02 -0.46599012724E+02  0.96998072601E+02  0.11382724788E+03  0.00000000000E+00 0. -1.
        -12    1    5    5    0    0 -0.90983343818E+01 -0.17630342976E+03  0.21840288588E+03  0.28083001905E+03  0.00000000000E+00 0.  1.
          2    1    6    6  502    0 -0.15090630649E+02  0.39165094470E+02 -0.13856177831E+02  0.44199835094E+02  0.00000000000E+00 0. -1.
         -1    1    6    6    0  502 -0.15516206809E+03  0.24927474184E+02 -0.14818158496E+03  0.21599636215E+03  0.00000000000E+00 0.  1.
<mgrwt>
<rscale>  0 0.33034753E+03</rscale>
<asrwt>0</asrwt>
<pdfrwt beam="1">  1        1 0.42511038E-01 0.33034753E+03</pdfrwt>
<pdfrwt beam="2">  1       -2 0.14032389E+00 0.33034753E+03</pdfrwt>
<totfact> 0.32180464E+01</totfact>
</mgrwt>
</event>
<event>
12    3  0.2422421E-007  0.4097198E+03  0.7818608E-02  0.1040465E+00
         -2   -1    0    0    0  501 -0.00000000000E+00  0.00000000000E+00  0.71867930968E+02  0.71867930968E+02  0.00000000000E+00 0.  1.
          1   -1    0    0  501    0  0.00000000000E+00 -0.00000000000E+00 -0.35314726315E+04  0.35314726315E+04  0.00000000000E+00 0. -1.
        -24    2    1    2    0    0 -0.26342094320E+03 -0.12995469309E+03 -0.15818162535E+04  0.16101359369E+04  0.64158083689E+02 0.  0.
    5000000    2    1    2    0    0  0.26342094320E+03  0.12995469309E+03 -0.18777884470E+04  0.19932046256E+04  0.60041353434E+03 0.  0.
        -24    2    4    4    0    0 -0.31086674113E+01  0.23090174056E+03 -0.14671685856E+04  0.14869192235E+04  0.70850837048E+02 0.  0.
         24    2    4    4    0    0  0.26652961061E+03 -0.10094704747E+03 -0.41061986142E+03  0.50628540209E+03  0.80547489387E+02 0.  0.
         11    1    3    3    0    0 -0.16833385329E+03 -0.65874515814E+02 -0.11076096824E+04  0.11222633143E+04  0.00000000000E+00 0. -1.
        -12    1    3    3    0    0 -0.95087089913E+02 -0.64080177274E+02 -0.47420657113E+03  0.48787262261E+03  0.00000000000E+00 0.  1.
         11    1    5    5    0    0 -0.10119900164E+02  0.45822419038E+02 -0.16149498405E+03  0.16817471967E+03  0.00000000000E+00 0. -1.
        -12    1    5    5    0    0  0.70112327527E+01  0.18507932152E+03 -0.13056736015E+04  0.13187445038E+04  0.00000000000E+00 0.  1.
          4    1    6    6  502    0  0.50069866701E+02 -0.47267119403E+02 -0.63309620318E+02  0.93537586845E+02  0.00000000000E+00 0. -1.
         -3    1    6    6    0  502  0.21645974391E+03 -0.53679928071E+02 -0.34731024110E+03  0.41274781524E+03  0.00000000000E+00 0.  1.
<mgrwt>
<rscale>  0 0.40971981E+03</rscale>
<asrwt>0</asrwt>
<pdfrwt beam="1">  1        1 0.54330353E+00 0.40971981E+03</pdfrwt>
<pdfrwt beam="2">  1       -2 0.11056604E-01 0.40971981E+03</pdfrwt>
<totfact> 0.14021485E+01</totfact>
</mgrwt>
</event>
<event>
12    3  0.2422421E-007  0.5283181E+03  0.7818608E-02  0.1006641E+00
         -2   -1    0    0    0  501 -0.00000000000E+00  0.00000000000E+00  0.27847107571E+03  0.27847107571E+03  0.00000000000E+00 0.  1.
          1   -1    0    0  501    0  0.00000000000E+00 -0.00000000000E+00 -0.19439121108E+04  0.19439121108E+04  0.00000000000E+00 0. -1.
        -24    2    1    2    0    0  0.35708946980E+03  0.60488021017E+02 -0.14385598374E+04  0.14855766061E+04  0.79446564709E+02 0.  0.
    5000000    2    1    2    0    0 -0.35708946980E+03 -0.60488021017E+02 -0.22688119760E+03  0.73680658033E+03  0.60019760818E+03 0.  0.
        -24    2    4    4    0    0 -0.43656770915E+03  0.14398408947E+03 -0.17033069865E+03  0.49667332275E+03  0.79680988510E+02 0.  0.
         24    2    4    4    0    0  0.79478239354E+02 -0.20447211049E+03 -0.56550498956E+02  0.24013325759E+03  0.79626553166E+02 0.  0.
         11    1    3    3    0    0  0.29412069493E+03  0.63054521707E+02 -0.12818181922E+04  0.13166399408E+04  0.00000000000E+00 0. -1.
        -12    1    3    3    0    0  0.62968774871E+02 -0.25665006894E+01 -0.15674164528E+03  0.16893666535E+03  0.00000000000E+00 0.  1.
         11    1    5    5    0    0 -0.20294716823E+03  0.56955431149E+02 -0.11927787628E+03  0.24219555323E+03  0.00000000000E+00 0. -1.
        -12    1    5    5    0    0 -0.23362054092E+03  0.87028658321E+02 -0.51052822363E+02  0.25447776952E+03  0.00000000000E+00 0.  1.
          2    1    6    6  502    0 -0.10241208297E+02 -0.71998661752E+02 -0.26100032722E+02  0.77265136701E+02  0.00000000000E+00 0. -1.
         -1    1    6    6    0  502  0.89719447652E+02 -0.13247344874E+03 -0.30450466235E+02  0.16286812089E+03  0.00000000000E+00 0.  1.
<mgrwt>
<rscale>  0 0.52831811E+03</rscale>
<asrwt>0</asrwt>
<pdfrwt beam="1">  1        1 0.29906340E+00 0.52831811E+03</pdfrwt>
<pdfrwt beam="2">  1       -2 0.42841704E-01 0.52831811E+03</pdfrwt>
<totfact> 0.15889468E+01</totfact>
</mgrwt>
</event>
<event>
12    3  0.2422421E-007  0.5470415E+03  0.7818608E-02  0.1002181E+00
          1   -1    0    0  501    0  0.00000000000E+00  0.00000000000E+00  0.18670733366E+04  0.18670733366E+04  0.00000000000E+00 0. -1.
         -2   -1    0    0    0  501 -0.00000000000E+00 -0.00000000000E+00 -0.21105050652E+03  0.21105050652E+03  0.00000000000E+00 0.  1.
        -24    2    1    2    0    0  0.20131587029E+03 -0.40722213754E+03  0.90048357589E+03  0.10117396165E+04  0.79927668022E+02 0.  0.
    5000000    2    1    2    0    0 -0.20131587029E+03  0.40722213754E+03  0.75553925418E+03  0.10663842266E+04  0.59998150413E+03 0.  0.
        -24    2    4    4    0    0  0.29889106216E+02 -0.83462496206E+02  0.38822416012E+03  0.40645656193E+03  0.81422302161E+02 0.  0.
         24    2    4    4    0    0 -0.23120497651E+03  0.49068463375E+03  0.36731509406E+03  0.65992766472E+03  0.79730755556E+02 0.  0.
         11    1    3    3    0    0  0.79952216664E+02 -0.22294664407E+03  0.53021661229E+03  0.58071268197E+03  0.00000000000E+00 0. -1.
        -12    1    3    3    0    0  0.12136365362E+03 -0.18427549348E+03  0.37026696360E+03  0.43102693449E+03  0.00000000000E+00 0.  1.
         13    1    5    5    0    0  0.29904772666E+02 -0.73320779632E+02  0.38832310304E+03  0.39631435062E+03  0.00000000000E+00 0. -1.
        -14    1    5    5    0    0 -0.15666449504E-01 -0.10141716574E+02 -0.98942917451E-01  0.10142211308E+02  0.00000000000E+00 0.  1.
          2    1    6    6  502    0 -0.50431292079E+02  0.18848524118E+03  0.11207829443E+03  0.22501454496E+03  0.00000000000E+00 0. -1.
         -1    1    6    6    0  502 -0.18077368443E+03  0.30219939257E+03  0.25523679963E+03  0.43491311976E+03  0.00000000000E+00 0.  1.
<mgrwt>
<rscale>  0 0.54704148E+03</rscale>
<asrwt>0</asrwt>
<pdfrwt beam="1">  1        1 0.28724204E+00 0.54704148E+03</pdfrwt>
<pdfrwt beam="2">  1       -2 0.32469310E-01 0.54704148E+03</pdfrwt>
<totfact> 0.30285456E+01</totfact>
</mgrwt>
</event>
<event>
12    3  0.2422421E-007  0.9973509E+03  0.7818608E-02  0.9311455E-01
         -2   -1    0    0    0  501 -0.00000000000E+00  0.00000000000E+00  0.98807653730E+03  0.98807653730E+03  0.00000000000E+00 0.  1.
          1   -1    0    0  501    0  0.00000000000E+00 -0.00000000000E+00 -0.11600193080E+04  0.11600193080E+04  0.00000000000E+00 0. -1.
        -24    2    1    2    0    0  0.82654327015E+03  0.51451851028E+03  0.68322433161E+02  0.97950951710E+03  0.82872579059E+02 0.  0.
    5000000    2    1    2    0    0 -0.82654327015E+03 -0.51451851028E+03 -0.24026520384E+03  0.11685863282E+04  0.59996963539E+03 0.  0.
        -24    2    4    4    0    0 -0.72233913860E+03 -0.50762516383E+03  0.88147888262E+01  0.88694973864E+03  0.84528103400E+02 0.  0.
         24    2    4    4    0    0 -0.10420413155E+03 -0.68933464542E+01 -0.24907999266E+03  0.28163658954E+03  0.79826728402E+02 0.  0.
         11    1    3    3    0    0  0.53465097271E+03  0.28598994434E+03  0.48415160490E+02  0.60826469456E+03  0.00000000000E+00 0. -1.
        -12    1    3    3    0    0  0.29189229744E+03  0.22852856594E+03  0.19907272671E+02  0.37124482254E+03  0.00000000000E+00 0.  1.
         13    1    5    5    0    0 -0.20519567594E+03 -0.18960630718E+03  0.15442090361E+02  0.27981114221E+03  0.00000000000E+00 0. -1.
        -14    1    5    5    0    0 -0.51714346266E+03 -0.31801885665E+03 -0.66273015344E+01  0.60713859644E+03  0.00000000000E+00 0.  1.
          2    1    6    6  502    0  0.16016394587E+01  0.21548048228E+02 -0.34583251936E+02  0.40778486311E+02  0.00000000000E+00 0. -1.
         -1    1    6    6    0  502 -0.10580577101E+03 -0.28441394682E+02 -0.21449674073E+03  0.24085810323E+03  0.00000000000E+00 0.  1.
<mgrwt>
<rscale>  0 0.99735094E+03</rscale>
<asrwt>0</asrwt>
<pdfrwt beam="1">  1        1 0.17846451E+00 0.99735094E+03</pdfrwt>
<pdfrwt beam="2">  1       -2 0.15201178E+00 0.99735094E+03</pdfrwt>
<totfact> 0.28898041E+00</totfact>
</mgrwt>
</event>
<event>
12    3  0.2422421E-007  0.9617657E+03  0.7818608E-02  0.9351503E-01
         -2   -1    0    0    0  501 -0.00000000000E+00  0.00000000000E+00  0.11150735685E+04  0.11150735685E+04  0.00000000000E+00 0.  1.
          1   -1    0    0  501    0  0.00000000000E+00 -0.00000000000E+00 -0.13464917493E+04  0.13464917493E+04  0.00000000000E+00 0. -1.
        -24    2    1    2    0    0 -0.76800398880E+03  0.57125084736E+03  0.53215989680E+03  0.10980450197E+04  0.79693488239E+02 0.  0.
    5000000    2    1    2    0    0  0.76800398880E+03 -0.57125084736E+03 -0.76357807763E+03  0.13635202982E+04  0.59998205424E+03 0.  0.
        -24    2    4    4    0    0  0.29859213937E+03 -0.15077915979E+03 -0.62501065662E+03  0.71336923379E+03  0.79785475550E+02 0.  0.
         24    2    4    4    0    0  0.46941184943E+03 -0.42047168757E+03 -0.13856742102E+03  0.65015106437E+03  0.79696624118E+02 0.  0.
         11    1    5    5    0    0  0.21922689468E+03 -0.10053171396E+03 -0.51524283849E+03  0.56889563145E+03  0.00000000000E+00 0. -1.
        -12    1    5    5    0    0  0.79365244686E+02 -0.50247445833E+02 -0.10976781813E+03  0.14447360234E+03  0.00000000000E+00 0.  1.
         11    1    3    3    0    0 -0.64211125441E+03  0.48356193949E+03  0.47872677743E+03  0.93558449099E+03  0.00000000000E+00 0. -1.
        -12    1    3    3    0    0 -0.12589273439E+03  0.87688907874E+02  0.53433119367E+02  0.16246052869E+03  0.00000000000E+00 0.  1.
          4    1    6    6  502    0  0.44548231528E+03 -0.38752567262E+03 -0.11051233373E+03  0.60070260202E+03  0.00000000000E+00 0. -1.
         -3    1    6    6    0  502  0.23929534149E+02 -0.32946014948E+02 -0.28055087287E+02  0.49448462344E+02  0.00000000000E+00 0.  1.
<mgrwt>
<rscale>  0 0.96176568E+03</rscale>
<asrwt>0</asrwt>
<pdfrwt beam="1">  1        1 0.20715258E+00 0.96176568E+03</pdfrwt>
<pdfrwt beam="2">  1       -2 0.17154978E+00 0.96176568E+03</pdfrwt>
<totfact> 0.15306554E+00</totfact>
</mgrwt>
</event>
<event>
12    3  0.2422421E-007  0.8366160E+03  0.7818608E-02  0.9508479E-01
         -2   -1    0    0    0  501 -0.00000000000E+00  0.00000000000E+00  0.38094769933E+03  0.38094769933E+03  0.00000000000E+00 0.  1.
          1   -1    0    0  501    0  0.00000000000E+00 -0.00000000000E+00 -0.21696496163E+04  0.21696496163E+04  0.00000000000E+00 0. -1.
        -24    2    1    2    0    0 -0.30329090464E+03  0.68228174150E+03 -0.36556574396E+03  0.83512328769E+03  0.79365262348E+02 0.  0.
    5000000    2    1    2    0    0  0.30329090464E+03 -0.68228174150E+03 -0.14231361731E+04  0.17154740280E+04  0.60003402070E+03 0.  0.
        -24    2    4    4    0    0 -0.15975020972E+03 -0.18819839130E+03 -0.26178510283E+03  0.36880050981E+03  0.80892595353E+02 0.  0.
         24    2    4    4    0    0  0.46304111436E+03 -0.49408335020E+03 -0.11613510702E+04  0.13466735182E+04  0.79169600771E+02 0.  0.
         11    1    5    5    0    0 -0.10153043331E+03 -0.97088236799E+02 -0.93417911948E+02  0.16870524854E+03  0.00000000000E+00 0. -1.
        -12    1    5    5    0    0 -0.58219776409E+02 -0.91110154497E+02 -0.16836719088E+03  0.20009526127E+03  0.00000000000E+00 0.  1.
         13    1    3    3    0    0 -0.12112470572E+03  0.23432897294E+03 -0.91009763510E+02  0.27904128538E+03  0.00000000000E+00 0. -1.
        -14    1    3    3    0    0 -0.18216619892E+03  0.44795276856E+03 -0.27455598045E+03  0.55608200231E+03  0.00000000000E+00 0.  1.
          2    1    6    6  502    0  0.31644429114E+03 -0.34643550098E+03 -0.73038911376E+03  0.86811451043E+03  0.00000000000E+00 0. -1.
         -1    1    6    6    0  502  0.14659682322E+03 -0.14764784922E+03 -0.43096195647E+03  0.47855900773E+03  0.00000000000E+00 0.  1.
<mgrwt>
<rscale>  0 0.83661596E+03</rscale>
<asrwt>0</asrwt>
<pdfrwt beam="1">  1        1 0.33379224E+00 0.83661596E+03</pdfrwt>
<pdfrwt beam="2">  1       -2 0.58607341E-01 0.83661596E+03</pdfrwt>
<totfact> 0.56403322E+00</totfact>
</mgrwt>
</event>
<event>
12    3  0.2422421E-007  0.1407083E+04  0.7818608E-02  0.8948707E-01
         -2   -1    0    0    0  501 -0.00000000000E+00  0.00000000000E+00  0.11246545858E+04  0.11246545858E+04  0.00000000000E+00 0.  1.
          1   -1    0    0  501    0  0.00000000000E+00 -0.00000000000E+00 -0.20537338781E+04  0.20537338781E+04  0.00000000000E+00 0. -1.
        -24    2    1    2    0    0  0.22885040813E+03 -0.13487062383E+04  0.85266833486E+02  0.13727567682E+04  0.76221289700E+02 0.  0.
    5000000    2    1    2    0    0 -0.22885040813E+03  0.13487062383E+04 -0.10143461257E+04  0.18056316958E+04  0.60002227567E+03 0.  0.
        -24    2    4    4    0    0 -0.14655967843E+03  0.13533742410E+04 -0.85857087885E+03  0.16113707352E+04  0.79184068643E+02 0.  0.
         24    2    4    4    0    0 -0.82290729700E+02 -0.46680026687E+01 -0.15577524688E+03  0.19426096054E+03  0.81718044563E+02 0.  0.
         13    1    3    3    0    0  0.16992630637E+03 -0.84246787718E+03  0.27958773280E+02  0.85988881065E+03  0.00000000000E+00 0. -1.
        -14    1    3    3    0    0  0.58924101753E+02 -0.50623836115E+03  0.57308060206E+02  0.51286795750E+03  0.00000000000E+00 0.  1.
         13    1    5    5    0    0 -0.34915535634E+02  0.35464988133E+03 -0.26639024622E+03  0.44492628180E+03  0.00000000000E+00 0. -1.
        -14    1    5    5    0    0 -0.11164414279E+03  0.99872435967E+03 -0.59218063263E+03  0.11664444534E+04  0.00000000000E+00 0.  1.
          4    1    6    6  502    0 -0.26135982676E+02  0.54748573784E+01 -0.12807581893E+03  0.13082996235E+03  0.00000000000E+00 0. -1.
         -3    1    6    6    0  502 -0.56154747024E+02 -0.10142860047E+02 -0.27699427953E+02  0.63430998197E+02  0.00000000000E+00 0.  1.
<mgrwt>
<rscale>  0 0.14070833E+04</rscale>
<asrwt>0</asrwt>
<pdfrwt beam="1">  1        1 0.31595906E+00 0.14070833E+04</pdfrwt>
<pdfrwt beam="2">  1       -2 0.17302378E+00 0.14070833E+04</pdfrwt>
<totfact> 0.46469204E-01</totfact>
</mgrwt>
</event>
<event>
12    3  0.2422421E-007  0.6087587E+03  0.7818608E-02  0.9887399E-01
          1   -1    0    0  501    0  0.00000000000E+00  0.00000000000E+00  0.15019941331E+04  0.15019941331E+04  0.00000000000E+00 0. -1.
         -2   -1    0    0    0  501 -0.00000000000E+00 -0.00000000000E+00 -0.64722717219E+03  0.64722717219E+03  0.00000000000E+00 0.  1.
        -24    2    1    2    0    0  0.86981444184E+02  0.50033273281E+03  0.11883349763E+04  0.12953543161E+04  0.88905417335E+02 0.  0.
    5000000    2    1    2    0    0 -0.86981444184E+02 -0.50033273281E+03 -0.33356801534E+03  0.85386698922E+03  0.59993549593E+03 0.  0.
        -24    2    4    4    0    0 -0.25440106966E+03 -0.12866052379E+03 -0.32265424906E+03  0.43795579036E+03  0.80162804662E+02 0.  0.
         24    2    4    4    0    0  0.16741962547E+03 -0.37167220901E+03 -0.10913766276E+02  0.41591119886E+03  0.81813526362E+02 0.  0.
         11    1    5    5    0    0 -0.13677012178E+03 -0.11208536864E+03 -0.20557246793E+03  0.27116274752E+03  0.00000000000E+00 0. -1.
        -12    1    5    5    0    0 -0.11763094788E+03 -0.16575155156E+02 -0.11708178113E+03  0.16679304284E+03  0.00000000000E+00 0.  1.
         13    1    3    3    0    0  0.95941055374E+02  0.34326907435E+03  0.87293874547E+03  0.94289999303E+03  0.00000000000E+00 0. -1.
        -14    1    3    3    0    0 -0.89596111905E+01  0.15706365846E+03  0.31539623082E+03  0.35245432308E+03  0.00000000000E+00 0.  1.
          4    1    6    6  502    0  0.12805854638E+03 -0.26183248984E+03  0.28244947323E+02  0.29283616765E+03  0.00000000000E+00 0. -1.
         -3    1    6    6    0  502  0.39361079090E+02 -0.10983971917E+03 -0.39158713599E+02  0.12307503120E+03  0.00000000000E+00 0.  1.
<mgrwt>
<rscale>  0 0.60875874E+03</rscale>
<asrwt>0</asrwt>
<pdfrwt beam="1">  1        1 0.23107602E+00 0.60875874E+03</pdfrwt>
<pdfrwt beam="2">  1       -2 0.99573412E-01 0.60875874E+03</pdfrwt>
<totfact> 0.50486210E+00</totfact>
</mgrwt>
</event>
<event>
12    3  0.2422421E-007  0.4997033E+03  0.7818608E-02  0.1013856E+00
          1   -1    0    0  501    0  0.00000000000E+00  0.00000000000E+00  0.12916288422E+04  0.12916288422E+04  0.00000000000E+00 0. -1.
         -2   -1    0    0    0  501 -0.00000000000E+00 -0.00000000000E+00 -0.25678051361E+03  0.25678051361E+03  0.00000000000E+00 0.  1.
        -24    2    1    2    0    0  0.27770508546E+03  0.19069705290E+03  0.70452233404E+03  0.78505312154E+03  0.80443794011E+02 0.  0.
    5000000    2    1    2    0    0 -0.27770508546E+03 -0.19069705290E+03  0.33032599453E+03  0.76335623426E+03  0.60009332378E+03 0.  0.
        -24    2    4    4    0    0 -0.42857990736E+03 -0.29651283876E+02  0.29172774676E+03  0.52554534007E+03  0.80826298981E+02 0.  0.
         24    2    4    4    0    0  0.15087482190E+03 -0.16104576902E+03  0.38598247778E+02  0.23781089420E+03  0.79782485941E+02 0.  0.
         11    1    5    5    0    0 -0.29186030621E+03 -0.22411514979E+02  0.15164365625E+03  0.32966727594E+03  0.00000000000E+00 0. -1.
        -12    1    5    5    0    0 -0.13671960116E+03 -0.72397688967E+01  0.14008409051E+03  0.19587806413E+03  0.00000000000E+00 0.  1.
         13    1    3    3    0    0  0.10866826036E+03  0.11326078855E+03  0.37821852959E+03  0.40949487561E+03  0.00000000000E+00 0. -1.
        -14    1    3    3    0    0  0.16903682511E+03  0.77436264346E+02  0.32630380446E+03  0.37555824592E+03  0.00000000000E+00 0.  1.
          2    1    6    6  502    0  0.15178640551E+01 -0.24412332515E+02 -0.14633794890E+02  0.28502874293E+02  0.00000000000E+00 0. -1.
         -1    1    6    6    0  502  0.14935695785E+03 -0.13663343651E+03  0.53232042668E+02  0.20930801990E+03  0.00000000000E+00 0.  1.
<mgrwt>
<rscale>  0 0.49970334E+03</rscale>
<asrwt>0</asrwt>
<pdfrwt beam="1">  1        1 0.19871213E+00 0.49970334E+03</pdfrwt>
<pdfrwt beam="2">  1       -2 0.39504695E-01 0.49970334E+03</pdfrwt>
<totfact> 0.51419910E+01</totfact>
</mgrwt>
</event>
<event>
12    3  0.2422421E-007  0.5400409E+03  0.7818608E-02  0.1003826E+00
          1   -1    0    0  501    0  0.00000000000E+00  0.00000000000E+00  0.13095128868E+04  0.13095128868E+04  0.00000000000E+00 0. -1.
         -2   -1    0    0    0  501 -0.00000000000E+00 -0.00000000000E+00 -0.33826818297E+03  0.33826818297E+03  0.00000000000E+00 0.  1.
        -24    2    1    2    0    0 -0.38445283976E+03  0.29082281472E+03  0.65255393395E+03  0.81484354786E+03  0.75904382102E+02 0.  0.
    5000000    2    1    2    0    0  0.38445283976E+03 -0.29082281472E+03  0.31869076987E+03  0.83293752189E+03  0.59986599588E+03 0.  0.
        -24    2    4    4    0    0  0.16862616548E+02 -0.22107469104E+03  0.37821981904E+03  0.44595454824E+03  0.81650846417E+02 0.  0.
         24    2    4    4    0    0  0.36759022321E+03 -0.69748123683E+02 -0.59529049169E+02  0.38698297366E+03  0.78897029386E+02 0.  0.
         11    1    3    3    0    0 -0.21897790968E+03  0.13744357762E+03  0.39896997485E+03  0.47541466405E+03  0.00000000000E+00 0. -1.
        -12    1    3    3    0    0 -0.16547493008E+03  0.15337923710E+03  0.25358395910E+03  0.33942888382E+03  0.00000000000E+00 0.  1.
         13    1    5    5    0    0  0.90051356436E+01 -0.14701927118E+03  0.17063311185E+03  0.22541388029E+03  0.00000000000E+00 0. -1.
        -14    1    5    5    0    0  0.78574809040E+01 -0.74055419860E+02  0.20758670719E+03  0.22054066795E+03  0.00000000000E+00 0.  1.
          2    1    6    6  502    0  0.20630834886E+03 -0.38436382850E+02 -0.72868003299E+02  0.22214913063E+03  0.00000000000E+00 0. -1.
         -1    1    6    6    0  502  0.16128187436E+03 -0.31311740833E+02  0.13338954130E+02  0.16483384303E+03  0.00000000000E+00 0.  1.
<mgrwt>
<rscale>  0 0.54004092E+03</rscale>
<asrwt>0</asrwt>
<pdfrwt beam="1">  1        1 0.20146352E+00 0.54004092E+03</pdfrwt>
<pdfrwt beam="2">  1       -2 0.52041259E-01 0.54004092E+03</pdfrwt>
<totfact> 0.28725728E+01</totfact>
</mgrwt>
</event>
<event>
12    3  0.2422421E-007  0.8451577E+03  0.7818608E-02  0.9496859E-01
          1   -1    0    0  501    0  0.00000000000E+00  0.00000000000E+00  0.11851270344E+04  0.11851270344E+04  0.00000000000E+00 0. -1.
         -2   -1    0    0    0  501 -0.00000000000E+00 -0.00000000000E+00 -0.12861391141E+04  0.12861391141E+04  0.00000000000E+00 0.  1.
        -24    2    1    2    0    0  0.15575518775E+03 -0.75069675879E+03  0.82387468491E+03  0.11282712088E+04  0.80131903339E+02 0.  0.
    5000000    2    1    2    0    0 -0.15575518775E+03  0.75069675879E+03 -0.92488676461E+03  0.13429949398E+04  0.60034538287E+03 0.  0.
        -24    2    4    4    0    0 -0.25615969606E+03  0.75271387698E+03 -0.91476885999E+03  0.12146290788E+04  0.79534655115E+02 0.  0.
         24    2    4    4    0    0  0.10040450831E+03 -0.20171181980E+01 -0.10117904618E+02  0.12836586097E+03  0.79311337228E+02 0.  0.
         11    1    3    3    0    0  0.72705672630E+02 -0.48290526867E+03  0.56320785682E+03  0.74544396390E+03  0.00000000000E+00 0. -1.
        -12    1    3    3    0    0  0.83049515116E+02 -0.26779149012E+03  0.26066682809E+03  0.38282724486E+03  0.00000000000E+00 0.  1.
         11    1    5    5    0    0 -0.18979662490E+02  0.18878621415E+02 -0.43395279002E+02  0.50988039524E+02  0.00000000000E+00 0. -1.
        -12    1    5    5    0    0 -0.23718003357E+03  0.73383525557E+03 -0.87137358099E+03  0.11636410393E+04  0.00000000000E+00 0.  1.
          4    1    6    6  502    0  0.69738487202E+01 -0.26191336356E+02 -0.16356793177E+02  0.31656995263E+02  0.00000000000E+00 0. -1.
         -3    1    6    6    0  502  0.93430659593E+02  0.24174218158E+02  0.62388885583E+01  0.96708865705E+02  0.00000000000E+00 0.  1.
<mgrwt>
<rscale>  0 0.84515767E+03</rscale>
<asrwt>0</asrwt>
<pdfrwt beam="1">  1        1 0.18232724E+00 0.84515767E+03</pdfrwt>
<pdfrwt beam="2">  1       -2 0.19786755E+00 0.84515767E+03</pdfrwt>
<totfact> 0.13448883E+00</totfact>
</mgrwt>
</event>
<event>
12    3  0.2422421E-007  0.5774323E+03  0.7818608E-02  0.9953365E-01
         -2   -1    0    0    0  501 -0.00000000000E+00  0.00000000000E+00  0.45543779580E+03  0.45543779580E+03  0.00000000000E+00 0.  1.
          1   -1    0    0  501    0  0.00000000000E+00 -0.00000000000E+00 -0.98727322774E+03  0.98727322774E+03  0.00000000000E+00 0. -1.
        -24    2    1    2    0    0  0.46358871891E+03  0.17121802809E+03 -0.42661196188E+03  0.65825820060E+03  0.84118839709E+02 0.  0.
    5000000    2    1    2    0    0 -0.46358871891E+03 -0.17121802809E+03 -0.10522347006E+03  0.78445282293E+03  0.60005344705E+03 0.  0.
        -24    2    4    4    0    0 -0.11700350193E+03 -0.27034452045E+03  0.14544255935E+03  0.33830546748E+03  0.80753155075E+02 0.  0.
         24    2    4    4    0    0 -0.34658521698E+03  0.99126492357E+02 -0.25066602941E+03  0.44614735545E+03  0.79162051278E+02 0.  0.
         11    1    5    5    0    0 -0.93855838349E+02 -0.18145374716E+03  0.60159806238E+02  0.21296380687E+03  0.00000000000E+00 0. -1.
        -12    1    5    5    0    0 -0.23147663579E+02 -0.88890773293E+02  0.85282753113E+02  0.12534166061E+03  0.00000000000E+00 0.  1.
         13    1    3    3    0    0  0.24059701372E+03  0.55131935721E+02 -0.24775992093E+03  0.34973051307E+03  0.00000000000E+00 0. -1.
        -14    1    3    3    0    0  0.22299170518E+03  0.11608609237E+03 -0.17885204095E+03  0.30852768753E+03  0.00000000000E+00 0.  1.
          4    1    6    6  502    0 -0.69059299530E+02  0.20605741324E+02 -0.92321561549E+02  0.11711982818E+03  0.00000000000E+00 0. -1.
         -3    1    6    6    0  502 -0.27752591745E+03  0.78520751033E+02 -0.15834446786E+03  0.32902752727E+03  0.00000000000E+00 0.  1.
<mgrwt>
<rscale>  0 0.57743233E+03</rscale>
<asrwt>0</asrwt>
<pdfrwt beam="1">  1        1 0.15188819E+00 0.57743233E+03</pdfrwt>
<pdfrwt beam="2">  1       -2 0.70067353E-01 0.57743233E+03</pdfrwt>
<totfact> 0.26266721E+01</totfact>
</mgrwt>
</event>
<event>
12    3  0.2422421E-007  0.5138076E+03  0.7818608E-02  0.1010236E+00
         -2   -1    0    0    0  501 -0.00000000000E+00  0.00000000000E+00  0.17391110214E+03  0.17391110214E+03  0.00000000000E+00 0.  1.
          1   -1    0    0  501    0  0.00000000000E+00 -0.00000000000E+00 -0.27219286531E+04  0.27219286531E+04  0.00000000000E+00 0. -1.
        -24    2    1    2    0    0  0.10354475749E+03 -0.43143281667E+03 -0.17332585321E+04  0.17908974435E+04  0.79200517991E+02 0.  0.
    5000000    2    1    2    0    0 -0.10354475749E+03  0.43143281667E+03 -0.81475901889E+03  0.11049423117E+04  0.60017452570E+03 0.  0.
        -24    2    4    4    0    0  0.12116561684E+03  0.26165175239E+03 -0.72578065422E+02  0.30776089617E+03  0.79413143732E+02 0.  0.
         24    2    4    4    0    0 -0.22471037433E+03  0.16978106428E+03 -0.74218095347E+03  0.79718141556E+03  0.73111418436E+02 0.  0.
         11    1    5    5    0    0  0.55524234267E+02  0.13363329208E+03 -0.76812849973E+02  0.16383226564E+03  0.00000000000E+00 0. -1.
        -12    1    5    5    0    0  0.65641382577E+02  0.12801846032E+03  0.42347845508E+01  0.14392863054E+03  0.00000000000E+00 0.  1.
         13    1    3    3    0    0  0.10337567706E+03 -0.28038923661E+03 -0.10994457334E+04  0.11393355850E+04  0.00000000000E+00 0. -1.
        -14    1    3    3    0    0  0.16908043077E+00 -0.15104358006E+03 -0.63381279864E+03  0.65156185845E+03  0.00000000000E+00 0.  1.
          4    1    6    6  502    0 -0.16693618332E+03  0.15869328050E+03 -0.62436976432E+03  0.66549894754E+03  0.00000000000E+00 0. -1.
         -3    1    6    6    0  502 -0.57774191012E+02  0.11087783777E+02 -0.11781118915E+03  0.13168246803E+03  0.00000000000E+00 0.  1.
<mgrwt>
<rscale>  0 0.51380764E+03</rscale>
<asrwt>0</asrwt>
<pdfrwt beam="1">  1        1 0.41875825E+00 0.51380764E+03</pdfrwt>
<pdfrwt beam="2">  1       -2 0.26755555E-01 0.51380764E+03</pdfrwt>
<totfact> 0.11621310E+01</totfact>
</mgrwt>
</event>
<event>
12    3  0.2422421E-007  0.7324997E+03  0.7818608E-02  0.9663213E-01
          1   -1    0    0  501    0  0.00000000000E+00  0.00000000000E+00  0.51325919711E+03  0.51325919711E+03  0.00000000000E+00 0. -1.
         -2   -1    0    0    0  501 -0.00000000000E+00 -0.00000000000E+00 -0.22767758380E+04  0.22767758380E+04  0.00000000000E+00 0.  1.
        -24    2    1    2    0    0 -0.59113306441E+03  0.17011954606E+03  0.19603399881E+03  0.65034934586E+03  0.78396321161E+02 0.  0.
    5000000    2    1    2    0    0  0.59113306441E+03 -0.17011954606E+03 -0.19595506397E+04  0.21396856893E+04  0.60003098209E+03 0.  0.
        -24    2    4    4    0    0  0.36319744035E+03  0.19310570605E+03 -0.87167995085E+03  0.96765644305E+03  0.85620445477E+02 0.  0.
         24    2    4    4    0    0  0.22793562407E+03 -0.36322525211E+03 -0.10878706889E+04  0.11720292462E+04  0.79389456557E+02 0.  0.
         11    1    3    3    0    0 -0.22312651022E+03  0.91855388029E+02  0.10564048405E+03  0.26340608144E+03  0.00000000000E+00 0. -1.
        -12    1    3    3    0    0 -0.36800655419E+03  0.78264158036E+02  0.90393514765E+02  0.38694326441E+03  0.00000000000E+00 0.  1.
         11    1    5    5    0    0  0.17558317742E+03  0.98929570185E+02 -0.32939660019E+03  0.38615881742E+03  0.00000000000E+00 0. -1.
        -12    1    5    5    0    0  0.18761426292E+03  0.94176135861E+02 -0.54228335065E+03  0.58149762563E+03  0.00000000000E+00 0.  1.
          4    1    6    6  502    0  0.94241031201E+02 -0.83230533264E+02 -0.30250744016E+03  0.32759646668E+03  0.00000000000E+00 0. -1.
         -3    1    6    6    0  502  0.13369459286E+03 -0.27999471885E+03 -0.78536324871E+03  0.84443277955E+03  0.00000000000E+00 0.  1.
<mgrwt>
<rscale>  0 0.73249972E+03</rscale>
<asrwt>0</asrwt>
<pdfrwt beam="1">  1        1 0.78962952E-01 0.73249972E+03</pdfrwt>
<pdfrwt beam="2">  1       -2 0.35027321E+00 0.73249972E+03</pdfrwt>
<totfact> 0.61660801E-01</totfact>
</mgrwt>
</event>
<event>
12    3  0.2422421E-007  0.1117904E+04  0.7818608E-02  0.9187915E-01
         -2   -1    0    0    0  501 -0.00000000000E+00  0.00000000000E+00  0.27396330272E+04  0.27396330272E+04  0.00000000000E+00 0.  1.
          1   -1    0    0  501    0  0.00000000000E+00 -0.00000000000E+00 -0.58198673547E+03  0.58198673547E+03  0.00000000000E+00 0. -1.
        -24    2    1    2    0    0 -0.45977863537E+03 -0.97362432025E+03  0.35247736731E+03  0.11357914734E+04  0.80257498663E+02 0.  0.
    5000000    2    1    2    0    0  0.45977863537E+03  0.97362432025E+03  0.18051689245E+04  0.21858282893E+04  0.59989145177E+03 0.  0.
        -24    2    4    4    0    0 -0.78603330348E+02  0.16708379559E+03  0.10548464886E+03  0.22730678001E+03  0.80286255385E+02 0.  0.
         24    2    4    4    0    0  0.53838196571E+03  0.80654052466E+03  0.16996842756E+04  0.19585215093E+04  0.80728598755E+02 0.  0.
         11    1    5    5    0    0 -0.65422697775E+02  0.15952579762E+03  0.65343781974E+02  0.18438660291E+03  0.00000000000E+00 0. -1.
        -12    1    5    5    0    0 -0.13180632573E+02  0.75579979757E+01  0.40140866886E+02  0.42920177105E+02  0.00000000000E+00 0.  1.
         11    1    3    3    0    0 -0.26086009996E+03 -0.62064794527E+03  0.19289052525E+03  0.70032750799E+03  0.00000000000E+00 0. -1.
        -12    1    3    3    0    0 -0.19891853541E+03 -0.35297637498E+03  0.15958684206E+03  0.43546396542E+03  0.00000000000E+00 0.  1.
          4    1    6    6  502    0  0.92149309070E+02  0.13062865456E+03  0.34390276384E+03  0.37924194326E+03  0.00000000000E+00 0. -1.
         -3    1    6    6    0  502  0.44623265664E+03  0.67591187009E+03  0.13557815118E+04  0.15792795660E+04  0.00000000000E+00 0.  1.
<mgrwt>
<rscale>  0 0.11179039E+04</rscale>
<asrwt>0</asrwt>
<pdfrwt beam="1">  1        1 0.89536423E-01 0.11179039E+04</pdfrwt>
<pdfrwt beam="2">  1       -2 0.42148200E+00 0.11179039E+04</pdfrwt>
<totfact> 0.16899667E-01</totfact>
</mgrwt>
</event>
<event>
12    3  0.2422421E-007  0.9126306E+03  0.7818608E-02  0.9409929E-01
          1   -1    0    0  501    0  0.00000000000E+00  0.00000000000E+00  0.32974057180E+04  0.32974057180E+04  0.00000000000E+00 0. -1.
         -2   -1    0    0    0  501 -0.00000000000E+00 -0.00000000000E+00 -0.27996884166E+03  0.27996884166E+03  0.00000000000E+00 0.  1.
        -24    2    1    2    0    0  0.80773574486E+03 -0.12233061530E+03  0.83445418809E+03  0.11705106332E+04  0.79872006206E+02 0.  0.
    5000000    2    1    2    0    0 -0.80773574486E+03  0.12233061530E+03  0.21829826883E+04  0.24068639265E+04  0.60014892362E+03 0.  0.
        -24    2    4    4    0    0 -0.68206595692E+03 -0.15502456529E+03  0.15672550710E+04  0.17181660306E+04  0.80990527993E+02 0.  0.
         24    2    4    4    0    0 -0.12566978794E+03  0.27735518059E+03  0.61572761724E+03  0.68869789591E+03  0.49653815569E+02 0.  0.
         11    1    5    5    0    0 -0.49267818362E+03 -0.13950129978E+03  0.11994196556E+04  0.13041471986E+04  0.00000000000E+00 0. -1.
        -12    1    5    5    0    0 -0.18938777330E+03 -0.15523265505E+02  0.36783541539E+03  0.41401883202E+03  0.00000000000E+00 0.  1.
         11    1    3    3    0    0  0.37213265380E+03 -0.57466798876E+02  0.32816621610E+03  0.49947793784E+03  0.00000000000E+00 0. -1.
        -12    1    3    3    0    0  0.43560309106E+03 -0.64863816427E+02  0.50628797198E+03  0.67103269533E+03  0.00000000000E+00 0.  1.
          2    1    6    6  502    0 -0.64516546610E+02  0.18062770877E+03  0.42493082576E+03  0.46621342821E+03  0.00000000000E+00 0. -1.
         -1    1    6    6    0  502 -0.61153241325E+02  0.96727471818E+02  0.19079679148E+03  0.22248446770E+03  0.00000000000E+00 0.  1.
<mgrwt>
<rscale>  0 0.91263056E+03</rscale>
<asrwt>0</asrwt>
<pdfrwt beam="1">  1        1 0.50729316E+00 0.91263056E+03</pdfrwt>
<pdfrwt beam="2">  1       -2 0.43072132E-01 0.91263056E+03</pdfrwt>
<totfact> 0.16853029E+00</totfact>
</mgrwt>
</event>
<event>
12    3  0.2422421E-007  0.1113461E+04  0.7818608E-02  0.9192171E-01
         -2   -1    0    0    0  501 -0.00000000000E+00  0.00000000000E+00  0.24081946896E+04  0.24081946896E+04  0.00000000000E+00 0.  1.
          1   -1    0    0  501    0  0.00000000000E+00 -0.00000000000E+00 -0.91245101089E+03  0.91245101089E+03  0.00000000000E+00 0. -1.
        -24    2    1    2    0    0  0.93833406622E+03  0.57671518891E+03 -0.28695687193E+03  0.11409263269E+04  0.79356209946E+02 0.  0.
    5000000    2    1    2    0    0 -0.93833406622E+03 -0.57671518891E+03  0.17827005506E+04  0.21797193736E+04  0.60007005054E+03 0.  0.
        -24    2    4    4    0    0 -0.78566151884E+03 -0.56093533750E+03  0.10567101712E+04  0.14334879954E+04  0.79617660901E+02 0.  0.
         24    2    4    4    0    0 -0.15267254738E+03 -0.15779851405E+02  0.72599037943E+03  0.74623137824E+03  0.79002078516E+02 0.  0.
         11    1    3    3    0    0  0.58249546711E+03  0.32457193667E+03 -0.14620279982E+03  0.68265889722E+03  0.00000000000E+00 0. -1.
        -12    1    3    3    0    0  0.35583859911E+03  0.25214325224E+03 -0.14075407211E+03  0.45826742965E+03  0.00000000000E+00 0.  1.
         13    1    5    5    0    0 -0.32904818071E+03 -0.19366230036E+03  0.44615248309E+03  0.58722213001E+03  0.00000000000E+00 0. -1.
        -14    1    5    5    0    0 -0.45661333813E+03 -0.36727303714E+03  0.61055768812E+03  0.84626586538E+03  0.00000000000E+00 0.  1.
          2    1    6    6  502    0 -0.10186602050E+03  0.32894707873E+01  0.30092402235E+03  0.31771492564E+03  0.00000000000E+00 0. -1.
         -1    1    6    6    0  502 -0.50806526881E+02 -0.19069322193E+02  0.42506635708E+03  0.42851645260E+03  0.00000000000E+00 0.  1.
<mgrwt>
<rscale>  0 0.11134606E+04</rscale>
<asrwt>0</asrwt>
<pdfrwt beam="1">  1        1 0.14037708E+00 0.11134606E+04</pdfrwt>
<pdfrwt beam="2">  1       -2 0.37049149E+00 0.11134606E+04</pdfrwt>
<totfact> 0.17967366E-01</totfact>
</mgrwt>
</event>
<event>
12    3  0.2422421E-007  0.8491955E+03  0.7818608E-02  0.9491417E-01
         -2   -1    0    0    0  501 -0.00000000000E+00  0.00000000000E+00  0.86867648385E+03  0.86867648385E+03  0.00000000000E+00 0.  1.
          1   -1    0    0  501    0  0.00000000000E+00 -0.00000000000E+00 -0.93285791262E+03  0.93285791262E+03  0.00000000000E+00 0. -1.
        -24    2    1    2    0    0  0.61656595529E+03 -0.44061982161E+03  0.21971450914E+03  0.79410209440E+03  0.89578269606E+02 0.  0.
    5000000    2    1    2    0    0 -0.61656595529E+03  0.44061982161E+03 -0.28389593791E+03  0.10074323021E+04  0.60001961242E+03 0.  0.
        -24    2    4    4    0    0 -0.55359071326E+03  0.55463784040E+03 -0.32112378012E+03  0.85088042469E+03  0.82408756545E+02 0.  0.
         24    2    4    4    0    0 -0.62975242029E+02 -0.11401801878E+03  0.37227842210E+02  0.15655187739E+03  0.78463930327E+02 0.  0.
         13    1    5    5    0    0 -0.14926351517E+03  0.10093657631E+03 -0.77388195704E+02  0.19610385573E+03  0.00000000000E+00 0. -1.
        -14    1    5    5    0    0 -0.40432719809E+03  0.45370126408E+03 -0.24373558442E+03  0.65477656896E+03  0.00000000000E+00 0.  1.
         13    1    3    3    0    0  0.16999836309E+03 -0.89686634939E+02  0.86262093384E+02  0.21067578099E+03  0.00000000000E+00 0. -1.
        -14    1    3    3    0    0  0.44656759219E+03 -0.35093318667E+03  0.13345241576E+03  0.58342631341E+03  0.00000000000E+00 0.  1.
          2    1    6    6  502    0 -0.59473733020E+02 -0.30708189057E+02  0.28375265064E+02  0.72699886258E+02  0.00000000000E+00 0. -1.
         -1    1    6    6    0  502 -0.35015090088E+01 -0.83309829726E+02  0.88525771454E+01  0.83851991129E+02  0.00000000000E+00 0.  1.
<mgrwt>
<rscale>  0 0.84919552E+03</rscale>
<asrwt>0</asrwt>
<pdfrwt beam="1">  1        1 0.14351660E+00 0.84919552E+03</pdfrwt>
<pdfrwt beam="2">  1       -2 0.13364254E+00 0.84919552E+03</pdfrwt>
<totfact> 0.61441598E+00</totfact>
</mgrwt>
</event>
<event>
12    3  0.2422421E-007  0.8102222E+03  0.7818608E-02  0.9545338E-01
         -2   -1    0    0    0  501 -0.00000000000E+00  0.00000000000E+00  0.58925469434E+03  0.58925469434E+03  0.00000000000E+00 0.  1.
          1   -1    0    0  501    0  0.00000000000E+00 -0.00000000000E+00 -0.11760133878E+04  0.11760133878E+04  0.00000000000E+00 0. -1.
        -24    2    1    2    0    0  0.70240018390E+03  0.10014032779E+03 -0.40090133188E+03  0.81772737384E+03  0.67543145017E+02 0.  0.
    5000000    2    1    2    0    0 -0.70240018390E+03 -0.10014032779E+03 -0.18585736164E+03  0.94754070834E+03  0.59991360336E+03 0.  0.
        -24    2    4    4    0    0  0.18159438678E+02  0.13770901741E+03 -0.70931420671E+02  0.17599020952E+03  0.81533727488E+02 0.  0.
         24    2    4    4    0    0 -0.72055962258E+03 -0.23784934520E+03 -0.11492594097E+03  0.77155049882E+03  0.79395967298E+02 0.  0.
         13    1    3    3    0    0  0.43425055924E+03  0.94757215202E+02 -0.24593004923E+03  0.50797053768E+03  0.00000000000E+00 0. -1.
        -14    1    3    3    0    0  0.26814962466E+03  0.53831125846E+01 -0.15497128265E+03  0.30975683617E+03  0.00000000000E+00 0.  1.
         13    1    5    5    0    0  0.31543022061E+02  0.95320531632E+02 -0.10472086003E+02  0.10094865317E+03  0.00000000000E+00 0. -1.
        -14    1    5    5    0    0 -0.13383583383E+02  0.42388485782E+02 -0.60459334668E+02  0.75041556351E+02  0.00000000000E+00 0.  1.
          4    1    6    6  502    0 -0.28519527471E+03 -0.53691320245E+02 -0.40613175476E+02  0.29303333020E+03  0.00000000000E+00 0. -1.
         -3    1    6    6    0  502 -0.43536434787E+03 -0.18415802496E+03 -0.74312765490E+02  0.47851716862E+03  0.00000000000E+00 0.  1.
<mgrwt>
<rscale>  0 0.81022224E+03</rscale>
<asrwt>0</asrwt>
<pdfrwt beam="1">  1        1 0.18092513E+00 0.81022224E+03</pdfrwt>
<pdfrwt beam="2">  1       -2 0.90654570E-01 0.81022224E+03</pdfrwt>
<totfact> 0.10339328E+01</totfact>
</mgrwt>
</event>
<event>
12    3  0.2422421E-007  0.1191453E+04  0.7818608E-02  0.9120371E-01
          1   -1    0    0  501    0  0.00000000000E+00  0.00000000000E+00  0.94368905179E+03  0.94368905179E+03  0.00000000000E+00 0. -1.
         -2   -1    0    0    0  501 -0.00000000000E+00 -0.00000000000E+00 -0.21801058326E+04  0.21801058326E+04  0.00000000000E+00 0.  1.
        -24    2    1    2    0    0 -0.57209174160E+03  0.97499933867E+03 -0.14349459865E+04  0.18288051838E+04  0.86866246699E+02 0.  0.
    5000000    2    1    2    0    0  0.57209174160E+03 -0.97499933867E+03  0.19852920567E+03  0.12949897006E+04  0.59972644433E+03 0.  0.
        -24    2    4    4    0    0  0.63825596424E+03 -0.98389463685E+03  0.19530050742E+03  0.11916575049E+04  0.80535634435E+02 0.  0.
         24    2    4    4    0    0 -0.66164222637E+02  0.88952981738E+01  0.32286982482E+01  0.10333219576E+03  0.78805377369E+02 0.  0.
         11    1    3    3    0    0 -0.19747989374E+03  0.29643926899E+03 -0.50922038973E+03  0.62143378887E+03  0.00000000000E+00 0. -1.
        -12    1    3    3    0    0 -0.37461184786E+03  0.67856006968E+03 -0.92572559674E+03  0.12073713949E+04  0.00000000000E+00 0.  1.
         13    1    5    5    0    0  0.14624846630E+03 -0.26011738574E+03  0.79799331665E+02  0.30889739655E+03  0.00000000000E+00 0. -1.
        -14    1    5    5    0    0  0.49200749793E+03 -0.72377725111E+03  0.11550117575E+03  0.88276010832E+03  0.00000000000E+00 0.  1.
          2    1    6    6  502    0 -0.19035772523E+02 -0.15875997067E+02  0.33817401108E+02  0.41928803181E+02  0.00000000000E+00 0. -1.
         -1    1    6    6    0  502 -0.47128450114E+02  0.24771295241E+02 -0.30588702860E+02  0.61403392583E+02  0.00000000000E+00 0.  1.
<mgrwt>
<rscale>  0 0.11914528E+04</rscale>
<asrwt>0</asrwt>
<pdfrwt beam="1">  1        1 0.14518293E+00 0.11914528E+04</pdfrwt>
<pdfrwt beam="2">  1       -2 0.33540090E+00 0.11914528E+04</pdfrwt>
<totfact> 0.27845238E-01</totfact>
</mgrwt>
</event>
<event>
12    3  0.2422421E-007  0.7866802E+03  0.7818608E-02  0.9579500E-01
          1   -1    0    0  501    0  0.00000000000E+00  0.00000000000E+00  0.15857518830E+04  0.15857518830E+04  0.00000000000E+00 0. -1.
         -2   -1    0    0    0  501 -0.00000000000E+00 -0.00000000000E+00 -0.46463158708E+03  0.46463158708E+03  0.00000000000E+00 0.  1.
        -24    2    1    2    0    0  0.67429453356E+03  0.19660299430E+03  0.81125064424E+03  0.10760283137E+04  0.79896612461E+02 0.  0.
    5000000    2    1    2    0    0 -0.67429453356E+03 -0.19660299430E+03  0.30986965166E+03  0.97435515640E+03  0.60001909505E+03 0.  0.
        -24    2    4    4    0    0 -0.26545065842E+03  0.16372356125E+03 -0.35998565253E+02  0.32389480505E+03  0.79639760625E+02 0.  0.
         24    2    4    4    0    0 -0.40884387514E+03 -0.36032655555E+03  0.34586821692E+03  0.65046035135E+03  0.80531387279E+02 0.  0.
         13    1    3    3    0    0  0.21814940605E+03  0.10033120823E+03  0.25515404637E+03  0.35036995031E+03  0.00000000000E+00 0. -1.
        -14    1    3    3    0    0  0.45614512751E+03  0.96271786070E+02  0.55609659787E+03  0.72565836335E+03  0.00000000000E+00 0.  1.
         13    1    5    5    0    0 -0.10602526895E+03  0.98585150410E+02 -0.44512183827E+02  0.15146525689E+03  0.00000000000E+00 0. -1.
        -14    1    5    5    0    0 -0.15942538947E+03  0.65138410837E+02  0.85136185740E+01  0.17242954815E+03  0.00000000000E+00 0.  1.
          4    1    6    6  502    0 -0.18706238476E+03 -0.11613408188E+03  0.12106314384E+03  0.25126827409E+03  0.00000000000E+00 0. -1.
         -3    1    6    6    0  502 -0.22178149038E+03 -0.24419247366E+03  0.22480507308E+03  0.39919207726E+03  0.00000000000E+00 0.  1.
<mgrwt>
<rscale>  0 0.78668020E+03</rscale>
<asrwt>0</asrwt>
<pdfrwt beam="1">  1        1 0.24396182E+00 0.78668020E+03</pdfrwt>
<pdfrwt beam="2">  1       -2 0.71481784E-01 0.78668020E+03</pdfrwt>
<totfact> 0.91499362E+00</totfact>
</mgrwt>
</event>
<event>
12    3  0.2422421E-007  0.1542271E+04  0.7818608E-02  0.8856820E-01
         -2   -1    0    0    0  501 -0.00000000000E+00  0.00000000000E+00  0.17266926276E+04  0.17266926276E+04  0.00000000000E+00 0.  1.
          1   -1    0    0  501    0  0.00000000000E+00 -0.00000000000E+00 -0.16570858987E+04  0.16570858987E+04  0.00000000000E+00 0. -1.
        -24    2    1    2    0    0  0.58213609714E+03 -0.13744622719E+04  0.70657592551E+03  0.16534874476E+04  0.82111074003E+02 0.  0.
    5000000    2    1    2    0    0 -0.58213609714E+03  0.13744622719E+04 -0.63696919664E+03  0.17302910787E+04  0.60012372649E+03 0.  0.
        -24    2    4    4    0    0 -0.66920541352E+03  0.99998900752E+03 -0.56422698403E+03  0.13312923738E+04  0.78570950727E+02 0.  0.
         24    2    4    4    0    0  0.87069316383E+02  0.37447326433E+03 -0.72742212601E+02  0.39899870490E+03  0.78084860613E+02 0.  0.
         11    1    5    5    0    0 -0.42814862399E+03  0.58899732783E+03 -0.36969757493E+03  0.81664275746E+03  0.00000000000E+00 0. -1.
        -12    1    5    5    0    0 -0.24105678953E+03  0.41099167969E+03 -0.19452940911E+03  0.51464961630E+03  0.00000000000E+00 0.  1.
         13    1    3    3    0    0  0.30698255918E+03 -0.62285928842E+03  0.33909493888E+03  0.77277251658E+03  0.00000000000E+00 0. -1.
        -14    1    3    3    0    0  0.27515353796E+03 -0.75160298343E+03  0.36748098662E+03  0.88071493100E+03  0.00000000000E+00 0.  1.
          4    1    6    6  502    0  0.33852901100E+02  0.19521035486E+03  0.62732173815E+00  0.19812494818E+03  0.00000000000E+00 0. -1.
         -3    1    6    6    0  502  0.53216415283E+02  0.17926290947E+03 -0.73369534340E+02  0.20087375672E+03  0.00000000000E+00 0.  1.
<mgrwt>
<rscale>  0 0.15422709E+04</rscale>
<asrwt>0</asrwt>
<pdfrwt beam="1">  1        1 0.25493629E+00 0.15422709E+04</pdfrwt>
<pdfrwt beam="2">  1       -2 0.26564502E+00 0.15422709E+04</pdfrwt>
<totfact> 0.21586815E-01</totfact>
</mgrwt>
</event>
<event>
12    3  0.2422421E-007  0.3281962E+03  0.7818608E-02  0.1071938E+00
          1   -1    0    0  501    0  0.00000000000E+00  0.00000000000E+00  0.17885843029E+04  0.17885843029E+04  0.00000000000E+00 0. -1.
         -2   -1    0    0    0  501 -0.00000000000E+00 -0.00000000000E+00 -0.18081335070E+03  0.18081335070E+03  0.00000000000E+00 0.  1.
        -24    2    1    2    0    0  0.16455231883E+03  0.87550264571E+02 -0.39183405144E+02  0.20667413361E+03  0.80226827229E+02 0.  0.
    5000000    2    1    2    0    0 -0.16455231883E+03 -0.87550264571E+02  0.16469543573E+04  0.17627235199E+04  0.59999419852E+03 0.  0.
        -24    2    4    4    0    0 -0.20048965603E+03  0.12721576402E+03  0.27708837937E+03  0.37332624533E+03  0.78832497620E+02 0.  0.
         24    2    4    4    0    0  0.35937337203E+02 -0.21476602859E+03  0.13698659779E+04  0.13893972746E+04  0.80473908567E+02 0.  0.
         11    1    5    5    0    0 -0.61921803448E+02  0.48246404718E+02  0.15035898728E+03  0.16961677501E+03  0.00000000000E+00 0. -1.
        -12    1    5    5    0    0 -0.13856785258E+03  0.78969359299E+02  0.12672939210E+03  0.20370947032E+03  0.00000000000E+00 0.  1.
         11    1    3    3    0    0  0.11479433357E+03  0.39595866991E+02  0.10017213765E+02  0.12184381919E+03  0.00000000000E+00 0. -1.
        -12    1    3    3    0    0  0.49757985256E+02  0.47954397580E+02 -0.49200618909E+02  0.84830314423E+02  0.00000000000E+00 0.  1.
          2    1    6    6  502    0 -0.13672080313E+02 -0.93942291194E+01  0.19341809244E+03  0.19412814274E+03  0.00000000000E+00 0. -1.
         -1    1    6    6    0  502  0.49609417517E+02 -0.20537179947E+03  0.11764478855E+04  0.11952691319E+04  0.00000000000E+00 0.  1.
<mgrwt>
<rscale>  0 0.32819618E+03</rscale>
<asrwt>0</asrwt>
<pdfrwt beam="1">  1        1 0.27516680E+00 0.32819618E+03</pdfrwt>
<pdfrwt beam="2">  1       -2 0.27817440E-01 0.32819618E+03</pdfrwt>
<totfact> 0.47446528E+01</totfact>
</mgrwt>
</event>
<event>
12    3  0.2422421E-007  0.8221434E+03  0.7818608E-02  0.9528507E-01
          1   -1    0    0  501    0  0.00000000000E+00  0.00000000000E+00  0.24260147213E+04  0.24260147213E+04  0.00000000000E+00 0. -1.
         -2   -1    0    0    0  501 -0.00000000000E+00 -0.00000000000E+00 -0.47916745786E+03  0.47916745786E+03  0.00000000000E+00 0.  1.
        -24    2    1    2    0    0  0.80872458420E+03  0.11453704710E+03  0.13793031017E+03  0.83171364811E+03  0.74623278896E+02 0.  0.
    5000000    2    1    2    0    0 -0.80872458420E+03 -0.11453704710E+03  0.18089169532E+04  0.20734685310E+04  0.59994751199E+03 0.  0.
        -24    2    4    4    0    0 -0.25061232414E+03 -0.52579774976E+02  0.12452899452E+04  0.12738149793E+04  0.79286719970E+02 0.  0.
         24    2    4    4    0    0 -0.55811226005E+03 -0.61957272126E+02  0.56362700799E+03  0.79965355173E+03  0.80264564195E+02 0.  0.
         13    1    5    5    0    0 -0.98056987037E+02 -0.45165504283E+02  0.66771976026E+03  0.67639099176E+03  0.00000000000E+00 0. -1.
        -14    1    5    5    0    0 -0.15255533711E+03 -0.74142706937E+01  0.57757018498E+03  0.59742398753E+03  0.00000000000E+00 0.  1.
         13    1    3    3    0    0  0.68421205968E+03  0.12161838213E+03  0.10597188702E+03  0.70297027983E+03  0.00000000000E+00 0. -1.
        -14    1    3    3    0    0  0.12451252452E+03 -0.70813350300E+01  0.31958423148E+02  0.12874336829E+03  0.00000000000E+00 0.  1.
          4    1    6    6  502    0 -0.36011173192E+03 -0.14865128182E+02  0.31788318764E+03  0.48057377424E+03  0.00000000000E+00 0. -1.
         -3    1    6    6    0  502 -0.19800052813E+03 -0.47092143944E+02  0.24574382036E+03  0.31907977750E+03  0.00000000000E+00 0.  1.
<mgrwt>
<rscale>  0 0.82214339E+03</rscale>
<asrwt>0</asrwt>
<pdfrwt beam="1">  1        1 0.37323303E+00 0.82214339E+03</pdfrwt>
<pdfrwt beam="2">  1       -2 0.73718072E-01 0.82214339E+03</pdfrwt>
<totfact> 0.23125047E+00</totfact>
</mgrwt>
</event>
<event>
12    3  0.2422421E-007  0.2010922E+04  0.7818608E-02  0.8601531E-01
         -2   -1    0    0    0  501 -0.00000000000E+00  0.00000000000E+00  0.26191811599E+04  0.26191811599E+04  0.00000000000E+00 0.  1.
          1   -1    0    0  501    0  0.00000000000E+00 -0.00000000000E+00 -0.17569461591E+04  0.17569461591E+04  0.00000000000E+00 0. -1.
        -24    2    1    2    0    0  0.56688150986E+03 -0.19000796767E+04 -0.29018965778E+03  0.20054864703E+04  0.78157027206E+02 0.  0.
    5000000    2    1    2    0    0 -0.56688150986E+03  0.19000796767E+04  0.11524246586E+04  0.23706408487E+04  0.60016499034E+03 0.  0.
        -24    2    4    4    0    0 -0.19983779706E+03  0.15352898679E+03  0.27219006682E+03  0.37930051080E+03  0.79215844958E+02 0.  0.
         24    2    4    4    0    0 -0.36704371280E+03  0.17465506900E+04  0.88023459174E+03  0.19913403379E+04  0.73912144878E+02 0.  0.
         11    1    3    3    0    0  0.43570013028E+03 -0.14130797797E+04 -0.18472003637E+03  0.14902182924E+04  0.00000000000E+00 0. -1.
        -12    1    3    3    0    0  0.13118137959E+03 -0.48699989708E+03 -0.10546962140E+03  0.51526817789E+03  0.00000000000E+00 0.  1.
         13    1    5    5    0    0 -0.30982300746E+02  0.38482997907E+02  0.10218188326E+03  0.11349881653E+03  0.00000000000E+00 0. -1.
        -14    1    5    5    0    0 -0.16885549632E+03  0.11504598888E+03  0.17000818356E+03  0.26580169426E+03  0.00000000000E+00 0.  1.
          4    1    6    6  502    0 -0.72624728647E+02  0.41661593654E+03  0.17782362712E+03  0.45876402666E+03  0.00000000000E+00 0. -1.
         -1    1    6    6    0  502 -0.29441898415E+03  0.13299347534E+04  0.70241096461E+03  0.15325763112E+04  0.00000000000E+00 0.  1.
<mgrwt>
<rscale>  0 0.20109220E+04</rscale>
<asrwt>0</asrwt>
<pdfrwt beam="1">  1        1 0.27029941E+00 0.20109220E+04</pdfrwt>
<pdfrwt beam="2">  1       -2 0.40295095E+00 0.20109220E+04</pdfrwt>
<totfact> 0.24097296E-02</totfact>
</mgrwt>
</event>
<event>
12    3  0.2422421E-007  0.6383096E+03  0.7818608E-02  0.9828966E-01
          1   -1    0    0  501    0  0.00000000000E+00  0.00000000000E+00  0.65525607368E+03  0.65525607368E+03  0.00000000000E+00 0. -1.
         -2   -1    0    0    0  501 -0.00000000000E+00 -0.00000000000E+00 -0.85428376647E+03  0.85428376647E+03  0.00000000000E+00 0.  1.
        -24    2    1    2    0    0  0.30995195478E+03  0.49981591467E+03 -0.29724626554E+03  0.66367046949E+03  0.78847871726E+02 0.  0.
    5000000    2    1    2    0    0 -0.30995195478E+03 -0.49981591467E+03  0.98218572747E+02  0.84586937065E+03  0.59996828362E+03 0.  0.
        -24    2    4    4    0    0  0.94340848964E+01 -0.29727707186E+03  0.28240321355E+03  0.41805522038E+03  0.80968715292E+02 0.  0.
         24    2    4    4    0    0 -0.31938603968E+03 -0.20253884281E+03 -0.18418464080E+03  0.42781415027E+03  0.77920087761E+02 0.  0.
         11    1    3    3    0    0  0.13453452344E+03  0.25295431504E+03 -0.18318948824E+03  0.34006442345E+03  0.00000000000E+00 0. -1.
        -12    1    3    3    0    0  0.17541743135E+03  0.24686159963E+03 -0.11405677730E+03  0.32360604605E+03  0.00000000000E+00 0.  1.
         11    1    5    5    0    0  0.29975378821E+02 -0.16543055349E+03  0.19978151706E+03  0.26111002647E+03  0.00000000000E+00 0. -1.
        -12    1    5    5    0    0 -0.20541293925E+02 -0.13184651837E+03  0.82621696488E+02  0.15694519391E+03  0.00000000000E+00 0.  1.
          2    1    6    6  502    0 -0.11943811639E+03 -0.33932776919E+02 -0.50002737375E+02  0.13385503630E+03  0.00000000000E+00 0. -1.
         -1    1    6    6    0  502 -0.19994792328E+03 -0.16860606589E+03 -0.13418190343E+03  0.29395911397E+03  0.00000000000E+00 0.  1.
<mgrwt>
<rscale>  0 0.63830958E+03</rscale>
<asrwt>0</asrwt>
<pdfrwt beam="1">  1        1 0.10080863E+00 0.63830958E+03</pdfrwt>
<pdfrwt beam="2">  1       -2 0.13142827E+00 0.63830958E+03</pdfrwt>
<totfact> 0.11502151E+01</totfact>
</mgrwt>
</event>
<event>
12    3  0.2422421E-007  0.5604301E+03  0.7818608E-02  0.9991082E-01
          1   -1    0    0  501    0  0.00000000000E+00  0.00000000000E+00  0.15292672274E+04  0.15292672274E+04  0.00000000000E+00 0. -1.
         -2   -1    0    0    0  501 -0.00000000000E+00 -0.00000000000E+00 -0.47572861219E+03  0.47572861219E+03  0.00000000000E+00 0.  1.
        -24    2    1    2    0    0 -0.17063752070E+03 -0.52084354204E+03 -0.13029300334E+03  0.56909247878E+03  0.80590470478E+02 0.  0.
    5000000    2    1    2    0    0  0.17063752070E+03  0.52084354204E+03  0.11838316185E+04  0.14359033608E+04  0.59997166744E+03 0.  0.
        -24    2    4    4    0    0  0.89448083899E+01  0.31671555227E+02 -0.48729529614E+02  0.97642314794E+02  0.77950994697E+02 0.  0.
         24    2    4    4    0    0  0.16169271231E+03  0.48917198681E+03  0.12325611481E+04  0.13382610460E+04  0.79384365061E+02 0.  0.
         11    1    5    5    0    0 -0.58702367945E+01  0.31891195572E+02 -0.66811617214E+02  0.74265067358E+02  0.00000000000E+00 0. -1.
        -12    1    5    5    0    0  0.14815045184E+02 -0.21964034464E+00  0.18082087599E+02  0.23377247435E+02  0.00000000000E+00 0.  1.
         11    1    3    3    0    0 -0.93416216781E+02 -0.17905652157E+03 -0.26825590269E+02  0.20373374725E+03  0.00000000000E+00 0. -1.
        -12    1    3    3    0    0 -0.77221303918E+02 -0.34178702047E+03 -0.10346741307E+03  0.36535873153E+03  0.00000000000E+00 0.  1.
          4    1    6    6  502    0  0.15215230673E+03  0.48854920472E+03  0.12080248526E+04  0.13119278541E+04  0.00000000000E+00 0. -1.
         -3    1    6    6    0  502  0.95404055752E+01  0.62278209160E+00  0.24536295511E+02  0.26333191858E+02  0.00000000000E+00 0.  1.
<mgrwt>
<rscale>  0 0.56043006E+03</rscale>
<asrwt>0</asrwt>
<pdfrwt beam="1">  1        1 0.23527188E+00 0.56043006E+03</pdfrwt>
<pdfrwt beam="2">  1       -2 0.73189018E-01 0.56043006E+03</pdfrwt>
<totfact> 0.98282212E+00</totfact>
</mgrwt>
</event>
<event>
12    3  0.2422421E-007  0.5512653E+03  0.7818608E-02  0.1001201E+00
          1   -1    0    0  501    0  0.00000000000E+00  0.00000000000E+00  0.10989364688E+04  0.10989364688E+04  0.00000000000E+00 0. -1.
         -2   -1    0    0    0  501 -0.00000000000E+00 -0.00000000000E+00 -0.80445727796E+03  0.80445727796E+03  0.00000000000E+00 0.  1.
        -24    2    1    2    0    0 -0.36495810206E+03 -0.26162229601E+03 -0.58975834258E+03  0.74422667323E+03  0.66466506467E+02 0.  0.
    5000000    2    1    2    0    0  0.36495810206E+03  0.26162229601E+03  0.88423753339E+03  0.11591670735E+04  0.60012635903E+03 0.  0.
        -24    2    4    4    0    0  0.13852136010E+03  0.36542108973E+03  0.24473544067E+03  0.46808458626E+03  0.80541939089E+02 0.  0.
         24    2    4    4    0    0  0.22643674196E+03 -0.10379879372E+03  0.63950209272E+03  0.69108248724E+03  0.81143637381E+02 0.  0.
         11    1    5    5    0    0  0.13121351514E+03  0.26997428557E+03  0.15953122161E+03  0.33993133438E+03  0.00000000000E+00 0. -1.
        -12    1    5    5    0    0  0.73078449589E+01  0.95446804157E+02  0.85204219061E+02  0.12815325188E+03  0.00000000000E+00 0.  1.
         13    1    3    3    0    0 -0.17830692686E+03 -0.13949464338E+03 -0.34923967126E+03  0.41619762575E+03  0.00000000000E+00 0. -1.
        -14    1    3    3    0    0 -0.18665117520E+03 -0.12212765263E+03 -0.24051867132E+03  0.32802904749E+03  0.00000000000E+00 0.  1.
          4    1    6    6  502    0  0.72798193088E+02 -0.18887385298E+01  0.12658748628E+03  0.14603950128E+03  0.00000000000E+00 0. -1.
         -3    1    6    6    0  502  0.15363854887E+03 -0.10191005519E+03  0.51291460643E+03  0.54504298596E+03  0.00000000000E+00 0.  1.
<mgrwt>
<rscale>  0 0.55126531E+03</rscale>
<asrwt>0</asrwt>
<pdfrwt beam="1">  1        1 0.16906715E+00 0.55126531E+03</pdfrwt>
<pdfrwt beam="2">  1       -2 0.12376266E+00 0.55126531E+03</pdfrwt>
<totfact> 0.57969094E+00</totfact>
</mgrwt>
</event>
<event>
12    3  0.2422421E-007  0.5649028E+03  0.7818608E-02  0.9981022E-01
         -2   -1    0    0    0  501 -0.00000000000E+00  0.00000000000E+00  0.42146676156E+03  0.42146676156E+03  0.00000000000E+00 0.  1.
          1   -1    0    0  501    0  0.00000000000E+00 -0.00000000000E+00 -0.12436849237E+04  0.12436849237E+04  0.00000000000E+00 0. -1.
        -24    2    1    2    0    0 -0.84402308587E+02  0.40482422832E+03  0.15429125465E+03  0.44678790716E+03  0.69334242597E+02 0.  0.
    5000000    2    1    2    0    0  0.84402308587E+02 -0.40482422832E+03 -0.97650941683E+03  0.12183637782E+04  0.59986102493E+03 0.  0.
        -24    2    4    4    0    0  0.11164864058E+01  0.14001636152E+03 -0.13879014879E+03  0.21276515059E+03  0.80002974130E+02 0.  0.
         24    2    4    4    0    0  0.83285822181E+02 -0.54484058983E+03 -0.83771926804E+03  0.10055986276E+04  0.75281014903E+02 0.  0.
         11    1    5    5    0    0 -0.29826158351E+02  0.29087084898E+02 -0.16571270921E+02  0.44835981642E+02  0.00000000000E+00 0. -1.
        -12    1    5    5    0    0  0.30942644757E+02  0.11092927662E+03 -0.12221887787E+03  0.16792916894E+03  0.00000000000E+00 0.  1.
         13    1    3    3    0    0 -0.95645583333E+02  0.38124934923E+03  0.14721324831E+03  0.41972715468E+03  0.00000000000E+00 0. -1.
        -14    1    3    3    0    0  0.11243274746E+02  0.23574879086E+02  0.70780063399E+01  0.27060752478E+02  0.00000000000E+00 0.  1.
          2    1    6    6  502    0  0.19849162826E+02 -0.30705356847E+03 -0.41780975761E+03  0.51888426140E+03  0.00000000000E+00 0. -1.
         -1    1    6    6    0  502  0.63436659356E+02 -0.23778702136E+03 -0.41990951043E+03  0.48671436616E+03  0.00000000000E+00 0.  1.
<mgrwt>
<rscale>  0 0.56490279E+03</rscale>
<asrwt>0</asrwt>
<pdfrwt beam="1">  1        1 0.19133614E+00 0.56490279E+03</pdfrwt>
<pdfrwt beam="2">  1       -2 0.64841039E-01 0.56490279E+03</pdfrwt>
<totfact> 0.20113565E+01</totfact>
</mgrwt>
</event>
<event>
12    3  0.2422421E-007  0.3833632E+03  0.7818608E-02  0.1049698E+00
         -2   -1    0    0    0  501 -0.00000000000E+00  0.00000000000E+00  0.66776221000E+02  0.66776221000E+02  0.00000000000E+00 0.  1.
          1   -1    0    0  501    0  0.00000000000E+00 -0.00000000000E+00 -0.25307002461E+04  0.25307002461E+04  0.00000000000E+00 0. -1.
        -24    2    1    2    0    0  0.10920162180E+03 -0.14155029739E+03 -0.54466435655E+03  0.57869234944E+03  0.79146023944E+02 0.  0.
    5000000    2    1    2    0    0 -0.10920162180E+03  0.14155029739E+03 -0.19192596685E+04  0.20187841176E+04  0.59997513074E+03 0.  0.
        -24    2    4    4    0    0 -0.27651726917E+03 -0.80207543593E+02 -0.13203893073E+04  0.13538715175E+04  0.81517562755E+02 0.  0.
         24    2    4    4    0    0  0.16731564737E+03  0.22175784099E+03 -0.59887036125E+03  0.66491260010E+03  0.79322066872E+02 0.  0.
         11    1    5    5    0    0 -0.26352319413E+03 -0.52848033592E+02 -0.11999928660E+04  0.12297236547E+04  0.00000000000E+00 0. -1.
        -12    1    5    5    0    0 -0.12994075044E+02 -0.27359510001E+02 -0.12039644126E+03  0.12414786282E+03  0.00000000000E+00 0.  1.
         11    1    3    3    0    0  0.71314675681E+02 -0.93335055482E+02 -0.23165411548E+03  0.25973225593E+03  0.00000000000E+00 0. -1.
        -12    1    3    3    0    0  0.37886946118E+02 -0.48215241910E+02 -0.31301024107E+03  0.31896009351E+03  0.00000000000E+00 0.  1.
          4    1    6    6  502    0  0.11622368733E+03  0.20402130396E+03 -0.48424755668E+03  0.53817128697E+03  0.00000000000E+00 0. -1.
         -3    1    6    6    0  502  0.51091960043E+02  0.17736537024E+02 -0.11462280457E+03  0.12674131313E+03  0.00000000000E+00 0.  1.
<mgrwt>
<rscale>  0 0.38336322E+03</rscale>
<asrwt>0</asrwt>
<pdfrwt beam="1">  1        1 0.38933856E+00 0.38336322E+03</pdfrwt>
<pdfrwt beam="2">  1       -2 0.10273263E-01 0.38336322E+03</pdfrwt>
<totfact> 0.82260279E+01</totfact>
</mgrwt>
</event>
<event>
12    3  0.2422421E-007  0.5416522E+03  0.7818608E-02  0.1003445E+00
          1   -1    0    0  501    0  0.00000000000E+00  0.00000000000E+00  0.87329729671E+03  0.87329729671E+03  0.00000000000E+00 0. -1.
         -2   -1    0    0    0  501 -0.00000000000E+00 -0.00000000000E+00 -0.51852777825E+03  0.51852777825E+03  0.00000000000E+00 0.  1.
        -24    2    1    2    0    0 -0.30964420545E+03 -0.42881206456E+03  0.53849490012E+02  0.53743338557E+03  0.78584703763E+02 0.  0.
    5000000    2    1    2    0    0  0.30964420545E+03  0.42881206456E+03  0.30092002845E+03  0.85439168940E+03  0.59972741701E+03 0.  0.
        -24    2    4    4    0    0  0.17380022673E+03  0.26529672968E+03  0.46849628947E+03  0.57140996451E+03  0.80197884668E+02 0.  0.
         24    2    4    4    0    0  0.13584397871E+03  0.16351533488E+03 -0.16757626102E+03  0.28298172489E+03  0.82498497387E+02 0.  0.
         11    1    3    3    0    0 -0.30379001181E+03 -0.40031823585E+03  0.64062815794E+02  0.50660349939E+03  0.00000000000E+00 0. -1.
        -12    1    3    3    0    0 -0.58541936328E+01 -0.28493828714E+02 -0.10213325782E+02  0.30829886172E+02  0.00000000000E+00 0.  1.
         13    1    5    5    0    0  0.11826080962E+03  0.11999817626E+03  0.28268396403E+03  0.32908267186E+03  0.00000000000E+00 0. -1.
        -14    1    5    5    0    0  0.55539417110E+02  0.14529855342E+03  0.18581232544E+03  0.24232729265E+03  0.00000000000E+00 0.  1.
          4    1    6    6  502    0  0.97505377386E+02  0.53661110285E+02 -0.73769546105E+02  0.13352437721E+03  0.00000000000E+00 0. -1.
         -3    1    6    6    0  502  0.38338601327E+02  0.10985422460E+03 -0.93806714913E+02  0.14945734768E+03  0.00000000000E+00 0.  1.
<mgrwt>
<rscale>  0 0.54165217E+03</rscale>
<asrwt>0</asrwt>
<pdfrwt beam="1">  1        1 0.13435343E+00 0.54165217E+03</pdfrwt>
<pdfrwt beam="2">  1       -2 0.79773504E-01 0.54165217E+03</pdfrwt>
<totfact> 0.24421829E+01</totfact>
</mgrwt>
</event>
<event>
12    3  0.2422421E-007  0.4922228E+03  0.7818608E-02  0.1015829E+00
          1   -1    0    0  501    0  0.00000000000E+00  0.00000000000E+00  0.59247524990E+03  0.59247524990E+03  0.00000000000E+00 0. -1.
         -2   -1    0    0    0  501 -0.00000000000E+00 -0.00000000000E+00 -0.60325473966E+03  0.60325473966E+03  0.00000000000E+00 0.  1.
        -24    2    1    2    0    0  0.17785769347E+03 -0.34426428273E+03  0.20862535996E+03  0.44808861615E+03  0.84306652232E+02 0.  0.
    5000000    2    1    2    0    0 -0.17785769347E+03  0.34426428273E+03 -0.21940484972E+03  0.74764137341E+03  0.60056463404E+03 0.  0.
        -24    2    4    4    0    0  0.84281681523E+02 -0.38714054235E+02  0.11741824339E+03  0.16869318783E+03  0.77898446079E+02 0.  0.
         24    2    4    4    0    0 -0.26213937499E+03  0.38297833697E+03 -0.33682309311E+03  0.57894818558E+03  0.79635086660E+02 0.  0.
         11    1    3    3    0    0  0.15533410846E+03 -0.23799826392E+03  0.12258193650E+03  0.30951282693E+03  0.00000000000E+00 0. -1.
        -12    1    3    3    0    0  0.22523585013E+02 -0.10626601882E+03  0.86043423459E+02  0.13857578922E+03  0.00000000000E+00 0.  1.
         11    1    5    5    0    0  0.63330777199E+02 -0.62541937149E+02  0.92308061746E+02  0.12823049367E+03  0.00000000000E+00 0. -1.
        -12    1    5    5    0    0  0.20950904324E+02  0.23827882914E+02  0.25110181648E+02  0.40462694158E+02  0.00000000000E+00 0.  1.
          4    1    6    6  502    0 -0.10445784795E+03  0.88781379045E+02 -0.99205157148E+02  0.16921949790E+03  0.00000000000E+00 0. -1.
         -3    1    6    6    0  502 -0.15768152705E+03  0.29419695792E+03 -0.23761793596E+03  0.40972868769E+03  0.00000000000E+00 0.  1.
<mgrwt>
<rscale>  0 0.49222277E+03</rscale>
<asrwt>0</asrwt>
<pdfrwt beam="1">  1        1 0.91150039E-01 0.49222277E+03</pdfrwt>
<pdfrwt beam="2">  1       -2 0.92808421E-01 0.49222277E+03</pdfrwt>
<totfact> 0.31397201E+01</totfact>
</mgrwt>
</event>
<event>
12    3  0.2422421E-007  0.7976666E+03  0.7818608E-02  0.9563401E-01
         -2   -1    0    0    0  501 -0.00000000000E+00  0.00000000000E+00  0.12584302872E+04  0.12584302872E+04  0.00000000000E+00 0.  1.
          1   -1    0    0  501    0  0.00000000000E+00 -0.00000000000E+00 -0.53378831241E+03  0.53378831241E+03  0.00000000000E+00 0. -1.
        -24    2    1    2    0    0 -0.63540718816E+03 -0.30764501706E+03  0.35761961554E+03  0.79560120751E+03  0.81864159935E+02 0.  0.
    5000000    2    1    2    0    0  0.63540718816E+03  0.30764501706E+03  0.36702235928E+03  0.99661739214E+03  0.60012753879E+03 0.  0.
        -24    2    4    4    0    0  0.33467198656E+03  0.43057849993E+03  0.80882129882E+02  0.55638916991E+03  0.74992041368E+02 0.  0.
         24    2    4    4    0    0  0.30073520160E+03 -0.12293348287E+03  0.28614022940E+03  0.44022822223E+03  0.79814497909E+02 0.  0.
         11    1    5    5    0    0  0.20605410304E+03  0.20591625815E+03  0.51958323260E+02  0.29590448815E+03  0.00000000000E+00 0. -1.
        -12    1    5    5    0    0  0.12861788352E+03  0.22466224178E+03  0.28923806622E+02  0.26048468176E+03  0.00000000000E+00 0.  1.
         13    1    3    3    0    0 -0.17142085104E+03 -0.43876578109E+02  0.85923146492E+02  0.19670548894E+03  0.00000000000E+00 0. -1.
        -14    1    3    3    0    0 -0.46398633712E+03 -0.26376843895E+03  0.27169646905E+03  0.59889571857E+03  0.00000000000E+00 0.  1.
          2    1    6    6  502    0  0.22496005881E+03 -0.52442532770E+02  0.20163597605E+03  0.30661753723E+03  0.00000000000E+00 0. -1.
         -3    1    6    6    0  502  0.75775142784E+02 -0.70490950097E+02  0.84504253354E+02  0.13361068499E+03  0.00000000000E+00 0.  1.
<mgrwt>
<rscale>  0 0.79766658E+03</rscale>
<asrwt>0</asrwt>
<pdfrwt beam="1">  1        1 0.82121279E-01 0.79766658E+03</pdfrwt>
<pdfrwt beam="2">  1       -2 0.19360466E+00 0.79766658E+03</pdfrwt>
<totfact> 0.52904997E+00</totfact>
</mgrwt>
</event>
<event>
12    3  0.2422421E-007  0.1442506E+04  0.7818608E-02  0.8923613E-01
         -2   -1    0    0    0  501 -0.00000000000E+00  0.00000000000E+00  0.70326040537E+03  0.70326040537E+03  0.00000000000E+00 0.  1.
          1   -1    0    0  501    0  0.00000000000E+00 -0.00000000000E+00 -0.41803879970E+04  0.41803879970E+04  0.00000000000E+00 0. -1.
        -24    2    1    2    0    0 -0.14255033394E+04 -0.19564079495E+03 -0.50359513919E+03  0.15263668750E+04  0.76502821044E+02 0.  0.
    5000000    2    1    2    0    0  0.14255033394E+04  0.19564079495E+03 -0.29735324524E+04  0.33572815273E+04  0.59925697044E+03 0.  0.
        -24    2    4    4    0    0  0.45630176092E+03  0.10732856216E+03 -0.46077994657E+03  0.66199459431E+03  0.78663628582E+02 0.  0.
         24    2    4    4    0    0  0.96920157852E+03  0.88312232794E+02 -0.25127525058E+04  0.26952869330E+04  0.59124827996E+02 0.  0.
         11    1    3    3    0    0 -0.37188210080E+03 -0.30996327272E+02 -0.10214600587E+03  0.38689905107E+03  0.00000000000E+00 0. -1.
        -12    1    3    3    0    0 -0.10536212386E+04 -0.16464446768E+03 -0.40144913333E+03  0.11394678240E+04  0.00000000000E+00 0.  1.
         13    1    5    5    0    0  0.14281301897E+03  0.14778807872E+02 -0.18605551112E+03  0.23501196729E+03  0.00000000000E+00 0. -1.
        -14    1    5    5    0    0  0.31348874195E+03  0.92549754286E+02 -0.27472443545E+03  0.42698262702E+03  0.00000000000E+00 0.  1.
          2    1    6    6  502    0  0.43763839784E+03  0.69278242107E+02 -0.11334834102E+04  0.12170092371E+04  0.00000000000E+00 0. -1.
         -1    1    6    6    0  502  0.53156318067E+03  0.19033990687E+02 -0.13792690957E+04  0.14782776959E+04  0.00000000000E+00 0.  1.
<mgrwt>
<rscale>  0 0.14425058E+04</rscale>
<asrwt>0</asrwt>
<pdfrwt beam="1">  1        1 0.64313661E+00 0.14425058E+04</pdfrwt>
<pdfrwt beam="2">  1       -2 0.10819391E+00 0.14425058E+04</pdfrwt>
<totfact> 0.38667025E-02</totfact>
</mgrwt>
</event>
<event>
12    3  0.2422421E-007  0.9502747E+03  0.7818608E-02  0.9364830E-01
         -4   -1    0    0    0  501 -0.00000000000E+00  0.00000000000E+00  0.26713151979E+04  0.26713151979E+04  0.00000000000E+00 0.  1.
          1   -1    0    0  501    0  0.00000000000E+00 -0.00000000000E+00 -0.11248304218E+04  0.11248304218E+04  0.00000000000E+00 0. -1.
        -24    2    1    2    0    0  0.64185323953E+03 -0.68633397463E+03 -0.77496609595E+03  0.12208248603E+04  0.82528684599E+02 0.  0.
    5000000    2    1    2    0    0 -0.64185323953E+03  0.68633397463E+03  0.23214508720E+04  0.25753207594E+04  0.60009412350E+03 0.  0.
        -24    2    4    4    0    0 -0.79052660867E+02  0.18462418246E+03  0.12150491719E+03  0.24835071809E+03  0.81112405532E+02 0.  0.
         24    2    4    4    0    0 -0.56280057866E+03  0.50170979216E+03  0.21999459548E+04  0.23269700414E+04  0.81056538197E+02 0.  0.
         13    1    3    3    0    0  0.40417262047E+03 -0.39565024862E+03 -0.42424270477E+03  0.70701944734E+03  0.00000000000E+00 0. -1.
        -14    1    3    3    0    0  0.23768061907E+03 -0.29068372601E+03 -0.35072339119E+03  0.51380541295E+03  0.00000000000E+00 0.  1.
         13    1    5    5    0    0 -0.83640764607E+02  0.18089831580E+03  0.13003824557E+03  0.23797042563E+03  0.00000000000E+00 0. -1.
        -14    1    5    5    0    0  0.45881037401E+01  0.37258666599E+01 -0.85333283747E+01  0.10380292455E+02  0.00000000000E+00 0.  1.
          4    1    6    6  502    0 -0.24456136830E+03  0.20389916869E+03  0.81198929648E+03  0.87218791063E+03  0.00000000000E+00 0. -1.
         -3    1    6    6    0  502 -0.31823921037E+03  0.29781062347E+03  0.13879566583E+04  0.14547821307E+04  0.00000000000E+00 0.  1.
<mgrwt>
<rscale>  0 0.95027466E+03</rscale>
<asrwt>0</asrwt>
<pdfrwt beam="1">  1        1 0.17305084E+00 0.95027466E+03</pdfrwt>
<pdfrwt beam="2">  1       -4 0.41097157E+00 0.95027466E+03</pdfrwt>
<totfact> 0.33909974E-02</totfact>
</mgrwt>
</event>
<event>
12    3  0.2422421E-007  0.1721149E+04  0.7818608E-02  0.8749393E-01
         -2   -1    0    0    0  501 -0.00000000000E+00  0.00000000000E+00  0.18916668354E+04  0.18916668354E+04  0.00000000000E+00 0.  1.
          1   -1    0    0  501    0  0.00000000000E+00 -0.00000000000E+00 -0.17066293181E+04  0.17066293181E+04  0.00000000000E+00 0. -1.
        -24    2    1    2    0    0 -0.16607666010E+04  0.26206464942E+03  0.56043869379E+03  0.17740673552E+04  0.79999173153E+02 0.  0.
    5000000    2    1    2    0    0  0.16607666010E+04 -0.26206464942E+03 -0.37540117643E+03  0.18242287983E+04  0.60005089938E+03 0.  0.
        -24    2    4    4    0    0  0.90808436440E+03 -0.39477885080E+03 -0.65608547334E+02  0.99571769569E+03  0.81741630223E+02 0.  0.
         24    2    4    4    0    0  0.75268223663E+03  0.13271420138E+03 -0.30979262910E+03  0.82851110265E+03  0.79470532836E+02 0.  0.
         11    1    5    5    0    0  0.78636883070E+03 -0.37117569610E+03 -0.58299415273E+02  0.87151945308E+03  0.00000000000E+00 0. -1.
        -12    1    5    5    0    0  0.12171553370E+03 -0.23603154703E+02 -0.73091320608E+01  0.12419824261E+03  0.00000000000E+00 0.  1.
         13    1    3    3    0    0 -0.11375614063E+04  0.15227452692E+03  0.35507437811E+03  0.12013789155E+04  0.00000000000E+00 0. -1.
        -14    1    3    3    0    0 -0.52320519472E+03  0.10979012250E+03  0.20536431568E+03  0.57268843968E+03  0.00000000000E+00 0.  1.
          2    1    6    6  502    0  0.42761373971E+03  0.46509976568E+02 -0.20320904917E+03  0.47572114308E+03  0.00000000000E+00 0. -1.
         -1    1    6    6    0  502  0.32506849692E+03  0.86204224808E+02 -0.10658357993E+03  0.35278995957E+03  0.00000000000E+00 0.  1.
<mgrwt>
<rscale>  0 0.17211494E+04</rscale>
<asrwt>0</asrwt>
<pdfrwt beam="1">  1        1 0.26255836E+00 0.17211494E+04</pdfrwt>
<pdfrwt beam="2">  1       -2 0.29102567E+00 0.17211494E+04</pdfrwt>
<totfact> 0.13707537E-01</totfact>
</mgrwt>
</event>
<event>
12    3  0.2422421E-007  0.1448284E+04  0.7818608E-02  0.8919591E-01
          1   -1    0    0  501    0  0.00000000000E+00  0.00000000000E+00  0.87910076294E+03  0.87910076294E+03  0.00000000000E+00 0. -1.
         -2   -1    0    0    0  501 -0.00000000000E+00 -0.00000000000E+00 -0.27290609939E+04  0.27290609939E+04  0.00000000000E+00 0.  1.
        -24    2    1    2    0    0 -0.11461515277E+04  0.80275049693E+03 -0.29600672868E+03  0.14326481239E+04  0.82395257714E+02 0.  0.
    5000000    2    1    2    0    0  0.11461515277E+04 -0.80275049693E+03 -0.15539535022E+04  0.21755136329E+04  0.60001366240E+03 0.  0.
        -24    2    4    4    0    0  0.25850515533E+03 -0.47861415062E+03 -0.38955977399E+03  0.67377825847E+03  0.79522975101E+02 0.  0.
         24    2    4    4    0    0  0.88764637242E+03 -0.32413634631E+03 -0.11643937283E+04  0.15017353745E+04  0.80099482260E+02 0.  0.
         11    1    3    3    0    0 -0.47337435116E+03  0.37931140365E+03 -0.14003046800E+03  0.62255035880E+03  0.00000000000E+00 0. -1.
        -12    1    3    3    0    0 -0.67277717659E+03  0.42343909327E+03 -0.15597626067E+03  0.81009776506E+03  0.00000000000E+00 0.  1.
         11    1    5    5    0    0  0.43983941880E+02 -0.14337106922E+03 -0.83038473988E+02  0.17142123204E+03  0.00000000000E+00 0. -1.
        -12    1    5    5    0    0  0.21452121345E+03 -0.33524308140E+03 -0.30652130000E+03  0.50235702643E+03  0.00000000000E+00 0.  1.
          4    1    6    6  502    0  0.52902720804E+03 -0.16023985520E+03 -0.64050787973E+03  0.84604783673E+03  0.00000000000E+00 0. -1.
         -3    1    6    6    0  502  0.35861916439E+03 -0.16389649111E+03 -0.52388584853E+03  0.65568753774E+03  0.00000000000E+00 0.  1.
<mgrwt>
<rscale>  0 0.14482835E+04</rscale>
<asrwt>0</asrwt>
<pdfrwt beam="1">  1        1 0.13524627E+00 0.14482835E+04</pdfrwt>
<pdfrwt beam="2">  1       -2 0.41985554E+00 0.14482835E+04</pdfrwt>
<totfact> 0.87411889E-02</totfact>
</mgrwt>
</event>
<event>
12    3  0.2422421E-007  0.6206988E+03  0.7818608E-02  0.9863369E-01
          1   -1    0    0  501    0  0.00000000000E+00  0.00000000000E+00  0.16996047159E+04  0.16996047159E+04  0.00000000000E+00 0. -1.
         -2   -1    0    0    0  501 -0.00000000000E+00 -0.00000000000E+00 -0.26097255793E+03  0.26097255793E+03  0.00000000000E+00 0.  1.
        -24    2    1    2    0    0 -0.46010473557E+03 -0.24989335092E+03  0.48384624839E+03  0.71737693408E+03  0.79871264814E+02 0.  0.
    5000000    2    1    2    0    0  0.46010473557E+03  0.24989335092E+03  0.95478590962E+03  0.12432003398E+04  0.59982322157E+03 0.  0.
        -24    2    4    4    0    0  0.49131588693E+03  0.33844800733E+03  0.94456909406E+03  0.11200879454E+04  0.80298677676E+02 0.  0.
         24    2    4    4    0    0 -0.31211151360E+02 -0.88554656411E+02  0.10216815562E+02  0.12311239436E+03  0.78969710552E+02 0.  0.
         11    1    3    3    0    0 -0.16754417543E+03 -0.10154835529E+03  0.23308334716E+03  0.30448475480E+03  0.00000000000E+00 0. -1.
        -12    1    3    3    0    0 -0.29256056014E+03 -0.14834499563E+03  0.25076290123E+03  0.41289217928E+03  0.00000000000E+00 0.  1.
         11    1    5    5    0    0  0.12339845764E+03  0.45623338303E+02  0.21861235620E+03  0.25514707646E+03  0.00000000000E+00 0. -1.
        -12    1    5    5    0    0  0.36791742929E+03  0.29282466903E+03  0.72595673786E+03  0.86494086897E+03  0.00000000000E+00 0.  1.
          4    1    6    6  502    0  0.11639093229E+02 -0.66445420585E+02  0.26123136949E+02  0.72338652822E+02  0.00000000000E+00 0. -1.
         -3    1    6    6    0  502 -0.42850244590E+02 -0.22109235826E+02 -0.15906321387E+02  0.50773741543E+02  0.00000000000E+00 0.  1.
<mgrwt>
<rscale>  0 0.62069877E+03</rscale>
<asrwt>0</asrwt>
<pdfrwt beam="1">  1        1 0.26147764E+00 0.62069877E+03</pdfrwt>
<pdfrwt beam="2">  1       -2 0.40149625E-01 0.62069877E+03</pdfrwt>
<totfact> 0.25813117E+01</totfact>
</mgrwt>
</event>
<event>
12    3  0.2422421E-007  0.1411333E+04  0.7818608E-02  0.8945656E-01
          3   -1    0    0  501    0  0.00000000000E+00  0.00000000000E+00  0.28192786793E+04  0.28192786793E+04  0.00000000000E+00 0. -1.
         -4   -1    0    0    0  501 -0.00000000000E+00 -0.00000000000E+00 -0.10900041909E+04  0.10900041909E+04  0.00000000000E+00 0.  1.
        -24    2    1    2    0    0 -0.11671406910E+04 -0.70012819575E+03 -0.29736878674E+03  0.13954159668E+04  0.79753632971E+02 0.  0.
    5000000    2    1    2    0    0  0.11671406910E+04  0.70012819575E+03  0.20266432751E+04  0.25138669035E+04  0.59987245360E+03 0.  0.
        -24    2    4    4    0    0  0.78120294881E+03  0.17640617082E+03  0.88137442569E+03  0.11941477613E+04  0.88152216827E+02 0.  0.
         24    2    4    4    0    0  0.38593774221E+03  0.52372202493E+03  0.11452688494E+04  0.13197191421E+04  0.82372181746E+02 0.  0.
         11    1    5    5    0    0  0.58163204309E+03  0.16947831867E+03  0.65134174154E+03  0.88953066182E+03  0.00000000000E+00 0. -1.
        -12    1    5    5    0    0  0.19957090573E+03  0.69278521566E+01  0.23003268415E+03  0.30461709953E+03  0.00000000000E+00 0.  1.
         11    1    3    3    0    0 -0.89969390995E+03 -0.57174882570E+03 -0.21403163662E+03  0.10872696964E+04  0.00000000000E+00 0. -1.
        -12    1    3    3    0    0 -0.26744678108E+03 -0.12837937004E+03 -0.83337150122E+02  0.30814627038E+03  0.00000000000E+00 0.  1.
          2    1    6    6  502    0  0.34581984438E+03  0.49983399167E+03  0.10404984506E+04  0.12050155226E+04  0.00000000000E+00 0. -1.
         -1    1    6    6    0  502  0.40117897831E+02  0.23888033255E+02  0.10477039881E+03  0.11470361950E+03  0.00000000000E+00 0.  1.
<mgrwt>
<rscale>  0 0.14113327E+04</rscale>
<asrwt>0</asrwt>
<pdfrwt beam="1">  1        3 0.43373518E+00 0.14113327E+04</pdfrwt>
<pdfrwt beam="2">  1       -4 0.16769295E+00 0.14113327E+04</pdfrwt>
<totfact> 0.34481841E-03</totfact>
</mgrwt>
</event>
<event>
12    3  0.2422421E-007  0.5716967E+03  0.7818608E-02  0.9965931E-01
         -2   -1    0    0    0  501 -0.00000000000E+00  0.00000000000E+00  0.34567569940E+03  0.34567569940E+03  0.00000000000E+00 0.  1.
          1   -1    0    0  501    0  0.00000000000E+00 -0.00000000000E+00 -0.17570831808E+04  0.17570831808E+04  0.00000000000E+00 0. -1.
        -24    2    1    2    0    0 -0.70384839140E+02  0.52335084381E+03 -0.11397714197E+04  0.12586926780E+04  0.79863867215E+02 0.  0.
    5000000    2    1    2    0    0  0.70384839140E+02 -0.52335084381E+03 -0.27163606175E+03  0.84406620220E+03  0.59984287306E+03 0.  0.
        -24    2    4    4    0    0  0.17578234732E+03 -0.25503506234E+03  0.12816250296E+03  0.34466759160E+03  0.80173592157E+02 0.  0.
         24    2    4    4    0    0 -0.10539750818E+03 -0.26831578147E+03 -0.39979856471E+03  0.49939861061E+03  0.80362221289E+02 0.  0.
         11    1    3    3    0    0 -0.63558827715E+02  0.33800223791E+03 -0.81676976790E+03  0.88622688470E+03  0.00000000000E+00 0. -1.
        -12    1    3    3    0    0 -0.68260114249E+01  0.18534860590E+03 -0.32300165180E+03  0.37246579333E+03  0.00000000000E+00 0.  1.
         11    1    5    5    0    0 -0.25037378323E+00 -0.47800018766E+02  0.24041002277E+02  0.53505833995E+02  0.00000000000E+00 0. -1.
        -12    1    5    5    0    0  0.17603272111E+03 -0.20723504357E+03  0.10412150069E+03  0.29116175760E+03  0.00000000000E+00 0.  1.
          2    1    6    6  502    0 -0.44700414402E+02 -0.19007441204E+03 -0.30607162291E+03  0.36305130149E+03  0.00000000000E+00 0. -1.
         -1    1    6    6    0  502 -0.60697093783E+02 -0.78241369433E+02 -0.93726941796E+02  0.13634730912E+03  0.00000000000E+00 0.  1.
<mgrwt>
<rscale>  0 0.57169667E+03</rscale>
<asrwt>0</asrwt>
<pdfrwt beam="1">  1        1 0.27032048E+00 0.57169667E+03</pdfrwt>
<pdfrwt beam="2">  1       -2 0.53180878E-01 0.57169667E+03</pdfrwt>
<totfact> 0.13584705E+01</totfact>
</mgrwt>
</event>
<event>
12    3  0.2422421E-007  0.5697892E+03  0.7818608E-02  0.9970145E-01
         -2   -1    0    0    0  501 -0.00000000000E+00  0.00000000000E+00  0.23120722965E+03  0.23120722965E+03  0.00000000000E+00 0.  1.
          1   -1    0    0  501    0  0.00000000000E+00 -0.00000000000E+00 -0.21385463911E+04  0.21385463911E+04  0.00000000000E+00 0. -1.
        -24    2    1    2    0    0  0.34743531924E+03 -0.32638918079E+03 -0.25416547787E+03  0.54753019504E+03  0.89151701875E+02 0.  0.
    5000000    2    1    2    0    0 -0.34743531924E+03  0.32638918079E+03 -0.16531736836E+04  0.18222234258E+04  0.60022811227E+03 0.  0.
        -24    2    4    4    0    0 -0.42671458562E+03  0.34376360943E+03 -0.16058500124E+04  0.16986051884E+04  0.79035226198E+02 0.  0.
         24    2    4    4    0    0  0.79279266379E+02 -0.17374428638E+02 -0.47323671258E+02  0.12361823739E+03  0.80342180120E+02 0.  0.
         13    1    5    5    0    0 -0.12041477655E+03  0.10891208163E+03 -0.58891652477E+03  0.61088806919E+03  0.00000000000E+00 0. -1.
        -14    1    5    5    0    0 -0.30629980907E+03  0.23485152780E+03 -0.10169334876E+04  0.10877171192E+04  0.00000000000E+00 0.  1.
         13    1    3    3    0    0  0.18731015956E+03 -0.22069325368E+03 -0.11970352324E+03  0.31324038943E+03  0.00000000000E+00 0. -1.
        -14    1    3    3    0    0  0.16012515968E+03 -0.10569592711E+03 -0.13446195463E+03  0.23428980561E+03  0.00000000000E+00 0.  1.
          2    1    6    6  502    0  0.92059572231E+02 -0.24523146543E+02 -0.51621898974E+02  0.10835667958E+03  0.00000000000E+00 0. -1.
         -1    1    6    6    0  502 -0.12780305852E+02  0.71487179054E+01  0.42982277155E+01  0.15261557812E+02  0.00000000000E+00 0.  1.
<mgrwt>
<rscale>  0 0.56978923E+03</rscale>
<asrwt>0</asrwt>
<pdfrwt beam="1">  1        1 0.32900713E+00 0.56978923E+03</pdfrwt>
<pdfrwt beam="2">  1       -2 0.35570344E-01 0.56978923E+03</pdfrwt>
<totfact> 0.16772773E+01</totfact>
</mgrwt>
</event>
<event>
12    3  0.2422421E-007  0.2308897E+03  0.7818608E-02  0.1126015E+00
         -2   -1    0    0    0  501 -0.00000000000E+00  0.00000000000E+00  0.51937042758E+02  0.51937042758E+02  0.00000000000E+00 0.  1.
          1   -1    0    0  501    0  0.00000000000E+00 -0.00000000000E+00 -0.26650037952E+04  0.26650037952E+04  0.00000000000E+00 0. -1.
        -24    2    1    2    0    0 -0.98992151915E+02 -0.38753689126E+02 -0.54767379471E+03  0.56352066335E+03  0.79420765863E+02 0.  0.
    5000000    2    1    2    0    0  0.98992151915E+02  0.38753689126E+02 -0.20653929578E+04  0.21534201746E+04  0.60005756723E+03 0.  0.
        -24    2    4    4    0    0  0.34987676854E+02  0.17092819728E+03 -0.19248088501E+04  0.19343516685E+04  0.79916719014E+02 0.  0.
         24    2    4    4    0    0  0.64004475061E+02 -0.13217450815E+03 -0.14058410766E+03  0.21906850610E+03  0.81611553133E+02 0.  0.
         11    1    3    3    0    0 -0.53939838395E+02 -0.41643939630E+01 -0.42387976424E+03  0.42731826883E+03  0.00000000000E+00 0. -1.
        -12    1    3    3    0    0 -0.45052313520E+02 -0.34589295163E+02 -0.12379403046E+03  0.13620239451E+03  0.00000000000E+00 0.  1.
         13    1    5    5    0    0 -0.20901031363E+02  0.71899513262E+02 -0.94636124958E+03  0.94931870719E+03  0.00000000000E+00 0. -1.
        -14    1    5    5    0    0  0.55888708217E+02  0.99028684017E+02 -0.97844760053E+03  0.98503296135E+03  0.00000000000E+00 0.  1.
          2    1    6    6  502    0 -0.43272305593E+00 -0.78300182371E+02 -0.39679772356E+02  0.87781490890E+02  0.00000000000E+00 0. -1.
         -1    1    6    6    0  502  0.64437198117E+02 -0.53874325781E+02 -0.10090433530E+03  0.13128701521E+03  0.00000000000E+00 0.  1.
<mgrwt>
<rscale>  0 0.23088971E+03</rscale>
<asrwt>0</asrwt>
<pdfrwt beam="1">  1        1 0.41000051E+00 0.23088971E+03</pdfrwt>
<pdfrwt beam="2">  1       -2 0.79903157E-02 0.23088971E+03</pdfrwt>
<totfact> 0.10378884E+02</totfact>
</mgrwt>
</event>
<event>
12    3  0.2422421E-007  0.3583344E+03  0.7818608E-02  0.1059245E+00
          1   -1    0    0  501    0  0.00000000000E+00  0.00000000000E+00  0.14343915471E+03  0.14343915471E+03  0.00000000000E+00 0. -1.
         -2   -1    0    0    0  501 -0.00000000000E+00 -0.00000000000E+00 -0.20910695104E+04  0.20910695104E+04  0.00000000000E+00 0.  1.
        -24    2    1    2    0    0 -0.21261386942E+03  0.85881502762E+02 -0.73625976702E+02  0.25344842115E+03  0.78962191913E+02 0.  0.
    5000000    2    1    2    0    0  0.21261386942E+03 -0.85881502762E+02 -0.18740043790E+04  0.19810602440E+04  0.60010581379E+03 0.  0.
        -24    2    4    4    0    0  0.12567648786E+03 -0.25119633429E+03 -0.41252926355E+03  0.50554699601E+03  0.80642382933E+02 0.  0.
         24    2    4    4    0    0  0.86937381553E+02  0.16531483152E+03 -0.14614751154E+04  0.14755132480E+04  0.79641258220E+02 0.  0.
         13    1    3    3    0    0 -0.95952825648E+02  0.28531329963E+02 -0.72234286376E+02  0.12344542789E+03  0.00000000000E+00 0. -1.
        -14    1    3    3    0    0 -0.11666104377E+03  0.57350172798E+02 -0.13916903261E+01  0.13000299325E+03  0.00000000000E+00 0.  1.
         13    1    5    5    0    0  0.64090401247E+02 -0.85458664434E+02 -0.99227424294E+02  0.14579727223E+03  0.00000000000E+00 0. -1.
        -14    1    5    5    0    0  0.61586086616E+02 -0.16573766985E+03 -0.31330183926E+03  0.35974972377E+03  0.00000000000E+00 0.  1.
          2    1    6    6  502    0  0.40323943871E+01  0.92522744370E+02 -0.64236343017E+03  0.64900500372E+03  0.00000000000E+00 0. -1.
         -1    1    6    6    0  502  0.82904987166E+02  0.72792087155E+02 -0.81911168526E+03  0.82650824423E+03  0.00000000000E+00 0.  1.
<mgrwt>
<rscale>  0 0.35833436E+03</rscale>
<asrwt>0</asrwt>
<pdfrwt beam="1">  1        1 0.22067561E-01 0.35833436E+03</pdfrwt>
<pdfrwt beam="2">  1       -2 0.32170301E+00 0.35833436E+03</pdfrwt>
<totfact> 0.52627065E+00</totfact>
</mgrwt>
</event>
<event>
12    3  0.2422421E-007  0.7360453E+03  0.7818608E-02  0.9657501E-01
          1   -1    0    0  501    0  0.00000000000E+00  0.00000000000E+00  0.14278690359E+04  0.14278690359E+04  0.00000000000E+00 0. -1.
         -2   -1    0    0    0  501 -0.00000000000E+00 -0.00000000000E+00 -0.60245862130E+03  0.60245862130E+03  0.00000000000E+00 0.  1.
        -24    2    1    2    0    0  0.27053504946E+02  0.69779316733E+03 -0.11697595421E+03  0.71282137456E+03  0.82363472854E+02 0.  0.
    5000000    2    1    2    0    0 -0.27053504946E+02 -0.69779316733E+03  0.94238636878E+03  0.13175062826E+04  0.60006961278E+03 0.  0.
        -24    2    4    4    0    0 -0.94073319712E+02 -0.86660996278E+02  0.57895719098E+03  0.59877304061E+03  0.83533271335E+02 0.  0.
         24    2    4    4    0    0  0.67019814765E+02 -0.61113217105E+03  0.36342917780E+03  0.71873324200E+03  0.80762118737E+02 0.  0.
         11    1    3    3    0    0 -0.22209176185E+02  0.39337907415E+03 -0.82238884643E+02  0.40249668027E+03  0.00000000000E+00 0. -1.
        -12    1    3    3    0    0  0.49262681131E+02  0.30441409318E+03 -0.34737069568E+02  0.31032469428E+03  0.00000000000E+00 0.  1.
         13    1    5    5    0    0 -0.95495113753E+02 -0.10039538388E+03  0.53775158154E+03  0.55531550789E+03  0.00000000000E+00 0. -1.
        -14    1    5    5    0    0  0.14217940414E+01  0.13734387599E+02  0.41205609442E+02  0.43457532725E+02  0.00000000000E+00 0.  1.
          4    1    6    6  502    0  0.26758019551E+02 -0.46493403994E+03  0.30241030074E+03  0.55527618632E+03  0.00000000000E+00 0. -1.
         -3    1    6    6    0  502  0.40261795214E+02 -0.14619813111E+03  0.61018877058E+02  0.16345705568E+03  0.00000000000E+00 0.  1.
<mgrwt>
<rscale>  0 0.73604530E+03</rscale>
<asrwt>0</asrwt>
<pdfrwt beam="1">  1        1 0.21967216E+00 0.73604530E+03</pdfrwt>
<pdfrwt beam="2">  1       -2 0.92685942E-01 0.73604530E+03</pdfrwt>
<totfact> 0.65743007E+00</totfact>
</mgrwt>
</event>
<event>
12    3  0.2422421E-007  0.4164517E+03  0.7818608E-02  0.1038227E+00
          1   -1    0    0  501    0  0.00000000000E+00  0.00000000000E+00  0.14524829822E+04  0.14524829822E+04  0.00000000000E+00 0. -1.
         -2   -1    0    0    0  501 -0.00000000000E+00 -0.00000000000E+00 -0.23091461086E+03  0.23091461086E+03  0.00000000000E+00 0.  1.
        -24    2    1    2    0    0 -0.37601704977E+03 -0.16136640942E+03  0.58360338516E+03  0.71681272239E+03  0.76155288707E+02 0.  0.
    5000000    2    1    2    0    0  0.37601704977E+03  0.16136640942E+03  0.63796498616E+03  0.96658487065E+03  0.59988252917E+03 0.  0.
        -24    2    4    4    0    0  0.29438828087E+03  0.92567810166E+02  0.73659367402E+03  0.80115338140E+03  0.63586480693E+02 0.  0.
         24    2    4    4    0    0  0.81628768893E+02  0.68798599253E+02 -0.98628687866E+02  0.16543148925E+03  0.79015545267E+02 0.  0.
         13    1    5    5    0    0  0.22838032659E+03  0.85616324829E+02  0.51505033365E+03  0.56988119363E+03  0.00000000000E+00 0. -1.
        -14    1    5    5    0    0  0.66007954280E+02  0.69514853368E+01  0.22154334037E+03  0.23127218778E+03  0.00000000000E+00 0.  1.
         13    1    3    3    0    0 -0.14918029728E+03 -0.25268671107E+02  0.22699481759E+03  0.27280013572E+03  0.00000000000E+00 0. -1.
        -14    1    3    3    0    0 -0.22683675249E+03 -0.13609773831E+03  0.35660856757E+03  0.44401258667E+03  0.00000000000E+00 0.  1.
          4    1    6    6  502    0  0.44701276291E+02  0.39504699573E+02 -0.10201176839E+03  0.11817455852E+03  0.00000000000E+00 0. -1.
         -3    1    6    6    0  502  0.36927492602E+02  0.29293899679E+02  0.33830805227E+01  0.47256930731E+02  0.00000000000E+00 0.  1.
<mgrwt>
<rscale>  0 0.41645172E+03</rscale>
<asrwt>0</asrwt>
<pdfrwt beam="1">  1        1 0.22345891E+00 0.41645172E+03</pdfrwt>
<pdfrwt beam="2">  1       -2 0.35525326E-01 0.41645172E+03</pdfrwt>
<totfact> 0.49499539E+01</totfact>
</mgrwt>
</event>
<event>
12    3  0.2755920E-007  0.8605922E+03  0.7818608E-02  0.9476230E-01
         -4   -1    0    0    0  501 -0.00000000000E+00  0.00000000000E+00  0.27987421159E+03  0.27987421159E+03  0.00000000000E+00 0.  1.
          3   -1    0    0  501    0  0.00000000000E+00 -0.00000000000E+00 -0.29011579803E+04  0.29011579803E+04  0.00000000000E+00 0. -1.
        -24    2    1    2    0    0  0.76663338352E+03  0.72860864240E+01 -0.15649717961E+04  0.17444978410E+04  0.79725545833E+02 0.  0.
    5000000    2    1    2    0    0 -0.76663338352E+03 -0.72860864240E+01 -0.10563119725E+04  0.14365343509E+04  0.60004676998E+03 0.  0.
        -24    2    4    4    0    0 -0.13837067021E+03 -0.24214690900E+03 -0.40893567552E+03  0.50106455588E+03  0.77818600175E+02 0.  0.
         24    2    4    4    0    0 -0.62826271331E+03  0.23486082257E+03 -0.64737629702E+03  0.93546979501E+03  0.78320013484E+02 0.  0.
         11    1    3    3    0    0  0.38534812479E+03 -0.16102709648E+02 -0.70786158603E+03  0.80611444567E+03  0.00000000000E+00 0. -1.
        -12    1    3    3    0    0  0.38128525872E+03  0.23388796072E+02 -0.85711021011E+03  0.93838339531E+03  0.00000000000E+00 0.  1.
         13    1    5    5    0    0 -0.75207499093E+02 -0.13851463654E+03 -0.16259309842E+03  0.22644864343E+03  0.00000000000E+00 0. -1.
        -14    1    5    5    0    0 -0.63163171115E+02 -0.10363227246E+03 -0.24634257710E+03  0.27461591246E+03  0.00000000000E+00 0.  1.
          4    1    6    6  502    0 -0.51749553661E+03  0.16331176366E+03 -0.50271242714E+03  0.73972437229E+03  0.00000000000E+00 0. -1.
         -3    1    6    6    0  502 -0.11076717670E+03  0.71549058914E+02 -0.14466386988E+03  0.19574542271E+03  0.00000000000E+00 0.  1.
<mgrwt>
<rscale>  0 0.86059221E+03</rscale>
<asrwt>0</asrwt>
<pdfrwt beam="1">  1        3 0.44633201E+00 0.86059221E+03</pdfrwt>
<pdfrwt beam="2">  1       -4 0.43057570E-01 0.86059221E+03</pdfrwt>
<totfact> 0.77908877E-02</totfact>
</mgrwt>
</event>
<event>
12    3  0.2422421E-007  0.9317672E+03  0.7818608E-02  0.9386719E-01
         -2   -1    0    0    0  501 -0.00000000000E+00  0.00000000000E+00  0.88645352481E+03  0.88645352481E+03  0.00000000000E+00 0.  1.
          1   -1    0    0  501    0  0.00000000000E+00 -0.00000000000E+00 -0.13429142424E+04  0.13429142424E+04  0.00000000000E+00 0. -1.
        -24    2    1    2    0    0 -0.88613496724E+03 -0.19420972581E+03  0.23501979369E+03  0.94040103399E+03  0.78531544843E+02 0.  0.
    5000000    2    1    2    0    0  0.88613496724E+03  0.19420972581E+03 -0.69148051129E+03  0.12889667332E+04  0.60028105427E+03 0.  0.
        -24    2    4    4    0    0  0.52702085023E+03 -0.11814724169E+02 -0.68174405530E+03  0.86497093637E+03  0.74223982258E+02 0.  0.
         24    2    4    4    0    0  0.35911411701E+03  0.20602444998E+03 -0.97364559913E+01  0.42399579686E+03  0.90931920434E+02 0.  0.
         13    1    3    3    0    0 -0.49352385005E+03 -0.76834956874E+02  0.10397537624E+03  0.51017671451E+03  0.00000000000E+00 0. -1.
        -14    1    3    3    0    0 -0.39261111720E+03 -0.11737476894E+03  0.13104441745E+03  0.43022431948E+03  0.00000000000E+00 0.  1.
         13    1    5    5    0    0  0.12742464129E+03  0.26811345472E+02 -0.18621001896E+03  0.22722248704E+03  0.00000000000E+00 0. -1.
        -14    1    5    5    0    0  0.39959620894E+03 -0.38626069641E+02 -0.49553403634E+03  0.63774844933E+03  0.00000000000E+00 0.  1.
          4    1    6    6  502    0  0.20813636486E+03  0.70566988790E+02 -0.21466552985E+02  0.22081951721E+03  0.00000000000E+00 0. -1.
         -3    1    6    6    0  502  0.15097775215E+03  0.13545746119E+03  0.11730096994E+02  0.20317627965E+03  0.00000000000E+00 0.  1.
<mgrwt>
<rscale>  0 0.93176723E+03</rscale>
<asrwt>0</asrwt>
<pdfrwt beam="1">  1        1 0.20660219E+00 0.93176723E+03</pdfrwt>
<pdfrwt beam="2">  1       -2 0.13637747E+00 0.93176723E+03</pdfrwt>
<totfact> 0.28585884E+00</totfact>
</mgrwt>
</event>
<event>
12    3  0.2422421E-007  0.1196914E+04  0.7818608E-02  0.9115562E-01
          1   -1    0    0  501    0  0.00000000000E+00  0.00000000000E+00  0.84918095615E+03  0.84918095615E+03  0.00000000000E+00 0. -1.
         -2   -1    0    0    0  501 -0.00000000000E+00 -0.00000000000E+00 -0.21731727027E+04  0.21731727027E+04  0.00000000000E+00 0.  1.
        -24    2    1    2    0    0 -0.36500211512E+03 -0.10954936772E+04  0.11935032364E+02  0.11573926280E+04  0.77989163013E+02 0.  0.
    5000000    2    1    2    0    0  0.36500211512E+03  0.10954936772E+04 -0.13359267789E+04  0.18649610309E+04  0.60003862144E+03 0.  0.
        -24    2    4    4    0    0 -0.19811328288E+02  0.62963068934E+03 -0.40039643219E+03  0.74840852541E+03  0.54504351248E+02 0.  0.
         24    2    4    4    0    0  0.38481344340E+03  0.46586298784E+03 -0.93553034673E+03  0.11165525055E+04  0.79766898635E+02 0.  0.
         11    1    3    3    0    0 -0.17408853679E+03 -0.40339554042E+03  0.70137010033E+00  0.43935779564E+03  0.00000000000E+00 0. -1.
        -12    1    3    3    0    0 -0.19091357833E+03 -0.69209813676E+03  0.11233662264E+02  0.71803483235E+03  0.00000000000E+00 0.  1.
         11    1    5    5    0    0 -0.38078287848E+02  0.37263886154E+03 -0.24293130141E+03  0.44645861436E+03  0.00000000000E+00 0. -1.
        -12    1    5    5    0    0  0.18266959560E+02  0.25699182780E+03 -0.15746513078E+03  0.30194991104E+03  0.00000000000E+00 0.  1.
          4    1    6    6  502    0  0.14367336391E+03  0.18053144845E+03 -0.28844731841E+03  0.36937175700E+03  0.00000000000E+00 0. -1.
         -3    1    6    6    0  502  0.24114007950E+03  0.28533153939E+03 -0.64708302832E+03  0.74718074845E+03  0.00000000000E+00 0.  1.
<mgrwt>
<rscale>  0 0.11969144E+04</rscale>
<asrwt>0</asrwt>
<pdfrwt beam="1">  1        1 0.13064323E+00 0.11969144E+04</pdfrwt>
<pdfrwt beam="2">  1       -2 0.33433425E+00 0.11969144E+04</pdfrwt>
<totfact> 0.33821851E-01</totfact>
</mgrwt>
</event>
<event>
12    3  0.2422421E-007  0.2099004E+04  0.7818608E-02  0.8561682E-01
         -4   -1    0    0    0  501 -0.00000000000E+00  0.00000000000E+00  0.30287059588E+04  0.30287059588E+04  0.00000000000E+00 0.  1.
          3   -1    0    0  501    0  0.00000000000E+00 -0.00000000000E+00 -0.15199413183E+04  0.15199413183E+04  0.00000000000E+00 0. -1.
        -24    2    1    2    0    0 -0.16813642562E+04  0.12532052810E+04  0.57562935714E+03  0.21762718457E+04  0.85444433691E+02 0.  0.
    5000000    2    1    2    0    0  0.16813642562E+04 -0.12532052810E+04  0.93313528338E+03  0.23723754314E+04  0.59992873915E+03 0.  0.
        -24    2    4    4    0    0  0.65955613428E+03 -0.42358345851E+03  0.65533593051E+03  0.10248296287E+04  0.79833234693E+02 0.  0.
         24    2    4    4    0    0  0.10218081219E+04 -0.82962182246E+03  0.27779935287E+03  0.13475458027E+04  0.79642976278E+02 0.  0.
         11    1    3    3    0    0 -0.27293570995E+03  0.21217258342E+03  0.12727721743E+03  0.36838919229E+03  0.00000000000E+00 0. -1.
        -12    1    3    3    0    0 -0.14084285462E+04  0.10410326976E+04  0.44835213970E+03  0.18078826534E+04  0.00000000000E+00 0.  1.
         13    1    5    5    0    0  0.23426990331E+03 -0.12992467453E+03  0.26839630314E+03  0.37920889255E+03  0.00000000000E+00 0. -1.
        -14    1    5    5    0    0  0.42528623098E+03 -0.29365878398E+03  0.38693962737E+03  0.64562073611E+03  0.00000000000E+00 0.  1.
          2    1    6    6  502    0  0.22828444890E+03 -0.18556642929E+03  0.28438537144E+02  0.29556292001E+03  0.00000000000E+00 0. -1.
         -1    1    6    6    0  502  0.79352367299E+03 -0.64405539317E+03  0.24936081572E+03  0.10519828827E+04  0.00000000000E+00 0.  1.
<mgrwt>
<rscale>  0 0.20990044E+04</rscale>
<asrwt>0</asrwt>
<pdfrwt beam="1">  1        3 0.23383713E+00 0.20990044E+04</pdfrwt>
<pdfrwt beam="2">  1       -4 0.46595476E+00 0.20990044E+04</pdfrwt>
<totfact> 0.40305343E-04</totfact>
</mgrwt>
</event>
<event>
12    3  0.2422421E-007  0.7448126E+03  0.7818608E-02  0.9643524E-01
         -2   -1    0    0    0  501 -0.00000000000E+00  0.00000000000E+00  0.87317627768E+03  0.87317627768E+03  0.00000000000E+00 0.  1.
          1   -1    0    0  501    0  0.00000000000E+00 -0.00000000000E+00 -0.71821409101E+03  0.71821409101E+03  0.00000000000E+00 0. -1.
        -24    2    1    2    0    0 -0.58808529715E+03 -0.23308150194E+03 -0.17207576820E+03  0.66021495192E+03  0.78117920195E+02 0.  0.
    5000000    2    1    2    0    0  0.58808529715E+03  0.23308150194E+03  0.32703795487E+03  0.93117541677E+03  0.59996877385E+03 0.  0.
        -24    2    4    4    0    0  0.11684900972E+03 -0.18735481119E+03  0.10922460406E+03  0.25821585345E+03  0.77394421586E+02 0.  0.
         24    2    4    4    0    0  0.47123628743E+03  0.42043631314E+03  0.21781335081E+03  0.67295956332E+03  0.81250145042E+02 0.  0.
         11    1    3    3    0    0 -0.21407110724E+03 -0.11478011263E+03 -0.39200467296E+02  0.24604387789E+03  0.00000000000E+00 0. -1.
        -12    1    3    3    0    0 -0.37401418991E+03 -0.11830138931E+03 -0.13287530090E+03  0.41417107402E+03  0.00000000000E+00 0.  1.
         13    1    5    5    0    0  0.90114257858E+02 -0.13434313245E+03  0.11512645995E+03  0.19855165194E+03  0.00000000000E+00 0. -1.
        -14    1    5    5    0    0  0.26734751863E+02 -0.53011678740E+02 -0.59018558840E+01  0.59664201519E+02  0.00000000000E+00 0.  1.
          2    1    6    6  502    0  0.40010152101E+03  0.37830488304E+03  0.21215969832E+03  0.59009113638E+03  0.00000000000E+00 0. -1.
         -1    1    6    6    0  502  0.71134766424E+02  0.42131430094E+02  0.56536524963E+01  0.82868426934E+02  0.00000000000E+00 0.  1.
<mgrwt>
<rscale>  0 0.74481260E+03</rscale>
<asrwt>0</asrwt>
<pdfrwt beam="1">  1        1 0.11049448E+00 0.74481260E+03</pdfrwt>
<pdfrwt beam="2">  1       -2 0.13433481E+00 0.74481260E+03</pdfrwt>
<totfact> 0.93660540E+00</totfact>
</mgrwt>
</event>
<event>
12    3  0.2422421E-007  0.3543232E+03  0.7818608E-02  0.1060854E+00
          1   -1    0    0  501    0  0.00000000000E+00  0.00000000000E+00  0.91138352610E+03  0.91138352610E+03  0.00000000000E+00 0. -1.
         -2   -1    0    0    0  501 -0.00000000000E+00 -0.00000000000E+00 -0.29434525132E+03  0.29434525132E+03  0.00000000000E+00 0.  1.
        -24    2    1    2    0    0  0.12641825311E+03  0.28502588920E+03  0.35680189670E+03  0.48115450768E+03  0.83550790163E+02 0.  0.
    5000000    2    1    2    0    0 -0.12641825311E+03 -0.28502588920E+03  0.26023637808E+03  0.72457426974E+03  0.60005297071E+03 0.  0.
        -24    2    4    4    0    0 -0.69143085582E+02 -0.28825605570E+03 -0.12170331402E+03  0.33004786248E+03  0.79041602640E+02 0.  0.
         24    2    4    4    0    0 -0.57275167527E+02  0.32301665018E+01  0.38193969210E+03  0.39452640726E+03  0.80512600496E+02 0.  0.
         13    1    3    3    0    0  0.94961678950E+02  0.16469274602E+03  0.26691649208E+03  0.32769777968E+03  0.00000000000E+00 0. -1.
        -14    1    3    3    0    0  0.31456574159E+02  0.12033314318E+03  0.89885404623E+02  0.15345672800E+03  0.00000000000E+00 0.  1.
         13    1    5    5    0    0 -0.55709189744E+02 -0.25131245195E+03 -0.73207241463E+02  0.26762055700E+03  0.00000000000E+00 0. -1.
        -14    1    5    5    0    0 -0.13433895838E+02 -0.36943603758E+02 -0.48496072555E+02  0.62427305478E+02  0.00000000000E+00 0.  1.
          4    1    6    6  502    0 -0.65040092944E+02 -0.23843044734E+02  0.29955457010E+03  0.30745998917E+03  0.00000000000E+00 0. -1.
         -3    1    6    6    0  502  0.77649254167E+01  0.27073211236E+02  0.82385121994E+02  0.87066418092E+02  0.00000000000E+00 0.  1.
<mgrwt>
<rscale>  0 0.35432324E+03</rscale>
<asrwt>0</asrwt>
<pdfrwt beam="1">  1        1 0.14021285E+00 0.35432324E+03</pdfrwt>
<pdfrwt beam="2">  1       -2 0.45283885E-01 0.35432324E+03</pdfrwt>
<totfact> 0.76781803E+01</totfact>
</mgrwt>
</event>
<event>
12    3  0.2422421E-007  0.6366557E+03  0.7818608E-02  0.9832146E-01
          1   -1    0    0  501    0  0.00000000000E+00  0.00000000000E+00  0.31174957419E+03  0.31174957419E+03  0.00000000000E+00 0. -1.
         -2   -1    0    0    0  501 -0.00000000000E+00 -0.00000000000E+00 -0.13754639460E+04  0.13754639460E+04  0.00000000000E+00 0.  1.
        -24    2    1    2    0    0 -0.65497522766E+02  0.50290790955E+03 -0.31614797581E+03  0.60291590639E+03  0.79697908401E+02 0.  0.
    5000000    2    1    2    0    0  0.65497522766E+02 -0.50290790955E+03 -0.74756639605E+03  0.10842976138E+04  0.59969951469E+03 0.  0.
        -24    2    4    4    0    0 -0.31224284345E+02  0.11883167292E+03 -0.18438151864E+03  0.23581276866E+03  0.80716758008E+02 0.  0.
         24    2    4    4    0    0  0.96721807111E+02 -0.62173958246E+03 -0.56318487741E+03  0.84848484519E+03  0.82668676102E+02 0.  0.
         13    1    5    5    0    0 -0.11481160470E+02  0.96185420754E+02 -0.75367037993E+02  0.12273403207E+03  0.00000000000E+00 0. -1.
        -14    1    5    5    0    0 -0.19743123874E+02  0.22646252161E+02 -0.10901448065E+03  0.11307873659E+03  0.00000000000E+00 0.  1.
         13    1    3    3    0    0 -0.80586002288E+02  0.40199320225E+03 -0.27013680386E+03  0.49098526579E+03  0.00000000000E+00 0. -1.
        -14    1    3    3    0    0  0.15088479521E+02  0.10091470729E+03 -0.46011171948E+02  0.11193064060E+03  0.00000000000E+00 0.  1.
          2    1    6    6  502    0  0.98248590105E+02 -0.37590404068E+03 -0.35656829936E+03  0.52734958554E+03  0.00000000000E+00 0. -1.
         -1    1    6    6    0  502 -0.15267829942E+01 -0.24583554178E+03 -0.20661657805E+03  0.32113525965E+03  0.00000000000E+00 0.  1.
<mgrwt>
<rscale>  0 0.63665570E+03</rscale>
<asrwt>0</asrwt>
<pdfrwt beam="1">  1        1 0.47961472E-01 0.63665570E+03</pdfrwt>
<pdfrwt beam="2">  1       -2 0.21160984E+00 0.63665570E+03</pdfrwt>
<totfact> 0.84510550E+00</totfact>
</mgrwt>
</event>
<event>
12    3  0.2422421E-007  0.3496480E+03  0.7818608E-02  0.1062760E+00
         -2   -1    0    0    0  501 -0.00000000000E+00  0.00000000000E+00  0.33674848047E+03  0.33674848047E+03  0.00000000000E+00 0.  1.
          1   -1    0    0  501    0  0.00000000000E+00 -0.00000000000E+00 -0.69478250468E+03  0.69478250468E+03  0.00000000000E+00 0. -1.
        -24    2    1    2    0    0  0.21991386107E+03 -0.14884719062E+03  0.14124525076E+02  0.27716669277E+03  0.78129897781E+02 0.  0.
    5000000    2    1    2    0    0 -0.21991386107E+03  0.14884719062E+03 -0.37215854929E+03  0.75436429238E+03  0.60003825492E+03 0.  0.
        -24    2    4    4    0    0 -0.28323401699E+03  0.83098946484E+02  0.55098053445E+02  0.31022619611E+03  0.77958668361E+02 0.  0.
         24    2    4    4    0    0  0.63320155922E+02  0.65748244133E+02 -0.42725660273E+03  0.44413809627E+03  0.79863447380E+02 0.  0.
         11    1    5    5    0    0 -0.22224733626E+03  0.29683408729E+02  0.40928738864E+02  0.22792574426E+03  0.00000000000E+00 0. -1.
        -12    1    5    5    0    0 -0.60986680729E+02  0.53415537755E+02  0.14169314581E+02  0.82300451856E+02  0.00000000000E+00 0.  1.
         13    1    3    3    0    0  0.12863671085E+03 -0.12477482690E+03 -0.10795567689E+02  0.17953469049E+03  0.00000000000E+00 0. -1.
        -14    1    3    3    0    0  0.91277150213E+02 -0.24072363721E+02  0.24920092765E+02  0.97632002282E+02  0.00000000000E+00 0.  1.
          4    1    6    6  502    0 -0.18209961108E+02  0.55077007542E+01 -0.49927108017E+02  0.53428958123E+02  0.00000000000E+00 0. -1.
         -3    1    6    6    0  502  0.81530117030E+02  0.60240543379E+02 -0.37732949472E+03  0.39070913815E+03  0.00000000000E+00 0.  1.
<mgrwt>
<rscale>  0 0.34964797E+03</rscale>
<asrwt>0</asrwt>
<pdfrwt beam="1">  1        1 0.10688962E+00 0.34964797E+03</pdfrwt>
<pdfrwt beam="2">  1       -2 0.51807458E-01 0.34964797E+03</pdfrwt>
<totfact> 0.89621636E+01</totfact>
</mgrwt>
</event>
<event>
12    3  0.2422421E-007  0.4956188E+03  0.7818608E-02  0.1014929E+00
         -2   -1    0    0    0  501 -0.00000000000E+00  0.00000000000E+00  0.41954139413E+03  0.41954139413E+03  0.00000000000E+00 0.  1.
          1   -1    0    0  501    0  0.00000000000E+00 -0.00000000000E+00 -0.24729160863E+04  0.24729160863E+04  0.00000000000E+00 0. -1.
        -24    2    1    2    0    0  0.36175475896E+03  0.25804398708E+03  0.21816511061E+03  0.50141403133E+03  0.79792295554E+02 0.  0.
    5000000    2    1    2    0    0 -0.36175475896E+03 -0.25804398708E+03 -0.22715398028E+04  0.23910434491E+04  0.59978537408E+03 0.  0.
        -24    2    4    4    0    0 -0.85925701314E+02 -0.23438583876E+03 -0.30274603079E+03  0.40125595848E+03  0.83852474589E+02 0.  0.
         24    2    4    4    0    0 -0.27582905765E+03 -0.23658148315E+02 -0.19687937720E+04  0.19897874906E+04  0.80398782193E+02 0.  0.
         11    1    3    3    0    0  0.11791202449E+03  0.10943328932E+03  0.11517793242E+03  0.19785056595E+03  0.00000000000E+00 0. -1.
        -12    1    3    3    0    0  0.24384273446E+03  0.14861069776E+03  0.10298717819E+03  0.30356346538E+03  0.00000000000E+00 0.  1.
         13    1    5    5    0    0  0.50788912464E+00 -0.78192364592E+02 -0.53774411775E+02  0.94899900914E+02  0.00000000000E+00 0. -1.
        -14    1    5    5    0    0 -0.86433590438E+02 -0.15619347417E+03 -0.24897161902E+03  0.30635605757E+03  0.00000000000E+00 0.  1.
          2    1    6    6  502    0 -0.12685517799E+03  0.28939424953E+02 -0.85436779400E+03  0.86421875351E+03  0.00000000000E+00 0. -1.
         -3    1    6    6    0  502 -0.14897387965E+03 -0.52597573268E+02 -0.11144259780E+04  0.11255687371E+04  0.00000000000E+00 0.  1.
<mgrwt>
<rscale>  0 0.49561877E+03</rscale>
<asrwt>0</asrwt>
<pdfrwt beam="1">  1        1 0.38044863E+00 0.49561877E+03</pdfrwt>
<pdfrwt beam="2">  1       -2 0.64544830E-01 0.49561877E+03</pdfrwt>
<totfact> 0.30757717E+00</totfact>
</mgrwt>
</event>
<event>
12    3  0.2422421E-007  0.9963461E+03  0.7818608E-02  0.9312561E-01
         -2   -1    0    0    0  501 -0.00000000000E+00  0.00000000000E+00  0.11729914768E+04  0.11729914768E+04  0.00000000000E+00 0.  1.
          1   -1    0    0  501    0  0.00000000000E+00 -0.00000000000E+00 -0.11539366928E+04  0.11539366928E+04  0.00000000000E+00 0. -1.
        -24    2    1    2    0    0 -0.91798499734E+03  0.10326431194E+03  0.57729244520E+03  0.10923169199E+04  0.80806637841E+02 0.  0.
    5000000    2    1    2    0    0  0.91798499734E+03 -0.10326431194E+03 -0.55823766114E+03  0.12346112497E+04  0.59939609458E+03 0.  0.
        -24    2    4    4    0    0  0.97166527607E+03 -0.37730299588E+02 -0.55137493016E+03  0.11206598098E+04  0.79417324880E+02 0.  0.
         24    2    4    4    0    0 -0.53680278734E+02 -0.65534012354E+02 -0.68627309769E+01  0.11395143992E+03  0.75904904214E+02 0.  0.
         11    1    5    5    0    0  0.84797432141E+03 -0.49307714939E+02 -0.50415345614E+03  0.98775624922E+03  0.00000000000E+00 0. -1.
        -12    1    5    5    0    0  0.12369095466E+03  0.11577415351E+02 -0.47221474018E+02  0.13290356060E+03  0.00000000000E+00 0.  1.
         11    1    3    3    0    0 -0.28007639988E+03  0.15298451815E+02  0.13640706406E+03  0.31190338171E+03  0.00000000000E+00 0. -1.
        -12    1    3    3    0    0 -0.63790859746E+03  0.87965860128E+02  0.44088538114E+03  0.78041353817E+03  0.00000000000E+00 0.  1.
          4    1    6    6  502    0 -0.26959768950E+02 -0.62068375905E+02 -0.33980915994E+02  0.75723279651E+02  0.00000000000E+00 0. -1.
         -1    1    6    6    0  502 -0.26720509784E+02 -0.34656364498E+01  0.27118185017E+02  0.38228160271E+02  0.00000000000E+00 0.  1.
<mgrwt>
<rscale>  0 0.99634614E+03</rscale>
<asrwt>0</asrwt>
<pdfrwt beam="1">  1        1 0.17752872E+00 0.99634614E+03</pdfrwt>
<pdfrwt beam="2">  1       -2 0.18046023E+00 0.99634614E+03</pdfrwt>
<totfact> 0.18179321E+00</totfact>
</mgrwt>
</event>
<event>
12    3  0.2422421E-007  0.8765270E+03  0.7818608E-02  0.9455409E-01
         -2   -1    0    0    0  501 -0.00000000000E+00  0.00000000000E+00  0.71490383085E+03  0.71490383085E+03  0.00000000000E+00 0.  1.
          1   -1    0    0  501    0  0.00000000000E+00 -0.00000000000E+00 -0.12708253212E+04  0.12708253212E+04  0.00000000000E+00 0. -1.
        -24    2    1    2    0    0  0.70026393766E+03  0.43243377564E+03 -0.49968339736E+03  0.96605044735E+03  0.78749073246E+02 0.  0.
    5000000    2    1    2    0    0 -0.70026393766E+03 -0.43243377564E+03 -0.56238092974E+02  0.10196787047E+04  0.59934412902E+03 0.  0.
        -24    2    4    4    0    0 -0.38604625030E+03  0.12605353306E+01  0.17452093621E+03  0.43109065982E+03  0.79676241717E+02 0.  0.
         24    2    4    4    0    0 -0.31421768736E+03 -0.43369431097E+03 -0.23075902918E+03  0.58858804486E+03  0.79766199537E+02 0.  0.
         13    1    5    5    0    0 -0.17307005454E+03 -0.30424173167E+02  0.10558251179E+03  0.20500375823E+03  0.00000000000E+00 0. -1.
        -14    1    5    5    0    0 -0.21297619576E+03  0.31684708498E+02  0.68938424414E+02  0.22608690159E+03  0.00000000000E+00 0.  1.
         13    1    3    3    0    0  0.13086614104E+03  0.10997459440E+03 -0.12743938180E+03  0.21321621495E+03  0.00000000000E+00 0. -1.
        -14    1    3    3    0    0  0.56939779662E+03  0.32245918124E+03 -0.37224401556E+03  0.75283423241E+03  0.00000000000E+00 0.  1.
          4    1    6    6  502    0 -0.19086858851E+03 -0.23380333434E+03 -0.90872487346E+02  0.31520251614E+03  0.00000000000E+00 0. -1.
         -3    1    6    6    0  502 -0.12334909885E+03 -0.19989097663E+03 -0.13988654183E+03  0.27338552872E+03  0.00000000000E+00 0.  1.
<mgrwt>
<rscale>  0 0.87652698E+03</rscale>
<asrwt>0</asrwt>
<pdfrwt beam="1">  1        1 0.19551159E+00 0.87652698E+03</pdfrwt>
<pdfrwt beam="2">  1       -2 0.10998521E+00 0.87652698E+03</pdfrwt>
<totfact> 0.55397202E+00</totfact>
</mgrwt>
</event>
<event>
12    3  0.2422421E-007  0.7203783E+03  0.7818608E-02  0.9683004E-01
          1   -1    0    0  501    0  0.00000000000E+00  0.00000000000E+00  0.49638146912E+03  0.49638146912E+03  0.00000000000E+00 0. -1.
         -2   -1    0    0    0  501 -0.00000000000E+00 -0.00000000000E+00 -0.12954629012E+04  0.12954629012E+04  0.00000000000E+00 0.  1.
        -24    2    1    2    0    0  0.56897042390E+03  0.38045945959E+03 -0.41109999467E+03  0.80246398755E+03  0.80426998184E+02 0.  0.
    5000000    2    1    2    0    0 -0.56897042390E+03 -0.38045945959E+03 -0.38798143742E+03  0.98938038277E+03  0.59988932510E+03 0.  0.
        -24    2    4    4    0    0 -0.33871013717E+03 -0.59463800613E+02  0.89288749625E+02  0.36471654342E+03  0.82372177538E+02 0.  0.
         24    2    4    4    0    0 -0.23026028673E+03 -0.32099565898E+03 -0.47727018704E+03  0.62466383935E+03  0.79750034643E+02 0.  0.
         11    1    3    3    0    0  0.22545337422E+03  0.17042100045E+03 -0.21194950532E+03  0.35326354772E+03  0.00000000000E+00 0. -1.
        -12    1    3    3    0    0  0.34351704968E+03  0.21003845914E+03 -0.19915048935E+03  0.44920043983E+03  0.00000000000E+00 0.  1.
         11    1    5    5    0    0 -0.24095627702E+03 -0.79184854527E+02  0.70365065221E+02  0.26321362242E+03  0.00000000000E+00 0. -1.
        -12    1    5    5    0    0 -0.97753860145E+02  0.19721053914E+02  0.18923684405E+02  0.10150292100E+03  0.00000000000E+00 0.  1.
          4    1    6    6  502    0 -0.48204590447E+02 -0.12824124726E+03 -0.18238052396E+03  0.22810557984E+03  0.00000000000E+00 0. -1.
         -3    1    6    6    0  502 -0.18205569628E+03 -0.19275441172E+03 -0.29488966309E+03  0.39655825951E+03  0.00000000000E+00 0.  1.
<mgrwt>
<rscale>  0 0.72037825E+03</rscale>
<asrwt>0</asrwt>
<pdfrwt beam="1">  1        1 0.76366380E-01 0.72037825E+03</pdfrwt>
<pdfrwt beam="2">  1       -2 0.19930199E+00 0.72037825E+03</pdfrwt>
<totfact> 0.54167503E+00</totfact>
</mgrwt>
</event>
<event>
12    3  0.2422421E-007  0.5346967E+03  0.7818608E-02  0.1005099E+00
         -2   -1    0    0    0  501 -0.00000000000E+00  0.00000000000E+00  0.15823873513E+03  0.15823873513E+03  0.00000000000E+00 0.  1.
          1   -1    0    0  501    0  0.00000000000E+00 -0.00000000000E+00 -0.18636876166E+04  0.18636876166E+04  0.00000000000E+00 0. -1.
        -24    2    1    2    0    0 -0.35240646265E+03  0.10861557788E+03 -0.50522271825E+03  0.63051755064E+03  0.79465262575E+02 0.  0.
    5000000    2    1    2    0    0  0.35240646265E+03 -0.10861557788E+03 -0.12002261632E+04  0.13914088011E+04  0.59957313999E+03 0.  0.
        -24    2    4    4    0    0  0.50937774094E+03 -0.60749120406E+02 -0.83403150690E+03  0.98236891032E+03  0.79271576664E+02 0.  0.
         24    2    4    4    0    0 -0.15697127829E+03 -0.47866457479E+02 -0.36619465628E+03  0.40903989074E+03  0.79271217760E+02 0.  0.
         11    1    3    3    0    0 -0.23055101477E+03  0.30680858197E+02 -0.31159609821E+03  0.38882800040E+03  0.00000000000E+00 0. -1.
        -12    1    3    3    0    0 -0.12185544787E+03  0.77934719688E+02 -0.19362662004E+03  0.24168955025E+03  0.00000000000E+00 0.  1.
         13    1    5    5    0    0  0.11936595815E+03 -0.22665324929E+02 -0.14017223065E+03  0.18549987376E+03  0.00000000000E+00 0. -1.
        -14    1    5    5    0    0  0.39001178279E+03 -0.38083795477E+02 -0.69385927624E+03  0.79686903656E+03  0.00000000000E+00 0.  1.
          4    1    6    6  502    0 -0.72802901890E+02 -0.59246603571E+02 -0.15232850981E+03  0.17892567579E+03  0.00000000000E+00 0. -1.
         -3    1    6    6    0  502 -0.84168376403E+02  0.11380146092E+02 -0.21386614647E+03  0.23011421494E+03  0.00000000000E+00 0.  1.
<mgrwt>
<rscale>  0 0.53469674E+03</rscale>
<asrwt>0</asrwt>
<pdfrwt beam="1">  1        1 0.28672119E+00 0.53469674E+03</pdfrwt>
<pdfrwt beam="2">  1       -2 0.24344420E-01 0.53469674E+03</pdfrwt>
<totfact> 0.51633683E+01</totfact>
</mgrwt>
</event>
<event>
12    3  0.2422421E-007  0.5268023E+03  0.7818608E-02  0.1007011E+00
          1   -1    0    0  501    0  0.00000000000E+00  0.00000000000E+00  0.23483170311E+04  0.23483170311E+04  0.00000000000E+00 0. -1.
         -2   -1    0    0    0  501 -0.00000000000E+00 -0.00000000000E+00 -0.25274030193E+03  0.25274030193E+03  0.00000000000E+00 0.  1.
        -24    2    1    2    0    0 -0.36008286532E+01  0.39651288262E+03  0.17627051562E+04  0.18084979159E+04  0.79371356946E+02 0.  0.
    5000000    2    1    2    0    0  0.36008286532E+01 -0.39651288262E+03  0.33287157295E+03  0.79255941704E+03  0.60009292065E+03 0.  0.
        -24    2    4    4    0    0 -0.80313769379E+02 -0.49387057576E+03  0.38078565828E+03  0.63340339267E+03  0.76444052314E+02 0.  0.
         24    2    4    4    0    0  0.83914598032E+02  0.97357693142E+02 -0.47914085337E+02  0.15915602437E+03  0.80713693648E+02 0.  0.
         11    1    5    5    0    0 -0.52700582287E+02 -0.28642357743E+03  0.17428645812E+03  0.33939886058E+03  0.00000000000E+00 0. -1.
        -12    1    5    5    0    0 -0.27613187092E+02 -0.20744699833E+03  0.20649920017E+03  0.29400453209E+03  0.00000000000E+00 0.  1.
         13    1    3    3    0    0 -0.41024233089E+02  0.19422565264E+03  0.89140768931E+03  0.91324381213E+03  0.00000000000E+00 0. -1.
        -14    1    3    3    0    0  0.37423404436E+02  0.20228722998E+03  0.87129746687E+03  0.89525410381E+03  0.00000000000E+00 0.  1.
          2    1    6    6  502    0  0.33814002874E+02 -0.56850805205E+01 -0.24680150096E+02  0.42247091493E+02  0.00000000000E+00 0. -1.
         -1    1    6    6    0  502  0.50100595159E+02  0.10304277366E+03 -0.23233935241E+02  0.11690893288E+03  0.00000000000E+00 0.  1.
<mgrwt>
<rscale>  0 0.52680228E+03</rscale>
<asrwt>0</asrwt>
<pdfrwt beam="1">  1        1 0.36127953E+00 0.52680228E+03</pdfrwt>
<pdfrwt beam="2">  1       -2 0.38883125E-01 0.52680228E+03</pdfrwt>
<totfact> 0.10336038E+01</totfact>
</mgrwt>
</event>
<event>
12    3  0.2422421E-007  0.6812023E+03  0.7818608E-02  0.9749930E-01
          3   -1    0    0  501    0  0.00000000000E+00  0.00000000000E+00  0.86503244312E+03  0.86503244312E+03  0.00000000000E+00 0. -1.
         -4   -1    0    0    0  501 -0.00000000000E+00 -0.00000000000E+00 -0.55545624387E+03  0.55545624387E+03  0.00000000000E+00 0.  1.
        -24    2    1    2    0    0 -0.47989911698E+03  0.28629219781E+03  0.90727333554E+02  0.57187588428E+03  0.80896186287E+02 0.  0.
    5000000    2    1    2    0    0  0.47989911698E+03 -0.28629219781E+03  0.21884886570E+03  0.84861280271E+03  0.59998539807E+03 0.  0.
        -24    2    4    4    0    0  0.30766270466E+03 -0.44965151406E+03  0.23312954952E+03  0.59797753087E+03  0.79905673299E+02 0.  0.
         24    2    4    4    0    0  0.17223641233E+03  0.16335931625E+03 -0.14280683816E+02  0.25063527185E+03  0.79135665948E+02 0.  0.
         11    1    5    5    0    0  0.28980273130E+03 -0.37788823657E+03  0.19303692714E+03  0.51385639788E+03  0.00000000000E+00 0. -1.
        -12    1    5    5    0    0  0.17859973357E+02 -0.71763277494E+02  0.40092622377E+02  0.84121132982E+02  0.00000000000E+00 0.  1.
         11    1    3    3    0    0 -0.44315882463E+03  0.24029784760E+03  0.94465083957E+02  0.51289029188E+03  0.00000000000E+00 0. -1.
        -12    1    3    3    0    0 -0.36740292351E+02  0.45994350207E+02 -0.37377504026E+01  0.58985592403E+02  0.00000000000E+00 0.  1.
          2    1    6    6  502    0  0.17117676712E+03  0.12766868531E+03 -0.44068283445E+01  0.21358885492E+03  0.00000000000E+00 0. -1.
         -1    1    6    6    0  502  0.10596452079E+01  0.35690630945E+02 -0.98738554712E+01  0.37046416927E+02  0.00000000000E+00 0.  1.
<mgrwt>
<rscale>  0 0.68120231E+03</rscale>
<asrwt>0</asrwt>
<pdfrwt beam="1">  1        3 0.13308191E+00 0.68120231E+03</pdfrwt>
<pdfrwt beam="2">  1       -4 0.85454806E-01 0.68120231E+03</pdfrwt>
<totfact> 0.11826392E+00</totfact>
</mgrwt>
</event>
<event>
12    3  0.2422421E-007  0.7747104E+03  0.7818608E-02  0.9597362E-01
         -4   -1    0    0    0  501 -0.00000000000E+00  0.00000000000E+00  0.61147729014E+03  0.61147729014E+03  0.00000000000E+00 0.  1.
          1   -1    0    0  501    0  0.00000000000E+00 -0.00000000000E+00 -0.14806714675E+04  0.14806714675E+04  0.00000000000E+00 0. -1.
        -24    2    1    2    0    0  0.40704387997E+03  0.56419840747E+03  0.15404496908E+03  0.71694389603E+03  0.79209433472E+02 0.  0.
    5000000    2    1    2    0    0 -0.40704387997E+03 -0.56419840747E+03 -0.10232391464E+04  0.13752048616E+04  0.60013789861E+03 0.  0.
        -24    2    4    4    0    0 -0.50180684471E+03 -0.51654394530E+03 -0.62963301065E+03  0.95997866920E+03  0.80582630874E+02 0.  0.
         24    2    4    4    0    0  0.94762964742E+02 -0.47654462170E+02 -0.39360613579E+03  0.41522619240E+03  0.78968560023E+02 0.  0.
         11    1    3    3    0    0  0.19221668499E+03  0.33376324469E+03  0.83968469283E+02  0.39420281750E+03  0.00000000000E+00 0. -1.
        -12    1    3    3    0    0  0.21482719497E+03  0.23043516278E+03  0.70076499801E+02  0.32274107853E+03  0.00000000000E+00 0.  1.
         13    1    5    5    0    0 -0.33521529486E+03 -0.34841975452E+03 -0.47146633760E+03  0.67531187368E+03  0.00000000000E+00 0. -1.
        -14    1    5    5    0    0 -0.16659154985E+03 -0.16812419078E+03 -0.15816667305E+03  0.28466679552E+03  0.00000000000E+00 0.  1.
          4    1    6    6  502    0  0.33552130873E+02 -0.57964650015E+02 -0.15862432757E+03  0.17218398135E+03  0.00000000000E+00 0. -1.
         -3    1    6    6    0  502  0.61210833869E+02  0.10310187845E+02 -0.23498180822E+03  0.24304221104E+03  0.00000000000E+00 0.  1.
<mgrwt>
<rscale>  0 0.77471043E+03</rscale>
<asrwt>0</asrwt>
<pdfrwt beam="1">  1        1 0.22779561E+00 0.77471043E+03</pdfrwt>
<pdfrwt beam="2">  1       -4 0.94073431E-01 0.77471043E+03</pdfrwt>
<totfact> 0.31530155E+00</totfact>
</mgrwt>
</event>
<event>
12    3  0.2422421E-007  0.5020836E+03  0.7818608E-02  0.1013236E+00
         -2   -1    0    0    0  501 -0.00000000000E+00  0.00000000000E+00  0.26504154826E+03  0.26504154826E+03  0.00000000000E+00 0.  1.
          1   -1    0    0  501    0  0.00000000000E+00 -0.00000000000E+00 -0.13137736278E+04  0.13137736278E+04  0.00000000000E+00 0. -1.
        -24    2    1    2    0    0 -0.38484330245E+03  0.17477861955E+03 -0.51738031682E+03  0.67275471194E+03  0.79149080334E+02 0.  0.
    5000000    2    1    2    0    0  0.38484330245E+03 -0.17477861955E+03 -0.53135176277E+03  0.90606046417E+03  0.59996577872E+03 0.  0.
        -24    2    4    4    0    0 -0.49162838596E+02 -0.11451521345E+03  0.66633736449E+02  0.16070105079E+03  0.76511790490E+02 0.  0.
         24    2    4    4    0    0  0.43400614105E+03 -0.60263406107E+02 -0.59798549922E+03  0.74535941337E+03  0.77336855641E+02 0.  0.
         13    1    5    5    0    0  0.12797747988E+02 -0.30442763921E+01  0.21904001426E+02  0.25550640907E+02  0.00000000000E+00 0. -1.
        -14    1    5    5    0    0 -0.61960586584E+02 -0.11147093705E+03  0.44729735023E+02  0.13515040989E+03  0.00000000000E+00 0.  1.
         13    1    3    3    0    0 -0.26840090197E+03  0.13352724883E+03 -0.30909265068E+03  0.43058894210E+03  0.00000000000E+00 0. -1.
        -14    1    3    3    0    0 -0.11644240048E+03  0.41251370720E+02 -0.20828766614E+03  0.24216576984E+03  0.00000000000E+00 0.  1.
          4    1    6    6  502    0  0.26424156512E+03 -0.16008055943E+02 -0.41171235819E+03  0.48947617764E+03  0.00000000000E+00 0. -1.
         -3    1    6    6    0  502  0.16976457593E+03 -0.44255350164E+02 -0.18627314103E+03  0.25588323573E+03  0.00000000000E+00 0.  1.
<mgrwt>
<rscale>  0 0.50208359E+03</rscale>
<asrwt>0</asrwt>
<pdfrwt beam="1">  1        1 0.20211902E+00 0.50208359E+03</pdfrwt>
<pdfrwt beam="2">  1       -2 0.40775623E-01 0.50208359E+03</pdfrwt>
<totfact> 0.46649608E+01</totfact>
</mgrwt>
</event>
<event>
12    3  0.2422421E-007  0.3257417E+03  0.7818608E-02  0.1073037E+00
         -2   -1    0    0    0  501 -0.00000000000E+00  0.00000000000E+00  0.14831268010E+03  0.14831268010E+03  0.00000000000E+00 0.  1.
          1   -1    0    0  501    0  0.00000000000E+00 -0.00000000000E+00 -0.92015960208E+03  0.92015960208E+03  0.00000000000E+00 0. -1.
        -24    2    1    2    0    0 -0.56737581897E+02 -0.63694355962E+02 -0.22060788072E+03  0.24917299774E+03  0.78378706215E+02 0.  0.
    5000000    2    1    2    0    0  0.56737581897E+02  0.63694355962E+02 -0.55123904126E+03  0.81929928443E+03  0.60009225347E+03 0.  0.
        -24    2    4    4    0    0 -0.23189025305E+03  0.10749845757E+03 -0.39872615380E+03  0.48052087784E+03  0.81171180076E+02 0.  0.
         24    2    4    4    0    0  0.28862783495E+03 -0.43804101610E+02 -0.15251288746E+03  0.33877840659E+03  0.79283046765E+02 0.  0.
         11    1    3    3    0    0 -0.95883884043E+01 -0.35178757131E+02 -0.17159829939E+03  0.17542935472E+03  0.00000000000E+00 0. -1.
        -12    1    3    3    0    0 -0.47149193492E+02 -0.28515598831E+02 -0.49009581331E+02  0.73743643020E+02  0.00000000000E+00 0.  1.
         13    1    5    5    0    0 -0.67074510825E+02  0.73862757291E+02 -0.15723409621E+03  0.18621830718E+03  0.00000000000E+00 0. -1.
        -14    1    5    5    0    0 -0.16481574223E+03  0.33635700281E+02 -0.24149205758E+03  0.29430257066E+03  0.00000000000E+00 0.  1.
          4    1    6    6  502    0  0.21102571412E+03 -0.31738014615E+02 -0.69327703264E+02  0.22437799364E+03  0.00000000000E+00 0. -1.
         -3    1    6    6    0  502  0.77602120835E+02 -0.12066086994E+02 -0.83185184199E+02  0.11440041295E+03  0.00000000000E+00 0.  1.
<mgrwt>
<rscale>  0 0.32574172E+03</rscale>
<asrwt>0</asrwt>
<pdfrwt beam="1">  1        1 0.14156301E+00 0.32574172E+03</pdfrwt>
<pdfrwt beam="2">  1       -2 0.22817336E-01 0.32574172E+03</pdfrwt>
<totfact> 0.27066693E+02</totfact>
</mgrwt>
</event>
<event>
12    3  0.2422421E-007  0.1499307E+04  0.7818608E-02  0.8884914E-01
          1   -1    0    0  501    0  0.00000000000E+00  0.00000000000E+00  0.11256329156E+04  0.11256329156E+04  0.00000000000E+00 0. -1.
         -2   -1    0    0    0  501 -0.00000000000E+00 -0.00000000000E+00 -0.21689302362E+04  0.21689302362E+04  0.00000000000E+00 0.  1.
        -24    2    1    2    0    0 -0.13828040153E+04 -0.42615199263E+03 -0.71316251173E+02  0.14509613398E+04  0.80313987407E+02 0.  0.
    5000000    2    1    2    0    0  0.13828040153E+04  0.42615199263E+03 -0.97198106947E+03  0.18436018119E+04  0.60030656830E+03 0.  0.
        -24    2    4    4    0    0  0.11136660378E+03  0.23478067251E+03 -0.23424018576E+03  0.35894280980E+03  0.80293159495E+02 0.  0.
         24    2    4    4    0    0  0.12714374115E+04  0.19137132012E+03 -0.73774088371E+03  0.14846590021E+04  0.82308368297E+02 0.  0.
         11    1    5    5    0    0  0.84759346584E+02  0.14982484351E+03 -0.19919471078E+03  0.26326823464E+03  0.00000000000E+00 0. -1.
        -12    1    5    5    0    0  0.26607257195E+02  0.84955829000E+02 -0.35045474983E+02  0.95674575167E+02  0.00000000000E+00 0.  1.
         13    1    3    3    0    0 -0.96929070309E+03 -0.33564280884E+03 -0.59859428492E+02  0.10275036318E+04  0.00000000000E+00 0. -1.
        -14    1    3    3    0    0 -0.41351331219E+03 -0.90509183796E+02 -0.11456822681E+02  0.42345770803E+03  0.00000000000E+00 0.  1.
          2    1    6    6  502    0  0.12102977646E+04  0.19977634558E+03 -0.70283488375E+03  0.14137567475E+04  0.00000000000E+00 0. -1.
         -1    1    6    6    0  502  0.61139646858E+02 -0.84050254581E+01 -0.34905999955E+02  0.70902254575E+02  0.00000000000E+00 0.  1.
<mgrwt>
<rscale>  0 0.14993071E+04</rscale>
<asrwt>0</asrwt>
<pdfrwt beam="1">  1        1 0.17317430E+00 0.14993071E+04</pdfrwt>
<pdfrwt beam="2">  1       -2 0.33368157E+00 0.14993071E+04</pdfrwt>
<totfact> 0.19848296E-01</totfact>
</mgrwt>
</event>
<event>
12    3  0.2422421E-007  0.8149207E+03  0.7818608E-02  0.9538668E-01
         -2   -1    0    0    0  501 -0.00000000000E+00  0.00000000000E+00  0.87894972644E+03  0.87894972644E+03  0.00000000000E+00 0.  1.
          1   -1    0    0  501    0  0.00000000000E+00 -0.00000000000E+00 -0.13987101131E+04  0.13987101131E+04  0.00000000000E+00 0. -1.
        -24    2    1    2    0    0 -0.71910490176E+02  0.72218744618E+03 -0.98591738657E+03  0.12269773838E+04  0.81942548113E+02 0.  0.
    5000000    2    1    2    0    0  0.71910490176E+02 -0.72218744618E+03  0.46615699989E+03  0.10506824558E+04  0.59992120172E+03 0.  0.
        -24    2    4    4    0    0  0.28614231722E+03 -0.55623984752E+03  0.19828031514E+03  0.66119238812E+03  0.81117797455E+02 0.  0.
         24    2    4    4    0    0 -0.21423182705E+03 -0.16594759866E+03  0.26787668476E+03  0.38949006763E+03  0.80688991360E+02 0.  0.
         11    1    3    3    0    0 -0.87822869292E+02  0.50668414265E+03 -0.70012550538E+03  0.86868717043E+03  0.00000000000E+00 0. -1.
        -12    1    3    3    0    0  0.15912379116E+02  0.21550330353E+03 -0.28579188119E+03  0.35829021337E+03  0.00000000000E+00 0.  1.
         13    1    5    5    0    0  0.93593039877E+01 -0.35239042533E+02 -0.58290567909E+01  0.36923767316E+02  0.00000000000E+00 0. -1.
        -14    1    5    5    0    0  0.27678301324E+03 -0.52100080499E+03  0.20410937193E+03  0.62426862081E+03  0.00000000000E+00 0.  1.
          4    1    6    6  502    0 -0.14674801689E+03 -0.93085831045E+02  0.11934465689E+03  0.21081532091E+03  0.00000000000E+00 0. -1.
         -3    1    6    6    0  502 -0.67483810158E+02 -0.72861767612E+02  0.14853202787E+03  0.17867474672E+03  0.00000000000E+00 0.  1.
<mgrwt>
<rscale>  0 0.81492067E+03</rscale>
<asrwt>0</asrwt>
<pdfrwt beam="1">  1        1 0.21518617E+00 0.81492067E+03</pdfrwt>
<pdfrwt beam="2">  1       -2 0.13522304E+00 0.81492067E+03</pdfrwt>
<totfact> 0.27120602E+00</totfact>
</mgrwt>
</event>
<event>
12    3  0.2422421E-007  0.2791706E+04  0.7818608E-02  0.8305848E-01
          1   -1    0    0  501    0  0.00000000000E+00  0.00000000000E+00  0.27256314912E+04  0.27256314912E+04  0.00000000000E+00 0. -1.
         -2   -1    0    0    0  501 -0.00000000000E+00 -0.00000000000E+00 -0.33895401610E+04  0.33895401610E+04  0.00000000000E+00 0.  1.
        -24    2    1    2    0    0  0.63441031879E+03  0.26950548548E+04  0.85745479122E+03  0.28995406188E+04  0.79435243826E+02 0.  0.
    5000000    2    1    2    0    0 -0.63441031879E+03 -0.26950548548E+04 -0.15213634610E+04  0.32156310334E+04  0.59994919728E+03 0.  0.
        -24    2    4    4    0    0 -0.71278327276E+03 -0.25541902691E+04 -0.14399857101E+04  0.30185963270E+04  0.80106276126E+02 0.  0.
         24    2    4    4    0    0  0.78372953971E+02 -0.14086458565E+03 -0.81377750923E+02  0.19703470632E+03  0.78836449345E+02 0.  0.
         11    1    3    3    0    0  0.42940467297E+03  0.17638025292E+04  0.59883261556E+03  0.19115408017E+04  0.00000000000E+00 0. -1.
        -12    1    3    3    0    0  0.20500564582E+03  0.93125232563E+03  0.25862217566E+03  0.98799981708E+03  0.00000000000E+00 0.  1.
         13    1    5    5    0    0 -0.58520769146E+03 -0.19894511509E+04 -0.11439018584E+04  0.23683106607E+04  0.00000000000E+00 0. -1.
        -14    1    5    5    0    0 -0.12757558130E+03 -0.56473911820E+03 -0.29608385173E+03  0.65028566632E+03  0.00000000000E+00 0.  1.
          4    1    6    6  502    0  0.60063837922E+02 -0.11913726196E+03 -0.96675685670E+02  0.16476510557E+03  0.00000000000E+00 0. -1.
         -3    1    6    6    0  502  0.18309116049E+02 -0.21727323688E+02  0.15297934747E+02  0.32269600751E+02  0.00000000000E+00 0.  1.
<mgrwt>
<rscale>  0 0.27917058E+04</rscale>
<asrwt>0</asrwt>
<pdfrwt beam="1">  1        1 0.41932792E+00 0.27917058E+04</pdfrwt>
<pdfrwt beam="2">  1       -2 0.52146772E+00 0.27917058E+04</pdfrwt>
<totfact> 0.81082805E-04</totfact>
</mgrwt>
</event>
<event>
12    3  0.2422421E-007  0.3641257E+03  0.7818608E-02  0.1056962E+00
          1   -1    0    0  501    0  0.00000000000E+00  0.00000000000E+00  0.21034673477E+04  0.21034673477E+04  0.00000000000E+00 0. -1.
         -2   -1    0    0    0  501 -0.00000000000E+00 -0.00000000000E+00 -0.99256265480E+02  0.99256265480E+02  0.00000000000E+00 0.  1.
        -24    2    1    2    0    0 -0.16534599513E+03  0.12439868709E+03  0.23517103426E+03  0.32323151367E+03  0.79742489397E+02 0.  0.
    5000000    2    1    2    0    0  0.16534599513E+03 -0.12439868709E+03  0.17690400480E+04  0.18794920995E+04  0.60014459040E+03 0.  0.
        -24    2    4    4    0    0  0.71299650797E+02 -0.28768810236E+03  0.15479795886E+04  0.15781651741E+04  0.80724381735E+02 0.  0.
         24    2    4    4    0    0  0.94046344338E+02  0.16328941526E+03  0.22106045942E+03  0.30132692540E+03  0.80137639293E+02 0.  0.
         11    1    3    3    0    0 -0.10202241648E+03  0.33081738724E+02  0.14364378389E+03  0.17926659352E+03  0.00000000000E+00 0. -1.
        -12    1    3    3    0    0 -0.63323578656E+02  0.91316948371E+02  0.91527250370E+02  0.14396492015E+03  0.00000000000E+00 0.  1.
         13    1    5    5    0    0  0.77664327602E+02 -0.15772243904E+03  0.95921845609E+03  0.97519647357E+03  0.00000000000E+00 0. -1.
        -14    1    5    5    0    0 -0.63646768056E+01 -0.12996566331E+03  0.58876113248E+03  0.60296870057E+03  0.00000000000E+00 0.  1.
          2    1    6    6  502    0  0.10788064086E+03  0.13849511832E+03  0.18026754398E+03  0.25162574964E+03  0.00000000000E+00 0. -1.
         -1    1    6    6    0  502 -0.13834296527E+02  0.24794296947E+02  0.40792915442E+02  0.49701175758E+02  0.00000000000E+00 0.  1.
<mgrwt>
<rscale>  0 0.36412569E+03</rscale>
<asrwt>0</asrwt>
<pdfrwt beam="1">  1        1 0.32361033E+00 0.36412569E+03</pdfrwt>
<pdfrwt beam="2">  1       -2 0.15270196E-01 0.36412569E+03</pdfrwt>
<totfact> 0.82833175E+01</totfact>
</mgrwt>
</event>
<event>
12    3  0.2422421E-007  0.5814367E+03  0.7818608E-02  0.9944685E-01
          1   -1    0    0  501    0  0.00000000000E+00  0.00000000000E+00  0.96157061539E+03  0.96157061539E+03  0.00000000000E+00 0. -1.
         -2   -1    0    0    0  501 -0.00000000000E+00 -0.00000000000E+00 -0.54608683577E+03  0.54608683577E+03  0.00000000000E+00 0.  1.
        -24    2    1    2    0    0 -0.15795079994E+03  0.52535647138E+03 -0.72677700564E+02  0.55923400208E+03  0.80701571864E+02 0.  0.
    5000000    2    1    2    0    0  0.15795079994E+03 -0.52535647138E+03  0.48816148018E+03  0.94842344908E+03  0.60021457065E+03 0.  0.
        -24    2    4    4    0    0  0.19412992694E+03 -0.21569593741E+03  0.54406035775E+03  0.62180653921E+03  0.80190606594E+02 0.  0.
         24    2    4    4    0    0 -0.36179127002E+02 -0.30966053397E+03 -0.55898877571E+02  0.32661690987E+03  0.79720422550E+02 0.  0.
         11    1    3    3    0    0 -0.13526296693E+03  0.40646007963E+03 -0.24883309171E+02  0.42909794410E+03  0.00000000000E+00 0. -1.
        -12    1    3    3    0    0 -0.22687833002E+02  0.11889639175E+03 -0.47794391392E+02  0.13013605798E+03  0.00000000000E+00 0.  1.
         13    1    5    5    0    0  0.91374082837E+02 -0.15662399649E+03  0.35581524493E+03  0.39935546549E+03  0.00000000000E+00 0. -1.
        -14    1    5    5    0    0  0.10275584410E+03 -0.59071940921E+02  0.18824511282E+03  0.22245107373E+03  0.00000000000E+00 0.  1.
          2    1    6    6  502    0 -0.39889486320E+02 -0.20332254494E+03 -0.16996967358E+01  0.20720549551E+03  0.00000000000E+00 0. -1.
         -1    1    6    6    0  502  0.37103593177E+01 -0.10633798903E+03 -0.54199180835E+02  0.11941141436E+03  0.00000000000E+00 0.  1.
<mgrwt>
<rscale>  0 0.58143668E+03</rscale>
<asrwt>0</asrwt>
<pdfrwt beam="1">  1        1 0.14793394E+00 0.58143668E+03</pdfrwt>
<pdfrwt beam="2">  1       -2 0.84013359E-01 0.58143668E+03</pdfrwt>
<totfact> 0.18374067E+01</totfact>
</mgrwt>
</event>
<event>
12    3  0.2422421E-007  0.6204292E+03  0.7818608E-02  0.9863906E-01
          1   -1    0    0  501    0  0.00000000000E+00  0.00000000000E+00  0.20040421155E+04  0.20040421155E+04  0.00000000000E+00 0. -1.
         -2   -1    0    0    0  501 -0.00000000000E+00 -0.00000000000E+00 -0.20628607795E+03  0.20628607795E+03  0.00000000000E+00 0.  1.
        -24    2    1    2    0    0  0.48559616871E+03 -0.23469177973E+02  0.90362485152E+03  0.10289089899E+04  0.75903858939E+02 0.  0.
    5000000    2    1    2    0    0 -0.48559616871E+03  0.23469177973E+02  0.89413118598E+03  0.11814192035E+04  0.59993859296E+03 0.  0.
        -24    2    4    4    0    0 -0.14262227461E+03  0.28279166576E+03  0.47205725848E+03  0.57362147438E+03  0.76754811828E+02 0.  0.
         24    2    4    4    0    0 -0.34297389410E+03 -0.25932248779E+03  0.42207392750E+03  0.60779772915E+03  0.79952702083E+02 0.  0.
         13    1    5    5    0    0 -0.25885817330E+02  0.92392410660E+02  0.92768083853E+02  0.13346291795E+03  0.00000000000E+00 0. -1.
        -14    1    5    5    0    0 -0.11673645728E+03  0.19039925510E+03  0.37928917463E+03  0.44015855642E+03  0.00000000000E+00 0.  1.
         13    1    3    3    0    0  0.39622986083E+03 -0.19209960916E+01  0.67828532498E+03  0.78553979843E+03  0.00000000000E+00 0. -1.
        -14    1    3    3    0    0  0.89366307877E+02 -0.21548181882E+02  0.22533952654E+03  0.24336919145E+03  0.00000000000E+00 0.  1.
          2    1    6    6  502    0 -0.60517847562E+02 -0.73952810364E+02  0.61304382666E+02  0.11353261808E+03  0.00000000000E+00 0. -1.
         -1    1    6    6    0  502 -0.28245604653E+03 -0.18536967743E+03  0.36076954484E+03  0.49426511106E+03  0.00000000000E+00 0.  1.
<mgrwt>
<rscale>  0 0.62042920E+03</rscale>
<asrwt>0</asrwt>
<pdfrwt beam="1">  1        1 0.30831416E+00 0.62042920E+03</pdfrwt>
<pdfrwt beam="2">  1       -2 0.31736321E-01 0.62042920E+03</pdfrwt>
<totfact> 0.25329546E+01</totfact>
</mgrwt>
</event>
<event>
12    3  0.2422421E-007  0.9477813E+03  0.7818608E-02  0.9367748E-01
          1   -1    0    0  501    0  0.00000000000E+00  0.00000000000E+00  0.13553487763E+04  0.13553487763E+04  0.00000000000E+00 0. -1.
         -2   -1    0    0    0  501 -0.00000000000E+00 -0.00000000000E+00 -0.95311260660E+03  0.95311260660E+03  0.00000000000E+00 0.  1.
        -24    2    1    2    0    0  0.77610000075E+03  0.36822315360E+03 -0.43589545550E+03  0.96662774348E+03  0.80279787791E+02 0.  0.
    5000000    2    1    2    0    0 -0.77610000075E+03 -0.36822315360E+03  0.83813162522E+03  0.13418336394E+04  0.60011115033E+03 0.  0.
        -24    2    4    4    0    0 -0.61236207055E+03  0.10465599723E+02  0.40761194989E+03  0.74020609905E+03  0.81613314761E+02 0.  0.
         24    2    4    4    0    0 -0.16373793020E+03 -0.37868875333E+03  0.43051967532E+03  0.60162754040E+03  0.79957644056E+02 0.  0.
         11    1    5    5    0    0 -0.49388182947E+03  0.39001862762E+02  0.33965257751E+03  0.60066985956E+03  0.00000000000E+00 0. -1.
        -12    1    5    5    0    0 -0.11848024108E+03 -0.28536263039E+02  0.67959372386E+02  0.13953623949E+03  0.00000000000E+00 0.  1.
         13    1    3    3    0    0  0.23782054745E+03  0.78518563973E+02 -0.10545758702E+03  0.27174451299E+03  0.00000000000E+00 0. -1.
        -14    1    3    3    0    0  0.53827945330E+03  0.28970458963E+03 -0.33043786848E+03  0.69488323049E+03  0.00000000000E+00 0.  1.
          2    1    6    6  502    0 -0.30608178620E+02 -0.13929173032E+03  0.18647467299E+03  0.23475913273E+03  0.00000000000E+00 0. -1.
         -1    1    6    6    0  502 -0.13312975158E+03 -0.23939702301E+03  0.24404500233E+03  0.36686840767E+03  0.00000000000E+00 0.  1.
<mgrwt>
<rscale>  0 0.94778126E+03</rscale>
<asrwt>0</asrwt>
<pdfrwt beam="1">  1        1 0.20851520E+00 0.94778126E+03</pdfrwt>
<pdfrwt beam="2">  1       -2 0.14663271E+00 0.94778126E+03</pdfrwt>
<totfact> 0.23138679E+00</totfact>
</mgrwt>
</event>
<event>
12    3  0.2422421E-007  0.5847056E+03  0.7818608E-02  0.9937655E-01
         -2   -1    0    0    0  501 -0.00000000000E+00  0.00000000000E+00  0.14644071256E+03  0.14644071256E+03  0.00000000000E+00 0.  1.
          1   -1    0    0  501    0  0.00000000000E+00 -0.00000000000E+00 -0.25984498000E+04  0.25984498000E+04  0.00000000000E+00 0. -1.
        -24    2    1    2    0    0  0.17414133621E+03  0.41411387724E+03 -0.65906904286E+03  0.80156582507E+03  0.79500065127E+02 0.  0.
    5000000    2    1    2    0    0 -0.17414133621E+03 -0.41411387724E+03 -0.17929400446E+04  0.19433246875E+04  0.60005110555E+03 0.  0.
        -24    2    4    4    0    0 -0.36877057033E+03 -0.28513787173E+03 -0.14119835089E+04  0.14891491771E+04  0.81070973487E+02 0.  0.
         24    2    4    4    0    0  0.19462923413E+03 -0.12897600551E+03 -0.38095653564E+03  0.45417551038E+03  0.81438095567E+02 0.  0.
         11    1    5    5    0    0 -0.19842549176E+03 -0.14660527157E+03 -0.61967575825E+03  0.66698112927E+03  0.00000000000E+00 0. -1.
        -12    1    5    5    0    0 -0.17034507857E+03 -0.13853260016E+03 -0.79230775067E+03  0.82216804783E+03  0.00000000000E+00 0.  1.
         13    1    3    3    0    0  0.28322034572E+02  0.16871567585E+02 -0.51921429696E+02  0.61503026728E+02  0.00000000000E+00 0. -1.
        -14    1    3    3    0    0  0.14581930164E+03  0.39724230965E+03 -0.60714761317E+03  0.74006279834E+03  0.00000000000E+00 0.  1.
          2    1    6    6  502    0  0.49750909314E+02 -0.79751720419E+02 -0.13475410871E+03  0.16429899482E+03  0.00000000000E+00 0. -1.
         -1    1    6    6    0  502  0.14487832481E+03 -0.49224285093E+02 -0.24620242693E+03  0.28987651556E+03  0.00000000000E+00 0.  1.
<mgrwt>
<rscale>  0 0.58470560E+03</rscale>
<asrwt>0</asrwt>
<pdfrwt beam="1">  1        1 0.39976148E+00 0.58470560E+03</pdfrwt>
<pdfrwt beam="2">  1       -2 0.22529342E-01 0.58470560E+03</pdfrwt>
<totfact> 0.18933691E+01</totfact>
</mgrwt>
</event>
<event>
12    3  0.2422421E-007  0.6784718E+03  0.7818608E-02  0.9754773E-01
         -2   -1    0    0    0  501 -0.00000000000E+00  0.00000000000E+00  0.14069254748E+03  0.14069254748E+03  0.00000000000E+00 0.  1.
          1   -1    0    0  501    0  0.00000000000E+00 -0.00000000000E+00 -0.42819835957E+04  0.42819835957E+04  0.00000000000E+00 0. -1.
        -24    2    1    2    0    0  0.62572198764E+03 -0.16353761709E+03 -0.14310927414E+04  0.15725293269E+04  0.80928928644E+02 0.  0.
    5000000    2    1    2    0    0 -0.62572198764E+03  0.16353761709E+03 -0.27101983068E+04  0.28501468163E+04  0.59990787124E+03 0.  0.
        -24    2    4    4    0    0 -0.38207026827E+02 -0.28182815038E+02 -0.13599564687E+04  0.13631524246E+04  0.80304966914E+02 0.  0.
         24    2    4    4    0    0 -0.58751496082E+03  0.19172043213E+03 -0.13502418381E+04  0.14869943917E+04  0.77902159375E+02 0.  0.
         11    1    5    5    0    0 -0.32955980357E+02  0.17949075236E+02 -0.91737280958E+03  0.91814004253E+03  0.00000000000E+00 0. -1.
        -12    1    5    5    0    0 -0.52510464692E+01 -0.46131890274E+02 -0.44258365917E+03  0.44501238202E+03  0.00000000000E+00 0.  1.
         13    1    3    3    0    0  0.33303780461E+03 -0.12135656452E+03 -0.83499441525E+03  0.90711480450E+03  0.00000000000E+00 0. -1.
        -14    1    3    3    0    0  0.29268418304E+03 -0.42181052571E+02 -0.59609832612E+03  0.66541452239E+03  0.00000000000E+00 0.  1.
          2    1    6    6  502    0 -0.26454598608E+03  0.46072181641E+02 -0.59373057336E+03  0.65163119816E+03  0.00000000000E+00 0. -1.
         -1    1    6    6    0  502 -0.32296897474E+03  0.14564825049E+03 -0.75651126470E+03  0.83536319355E+03  0.00000000000E+00 0.  1.
<mgrwt>
<rscale>  0 0.67847179E+03</rscale>
<asrwt>0</asrwt>
<pdfrwt beam="1">  1        1 0.65876660E+00 0.67847179E+03</pdfrwt>
<pdfrwt beam="2">  1       -2 0.21645011E-01 0.67847179E+03</pdfrwt>
<totfact> 0.97863466E-01</totfact>
</mgrwt>
</event>
<event>
12    3  0.2422421E-007  0.7928722E+03  0.7818608E-02  0.9570392E-01
         -2   -1    0    0    0  501 -0.00000000000E+00  0.00000000000E+00  0.50528849096E+03  0.50528849096E+03  0.00000000000E+00 0.  1.
          1   -1    0    0  501    0  0.00000000000E+00 -0.00000000000E+00 -0.18553648335E+04  0.18553648335E+04  0.00000000000E+00 0. -1.
        -24    2    1    2    0    0  0.31979335986E+03  0.64182452619E+03 -0.37524435172E+01  0.72143803466E+03  0.79071117282E+02 0.  0.
    5000000    2    1    2    0    0 -0.31979335986E+03 -0.64182452619E+03 -0.13463238990E+04  0.16392152898E+04  0.60019347698E+03 0.  0.
        -24    2    4    4    0    0 -0.32361292104E+02 -0.55917827484E+03 -0.56793470605E+03  0.80155201492E+03  0.78792169681E+02 0.  0.
         24    2    4    4    0    0 -0.28743206775E+03 -0.82646251346E+02 -0.77838919296E+03  0.83766327487E+03  0.79639374155E+02 0.  0.
         11    1    5    5    0    0 -0.16089353844E+02 -0.35237942247E+03 -0.40982502030E+03  0.54072790935E+03  0.00000000000E+00 0. -1.
        -12    1    5    5    0    0 -0.16271938260E+02 -0.20679885237E+03 -0.15810968575E+03  0.26082410556E+03  0.00000000000E+00 0.  1.
         11    1    3    3    0    0  0.30574995768E+03  0.63016166776E+03 -0.13890970698E+02  0.70055672375E+03  0.00000000000E+00 0. -1.
        -12    1    3    3    0    0  0.14043402181E+02  0.11662858435E+02  0.10138527181E+02  0.20881310904E+02  0.00000000000E+00 0.  1.
          4    1    6    6  502    0 -0.31013700769E+02  0.12425523333E+02 -0.12414388022E+03  0.12856106044E+03  0.00000000000E+00 0. -1.
         -3    1    6    6    0  502 -0.25641836698E+03 -0.95071774679E+02 -0.65424531274E+03  0.70910221443E+03  0.00000000000E+00 0.  1.
<mgrwt>
<rscale>  0 0.79287223E+03</rscale>
<asrwt>0</asrwt>
<pdfrwt beam="1">  1        1 0.28544074E+00 0.79287223E+03</pdfrwt>
<pdfrwt beam="2">  1       -2 0.77736691E-01 0.79287223E+03</pdfrwt>
<totfact> 0.49967118E+00</totfact>
</mgrwt>
</event>
<event>
12    3  0.2422421E-007  0.4432464E+03  0.7818608E-02  0.1029755E+00
          1   -1    0    0  501    0  0.00000000000E+00  0.00000000000E+00  0.24876613352E+04  0.24876613352E+04  0.00000000000E+00 0. -1.
         -2   -1    0    0    0  501 -0.00000000000E+00 -0.00000000000E+00 -0.85169120920E+02  0.85169120920E+02  0.00000000000E+00 0.  1.
        -24    2    1    2    0    0 -0.21805492389E+03 -0.12244799188E+03  0.55563281051E+03  0.61490826800E+03  0.82721807215E+02 0.  0.
    5000000    2    1    2    0    0  0.21805492389E+03  0.12244799188E+03  0.18468594037E+04  0.19579221881E+04  0.60002348028E+03 0.  0.
        -24    2    4    4    0    0 -0.19571323339E+03  0.76013218958E+02  0.69413170323E+03  0.72956684095E+03  0.79795205421E+02 0.  0.
         24    2    4    4    0    0  0.41376815728E+03  0.46434772919E+02  0.11527277005E+04  0.12283553471E+04  0.81947734597E+02 0.  0.
         11    1    3    3    0    0 -0.40629533315E+02 -0.20541097283E+02  0.19529600324E+03  0.20053235285E+03  0.00000000000E+00 0. -1.
        -12    1    3    3    0    0 -0.17742539058E+03 -0.10190689459E+03  0.36033680727E+03  0.41437591515E+03  0.00000000000E+00 0.  1.
         11    1    5    5    0    0 -0.14641642229E+03  0.80683933218E+02  0.60422773099E+03  0.62692807936E+03  0.00000000000E+00 0. -1.
        -12    1    5    5    0    0 -0.49296811099E+02 -0.46707142599E+01  0.89903972243E+02  0.10263876159E+03  0.00000000000E+00 0.  1.
          2    1    6    6  502    0  0.23587263993E+03  0.25717976111E+00  0.73668586434E+03  0.77352571459E+03  0.00000000000E+00 0. -1.
         -1    1    6    6    0  502  0.17789551735E+03  0.46177593158E+02  0.41604183617E+03  0.45482963255E+03  0.00000000000E+00 0.  1.
<mgrwt>
<rscale>  0 0.44324639E+03</rscale>
<asrwt>0</asrwt>
<pdfrwt beam="1">  1        1 0.38271707E+00 0.44324639E+03</pdfrwt>
<pdfrwt beam="2">  1       -2 0.13102944E-01 0.44324639E+03</pdfrwt>
<totfact> 0.58395310E+01</totfact>
</mgrwt>
</event>
<event>
12    3  0.2422421E-007  0.5028827E+03  0.7818608E-02  0.1013029E+00
          1   -1    0    0  501    0  0.00000000000E+00  0.00000000000E+00  0.15183227852E+04  0.15183227852E+04  0.00000000000E+00 0. -1.
         -2   -1    0    0    0  501 -0.00000000000E+00 -0.00000000000E+00 -0.18923334172E+03  0.18923334172E+03  0.00000000000E+00 0.  1.
        -24    2    1    2    0    0  0.19312911588E+03  0.29595285123E+03  0.58765734967E+03  0.69035922834E+03  0.79798232969E+02 0.  0.
    5000000    2    1    2    0    0 -0.19312911588E+03 -0.29595285123E+03  0.74143209381E+03  0.10171968986E+04  0.60006752551E+03 0.  0.
        -24    2    4    4    0    0 -0.14586039081E+03  0.14171503123E+03  0.39369268114E+03  0.45057760049E+03  0.81656862522E+02 0.  0.
         24    2    4    4    0    0 -0.47268725072E+02 -0.43766788247E+03  0.34773941267E+03  0.56661929808E+03  0.79669455378E+02 0.  0.
         13    1    5    5    0    0 -0.88227792569E+02  0.94303852685E+02  0.16207097158E+03  0.20723020977E+03  0.00000000000E+00 0. -1.
        -14    1    5    5    0    0 -0.57632598237E+02  0.47411178549E+02  0.23162170956E+03  0.24334739072E+03  0.00000000000E+00 0.  1.
         13    1    3    3    0    0  0.27653539319E+02  0.10737055440E+03  0.19760459416E+03  0.22658492850E+03  0.00000000000E+00 0. -1.
        -14    1    3    3    0    0  0.16547557656E+03  0.18858229683E+03  0.39005275551E+03  0.46377429984E+03  0.00000000000E+00 0.  1.
          4    1    6    6  502    0 -0.95156678193E+01 -0.10462278430E+03  0.42649665921E+02  0.11338196035E+03  0.00000000000E+00 0. -1.
         -1    1    6    6    0  502 -0.37753057253E+02 -0.33304509816E+03  0.30508974675E+03  0.45323733773E+03  0.00000000000E+00 0.  1.
<mgrwt>
<rscale>  0 0.50288267E+03</rscale>
<asrwt>0</asrwt>
<pdfrwt beam="1">  1        1 0.23358811E+00 0.50288267E+03</pdfrwt>
<pdfrwt beam="2">  1       -2 0.29112823E-01 0.50288267E+03</pdfrwt>
<totfact> 0.63809749E+01</totfact>
</mgrwt>
</event>
<event>
12    3  0.2422421E-007  0.3952422E+03  0.7818608E-02  0.1045440E+00
          1   -1    0    0  501    0  0.00000000000E+00  0.00000000000E+00  0.12399555343E+04  0.12399555343E+04  0.00000000000E+00 0. -1.
         -2   -1    0    0    0  501 -0.00000000000E+00 -0.00000000000E+00 -0.24266784109E+03  0.24266784109E+03  0.00000000000E+00 0.  1.
        -24    2    1    2    0    0  0.44613425133E+02  0.31697315820E+03  0.62644237398E+03  0.70798701583E+03  0.79707126003E+02 0.  0.
    5000000    2    1    2    0    0 -0.44613425133E+02 -0.31697315820E+03  0.37084531925E+03  0.77463635958E+03  0.60006074530E+03 0.  0.
        -24    2    4    4    0    0 -0.12398211552E+03 -0.12305211317E+02  0.42061491102E+03  0.44644549646E+03  0.82907748399E+02 0.  0.
         24    2    4    4    0    0  0.79368690387E+02 -0.30466794689E+03 -0.49769591771E+02  0.32819086312E+03  0.78168302374E+02 0.  0.
         11    1    5    5    0    0 -0.13131428890E+03  0.40928037915E+00  0.33944900892E+03  0.36396323940E+03  0.00000000000E+00 0. -1.
        -12    1    5    5    0    0  0.73321733845E+01 -0.12714491696E+02  0.81165902103E+02  0.82482257060E+02  0.00000000000E+00 0.  1.
         13    1    3    3    0    0  0.24316508895E+02  0.19823948007E+03  0.30360052285E+03  0.36340536807E+03  0.00000000000E+00 0. -1.
        -14    1    3    3    0    0  0.20296916238E+02  0.11873367813E+03  0.32284185113E+03  0.34458164776E+03  0.00000000000E+00 0.  1.
          4    1    6    6  502    0  0.62715569402E+02 -0.30072840082E+03 -0.45459625060E+02  0.31054370259E+03  0.00000000000E+00 0. -1.
         -3    1    6    6    0  502  0.16653120985E+02 -0.39395460635E+01 -0.43099667115E+01  0.17647160530E+02  0.00000000000E+00 0.  1.
<mgrwt>
<rscale>  0 0.39524223E+03</rscale>
<asrwt>0</asrwt>
<pdfrwt beam="1">  1        1 0.19076239E+00 0.39524223E+03</pdfrwt>
<pdfrwt beam="2">  1       -2 0.37333515E-01 0.39524223E+03</pdfrwt>
<totfact> 0.63342812E+01</totfact>
</mgrwt>
</event>
<event>
12    3  0.2422421E-007  0.3846380E+03  0.7818608E-02  0.1049233E+00
          1   -1    0    0  501    0  0.00000000000E+00  0.00000000000E+00  0.16067913589E+04  0.16067913589E+04  0.00000000000E+00 0. -1.
         -2   -1    0    0    0  501 -0.00000000000E+00 -0.00000000000E+00 -0.96217386165E+02  0.96217386165E+02  0.00000000000E+00 0.  1.
        -24    2    1    2    0    0  0.82025008396E+01  0.15065657043E+03  0.30024351656E+03  0.34381176926E+03  0.72771424427E+02 0.  0.
    5000000    2    1    2    0    0 -0.82025008396E+01 -0.15065657043E+03  0.12103304562E+04  0.13591969758E+04  0.59979323326E+03 0.  0.
        -24    2    4    4    0    0  0.15319758426E+03 -0.32365453189E+03  0.77658394329E+03  0.85888615576E+03  0.79881485685E+02 0.  0.
         24    2    4    4    0    0 -0.16140008510E+03  0.17299796147E+03  0.43374651292E+03  0.50031082007E+03  0.78718467138E+02 0.  0.
         11    1    3    3    0    0 -0.21842038901E+02  0.37649785960E+02  0.13147227954E+03  0.13849022108E+03  0.00000000000E+00 0. -1.
        -12    1    3    3    0    0  0.30044539741E+02  0.11300678447E+03  0.16877123702E+03  0.20532154819E+03  0.00000000000E+00 0.  1.
         13    1    5    5    0    0  0.30962936414E+02 -0.10539129649E+03  0.16610691149E+03  0.19914199671E+03  0.00000000000E+00 0. -1.
        -14    1    5    5    0    0  0.12223464784E+03 -0.21826323541E+03  0.61047703179E+03  0.65974415906E+03  0.00000000000E+00 0.  1.
          2    1    6    6  502    0 -0.50959932220E+02  0.10015738699E+02  0.77718709864E+02  0.93474208082E+02  0.00000000000E+00 0. -1.
         -1    1    6    6    0  502 -0.11044015288E+03  0.16298222277E+03  0.35602780306E+03  0.40683661199E+03  0.00000000000E+00 0.  1.
<mgrwt>
<rscale>  0 0.38463802E+03</rscale>
<asrwt>0</asrwt>
<pdfrwt beam="1">  1        1 0.24719865E+00 0.38463802E+03</pdfrwt>
<pdfrwt beam="2">  1       -2 0.14802676E-01 0.38463802E+03</pdfrwt>
<totfact> 0.18442892E+02</totfact>
</mgrwt>
</event>
<event>
12    3  0.2422421E-007  0.7867025E+03  0.7818608E-02  0.9579467E-01
         -2   -1    0    0    0  501 -0.00000000000E+00  0.00000000000E+00  0.15863640202E+04  0.15863640202E+04  0.00000000000E+00 0.  1.
          1   -1    0    0  501    0  0.00000000000E+00 -0.00000000000E+00 -0.55827947241E+03  0.55827947241E+03  0.00000000000E+00 0. -1.
        -24    2    1    2    0    0  0.10047771194E+03  0.70970536651E+03  0.96919293950E+03  0.12080680039E+04  0.79472449758E+02 0.  0.
    5000000    2    1    2    0    0 -0.10047771194E+03 -0.70970536651E+03  0.58891608274E+02  0.93657548868E+03  0.59993995251E+03 0.  0.
        -24    2    4    4    0    0  0.80690387957E+02 -0.63504661639E+03 -0.12367240867E+03  0.65690438448E+03  0.80208241320E+02 0.  0.
         24    2    4    4    0    0 -0.18116809990E+03 -0.74658750114E+02  0.18256401695E+03  0.27967110420E+03  0.80563619898E+02 0.  0.
         11    1    5    5    0    0  0.53968532461E+02 -0.31291849540E+03 -0.99521403548E+02  0.33276883422E+03  0.00000000000E+00 0. -1.
        -12    1    5    5    0    0  0.26721855495E+02 -0.32212812099E+03 -0.24151005125E+02  0.32413555026E+03  0.00000000000E+00 0.  1.
         11    1    3    3    0    0 -0.97303074166E+01  0.16293910467E+03  0.23094445628E+03  0.28280589209E+03  0.00000000000E+00 0. -1.
        -12    1    3    3    0    0  0.11020801936E+03  0.54676626183E+03  0.73824848323E+03  0.92526211183E+03  0.00000000000E+00 0.  1.
          4    1    6    6  502    0 -0.12976587001E+03 -0.11597027796E+02  0.11859143192E+03  0.17617491251E+03  0.00000000000E+00 0. -1.
         -1    1    6    6    0  502 -0.51402229888E+02 -0.63061722317E+02  0.63972585029E+02  0.10349619169E+03  0.00000000000E+00 0.  1.
<mgrwt>
<rscale>  0 0.78670250E+03</rscale>
<asrwt>0</asrwt>
<pdfrwt beam="1">  1        1 0.85889150E-01 0.78670250E+03</pdfrwt>
<pdfrwt beam="2">  1       -2 0.24405600E+00 0.78670250E+03</pdfrwt>
<totfact> 0.23917071E+00</totfact>
</mgrwt>
</event>
<event>
12    3  0.2422421E-007  0.8581193E+03  0.7818608E-02  0.9479504E-01
         -2   -1    0    0    0  501 -0.00000000000E+00  0.00000000000E+00  0.16227681985E+04  0.16227681985E+04  0.00000000000E+00 0.  1.
          1   -1    0    0  501    0  0.00000000000E+00 -0.00000000000E+00 -0.14266951845E+04  0.14266951845E+04  0.00000000000E+00 0. -1.
        -24    2    1    2    0    0 -0.67992667459E+03  0.42933153832E+03  0.13169828401E+04  0.15451133542E+04  0.79407956106E+02 0.  0.
    5000000    2    1    2    0    0  0.67992667459E+03 -0.42933153832E+03 -0.11209098260E+04  0.15043500288E+04  0.60000359872E+03 0.  0.
        -24    2    4    4    0    0  0.71104709880E+03 -0.43794621024E+03 -0.11397878059E+04  0.14152366780E+04  0.79960943277E+02 0.  0.
         24    2    4    4    0    0 -0.31120424203E+02  0.86146719256E+01  0.18877979850E+02  0.89113350848E+02  0.80883359235E+02 0.  0.
         11    1    5    5    0    0  0.33243874971E+03 -0.17505766561E+03 -0.56395376474E+03  0.67764633649E+03  0.00000000000E+00 0. -1.
        -12    1    5    5    0    0  0.37860834908E+03 -0.26288854464E+03 -0.57583404116E+03  0.73759034148E+03  0.00000000000E+00 0.  1.
         11    1    3    3    0    0 -0.47453987206E+03  0.30842303733E+03  0.85631582936E+03  0.10264451567E+04  0.00000000000E+00 0. -1.
        -12    1    3    3    0    0 -0.20538680253E+03  0.12090850098E+03  0.46066701072E+03  0.51866819744E+03  0.00000000000E+00 0.  1.
          4    1    6    6  502    0 -0.52848707763E+02  0.34062021611E+01 -0.86484059305E+01  0.53659883065E+02  0.00000000000E+00 0. -1.
         -1    1    6    6    0  502  0.21728283560E+02  0.52084697646E+01  0.27526385780E+02  0.35453467783E+02  0.00000000000E+00 0.  1.
<mgrwt>
<rscale>  0 0.85811935E+03</rscale>
<asrwt>0</asrwt>
<pdfrwt beam="1">  1        1 0.21949157E+00 0.85811935E+03</pdfrwt>
<pdfrwt beam="2">  1       -2 0.24965665E+00 0.85811935E+03</pdfrwt>
<totfact> 0.42825537E-01</totfact>
</mgrwt>
</event>
<event>
12    3  0.2422421E-007  0.5579084E+03  0.7818608E-02  0.9996798E-01
          1   -1    0    0  501    0  0.00000000000E+00  0.00000000000E+00  0.20499094674E+04  0.20499094674E+04  0.00000000000E+00 0. -1.
         -2   -1    0    0    0  501 -0.00000000000E+00 -0.00000000000E+00 -0.40943437379E+03  0.40943437379E+03  0.00000000000E+00 0.  1.
        -24    2    1    2    0    0 -0.17654767450E+03 -0.45603890108E+03 -0.14252483880E+03  0.51558451696E+03  0.79834226889E+02 0.  0.
    5000000    2    1    2    0    0  0.17654767450E+03  0.45603890108E+03  0.17829999324E+04  0.19437593242E+04  0.59997582528E+03 0.  0.
        -24    2    4    4    0    0  0.11624128580E+03 -0.23936547266E+02  0.62958826639E+02  0.15614761732E+03  0.79581842922E+02 0.  0.
         24    2    4    4    0    0  0.60306388701E+02  0.47997544834E+03  0.17200411058E+04  0.17876117069E+04  0.54780632036E+02 0.  0.
         11    1    3    3    0    0 -0.13883816858E+03 -0.38708196981E+03 -0.89728640822E+02  0.42090345376E+03  0.00000000000E+00 0. -1.
        -12    1    3    3    0    0 -0.37709505918E+02 -0.68956931269E+02 -0.52796197976E+02  0.94681063193E+02  0.00000000000E+00 0.  1.
         13    1    5    5    0    0  0.30939255087E+01 -0.28661475526E+02  0.62557396305E+01  0.29498929349E+02  0.00000000000E+00 0. -1.
        -14    1    5    5    0    0  0.11314736029E+03  0.47249282598E+01  0.56703087009E+02  0.12664868797E+03  0.00000000000E+00 0.  1.
          4    1    6    6  502    0  0.41548473410E+02  0.27977949273E+03  0.90724555803E+03  0.95031433893E+03  0.00000000000E+00 0. -1.
         -3    1    6    6    0  502  0.18757915291E+02  0.20019595561E+03  0.81279554772E+03  0.83729736798E+03  0.00000000000E+00 0.  1.
<mgrwt>
<rscale>  0 0.55790842E+03</rscale>
<asrwt>0</asrwt>
<pdfrwt beam="1">  1        1 0.31537068E+00 0.55790842E+03</pdfrwt>
<pdfrwt beam="2">  1       -2 0.62989905E-01 0.55790842E+03</pdfrwt>
<totfact> 0.61138736E+00</totfact>
</mgrwt>
</event>
<event>
12    3  0.2422421E-007  0.6268014E+03  0.7818608E-02  0.9851310E-01
         -2   -1    0    0    0  501 -0.00000000000E+00  0.00000000000E+00  0.38833105456E+03  0.38833105456E+03  0.00000000000E+00 0.  1.
          1   -1    0    0  501    0  0.00000000000E+00 -0.00000000000E+00 -0.21189564708E+04  0.21189564708E+04  0.00000000000E+00 0. -1.
        -24    2    1    2    0    0  0.52881732620E+03  0.14942668588E+03 -0.15865434255E+04  0.16809527704E+04  0.80660251766E+02 0.  0.
    5000000    2    1    2    0    0 -0.52881732620E+03 -0.14942668588E+03 -0.14408199069E+03  0.82633475496E+03  0.60007783518E+03 0.  0.
        -24    2    4    4    0    0  0.52881484369E+02 -0.96512761755E+02  0.11847476256E+03  0.18102878500E+03  0.81387880324E+02 0.  0.
         24    2    4    4    0    0 -0.58169881057E+03 -0.52913924122E+02 -0.26255675324E+03  0.64530596996E+03  0.79437753070E+02 0.  0.
         11    1    5    5    0    0  0.17309067787E+02 -0.45346211848E+01  0.67863181013E+02  0.70182461870E+02  0.00000000000E+00 0. -1.
        -12    1    5    5    0    0  0.35572416582E+02 -0.91978140571E+02  0.50611581545E+02  0.11084632313E+03  0.00000000000E+00 0.  1.
         13    1    3    3    0    0  0.39630049278E+03  0.86396500128E+02 -0.12389108285E+04  0.13036174580E+04  0.00000000000E+00 0. -1.
        -14    1    3    3    0    0  0.13251683342E+03  0.63030185749E+02 -0.34763259700E+03  0.37733531235E+03  0.00000000000E+00 0.  1.
          4    1    6    6  502    0 -0.23470363958E+03 -0.34836189203E+02 -0.66833682413E+02  0.24650780843E+03  0.00000000000E+00 0. -1.
         -3    1    6    6    0  502 -0.34699517098E+03 -0.18077734919E+02 -0.19572307083E+03  0.39879816153E+03  0.00000000000E+00 0.  1.
<mgrwt>
<rscale>  0 0.62680144E+03</rscale>
<asrwt>0</asrwt>
<pdfrwt beam="1">  1        1 0.32599331E+00 0.62680144E+03</pdfrwt>
<pdfrwt beam="2">  1       -2 0.59743239E-01 0.62680144E+03</pdfrwt>
<totfact> 0.60654249E+00</totfact>
</mgrwt>
</event>
<event>
12    3  0.2422421E-007  0.1029197E+04  0.7818608E-02  0.9277089E-01
          1   -1    0    0  501    0  0.00000000000E+00  0.00000000000E+00  0.31079159039E+04  0.31079159039E+04  0.00000000000E+00 0. -1.
         -2   -1    0    0    0  501 -0.00000000000E+00 -0.00000000000E+00 -0.47339875896E+03  0.47339875896E+03  0.00000000000E+00 0.  1.
        -24    2    1    2    0    0 -0.44619505357E+03 -0.83245767669E+03  0.21733090169E+04  0.23710386551E+04  0.80476154946E+02 0.  0.
    5000000    2    1    2    0    0  0.44619505357E+03  0.83245767669E+03  0.46120812795E+03  0.12102760077E+04  0.59998272332E+03 0.  0.
        -24    2    4    4    0    0  0.25962754220E+03  0.11712753538E+02  0.13829571292E+03  0.30530953002E+03  0.80898427947E+02 0.  0.
         24    2    4    4    0    0  0.18656751136E+03  0.82074492316E+03  0.32291241503E+03  0.90496647771E+03  0.79134270745E+02 0.  0.
         11    1    5    5    0    0  0.11756301111E+03 -0.33791471972E+02  0.73186210178E+02  0.14254524376E+03  0.00000000000E+00 0. -1.
        -12    1    5    5    0    0  0.14206453110E+03  0.45504225510E+02  0.65109502745E+02  0.16276428626E+03  0.00000000000E+00 0.  1.
         11    1    3    3    0    0 -0.30069500284E+03 -0.53068646975E+03  0.14902601698E+04  0.16102549449E+04  0.00000000000E+00 0. -1.
        -12    1    3    3    0    0 -0.14550005073E+03 -0.30177120694E+03  0.68304884712E+03  0.76078371016E+03  0.00000000000E+00 0.  1.
          4    1    6    6  502    0  0.73942493582E+02  0.37064054464E+03  0.10435427739E+03  0.39208636918E+03  0.00000000000E+00 0. -1.
         -3    1    6    6    0  502  0.11262501778E+03  0.45010437851E+03  0.21855813765E+03  0.51288010852E+03  0.00000000000E+00 0.  1.
<mgrwt>
<rscale>  0 0.10291973E+04</rscale>
<asrwt>0</asrwt>
<pdfrwt beam="1">  1        1 0.47814090E+00 0.10291973E+04</pdfrwt>
<pdfrwt beam="2">  1       -2 0.72830580E-01 0.10291973E+04</pdfrwt>
<totfact> 0.76142426E-01</totfact>
</mgrwt>
</event>
<event>
12    3  0.2422421E-007  0.6027087E+03  0.7818608E-02  0.9899802E-01
         -2   -1    0    0    0  501 -0.00000000000E+00  0.00000000000E+00  0.86417164389E+03  0.86417164389E+03  0.00000000000E+00 0.  1.
          1   -1    0    0  501    0  0.00000000000E+00 -0.00000000000E+00 -0.75670621140E+03  0.75670621140E+03  0.00000000000E+00 0. -1.
        -24    2    1    2    0    0 -0.52026144743E+03 -0.52198979964E+02  0.50455135283E+03  0.73147516281E+03  0.84185147006E+02 0.  0.
    5000000    2    1    2    0    0  0.52026144743E+03  0.52198979964E+02 -0.39708592034E+03  0.88940269248E+03  0.59996934427E+03 0.  0.
        -24    2    4    4    0    0  0.28566776693E+03  0.23921314262E+03  0.50056736679E+01  0.38144818763E+03  0.81539330485E+02 0.  0.
         24    2    4    4    0    0  0.23459368050E+03 -0.18701416266E+03 -0.40209159401E+03  0.50795450484E+03  0.79571584447E+02 0.  0.
         11    1    3    3    0    0 -0.33009593557E+03 -0.56016091029E+02  0.27435020946E+03  0.43286160209E+03  0.00000000000E+00 0. -1.
        -12    1    3    3    0    0 -0.19016551186E+03  0.38171110643E+01  0.23020114336E+03  0.29861356072E+03  0.00000000000E+00 0.  1.
         11    1    5    5    0    0  0.17287678787E+03  0.96669252641E+02 -0.14693315102E+02  0.19861324654E+03  0.00000000000E+00 0. -1.
        -12    1    5    5    0    0  0.11279097905E+03  0.14254388998E+03  0.19698988770E+02  0.18283494109E+03  0.00000000000E+00 0.  1.
          4    1    6    6  502    0  0.11335353770E+03 -0.10192721589E+03 -0.14035715428E+03  0.20721561863E+03  0.00000000000E+00 0. -1.
         -3    1    6    6    0  502  0.12124014280E+03 -0.85086946765E+02 -0.26173443974E+03  0.30073888621E+03  0.00000000000E+00 0.  1.
<mgrwt>
<rscale>  0 0.60270867E+03</rscale>
<asrwt>0</asrwt>
<pdfrwt beam="1">  1        1 0.11641634E+00 0.60270867E+03</pdfrwt>
<pdfrwt beam="2">  1       -2 0.13294948E+00 0.60270867E+03</pdfrwt>
<totfact> 0.90342862E+00</totfact>
</mgrwt>
</event>
<event>
12    3  0.2422421E-007  0.6935175E+03  0.7818608E-02  0.9728383E-01
         -2   -1    0    0    0  501 -0.00000000000E+00  0.00000000000E+00  0.16778161267E+03  0.16778161267E+03  0.00000000000E+00 0.  1.
          1   -1    0    0  501    0  0.00000000000E+00 -0.00000000000E+00 -0.42357180365E+04  0.42357180365E+04  0.00000000000E+00 0. -1.
        -24    2    1    2    0    0 -0.67931612716E+03 -0.21684822336E+02 -0.25029640665E+04  0.25948750096E+04  0.81280780079E+02 0.  0.
    5000000    2    1    2    0    0  0.67931612716E+03  0.21684822336E+02 -0.15649723574E+04  0.18086246396E+04  0.60003664509E+03 0.  0.
        -24    2    4    4    0    0  0.18383700593E+03 -0.32899866826E+02 -0.46483670923E+02  0.20854333789E+03  0.80319027185E+02 0.  0.
         24    2    4    4    0    0  0.49547912123E+03  0.54584689163E+02 -0.15184886864E+04  0.16000813017E+04  0.77286695629E+02 0.  0.
         11    1    5    5    0    0  0.70069241832E+02  0.26087757952E+02 -0.11018911924E+02  0.75575698381E+02  0.00000000000E+00 0. -1.
        -12    1    5    5    0    0  0.11376776410E+03 -0.58987624778E+02 -0.35464758999E+02  0.13296763951E+03  0.00000000000E+00 0.  1.
         11    1    3    3    0    0 -0.29241133544E+03 -0.65941259551E+01 -0.92730988846E+03  0.97234330399E+03  0.00000000000E+00 0. -1.
        -12    1    3    3    0    0 -0.38690479173E+03 -0.15090696381E+02 -0.15756541781E+04  0.16225317056E+04  0.00000000000E+00 0.  1.
          4    1    6    6  502    0  0.36100542912E+03  0.47982321176E+01 -0.10852360181E+04  0.11437155056E+04  0.00000000000E+00 0. -1.
         -3    1    6    6    0  502  0.13447369211E+03  0.49786457045E+02 -0.43325266838E+03  0.45636579609E+03  0.00000000000E+00 0.  1.
<mgrwt>
<rscale>  0 0.69351751E+03</rscale>
<asrwt>0</asrwt>
<pdfrwt beam="1">  1        1 0.65164888E+00 0.69351751E+03</pdfrwt>
<pdfrwt beam="2">  1       -2 0.25812558E-01 0.69351751E+03</pdfrwt>
<totfact> 0.78531963E-01</totfact>
</mgrwt>
</event>
<event>
12    3  0.2422421E-007  0.7575010E+03  0.7818608E-02  0.9623655E-01
          1   -1    0    0  501    0  0.00000000000E+00  0.00000000000E+00  0.71869809055E+03  0.71869809055E+03  0.00000000000E+00 0. -1.
         -2   -1    0    0    0  501 -0.00000000000E+00 -0.00000000000E+00 -0.12928194365E+04  0.12928194365E+04  0.00000000000E+00 0.  1.
        -24    2    1    2    0    0  0.47701231077E+03 -0.54461869211E+03 -0.76011296380E+03  0.10528151079E+04  0.80608122013E+02 0.  0.
    5000000    2    1    2    0    0 -0.47701231077E+03  0.54461869211E+03  0.18599161784E+03  0.95870241914E+03  0.60030590712E+03 0.  0.
        -24    2    4    4    0    0 -0.47041407085E+03  0.54183371890E+03 -0.36582540391E+02  0.72291392900E+03  0.79956797650E+02 0.  0.
         24    2    4    4    0    0 -0.65982399124E+01  0.27849732152E+01  0.22257415823E+03  0.23578849013E+03  0.77496214893E+02 0.  0.
         11    1    5    5    0    0 -0.30064921347E+03  0.28600810383E+03 -0.21223999963E+02  0.41550095450E+03  0.00000000000E+00 0. -1.
        -12    1    5    5    0    0 -0.16976485739E+03  0.25582561507E+03 -0.15358540427E+02  0.30741297450E+03  0.00000000000E+00 0.  1.
         13    1    3    3    0    0  0.70426979876E+02 -0.42352572049E+02 -0.81249742123E+02  0.11556478897E+03  0.00000000000E+00 0. -1.
        -14    1    3    3    0    0  0.40658533089E+03 -0.50226612006E+03 -0.67886322167E+03  0.93725031897E+03  0.00000000000E+00 0.  1.
          4    1    6    6  502    0 -0.33265553756E+02  0.13482586774E+02  0.18519866089E+03  0.18864496073E+03  0.00000000000E+00 0. -1.
         -3    1    6    6    0  502  0.26667313844E+02 -0.10697613559E+02  0.37375497339E+02  0.47143529406E+02  0.00000000000E+00 0.  1.
<mgrwt>
<rscale>  0 0.75750100E+03</rscale>
<asrwt>0</asrwt>
<pdfrwt beam="1">  1        1 0.11056894E+00 0.75750100E+03</pdfrwt>
<pdfrwt beam="2">  1       -2 0.19889530E+00 0.75750100E+03</pdfrwt>
<totfact> 0.31824030E+00</totfact>
</mgrwt>
</event>
<event>
12    3  0.2422421E-007  0.6103583E+03  0.7818608E-02  0.9884146E-01
         -2   -1    0    0    0  501 -0.00000000000E+00  0.00000000000E+00  0.12911467921E+04  0.12911467921E+04  0.00000000000E+00 0.  1.
          1   -1    0    0  501    0  0.00000000000E+00 -0.00000000000E+00 -0.45366132560E+03  0.45366132560E+03  0.00000000000E+00 0. -1.
        -24    2    1    2    0    0  0.59380112664E+03 -0.21486011207E+02  0.64098362648E+03  0.87766970739E+03  0.79891671514E+02 0.  0.
    5000000    2    1    2    0    0 -0.59380112664E+03  0.21486011207E+02  0.19650183998E+03  0.86713841028E+03  0.60021214815E+03 0.  0.
        -24    2    4    4    0    0 -0.11154982287E+03  0.30653360837E+02  0.33172589809E+03  0.36006750127E+03  0.78889432074E+02 0.  0.
         24    2    4    4    0    0 -0.48225130377E+03 -0.91673496301E+01 -0.13522405812E+03  0.50707090900E+03  0.78644774646E+02 0.  0.
         11    1    5    5    0    0 -0.15586591324E+02  0.38861040026E+02  0.75422826580E+02  0.86265433578E+02  0.00000000000E+00 0. -1.
        -12    1    5    5    0    0 -0.95963231543E+02 -0.82076791882E+01  0.25630307151E+03  0.27380206769E+03  0.00000000000E+00 0.  1.
         13    1    3    3    0    0  0.48177444741E+03 -0.13044485874E+02  0.56193185158E+03  0.74030006255E+03  0.00000000000E+00 0. -1.
        -14    1    3    3    0    0  0.11202667923E+03 -0.84415253337E+01  0.79051774902E+02  0.13736964484E+03  0.00000000000E+00 0.  1.
          4    1    6    6  502    0 -0.24877393955E+02  0.16975066537E+02 -0.30872971386E+01  0.30274890876E+02  0.00000000000E+00 0. -1.
         -3    1    6    6    0  502 -0.45737390981E+03 -0.26142416167E+02 -0.13213676098E+03  0.47679601813E+03  0.00000000000E+00 0.  1.
<mgrwt>
<rscale>  0 0.61035833E+03</rscale>
<asrwt>0</asrwt>
<pdfrwt beam="1">  1        1 0.69794051E-01 0.61035833E+03</pdfrwt>
<pdfrwt beam="2">  1       -2 0.19863797E+00 0.61035833E+03</pdfrwt>
<totfact> 0.62723931E+00</totfact>
</mgrwt>
</event>
<event>
12    3  0.2422421E-007  0.1666661E+04  0.7818608E-02  0.8780611E-01
          1   -1    0    0  501    0  0.00000000000E+00  0.00000000000E+00  0.17276542915E+04  0.17276542915E+04  0.00000000000E+00 0. -1.
         -2   -1    0    0    0  501 -0.00000000000E+00 -0.00000000000E+00 -0.16348508401E+04  0.16348508401E+04  0.00000000000E+00 0.  1.
        -24    2    1    2    0    0 -0.12571404152E+04 -0.10297188267E+04 -0.11089723233E+02  0.16270620373E+04  0.80529533175E+02 0.  0.
    5000000    2    1    2    0    0  0.12571404152E+04  0.10297188267E+04  0.10389317468E+03  0.17354430943E+04  0.60020501187E+03 0.  0.
        -24    2    4    4    0    0  0.10675920405E+04  0.10701905162E+04  0.11995683624E+03  0.15185066680E+04  0.80077163828E+02 0.  0.
         24    2    4    4    0    0  0.18954837467E+03 -0.40471689496E+02 -0.16063661555E+02  0.21693642634E+03  0.96108417222E+02 0.  0.
         13    1    5    5    0    0  0.50764810522E+03  0.47208414872E+03  0.85355566326E+02  0.69846661689E+03  0.00000000000E+00 0. -1.
        -14    1    5    5    0    0  0.55994393530E+03  0.59810636746E+03  0.34601269910E+02  0.82004005107E+03  0.00000000000E+00 0.  1.
         13    1    3    3    0    0 -0.85220676584E+03 -0.64954058419E+03 -0.14379242441E+02  0.10716184512E+04  0.00000000000E+00 0. -1.
        -14    1    3    3    0    0 -0.40493364935E+03 -0.38017824250E+03  0.32895192078E+01  0.55544358614E+03  0.00000000000E+00 0.  1.
          4    1    6    6  502    0  0.16973879828E+03 -0.36631827323E+02 -0.47096621480E+02  0.17992009941E+03  0.00000000000E+00 0. -1.
         -3    1    6    6    0  502  0.19809576387E+02 -0.38398621728E+01  0.31032959925E+02  0.37016326936E+02  0.00000000000E+00 0.  1.
<mgrwt>
<rscale>  0 0.16666610E+04</rscale>
<asrwt>0</asrwt>
<pdfrwt beam="1">  1        1 0.26579297E+00 0.16666610E+04</pdfrwt>
<pdfrwt beam="2">  1       -2 0.25151551E+00 0.16666610E+04</pdfrwt>
<totfact> 0.23277966E-01</totfact>
</mgrwt>
</event>
<event>
12    3  0.2422421E-007  0.1345956E+04  0.7818608E-02  0.8993895E-01
          1   -1    0    0  501    0  0.00000000000E+00  0.00000000000E+00  0.31493464802E+04  0.31493464802E+04  0.00000000000E+00 0. -1.
         -2   -1    0    0    0  501 -0.00000000000E+00 -0.00000000000E+00 -0.66631789079E+03  0.66631789079E+03  0.00000000000E+00 0.  1.
        -24    2    1    2    0    0  0.75538740052E+03 -0.11076623056E+04  0.16482211391E+04  0.21261477782E+04  0.79658919531E+02 0.  0.
    5000000    2    1    2    0    0 -0.75538740052E+03  0.11076623056E+04  0.83480745038E+03  0.16895165928E+04  0.60003077414E+03 0.  0.
        -24    2    4    4    0    0 -0.46392143524E+03  0.77347765568E+03  0.84490307778E+03  0.12387732358E+04  0.84894858376E+02 0.  0.
         24    2    4    4    0    0 -0.29146596527E+03  0.33418464995E+03 -0.10095627399E+02  0.45074335699E+03  0.80223830618E+02 0.  0.
         11    1    3    3    0    0  0.25054574741E+03 -0.31237993553E+03  0.46164460327E+03  0.61112202987E+03  0.00000000000E+00 0. -1.
        -12    1    3    3    0    0  0.50484165311E+03 -0.79528237011E+03  0.11865765358E+04  0.15150257484E+04  0.00000000000E+00 0.  1.
         11    1    5    5    0    0 -0.20331145539E+03  0.26112488014E+03  0.31991303024E+03  0.46028914591E+03  0.00000000000E+00 0. -1.
        -12    1    5    5    0    0 -0.26060997985E+03  0.51235277555E+03  0.52499004754E+03  0.77848408989E+03  0.00000000000E+00 0.  1.
          2    1    6    6  502    0 -0.63146289273E+02  0.62720880335E+02  0.29645445549E+02  0.93809461787E+02  0.00000000000E+00 0. -1.
         -1    1    6    6    0  502 -0.22831967600E+03  0.27146376962E+03 -0.39741072948E+02  0.35693389520E+03  0.00000000000E+00 0.  1.
<mgrwt>
<rscale>  0 0.13459556E+04</rscale>
<asrwt>0</asrwt>
<pdfrwt beam="1">  1        1 0.48451483E+00 0.13459556E+04</pdfrwt>
<pdfrwt beam="2">  1       -2 0.10251045E+00 0.13459556E+04</pdfrwt>
<totfact> 0.30912193E-01</totfact>
</mgrwt>
</event>
<event>
12    3  0.2422421E-007  0.8786476E+03  0.7818608E-02  0.9452674E-01
          1   -1    0    0  501    0  0.00000000000E+00  0.00000000000E+00  0.95348470577E+03  0.95348470577E+03  0.00000000000E+00 0. -1.
         -2   -1    0    0    0  501 -0.00000000000E+00 -0.00000000000E+00 -0.10206096668E+04  0.10206096668E+04  0.00000000000E+00 0.  1.
        -24    2    1    2    0    0  0.77603402828E+03  0.38036016449E+03 -0.25780833164E+03  0.90484778099E+03  0.73360092206E+02 0.  0.
    5000000    2    1    2    0    0 -0.77603402828E+03 -0.38036016449E+03  0.19068337061E+03  0.10692465916E+04  0.60002121461E+03 0.  0.
        -24    2    4    4    0    0 -0.20057223478E+03 -0.26557507224E+02  0.31053590942E+03  0.37862583533E+03  0.77397994699E+02 0.  0.
         24    2    4    4    0    0 -0.57546179350E+03 -0.35380265726E+03 -0.11985253881E+03  0.69062075624E+03  0.79118909433E+02 0.  0.
         11    1    5    5    0    0 -0.14514667213E+03  0.16313114363E+02  0.19768657438E+03  0.24579189535E+03  0.00000000000E+00 0. -1.
        -12    1    5    5    0    0 -0.55425562648E+02 -0.42870621588E+02  0.11284933504E+03  0.13283393997E+03  0.00000000000E+00 0.  1.
         11    1    3    3    0    0  0.43415490357E+03  0.23640499290E+03 -0.17794664271E+03  0.52539776229E+03  0.00000000000E+00 0. -1.
        -12    1    3    3    0    0  0.34187912470E+03  0.14395517159E+03 -0.79861688925E+02  0.37945001870E+03  0.00000000000E+00 0.  1.
          2    1    6    6  502    0 -0.20140223957E+03 -0.11183434739E+03 -0.77756261444E+02  0.24313744992E+03  0.00000000000E+00 0. -1.
         -1    1    6    6    0  502 -0.37405955393E+03 -0.24196830988E+03 -0.42096277365E+02  0.44748330632E+03  0.00000000000E+00 0.  1.
<mgrwt>
<rscale>  0 0.87864762E+03</rscale>
<asrwt>0</asrwt>
<pdfrwt beam="1">  1        1 0.14668995E+00 0.87864762E+03</pdfrwt>
<pdfrwt beam="2">  1       -2 0.15701687E+00 0.87864762E+03</pdfrwt>
<totfact> 0.38621653E+00</totfact>
</mgrwt>
</event>
<event>
12    3  0.2422421E-007  0.5683232E+03  0.7818608E-02  0.9973396E-01
          1   -1    0    0  501    0  0.00000000000E+00  0.00000000000E+00  0.14289720252E+04  0.14289720252E+04  0.00000000000E+00 0. -1.
         -2   -1    0    0    0  501 -0.00000000000E+00 -0.00000000000E+00 -0.31130594756E+03  0.31130594756E+03  0.00000000000E+00 0.  1.
        -24    2    1    2    0    0  0.26615798324E+03  0.39499676025E+03  0.74600992135E+03  0.88884877389E+03  0.81601638684E+02 0.  0.
    5000000    2    1    2    0    0 -0.26615798324E+03 -0.39499676025E+03  0.37165615632E+03  0.85142919891E+03  0.59995072262E+03 0.  0.
        -24    2    4    4    0    0  0.12349175837E+03 -0.11717627599E+03 -0.64962295608E+02  0.19898468896E+03  0.79964445534E+02 0.  0.
         24    2    4    4    0    0 -0.38964974161E+03 -0.27782048426E+03  0.43661845193E+03  0.65244450995E+03  0.77698284301E+02 0.  0.
         11    1    5    5    0    0  0.28952382816E+02  0.12187057908E+01 -0.33407584425E+02  0.44224341845E+02  0.00000000000E+00 0. -1.
        -12    1    5    5    0    0  0.94539375555E+02 -0.11839498178E+03 -0.31554711183E+02  0.15476034712E+03  0.00000000000E+00 0.  1.
         13    1    3    3    0    0  0.13479550049E+03  0.21190998599E+03  0.46659090476E+03  0.52988936725E+03  0.00000000000E+00 0. -1.
        -14    1    3    3    0    0  0.13136248275E+03  0.18308677427E+03  0.27941901659E+03  0.35895940664E+03  0.00000000000E+00 0.  1.
          2    1    6    6  502    0 -0.26544767606E+03 -0.17015570380E+03  0.24050909083E+03  0.39656027920E+03  0.00000000000E+00 0. -1.
         -1    1    6    6    0  502 -0.12420206555E+03 -0.10766478046E+03  0.19610936110E+03  0.25588423075E+03  0.00000000000E+00 0.  1.
<mgrwt>
<rscale>  0 0.56832324E+03</rscale>
<asrwt>0</asrwt>
<pdfrwt beam="1">  1        1 0.21984185E+00 0.56832324E+03</pdfrwt>
<pdfrwt beam="2">  1       -2 0.47893224E-01 0.56832324E+03</pdfrwt>
<totfact> 0.27978102E+01</totfact>
</mgrwt>
</event>
<event>
12    3  0.2422421E-007  0.8275730E+03  0.7818608E-02  0.9520942E-01
         -2   -1    0    0    0  501 -0.00000000000E+00  0.00000000000E+00  0.13649155723E+04  0.13649155723E+04  0.00000000000E+00 0.  1.
          1   -1    0    0  501    0  0.00000000000E+00 -0.00000000000E+00 -0.88074016808E+03  0.88074016808E+03  0.00000000000E+00 0. -1.
        -24    2    1    2    0    0  0.41457847980E+02  0.80203012865E+03 -0.40734630634E+03  0.90402666961E+03  0.79762934000E+02 0.  0.
    5000000    2    1    2    0    0 -0.41457847980E+02 -0.80203012865E+03  0.89152171053E+03  0.13416290707E+04  0.60015541545E+03 0.  0.
        -24    2    4    4    0    0 -0.86706159706E+01 -0.77459238934E+03  0.46964448232E+03  0.90941802510E+03  0.80041585478E+02 0.  0.
         24    2    4    4    0    0 -0.32787232010E+02 -0.27437739316E+02  0.42187722821E+03  0.43221104564E+03  0.83655006851E+02 0.  0.
         13    1    3    3    0    0  0.54869036552E+02  0.53967037801E+03 -0.30316298062E+03  0.62141976223E+03  0.00000000000E+00 0. -1.
        -14    1    3    3    0    0 -0.13411188571E+02  0.26235975065E+03 -0.10418332572E+03  0.28260690738E+03  0.00000000000E+00 0.  1.
         13    1    5    5    0    0  0.12517090138E+02 -0.48190808418E+03  0.33168840551E+03  0.58515748094E+03  0.00000000000E+00 0. -1.
        -14    1    5    5    0    0 -0.21187706108E+02 -0.29268430515E+03  0.13795607681E+03  0.32426054417E+03  0.00000000000E+00 0.  1.
          4    1    6    6  502    0 -0.98408837831E+01  0.19712820104E+02  0.32169422735E+02  0.38991153217E+02  0.00000000000E+00 0. -1.
         -3    1    6    6    0  502 -0.22946348227E+02 -0.47150559421E+02  0.38970780548E+03  0.39321989243E+03  0.00000000000E+00 0.  1.
<mgrwt>
<rscale>  0 0.82757299E+03</rscale>
<asrwt>0</asrwt>
<pdfrwt beam="1">  1        1 0.13549849E+00 0.82757299E+03</pdfrwt>
<pdfrwt beam="2">  1       -2 0.20998701E+00 0.82757299E+03</pdfrwt>
<totfact> 0.19322349E+00</totfact>
</mgrwt>
</event>
<event>
12    3  0.2422421E-007  0.6346855E+03  0.7818608E-02  0.9835948E-01
          1   -1    0    0  501    0  0.00000000000E+00  0.00000000000E+00  0.83551719404E+03  0.83551719404E+03  0.00000000000E+00 0. -1.
         -2   -1    0    0    0  501 -0.00000000000E+00 -0.00000000000E+00 -0.50435557713E+03  0.50435557713E+03  0.00000000000E+00 0.  1.
        -24    2    1    2    0    0  0.13576675051E+03  0.48562219715E+03  0.75162757719E+02  0.51541506221E+03  0.75774120194E+02 0.  0.
    5000000    2    1    2    0    0 -0.13576675051E+03 -0.48562219715E+03  0.25599885920E+03  0.82445770896E+03  0.59994463831E+03 0.  0.
        -24    2    4    4    0    0  0.19390812613E+03 -0.34384008914E+03  0.20924299625E+03  0.45379142191E+03  0.79483676599E+02 0.  0.
         24    2    4    4    0    0 -0.32967487664E+03 -0.14178210802E+03  0.46755862946E+02  0.37066628705E+03  0.80123000403E+02 0.  0.
         13    1    3    3    0    0  0.63372518218E+02  0.10646841437E+03  0.18022200834E+02  0.12520542738E+03  0.00000000000E+00 0. -1.
        -14    1    3    3    0    0  0.72394232295E+02  0.37915378278E+03  0.57140556886E+02  0.39020963482E+03  0.00000000000E+00 0.  1.
         13    1    5    5    0    0  0.56294937432E+02 -0.16668779089E+03  0.67508667579E+02  0.18844458021E+03  0.00000000000E+00 0. -1.
        -14    1    5    5    0    0  0.13761318870E+03 -0.17715229824E+03  0.14173432867E+03  0.26534684170E+03  0.00000000000E+00 0.  1.
          4    1    6    6  502    0 -0.22558776457E+03 -0.10482860227E+03 -0.47393222951E+01  0.24879979211E+03  0.00000000000E+00 0. -1.
         -1    1    6    6    0  502 -0.10408711207E+03 -0.36953505749E+02  0.51495185241E+02  0.12186649494E+03  0.00000000000E+00 0.  1.
<mgrwt>
<rscale>  0 0.63468546E+03</rscale>
<asrwt>0</asrwt>
<pdfrwt beam="1">  1        1 0.12854111E+00 0.63468546E+03</pdfrwt>
<pdfrwt beam="2">  1       -2 0.77593166E-01 0.63468546E+03</pdfrwt>
<totfact> 0.27609772E+01</totfact>
</mgrwt>
</event>
<event>
12    3  0.2422421E-007  0.1239839E+04  0.7818608E-02  0.9078683E-01
          1   -1    0    0  501    0  0.00000000000E+00  0.00000000000E+00  0.13667416680E+04  0.13667416680E+04  0.00000000000E+00 0. -1.
         -2   -1    0    0    0  501 -0.00000000000E+00 -0.00000000000E+00 -0.11877358011E+04  0.11877358011E+04  0.00000000000E+00 0.  1.
        -24    2    1    2    0    0  0.11650818790E+04  0.25269748237E+03 -0.71043663539E+02  0.11965880901E+04  0.74189304640E+02 0.  0.
    5000000    2    1    2    0    0 -0.11650818790E+04 -0.25269748237E+03  0.25004953044E+03  0.13578893789E+04  0.60005582679E+03 0.  0.
        -24    2    4    4    0    0 -0.12115562754E+04 -0.23568229351E+03  0.20580110352E+03  0.12541196057E+04  0.83947241520E+02 0.  0.
         24    2    4    4    0    0  0.46474396370E+02 -0.17015188864E+02  0.44248426919E+02  0.10376977318E+03  0.79754977089E+02 0.  0.
         11    1    3    3    0    0  0.63387999296E+03  0.12933523748E+03 -0.23818613870E+01  0.64694445078E+03  0.00000000000E+00 0. -1.
        -12    1    3    3    0    0  0.53120188606E+03  0.12336224489E+03 -0.68661802152E+02  0.54964363936E+03  0.00000000000E+00 0.  1.
         11    1    5    5    0    0 -0.10180357866E+04 -0.20500991287E+03  0.14245579114E+03  0.10481982539E+04  0.00000000000E+00 0. -1.
        -12    1    5    5    0    0 -0.19352048880E+03 -0.30672380637E+02  0.63345312375E+02  0.20592135178E+03  0.00000000000E+00 0.  1.
          4    1    6    6  502    0  0.30252869391E+02 -0.11113336114E+01 -0.19556977289E+02  0.36040900786E+02  0.00000000000E+00 0. -1.
         -3    1    6    6    0  502  0.16221526979E+02 -0.15903855253E+02  0.63805404207E+02  0.67728872392E+02  0.00000000000E+00 0.  1.
<mgrwt>
<rscale>  0 0.12398388E+04</rscale>
<asrwt>0</asrwt>
<pdfrwt beam="1">  1        1 0.21026795E+00 0.12398388E+04</pdfrwt>
<pdfrwt beam="2">  1       -2 0.18272859E+00 0.12398388E+04</pdfrwt>
<totfact> 0.11979808E+00</totfact>
</mgrwt>
</event>
<event>
12    3  0.2422421E-007  0.1289848E+04  0.7818608E-02  0.9037655E-01
          1   -1    0    0  501    0  0.00000000000E+00  0.00000000000E+00  0.12112411029E+04  0.12112411029E+04  0.00000000000E+00 0. -1.
         -2   -1    0    0    0  501 -0.00000000000E+00 -0.00000000000E+00 -0.15374979807E+04  0.15374979807E+04  0.00000000000E+00 0.  1.
        -24    2    1    2    0    0 -0.72895993910E+03 -0.99884733474E+03  0.23975322088E+03  0.12622655096E+04  0.82182837361E+02 0.  0.
    5000000    2    1    2    0    0  0.72895993910E+03  0.99884733474E+03 -0.56601009868E+03  0.14864735741E+04  0.60013137207E+03 0.  0.
        -24    2    4    4    0    0  0.46768608843E+03  0.96850418365E+03 -0.55061970573E+03  0.12111994708E+04  0.84210845907E+02 0.  0.
         24    2    4    4    0    0  0.26127385067E+03  0.30343151092E+02 -0.15390392948E+02  0.27527410334E+03  0.79713461283E+02 0.  0.
         13    1    3    3    0    0 -0.43971788255E+03 -0.65041768768E+03  0.18023641047E+03  0.80553097293E+03  0.00000000000E+00 0. -1.
        -14    1    3    3    0    0 -0.28924205656E+03 -0.34842964706E+03  0.59516810402E+02  0.45673453663E+03  0.00000000000E+00 0.  1.
         13    1    5    5    0    0  0.14228935767E+03  0.21381376772E+03 -0.12337314429E+03  0.28492722107E+03  0.00000000000E+00 0. -1.
        -14    1    5    5    0    0  0.32539673076E+03  0.75469041593E+03 -0.42724656144E+03  0.92627224969E+03  0.00000000000E+00 0.  1.
          4    1    6    6  502    0  0.86855449432E+02  0.81146546377E+01  0.32415810679E+02  0.93061815467E+02  0.00000000000E+00 0. -1.
         -3    1    6    6    0  502  0.17441840124E+03  0.22228496455E+02 -0.47806203627E+02  0.18221228787E+03  0.00000000000E+00 0.  1.
<mgrwt>
<rscale>  0 0.12898475E+04</rscale>
<asrwt>0</asrwt>
<pdfrwt beam="1">  1        1 0.18634479E+00 0.12898475E+04</pdfrwt>
<pdfrwt beam="2">  1       -2 0.23653815E+00 0.12898475E+04</pdfrwt>
<totfact> 0.69088032E-01</totfact>
</mgrwt>
</event>
<event>
12    3  0.2422421E-007  0.4461750E+03  0.7818608E-02  0.1028869E+00
          1   -1    0    0  501    0  0.00000000000E+00  0.00000000000E+00  0.12359301134E+04  0.12359301134E+04  0.00000000000E+00 0. -1.
         -2   -1    0    0    0  501 -0.00000000000E+00 -0.00000000000E+00 -0.32476726942E+03  0.32476726942E+03  0.00000000000E+00 0.  1.
        -24    2    1    2    0    0  0.29581437934E+03 -0.23301155860E+03 -0.26655628506E+02  0.38545909629E+03  0.77895179005E+02 0.  0.
    5000000    2    1    2    0    0 -0.29581437934E+03  0.23301155860E+03  0.93781847248E+03  0.11752382865E+04  0.59990083292E+03 0.  0.
        -24    2    4    4    0    0 -0.32734485436E+03  0.77102868789E+02  0.16572406099E+03  0.38340414349E+03  0.80216998220E+02 0.  0.
         24    2    4    4    0    0  0.31530475020E+02  0.15590868982E+03  0.77209441149E+03  0.79183414304E+03  0.74631356797E+02 0.  0.
         13    1    3    3    0    0  0.19202290728E+03 -0.17586317563E+03 -0.48810444849E+02  0.26492095611E+03  0.00000000000E+00 0. -1.
        -14    1    3    3    0    0  0.10379147206E+03 -0.57148382977E+02  0.22154816343E+02  0.12053814017E+03  0.00000000000E+00 0.  1.
         13    1    5    5    0    0 -0.23826031964E+03  0.19302232759E+02  0.10510861161E+03  0.26112904155E+03  0.00000000000E+00 0. -1.
        -14    1    5    5    0    0 -0.89084534713E+02  0.57800636030E+02  0.60615449374E+02  0.12227510194E+03  0.00000000000E+00 0.  1.
          4    1    6    6  502    0  0.47331338537E+02  0.12098462590E+03  0.67611733012E+03  0.68848542425E+03  0.00000000000E+00 0. -1.
         -3    1    6    6    0  502 -0.15800863517E+02  0.34924063913E+02  0.95977081367E+02  0.10334871879E+03  0.00000000000E+00 0.  1.
<mgrwt>
<rscale>  0 0.44617498E+03</rscale>
<asrwt>0</asrwt>
<pdfrwt beam="1">  1        1 0.19014309E+00 0.44617498E+03</pdfrwt>
<pdfrwt beam="2">  1       -2 0.49964196E-01 0.44617498E+03</pdfrwt>
<totfact> 0.35687289E+01</totfact>
</mgrwt>
</event>
<event>
12    3  0.2422421E-007  0.6709753E+03  0.7818608E-02  0.9768198E-01
          1   -1    0    0  501    0  0.00000000000E+00  0.00000000000E+00  0.10797051081E+04  0.10797051081E+04  0.00000000000E+00 0. -1.
         -2   -1    0    0    0  501 -0.00000000000E+00 -0.00000000000E+00 -0.94152045265E+03  0.94152045265E+03  0.00000000000E+00 0.  1.
        -24    2    1    2    0    0  0.63064285264E+03  0.43034508945E+02 -0.60273868983E+03  0.87736261280E+03  0.83119489692E+02 0.  0.
    5000000    2    1    2    0    0 -0.63064285264E+03 -0.43034508945E+02  0.74092334532E+03  0.11438629480E+04  0.59991054633E+03 0.  0.
        -24    2    4    4    0    0 -0.51524028319E+03  0.95324868159E+02  0.19615073713E+03  0.56498326744E+03  0.78559537292E+02 0.  0.
         24    2    4    4    0    0 -0.11540256946E+03 -0.13835937710E+03  0.54477260819E+03  0.57887968056E+03  0.76572969506E+02 0.  0.
         11    1    3    3    0    0  0.53213951987E+03  0.26936622649E+02 -0.46454944849E+03  0.70689761659E+03  0.00000000000E+00 0. -1.
        -12    1    3    3    0    0  0.98503332778E+02  0.16097886296E+02 -0.13818924134E+03  0.17046499621E+03  0.00000000000E+00 0.  1.
         13    1    5    5    0    0 -0.14073988130E+03 -0.66807345354E+01  0.66087995157E+02  0.15562766305E+03  0.00000000000E+00 0. -1.
        -14    1    5    5    0    0 -0.37450040189E+03  0.10200560269E+03  0.13006274197E+03  0.40935560439E+03  0.00000000000E+00 0.  1.
          2    1    6    6  502    0 -0.91692941339E+02 -0.11374682489E+03  0.32322353462E+03  0.35471028882E+03  0.00000000000E+00 0. -1.
         -1    1    6    6    0  502 -0.23709628118E+02 -0.24612552217E+02  0.22154907357E+03  0.22416939173E+03  0.00000000000E+00 0.  1.
<mgrwt>
<rscale>  0 0.67097528E+03</rscale>
<asrwt>0</asrwt>
<pdfrwt beam="1">  1        1 0.16610848E+00 0.67097528E+03</pdfrwt>
<pdfrwt beam="2">  1       -2 0.14484930E+00 0.67097528E+03</pdfrwt>
<totfact> 0.39327908E+00</totfact>
</mgrwt>
</event>
<event>
12    3  0.2422421E-007  0.1129806E+04  0.7818608E-02  0.9176618E-01
         -2   -1    0    0    0  501 -0.00000000000E+00  0.00000000000E+00  0.68274227783E+03  0.68274227783E+03  0.00000000000E+00 0.  1.
          1   -1    0    0  501    0  0.00000000000E+00 -0.00000000000E+00 -0.21772549090E+04  0.21772549090E+04  0.00000000000E+00 0. -1.
        -24    2    1    2    0    0  0.79929780284E+03  0.79021125681E+03 -0.45298920870E+03  0.12143425370E+04  0.78216148173E+02 0.  0.
    5000000    2    1    2    0    0 -0.79929780284E+03 -0.79021125681E+03 -0.10415234224E+04  0.16456546498E+04  0.60008114371E+03 0.  0.
        -24    2    4    4    0    0 -0.44149236051E+03 -0.41263318226E+03 -0.17915434846E+03  0.63535134933E+03  0.79958795836E+02 0.  0.
         24    2    4    4    0    0 -0.35780544233E+03 -0.37757807455E+03 -0.86236907399E+03  0.10103033005E+04  0.80264576965E+02 0.  0.
         11    1    5    5    0    0 -0.75871444962E+02 -0.42399646442E+02 -0.66704810470E+01  0.87170531124E+02  0.00000000000E+00 0. -1.
        -12    1    5    5    0    0 -0.36562091555E+03 -0.37023353582E+03 -0.17248386741E+03  0.54818081821E+03  0.00000000000E+00 0.  1.
         11    1    3    3    0    0  0.11328673714E+03  0.15021892127E+03 -0.64456117215E+02  0.19888237772E+03  0.00000000000E+00 0. -1.
        -12    1    3    3    0    0  0.68601106571E+03  0.63999233553E+03 -0.38853309148E+03  0.10154601592E+04  0.00000000000E+00 0.  1.
          4    1    6    6  502    0 -0.22667024313E+03 -0.18271597330E+03 -0.45981777213E+03  0.54423975377E+03  0.00000000000E+00 0. -1.
         -3    1    6    6    0  502 -0.13113519920E+03 -0.19486210125E+03 -0.40255130186E+03  0.46606354674E+03  0.00000000000E+00 0.  1.
<mgrwt>
<rscale>  0 0.11298063E+04</rscale>
<asrwt>0</asrwt>
<pdfrwt beam="1">  1        1 0.33496230E+00 0.11298063E+04</pdfrwt>
<pdfrwt beam="2">  1       -2 0.10503727E+00 0.11298063E+04</pdfrwt>
<totfact> 0.14426777E+00</totfact>
</mgrwt>
</event>
<event>
12    3  0.2422421E-007  0.1237628E+04  0.7818608E-02  0.9080543E-01
          1   -1    0    0  501    0  0.00000000000E+00  0.00000000000E+00  0.24028327814E+04  0.24028327814E+04  0.00000000000E+00 0. -1.
         -2   -1    0    0    0  501 -0.00000000000E+00 -0.00000000000E+00 -0.70653999990E+03  0.70653999990E+03  0.00000000000E+00 0.  1.
        -24    2    1    2    0    0  0.90511154086E+03 -0.79390303759E+03  0.48913295887E+03  0.13019233368E+04  0.79021446593E+02 0.  0.
    5000000    2    1    2    0    0 -0.90511154086E+03  0.79390303759E+03  0.12071598226E+04  0.18074494444E+04  0.60010809226E+03 0.  0.
        -24    2    4    4    0    0 -0.27787069268E+03  0.49736667161E+03  0.84052061197E+03  0.10185763999E+04  0.80232508291E+02 0.  0.
         24    2    4    4    0    0 -0.62724084819E+03  0.29653636599E+03  0.36663921063E+03  0.78887304455E+03  0.80817520754E+02 0.  0.
         11    1    5    5    0    0 -0.26262478689E+03  0.48326372528E+03  0.77867253039E+03  0.95333442005E+03  0.00000000000E+00 0. -1.
        -12    1    5    5    0    0 -0.15245905784E+02  0.14102946326E+02  0.61848081583E+02  0.65241979843E+02  0.00000000000E+00 0.  1.
         13    1    3    3    0    0  0.30784759281E+03 -0.22237320377E+03  0.16254039041E+03  0.41308517362E+03  0.00000000000E+00 0. -1.
        -14    1    3    3    0    0  0.59726394805E+03 -0.57152983382E+03  0.32659256846E+03  0.88883816321E+03  0.00000000000E+00 0.  1.
          2    1    6    6  502    0 -0.22439158080E+03  0.14742960963E+03  0.15480486770E+03  0.30992195532E+03  0.00000000000E+00 0. -1.
         -1    1    6    6    0  502 -0.40284926739E+03  0.14910675636E+03  0.21183434293E+03  0.47895108923E+03  0.00000000000E+00 0.  1.
<mgrwt>
<rscale>  0 0.12376284E+04</rscale>
<asrwt>0</asrwt>
<pdfrwt beam="1">  1        1 0.36966658E+00 0.12376284E+04</pdfrwt>
<pdfrwt beam="2">  1       -2 0.10869846E+00 0.12376284E+04</pdfrwt>
<totfact> 0.91993439E-01</totfact>
</mgrwt>
</event>
<event>
12    3  0.2422421E-007  0.4591539E+03  0.7818608E-02  0.1025027E+00
         -2   -1    0    0    0  501 -0.00000000000E+00  0.00000000000E+00  0.17043111800E+03  0.17043111800E+03  0.00000000000E+00 0.  1.
          1   -1    0    0  501    0  0.00000000000E+00 -0.00000000000E+00 -0.17282866591E+04  0.17282866591E+04  0.00000000000E+00 0. -1.
        -24    2    1    2    0    0  0.22636013839E+03 -0.19495004397E+03 -0.15911489183E+03  0.34768190307E+03  0.79502987524E+02 0.  0.
    5000000    2    1    2    0    0 -0.22636013839E+03  0.19495004397E+03 -0.13987406493E+04  0.15510358740E+04  0.59999370553E+03 0.  0.
        -24    2    4    4    0    0  0.15572277517E+03 -0.18388702550E+02 -0.17380934330E+03  0.24784204340E+03  0.81414148484E+02 0.  0.
         24    2    4    4    0    0 -0.38208291356E+03  0.21333874652E+03 -0.12249313060E+04  0.13031938306E+04  0.79728804077E+02 0.  0.
         13    1    3    3    0    0  0.14518031600E+03 -0.15174839411E+03 -0.14362520863E+03  0.25442700293E+03  0.00000000000E+00 0. -1.
        -14    1    3    3    0    0  0.81179822386E+02 -0.43201649866E+02 -0.15489683199E+02  0.93254900136E+02  0.00000000000E+00 0.  1.
         13    1    5    5    0    0  0.79825285924E+02  0.25581006866E+02 -0.55374123454E+02  0.10046271813E+03  0.00000000000E+00 0. -1.
        -14    1    5    5    0    0  0.75897489247E+02 -0.43969709417E+02 -0.11843521984E+03  0.14737932528E+03  0.00000000000E+00 0.  1.
          2    1    6    6  502    0 -0.35201812262E+03  0.16715016710E+03 -0.10698189049E+04  0.11385817609E+04  0.00000000000E+00 0. -1.
         -1    1    6    6    0  502 -0.30064790936E+02  0.46188579420E+02 -0.15511240108E+03  0.16461206970E+03  0.00000000000E+00 0.  1.
<mgrwt>
<rscale>  0 0.45915386E+03</rscale>
<asrwt>0</asrwt>
<pdfrwt beam="1">  1        1 0.26589026E+00 0.45915386E+03</pdfrwt>
<pdfrwt beam="2">  1       -2 0.26220172E-01 0.45915386E+03</pdfrwt>
<totfact> 0.56263898E+01</totfact>
</mgrwt>
</event>
<event>
12    3  0.2422421E-007  0.5140512E+03  0.7818608E-02  0.1010175E+00
          1   -1    0    0  501    0  0.00000000000E+00  0.00000000000E+00  0.35968527854E+03  0.35968527854E+03  0.00000000000E+00 0. -1.
         -2   -1    0    0    0  501 -0.00000000000E+00 -0.00000000000E+00 -0.81110285221E+03  0.81110285221E+03  0.00000000000E+00 0.  1.
        -24    2    1    2    0    0  0.36561007453E+03 -0.27268750570E+02 -0.12488603232E+03  0.39547702505E+03  0.79945262016E+02 0.  0.
    5000000    2    1    2    0    0 -0.36561007453E+03  0.27268750570E+02 -0.32653154135E+03  0.77531110571E+03  0.60005845697E+03 0.  0.
        -24    2    4    4    0    0 -0.86782182877E+01  0.23771007162E+03 -0.23543510088E+03  0.34375272935E+03  0.78452932341E+02 0.  0.
         24    2    4    4    0    0 -0.35693185624E+03 -0.21044132105E+03 -0.91096440469E+02  0.43155837635E+03  0.79108603374E+02 0.  0.
         11    1    3    3    0    0  0.26913407927E+03 -0.22179810341E+02 -0.12793579495E+03  0.29881878160E+03  0.00000000000E+00 0. -1.
        -12    1    3    3    0    0  0.96475995264E+02 -0.50889402289E+01  0.30497626239E+01  0.96658243450E+02  0.00000000000E+00 0.  1.
         13    1    5    5    0    0  0.21538491380E+02  0.31134052640E+02 -0.60536520364E+02  0.71399622846E+02  0.00000000000E+00 0. -1.
        -14    1    5    5    0    0 -0.30216709668E+02  0.20657601898E+03 -0.17489858051E+03  0.27235310651E+03  0.00000000000E+00 0.  1.
          2    1    6    6  502    0 -0.16450434226E+03 -0.85673849056E+02 -0.18998863448E+01  0.18548664804E+03  0.00000000000E+00 0. -1.
         -1    1    6    6    0  502 -0.19242751399E+03 -0.12476747199E+03 -0.89196554124E+02  0.24607172831E+03  0.00000000000E+00 0.  1.
<mgrwt>
<rscale>  0 0.51405124E+03</rscale>
<asrwt>0</asrwt>
<pdfrwt beam="1">  1        1 0.55336197E-01 0.51405124E+03</pdfrwt>
<pdfrwt beam="2">  1       -2 0.12478505E+00 0.51405124E+03</pdfrwt>
<totfact> 0.30155248E+01</totfact>
</mgrwt>
</event>
<event>
12    3  0.2422421E-007  0.1078618E+04  0.7818608E-02  0.9226286E-01
         -2   -1    0    0    0  501 -0.00000000000E+00  0.00000000000E+00  0.93260560870E+03  0.93260560870E+03  0.00000000000E+00 0.  1.
          1   -1    0    0  501    0  0.00000000000E+00 -0.00000000000E+00 -0.13175513077E+04  0.13175513077E+04  0.00000000000E+00 0. -1.
        -24    2    1    2    0    0 -0.65396952285E+03 -0.78934523782E+03 -0.21282318530E+03  0.10499993845E+04  0.80392524893E+02 0.  0.
    5000000    2    1    2    0    0  0.65396952285E+03  0.78934523782E+03 -0.17212251368E+03  0.12001575318E+04  0.60000825015E+03 0.  0.
        -24    2    4    4    0    0 -0.69321046293E+02  0.90203145245E+02  0.79577524138E+02  0.16011674791E+03  0.79767009105E+02 0.  0.
         24    2    4    4    0    0  0.72329056914E+03  0.69914209258E+03 -0.25170003782E+03  0.10400407839E+04  0.79893743143E+02 0.  0.
         11    1    3    3    0    0 -0.13368157247E+03 -0.21472455856E+03 -0.46149972232E+02  0.25711324120E+03  0.00000000000E+00 0. -1.
        -12    1    3    3    0    0 -0.52028795038E+03 -0.57462067926E+03 -0.16667321307E+03  0.79288614334E+03  0.00000000000E+00 0.  1.
         13    1    5    5    0    0 -0.12310969701E+02  0.50890586382E+02  0.73989265977E+02  0.90641178485E+02  0.00000000000E+00 0. -1.
        -14    1    5    5    0    0 -0.57010076592E+02  0.39312558863E+02  0.55882581604E+01  0.69475569424E+02  0.00000000000E+00 0.  1.
          4    1    6    6  502    0  0.63159271044E+03  0.58291851468E+03 -0.19364903358E+03  0.88102400356E+03  0.00000000000E+00 0. -1.
         -3    1    6    6    0  502  0.91697858702E+02  0.11622357789E+03 -0.58051004236E+02  0.15901678038E+03  0.00000000000E+00 0.  1.
<mgrwt>
<rscale>  0 0.10786185E+04</rscale>
<asrwt>0</asrwt>
<pdfrwt beam="1">  1        1 0.20270020E+00 0.10786185E+04</pdfrwt>
<pdfrwt beam="2">  1       -2 0.14347779E+00 0.10786185E+04</pdfrwt>
<totfact> 0.25666883E+00</totfact>
</mgrwt>
</event>
<event>
12    3  0.2422421E-007  0.7334637E+03  0.7818608E-02  0.9661656E-01
          1   -1    0    0  501    0  0.00000000000E+00  0.00000000000E+00  0.59960082833E+03  0.59960082833E+03  0.00000000000E+00 0. -1.
         -2   -1    0    0    0  501 -0.00000000000E+00 -0.00000000000E+00 -0.15697880586E+04  0.15697880586E+04  0.00000000000E+00 0.  1.
        -24    2    1    2    0    0  0.17920521856E+03 -0.70238047415E+03  0.10935590667E+03  0.73719540559E+03  0.77752883452E+02 0.  0.
    5000000    2    1    2    0    0 -0.17920521856E+03  0.70238047415E+03 -0.10795431369E+04  0.14321934813E+04  0.60025989594E+03 0.  0.
        -24    2    4    4    0    0 -0.13980718941E+03  0.43491274578E+03 -0.10510178229E+04  0.11491378510E+04  0.84759600224E+02 0.  0.
         24    2    4    4    0    0 -0.39398029147E+02  0.26746772837E+03 -0.28525314050E+02  0.28305563038E+03  0.78839114228E+02 0.  0.
         13    1    3    3    0    0  0.43676083232E+02 -0.32006589144E+03  0.36648081262E+02  0.32510437858E+03  0.00000000000E+00 0. -1.
        -14    1    3    3    0    0  0.13552913533E+03 -0.38231458270E+03  0.72707825407E+02  0.41209102701E+03  0.00000000000E+00 0.  1.
         13    1    5    5    0    0 -0.12119412209E+03  0.33537750238E+03 -0.89171506419E+03  0.96037588476E+03  0.00000000000E+00 0. -1.
        -14    1    5    5    0    0 -0.18613067326E+02  0.99535243404E+02 -0.15930275870E+03  0.18876196620E+03  0.00000000000E+00 0.  1.
          2    1    6    6  502    0 -0.24528450403E+02  0.17828560756E+02  0.50138434692E+01  0.30735013977E+02  0.00000000000E+00 0. -1.
         -1    1    6    6    0  502 -0.14869578744E+02  0.24963916761E+03 -0.33539157520E+02  0.25232061641E+03  0.00000000000E+00 0.  1.
<mgrwt>
<rscale>  0 0.73346370E+03</rscale>
<asrwt>0</asrwt>
<pdfrwt beam="1">  1        1 0.92246283E-01 0.73346370E+03</pdfrwt>
<pdfrwt beam="2">  1       -2 0.24150585E+00 0.73346370E+03</pdfrwt>
<totfact> 0.22563443E+00</totfact>
</mgrwt>
</event>
<event>
12    3  0.2422421E-007  0.5104092E+03  0.7818608E-02  0.1011097E+00
          1   -1    0    0  501    0  0.00000000000E+00  0.00000000000E+00  0.36712124017E+03  0.36712124017E+03  0.00000000000E+00 0. -1.
         -2   -1    0    0    0  501 -0.00000000000E+00 -0.00000000000E+00 -0.14720987629E+04  0.14720987629E+04  0.00000000000E+00 0.  1.
        -24    2    1    2    0    0 -0.40072786690E+03 -0.19840095418E+03  0.56383924004E+02  0.45769267784E+03  0.79735052101E+02 0.  0.
    5000000    2    1    2    0    0  0.40072786690E+03  0.19840095418E+03 -0.11613614467E+04  0.13815273252E+04  0.59992631085E+03 0.  0.
        -24    2    4    4    0    0  0.37959712709E+03  0.27713841457E+03 -0.11881046315E+04  0.12801201013E+04  0.78836403712E+02 0.  0.
         24    2    4    4    0    0  0.21130739811E+02 -0.78737460388E+02  0.26743184849E+02  0.10140722388E+03  0.54056741364E+02 0.  0.
         11    1    3    3    0    0 -0.95492383449E+02 -0.24067252346E+02  0.38464345668E+02  0.10572385644E+03  0.00000000000E+00 0. -1.
        -12    1    3    3    0    0 -0.30523548345E+03 -0.17433370184E+03  0.17919578336E+02  0.35196882141E+03  0.00000000000E+00 0.  1.
         11    1    5    5    0    0  0.24445136799E+03  0.13297239124E+03 -0.66072054423E+03  0.71693079562E+03  0.00000000000E+00 0. -1.
        -12    1    5    5    0    0  0.13514575910E+03  0.14416602334E+03 -0.52738408731E+03  0.56318930568E+03  0.00000000000E+00 0.  1.
          4    1    6    6  502    0  0.37017307511E+02 -0.58287501302E+02  0.30044574023E+02  0.75301993942E+02  0.00000000000E+00 0. -1.
         -3    1    6    6    0  502 -0.15886567700E+02 -0.20449959085E+02 -0.33013891741E+01  0.26105229943E+02  0.00000000000E+00 0.  1.
<mgrwt>
<rscale>  0 0.51040924E+03</rscale>
<asrwt>0</asrwt>
<pdfrwt beam="1">  1        1 0.56480190E-01 0.51040924E+03</pdfrwt>
<pdfrwt beam="2">  1       -2 0.22647674E+00 0.51040924E+03</pdfrwt>
<totfact> 0.56259794E+00</totfact>
</mgrwt>
</event>
<event>
12    3  0.2422421E-007  0.1192146E+04  0.7818608E-02  0.9119759E-01
          1   -1    0    0  501    0  0.00000000000E+00  0.00000000000E+00  0.18783689306E+04  0.18783689306E+04  0.00000000000E+00 0. -1.
         -2   -1    0    0    0  501 -0.00000000000E+00 -0.00000000000E+00 -0.80402890082E+03  0.80402890082E+03  0.00000000000E+00 0.  1.
        -24    2    1    2    0    0 -0.90821041128E+03  0.68626568294E+03  0.71387889427E+03  0.13460576855E+04  0.80258820480E+02 0.  0.
    5000000    2    1    2    0    0  0.90821041128E+03 -0.68626568294E+03  0.36046113550E+03  0.13363401459E+04  0.60005501133E+03 0.  0.
        -24    2    4    4    0    0  0.64291773504E+03 -0.18621542166E+03  0.36059491683E+03  0.76451595476E+03  0.80228135647E+02 0.  0.
         24    2    4    4    0    0  0.26529267624E+03 -0.50005026128E+03 -0.13378132927E+00  0.57182419115E+03  0.80947018529E+02 0.  0.
         11    1    3    3    0    0 -0.44990333999E+03  0.30108169353E+03  0.36896694556E+03  0.65513342796E+03  0.00000000000E+00 0. -1.
        -12    1    3    3    0    0 -0.45830707129E+03  0.38518398941E+03  0.34491194870E+03  0.69092425754E+03  0.00000000000E+00 0.  1.
         13    1    5    5    0    0  0.92192086105E+02 -0.50998153693E+02  0.76849500466E+02  0.13040720127E+03  0.00000000000E+00 0. -1.
        -14    1    5    5    0    0  0.55072564893E+03 -0.13521726796E+03  0.28374541636E+03  0.63410875349E+03  0.00000000000E+00 0.  1.
          4    1    6    6  502    0  0.56117092667E+02 -0.18763871035E+03  0.48143010020E+00  0.19585107987E+03  0.00000000000E+00 0. -1.
         -3    1    6    6    0  502  0.20917558357E+03 -0.31241155094E+03 -0.61521142947E+00  0.37597311128E+03  0.00000000000E+00 0.  1.
<mgrwt>
<rscale>  0 0.11921457E+04</rscale>
<asrwt>0</asrwt>
<pdfrwt beam="1">  1        1 0.28897983E+00 0.11921457E+04</pdfrwt>
<pdfrwt beam="2">  1       -2 0.12369675E+00 0.11921457E+04</pdfrwt>
<totfact> 0.15255070E+00</totfact>
</mgrwt>
</event>
<event>
12    3  0.2422421E-007  0.1025982E+04  0.7818608E-02  0.9280499E-01
          3   -1    0    0  501    0  0.00000000000E+00  0.00000000000E+00  0.74133359716E+03  0.74133359716E+03  0.00000000000E+00 0. -1.
         -4   -1    0    0    0  501 -0.00000000000E+00 -0.00000000000E+00 -0.18879722415E+04  0.18879722415E+04  0.00000000000E+00 0.  1.
        -24    2    1    2    0    0  0.53716525678E+03 -0.77323042360E+03 -0.11809263517E+04  0.15122971707E+04  0.77613680715E+02 0.  0.
    5000000    2    1    2    0    0 -0.53716525678E+03  0.77323042360E+03  0.34287707398E+02  0.11170086679E+04  0.60008409091E+03 0.  0.
        -24    2    4    4    0    0 -0.53803412264E+03  0.27188300436E+03  0.12814067859E+02  0.60829617142E+03  0.80367572119E+02 0.  0.
         24    2    4    4    0    0  0.86886585402E+00  0.50134741924E+03  0.21473639538E+02  0.50871249646E+03  0.83530216996E+02 0.  0.
         11    1    5    5    0    0 -0.27213439454E+03  0.97684190345E+02 -0.12532285073E+02  0.28940695897E+03  0.00000000000E+00 0. -1.
        -12    1    5    5    0    0 -0.26589972810E+03  0.17419881402E+03  0.25346352932E+02  0.31888921245E+03  0.00000000000E+00 0.  1.
         11    1    3    3    0    0  0.97728512108E+02 -0.10155102757E+03 -0.15126971790E+03  0.20675106006E+03  0.00000000000E+00 0. -1.
        -12    1    3    3    0    0  0.43943674468E+03 -0.67167939602E+03 -0.10296566338E+04  0.13055461107E+04  0.00000000000E+00 0.  1.
          2    1    6    6  502    0  0.12539735832E+01  0.15035051494E+03 -0.31838459455E+02  0.15368974362E+03  0.00000000000E+00 0. -1.
         -1    1    6    6    0  502 -0.38510772917E+00  0.35099690430E+03  0.53312098994E+02  0.35502275284E+03  0.00000000000E+00 0.  1.
<mgrwt>
<rscale>  0 0.10259816E+04</rscale>
<asrwt>0</asrwt>
<pdfrwt beam="1">  1        3 0.11405132E+00 0.10259816E+04</pdfrwt>
<pdfrwt beam="2">  1       -4 0.29045726E+00 0.10259816E+04</pdfrwt>
<totfact> 0.50548627E-02</totfact>
</mgrwt>
</event>
<event>
12    3  0.2422421E-007  0.6987074E+03  0.7818608E-02  0.9719445E-01
         -2   -1    0    0    0  501 -0.00000000000E+00  0.00000000000E+00  0.47595827412E+03  0.47595827412E+03  0.00000000000E+00 0.  1.
          1   -1    0    0  501    0  0.00000000000E+00 -0.00000000000E+00 -0.28925863307E+04  0.28925863307E+04  0.00000000000E+00 0. -1.
        -24    2    1    2    0    0 -0.50890133248E+03  0.33805313732E+03 -0.24354716842E+04  0.25120576179E+04  0.75170881239E+02 0.  0.
    5000000    2    1    2    0    0  0.50890133248E+03 -0.33805313732E+03  0.18843627602E+02  0.85648698691E+03  0.59996198762E+03 0.  0.
        -24    2    4    4    0    0 -0.51696814046E+02 -0.18786768116E+03 -0.13804025046E+03  0.24978520955E+03  0.73285155100E+02 0.  0.
         24    2    4    4    0    0  0.56059814653E+03 -0.15018545616E+03  0.15688387807E+03  0.60670177735E+03  0.81538594034E+02 0.  0.
         11    1    5    5    0    0 -0.40536429103E+02 -0.40342831995E+02 -0.58507857921E+02  0.81816352988E+02  0.00000000000E+00 0. -1.
        -12    1    5    5    0    0 -0.11160384943E+02 -0.14752484916E+03 -0.79532392543E+02  0.16796885657E+03  0.00000000000E+00 0.  1.
         13    1    3    3    0    0 -0.20613395940E+03  0.12875294032E+03 -0.82459354651E+03  0.85966449607E+03  0.00000000000E+00 0. -1.
        -14    1    3    3    0    0 -0.30276737308E+03  0.20930019700E+03 -0.16108781377E+04  0.16523931218E+04  0.00000000000E+00 0.  1.
          2    1    6    6  502    0  0.49102795964E+03 -0.14181637821E+03  0.11120296897E+03  0.52305491354E+03  0.00000000000E+00 0. -1.
         -1    1    6    6    0  502  0.69570186886E+02 -0.83690779567E+01  0.45680909099E+02  0.83646863810E+02  0.00000000000E+00 0.  1.
<mgrwt>
<rscale>  0 0.69870739E+03</rscale>
<asrwt>0</asrwt>
<pdfrwt beam="1">  1        1 0.44501328E+00 0.69870739E+03</pdfrwt>
<pdfrwt beam="2">  1       -2 0.73224350E-01 0.69870739E+03</pdfrwt>
<totfact> 0.11423265E+00</totfact>
</mgrwt>
</event>
<event>
12    3  0.2422421E-007  0.6157060E+03  0.7818608E-02  0.9873346E-01
          1   -1    0    0  501    0  0.00000000000E+00  0.00000000000E+00  0.32553910014E+03  0.32553910014E+03  0.00000000000E+00 0. -1.
         -2   -1    0    0    0  501 -0.00000000000E+00 -0.00000000000E+00 -0.13922385481E+04  0.13922385481E+04  0.00000000000E+00 0.  1.
        -24    2    1    2    0    0 -0.49521699028E+03  0.13262111400E+03 -0.62910667425E+03  0.81523887462E+03  0.77530560162E+02 0.  0.
    5000000    2    1    2    0    0  0.49521699028E+03 -0.13262111400E+03 -0.43759277367E+03  0.90253877358E+03  0.60021710648E+03 0.  0.
        -24    2    4    4    0    0 -0.14680493903E+02  0.13279248374E+03 -0.24665031812E+03  0.29151939330E+03  0.79358784029E+02 0.  0.
         24    2    4    4    0    0  0.50989748419E+03 -0.26541359774E+03 -0.19094245555E+03  0.61101938029E+03  0.80285985770E+02 0.  0.
         13    1    3    3    0    0 -0.94353844504E+02 -0.54706805468E+01 -0.11362093944E+03  0.14779138743E+03  0.00000000000E+00 0. -1.
        -14    1    3    3    0    0 -0.40086314578E+03  0.13809179455E+03 -0.51548573481E+03  0.66744748719E+03  0.00000000000E+00 0.  1.
         13    1    5    5    0    0  0.55939085406E+01  0.84408492731E+02 -0.78607126242E+02  0.11547798818E+03  0.00000000000E+00 0. -1.
        -14    1    5    5    0    0 -0.20274402444E+02  0.48383991005E+02 -0.16804319187E+03  0.17604140512E+03  0.00000000000E+00 0.  1.
          4    1    6    6  502    0  0.44401349856E+03 -0.21765699984E+03 -0.18972124461E+03  0.52963827952E+03  0.00000000000E+00 0. -1.
         -3    1    6    6    0  502  0.65883985628E+02 -0.47756597902E+02 -0.12212109397E+01  0.81381100764E+02  0.00000000000E+00 0.  1.
<mgrwt>
<rscale>  0 0.61570603E+03</rscale>
<asrwt>0</asrwt>
<pdfrwt beam="1">  1        1 0.50082938E-01 0.61570603E+03</pdfrwt>
<pdfrwt beam="2">  1       -2 0.21419055E+00 0.61570603E+03</pdfrwt>
<totfact> 0.77164672E+00</totfact>
</mgrwt>
</event>
<event>
12    3  0.4026666E-007  0.1546297E+04  0.7818608E-02  0.8854236E-01
          1   -1    0    0  501    0  0.00000000000E+00  0.00000000000E+00  0.13739117886E+04  0.13739117886E+04  0.00000000000E+00 0. -1.
         -2   -1    0    0    0  501 -0.00000000000E+00 -0.00000000000E+00 -0.18094823496E+04  0.18094823496E+04  0.00000000000E+00 0.  1.
        -24    2    1    2    0    0 -0.13023684223E+04  0.77600966653E+03 -0.12023595885E+03  0.15227867027E+04  0.77898305212E+02 0.  0.
    5000000    2    1    2    0    0  0.13023684223E+04 -0.77600966653E+03 -0.31533460217E+03  0.16606074355E+04  0.59985551047E+03 0.  0.
        -24    2    4    4    0    0  0.54706765341E+03 -0.90169908181E+02 -0.30730143641E+03  0.63776012313E+03  0.69929765466E+02 0.  0.
         24    2    4    4    0    0  0.75530076894E+03 -0.68583975835E+03 -0.80331657631E+01  0.10228473124E+04  0.72778203948E+02 0.  0.
         11    1    3    3    0    0 -0.93735887430E+03  0.51907104161E+03 -0.74318426738E+02  0.10740575562E+04  0.00000000000E+00 0. -1.
        -12    1    3    3    0    0 -0.36500954804E+03  0.25693862492E+03 -0.45917532112E+02  0.44872914647E+03  0.00000000000E+00 0.  1.
         11    1    5    5    0    0  0.30352433006E+03 -0.52405634601E+02 -0.13087504835E+03  0.33466647241E+03  0.00000000000E+00 0. -1.
        -12    1    5    5    0    0  0.24354332335E+03 -0.37764273580E+02 -0.17642638806E+03  0.30309365072E+03  0.00000000000E+00 0.  1.
          4    1    6    6  502    0  0.51350368421E+03 -0.46018954283E+03 -0.39199932403E+02  0.69064975475E+03  0.00000000000E+00 0. -1.
         -3    1    6    6    0  502  0.24179708473E+03 -0.22565021551E+03  0.31166766640E+02  0.33219755762E+03  0.00000000000E+00 0.  1.
<mgrwt>
<rscale>  0 0.15462973E+04</rscale>
<asrwt>0</asrwt>
<pdfrwt beam="1">  1        1 0.21137105E+00 0.15462973E+04</pdfrwt>
<pdfrwt beam="2">  1       -2 0.27838190E+00 0.15462973E+04</pdfrwt>
<totfact> 0.28429545E-01</totfact>
</mgrwt>
</event>
<event>
12    3  0.2422421E-007  0.5208872E+03  0.7818608E-02  0.1008466E+00
          1   -1    0    0  501    0  0.00000000000E+00  0.00000000000E+00  0.20597764409E+04  0.20597764409E+04  0.00000000000E+00 0. -1.
         -2   -1    0    0    0  501 -0.00000000000E+00 -0.00000000000E+00 -0.14733196969E+03  0.14733196969E+03  0.00000000000E+00 0.  1.
        -24    2    1    2    0    0 -0.22410629089E+03  0.30169514291E+03  0.81496818385E+03  0.90100301283E+03  0.79935596362E+02 0.  0.
    5000000    2    1    2    0    0  0.22410629089E+03 -0.30169514291E+03  0.10974762874E+04  0.13061053978E+04  0.60017790687E+03 0.  0.
        -24    2    4    4    0    0  0.45874044465E+01 -0.40276224437E+03  0.87245986129E+03  0.96424077216E+03  0.79596402915E+02 0.  0.
         24    2    4    4    0    0  0.21951888644E+03  0.10106710147E+03  0.22501642610E+03  0.34186462564E+03  0.88520787074E+02 0.  0.
         13    1    5    5    0    0  0.56275428727E-01 -0.27568642048E+03  0.50423428102E+03  0.57467835852E+03  0.00000000000E+00 0. -1.
        -14    1    5    5    0    0  0.45311290177E+01 -0.12707582390E+03  0.36822558027E+03  0.38956241363E+03  0.00000000000E+00 0.  1.
         13    1    3    3    0    0 -0.42985519659E+02  0.12046816124E+03  0.28135707832E+03  0.30906655965E+03  0.00000000000E+00 0. -1.
        -14    1    3    3    0    0 -0.18112077123E+03  0.18122698167E+03  0.53361110553E+03  0.59193645318E+03  0.00000000000E+00 0.  1.
          4    1    6    6  502    0  0.22223706218E+03  0.10819623931E+03  0.20738056122E+03  0.32264908985E+03  0.00000000000E+00 0. -1.
         -3    1    6    6    0  502 -0.27181757376E+01 -0.71291378415E+01  0.17635864880E+02  0.19215535792E+02  0.00000000000E+00 0.  1.
<mgrwt>
<rscale>  0 0.52088718E+03</rscale>
<asrwt>0</asrwt>
<pdfrwt beam="1">  1        1 0.31688866E+00 0.52088718E+03</pdfrwt>
<pdfrwt beam="2">  1       -2 0.22666458E-01 0.52088718E+03</pdfrwt>
<totfact> 0.43568193E+01</totfact>
</mgrwt>
</event>
<event>
12    3  0.2422421E-007  0.1121537E+04  0.7818608E-02  0.9184451E-01
          1   -1    0    0  501    0  0.00000000000E+00  0.00000000000E+00  0.14143152601E+04  0.14143152601E+04  0.00000000000E+00 0. -1.
         -2   -1    0    0    0  501 -0.00000000000E+00 -0.00000000000E+00 -0.90863714149E+03  0.90863714149E+03  0.00000000000E+00 0.  1.
        -24    2    1    2    0    0  0.18040554611E+02 -0.10449381799E+04  0.36410510555E+03  0.11095541645E+04  0.79477384421E+02 0.  0.
    5000000    2    1    2    0    0 -0.18040554611E+02  0.10449381799E+04  0.14157301304E+03  0.12133982371E+04  0.60005924893E+03 0.  0.
        -24    2    4    4    0    0 -0.22926581946E+03  0.89867501236E+03  0.15699998426E+03  0.94400815440E+03  0.79516078361E+02 0.  0.
         24    2    4    4    0    0  0.21122526485E+03  0.14626316757E+03 -0.15426971213E+02  0.26939008266E+03  0.79523571964E+02 0.  0.
         13    1    5    5    0    0 -0.10643220703E+03  0.57206289100E+03  0.94167440223E+02  0.58944997476E+03  0.00000000000E+00 0. -1.
        -14    1    5    5    0    0 -0.12283361243E+03  0.32661212136E+03  0.62832544035E+02  0.35455817964E+03  0.00000000000E+00 0.  1.
         13    1    3    3    0    0  0.32870012152E+02 -0.90502712660E+03  0.29251523911E+03  0.95169307168E+03  0.00000000000E+00 0. -1.
        -14    1    3    3    0    0 -0.14829457541E+02 -0.13991105333E+03  0.71589866442E+02  0.15786109284E+03  0.00000000000E+00 0.  1.
          4    1    6    6  502    0  0.91306773017E+02  0.10491432392E+03  0.12042172804E+02  0.13960285129E+03  0.00000000000E+00 0. -1.
         -3    1    6    6    0  502  0.11991849183E+03  0.41348843651E+02 -0.27469144017E+02  0.12978723138E+03  0.00000000000E+00 0.  1.
<mgrwt>
<rscale>  0 0.11215370E+04</rscale>
<asrwt>0</asrwt>
<pdfrwt beam="1">  1        1 0.21758696E+00 0.11215370E+04</pdfrwt>
<pdfrwt beam="2">  1       -2 0.13979033E+00 0.11215370E+04</pdfrwt>
<totfact> 0.23372859E+00</totfact>
</mgrwt>
</event>
<event>
12    3  0.2422421E-007  0.9362435E+03  0.7818608E-02  0.9381376E-01
          1   -1    0    0  501    0  0.00000000000E+00  0.00000000000E+00  0.53711475049E+03  0.53711475049E+03  0.00000000000E+00 0. -1.
         -2   -1    0    0    0  501 -0.00000000000E+00 -0.00000000000E+00 -0.23462895043E+04  0.23462895043E+04  0.00000000000E+00 0.  1.
        -24    2    1    2    0    0 -0.18570593303E+03 -0.87651934342E+03 -0.15212804501E+04  0.17673583950E+04  0.80552066982E+02 0.  0.
    5000000    2    1    2    0    0  0.18570593303E+03  0.87651934342E+03 -0.28789430373E+03  0.11160458598E+04  0.59991864296E+03 0.  0.
        -24    2    4    4    0    0  0.28631734357E+03  0.78996950227E+03 -0.66454471639E+02  0.84633916314E+03  0.76448325875E+02 0.  0.
         24    2    4    4    0    0 -0.10061141054E+03  0.86549841148E+02 -0.22143983209E+03  0.26970669668E+03  0.78054929795E+02 0.  0.
         11    1    5    5    0    0  0.59214405632E+02  0.17655916338E+03 -0.46461981970E+02  0.19193280016E+03  0.00000000000E+00 0. -1.
        -12    1    5    5    0    0  0.22710293794E+03  0.61341033889E+03 -0.19992489669E+02  0.65440636299E+03  0.00000000000E+00 0.  1.
         13    1    3    3    0    0 -0.82117538745E+02 -0.22043373264E+03 -0.41188253791E+03  0.47432219608E+03  0.00000000000E+00 0. -1.
        -14    1    3    3    0    0 -0.10358839428E+03 -0.65608561077E+03 -0.11093979122E+04  0.12930361989E+04  0.00000000000E+00 0.  1.
          4    1    6    6  502    0 -0.67845724988E+02  0.58149894784E+02 -0.73987877592E+02  0.11601145932E+03  0.00000000000E+00 0. -1.
         -3    1    6    6    0  502 -0.32765685555E+02  0.28399946364E+02 -0.14745195450E+03  0.15369523736E+03  0.00000000000E+00 0.  1.
<mgrwt>
<rscale>  0 0.93624354E+03</rscale>
<asrwt>0</asrwt>
<pdfrwt beam="1">  1        1 0.82633038E-01 0.93624354E+03</pdfrwt>
<pdfrwt beam="2">  1       -2 0.36096762E+00 0.93624354E+03</pdfrwt>
<totfact> 0.47904611E-01</totfact>
</mgrwt>
</event>
<event>
12    3  0.2422421E-007  0.7187165E+03  0.7818608E-02  0.9685749E-01
          1   -1    0    0  501    0  0.00000000000E+00  0.00000000000E+00  0.16927079628E+04  0.16927079628E+04  0.00000000000E+00 0. -1.
         -2   -1    0    0    0  501 -0.00000000000E+00 -0.00000000000E+00 -0.70214826138E+03  0.70214826138E+03  0.00000000000E+00 0.  1.
        -24    2    1    2    0    0  0.17110580972E+03  0.65898570680E+03 -0.35479957343E+03  0.77200417948E+03  0.81045394358E+02 0.  0.
    5000000    2    1    2    0    0 -0.17110580972E+03 -0.65898570680E+03  0.13453592748E+04  0.16228520447E+04  0.60009817588E+03 0.  0.
        -24    2    4    4    0    0 -0.25793108722E+03 -0.46413926644E+03  0.12762693136E+04  0.13847290494E+04  0.81593352042E+02 0.  0.
         24    2    4    4    0    0  0.86825277507E+02 -0.19484644036E+03  0.69089961298E+02  0.23812299532E+03  0.80158430702E+02 0.  0.
         11    1    5    5    0    0 -0.12679567464E+03 -0.26725905549E+03  0.61554540308E+03  0.68293534768E+03  0.00000000000E+00 0. -1.
        -12    1    5    5    0    0 -0.13113541258E+03 -0.19688021095E+03  0.66072391047E+03  0.70179370171E+03  0.00000000000E+00 0.  1.
         13    1    3    3    0    0  0.19603397589E+02  0.17612084587E+03 -0.12068757024E+03  0.21440227414E+03  0.00000000000E+00 0. -1.
        -14    1    3    3    0    0  0.15150241213E+03  0.48286486093E+03 -0.23411200319E+03  0.55760190534E+03  0.00000000000E+00 0.  1.
          4    1    6    6  502    0  0.19055907341E+02 -0.11712592325E+03  0.95470452076E+01  0.11904938293E+03  0.00000000000E+00 0. -1.
         -3    1    6    6    0  502  0.67769370166E+02 -0.77720517103E+02  0.59542916091E+02  0.11907361239E+03  0.00000000000E+00 0.  1.
<mgrwt>
<rscale>  0 0.71871650E+03</rscale>
<asrwt>0</asrwt>
<pdfrwt beam="1">  1        1 0.26041661E+00 0.71871650E+03</pdfrwt>
<pdfrwt beam="2">  1       -2 0.10802281E+00 0.71871650E+03</pdfrwt>
<totfact> 0.30288631E+00</totfact>
</mgrwt>
</event>
<event>
12    3  0.2422421E-007  0.6757229E+03  0.7818608E-02  0.9759674E-01
          1   -1    0    0  501    0  0.00000000000E+00  0.00000000000E+00  0.98826779791E+03  0.98826779791E+03  0.00000000000E+00 0. -1.
         -2   -1    0    0    0  501 -0.00000000000E+00 -0.00000000000E+00 -0.49370096040E+03  0.49370096040E+03  0.00000000000E+00 0.  1.
        -24    2    1    2    0    0  0.50672983905E+03 -0.25155102176E+03  0.22498703176E+03  0.61434455638E+03  0.82140265183E+02 0.  0.
    5000000    2    1    2    0    0 -0.50672983905E+03  0.25155102176E+03  0.26957980574E+03  0.86762420192E+03  0.60003786361E+03 0.  0.
        -24    2    4    4    0    0 -0.51722142660E+03 -0.42929831934E+01  0.28737533349E+03  0.59720415491E+03  0.80819468583E+02 0.  0.
         24    2    4    4    0    0  0.10491587550E+02  0.25584400495E+03 -0.17795527749E+02  0.27042004701E+03  0.85112236140E+02 0.  0.
         13    1    3    3    0    0  0.23564066243E+02  0.11769535251E+01  0.22756253706E+02  0.32779528981E+02  0.00000000000E+00 0. -1.
        -14    1    3    3    0    0  0.48316577281E+03 -0.25272797528E+03  0.20223077806E+03  0.58156502740E+03  0.00000000000E+00 0.  1.
         13    1    5    5    0    0 -0.15247792931E+03 -0.31238205117E+02  0.61595720428E+02  0.16738989564E+03  0.00000000000E+00 0. -1.
        -14    1    5    5    0    0 -0.36474349729E+03  0.26945221923E+02  0.22577961306E+03  0.42981425927E+03  0.00000000000E+00 0.  1.
          4    1    6    6  502    0  0.27909175986E+01 -0.18766655629E+01 -0.12060422724E+02  0.12520578699E+02  0.00000000000E+00 0. -1.
         -3    1    6    6    0  502  0.77006699518E+01  0.25772067051E+03 -0.57351050257E+01  0.25789946832E+03  0.00000000000E+00 0.  1.
<mgrwt>
<rscale>  0 0.67572290E+03</rscale>
<asrwt>0</asrwt>
<pdfrwt beam="1">  1        1 0.15204120E+00 0.67572290E+03</pdfrwt>
<pdfrwt beam="2">  1       -2 0.75953994E-01 0.67572290E+03</pdfrwt>
<totfact> 0.21698897E+01</totfact>
</mgrwt>
</event>
<event>
12    3  0.2422421E-007  0.8852259E+03  0.7818608E-02  0.9444241E-01
          1   -1    0    0  501    0  0.00000000000E+00  0.00000000000E+00  0.30724673716E+04  0.30724673716E+04  0.00000000000E+00 0. -1.
         -2   -1    0    0    0  501 -0.00000000000E+00 -0.00000000000E+00 -0.30224598565E+03  0.30224598565E+03  0.00000000000E+00 0.  1.
        -24    2    1    2    0    0 -0.66102749694E+03  0.55468973825E+03  0.14236971345E+04  0.16666450064E+04  0.78447364248E+02 0.  0.
    5000000    2    1    2    0    0  0.66102749694E+03 -0.55468973825E+03  0.13465242514E+04  0.17080683509E+04  0.59977652021E+03 0.  0.
        -24    2    4    4    0    0  0.38387549954E+03 -0.47134195211E+03  0.12505853879E+04  0.13926248639E+04  0.76919204855E+02 0.  0.
         24    2    4    4    0    0  0.27715199739E+03 -0.83347786141E+02  0.95938863516E+02  0.31544348701E+03  0.80871780310E+02 0.  0.
         11    1    5    5    0    0  0.14434431845E+03 -0.20385404848E+03  0.43742938491E+03  0.50372236612E+03  0.00000000000E+00 0. -1.
        -12    1    5    5    0    0  0.23953118110E+03 -0.26748790363E+03  0.81315600297E+03  0.88890249773E+03  0.00000000000E+00 0.  1.
         13    1    3    3    0    0 -0.45629362139E+03  0.42783114985E+03  0.10145019161E+04  0.11918294758E+04  0.00000000000E+00 0. -1.
        -14    1    3    3    0    0 -0.20473387555E+03  0.12685858840E+03  0.40919521848E+03  0.47481553057E+03  0.00000000000E+00 0.  1.
          2    1    6    6  502    0  0.23382279211E+03 -0.91652774119E+02  0.10169346380E+03  0.27095182172E+03  0.00000000000E+00 0. -1.
         -1    1    6    6    0  502  0.43329205284E+02  0.83049879775E+01 -0.57546002850E+01  0.44491665290E+02  0.00000000000E+00 0.  1.
<mgrwt>
<rscale>  0 0.88522591E+03</rscale>
<asrwt>0</asrwt>
<pdfrwt beam="1">  1        1 0.47268727E+00 0.88522591E+03</pdfrwt>
<pdfrwt beam="2">  1       -2 0.46499385E-01 0.88522591E+03</pdfrwt>
<totfact> 0.21292909E+00</totfact>
</mgrwt>
</event>
<event>
12    3  0.2422421E-007  0.4891220E+03  0.7818608E-02  0.1016658E+00
         -2   -1    0    0    0  501 -0.00000000000E+00  0.00000000000E+00  0.35099559681E+03  0.35099559681E+03  0.00000000000E+00 0.  1.
          1   -1    0    0  501    0  0.00000000000E+00 -0.00000000000E+00 -0.10480153950E+04  0.10480153950E+04  0.00000000000E+00 0. -1.
        -24    2    1    2    0    0  0.33692849729E+03  0.15411113485E+03 -0.56684178285E+03  0.68192693087E+03  0.80272523913E+02 0.  0.
    5000000    2    1    2    0    0 -0.33692849729E+03 -0.15411113485E+03 -0.13017801531E+03  0.71708406090E+03  0.59999348377E+03 0.  0.
        -24    2    4    4    0    0  0.11235789938E+03 -0.19321409212E+02  0.11723730226E+03  0.18082899954E+03  0.77181135168E+02 0.  0.
         24    2    4    4    0    0 -0.44928639667E+03 -0.13478972564E+03 -0.24741531757E+03  0.53625506137E+03  0.79552593330E+02 0.  0.
         11    1    3    3    0    0  0.27991992962E+03  0.13888888104E+03 -0.41857939192E+03  0.52235428171E+03  0.00000000000E+00 0. -1.
        -12    1    3    3    0    0  0.57008567677E+02  0.15222253805E+02 -0.14826239092E+03  0.15957264917E+03  0.00000000000E+00 0.  1.
         11    1    5    5    0    0  0.10857037504E+03  0.90501870346E+01  0.89921043406E+02  0.14126296850E+03  0.00000000000E+00 0. -1.
        -12    1    5    5    0    0  0.37875243336E+01 -0.28371596247E+02  0.27316258856E+02  0.39566031037E+02  0.00000000000E+00 0.  1.
          2    1    6    6  502    0 -0.40126127895E+03 -0.11699302628E+03 -0.24606313916E+03  0.48502067031E+03  0.00000000000E+00 0. -1.
         -1    1    6    6    0  502 -0.48025117719E+02 -0.17796699361E+02 -0.13521784139E+01  0.51234391053E+02  0.00000000000E+00 0.  1.
<mgrwt>
<rscale>  0 0.48912199E+03</rscale>
<asrwt>0</asrwt>
<pdfrwt beam="1">  1        1 0.16123314E+00 0.48912199E+03</pdfrwt>
<pdfrwt beam="2">  1       -2 0.53999323E-01 0.48912199E+03</pdfrwt>
<totfact> 0.41439677E+01</totfact>
</mgrwt>
</event>
<event>
12    3  0.2422421E-007  0.2974770E+03  0.7818608E-02  0.1086509E+00
          1   -1    0    0  501    0  0.00000000000E+00  0.00000000000E+00  0.16102660120E+03  0.16102660120E+03  0.00000000000E+00 0. -1.
         -2   -1    0    0    0  501 -0.00000000000E+00 -0.00000000000E+00 -0.13694145453E+04  0.13694145453E+04  0.00000000000E+00 0.  1.
        -24    2    1    2    0    0  0.24429818563E+03  0.90632387944E+02 -0.47541738138E+03  0.54806024500E+03  0.80327531934E+02 0.  0.
    5000000    2    1    2    0    0 -0.24429818563E+03 -0.90632387944E+02 -0.73297056276E+03  0.98238090154E+03  0.59994212770E+03 0.  0.
        -24    2    4    4    0    0 -0.78051006553E+02  0.45219844090E+02  0.74356566437E+02  0.14206323883E+03  0.80723422441E+02 0.  0.
         24    2    4    4    0    0 -0.16624717908E+03 -0.13585223203E+03 -0.80732712920E+03  0.84031766271E+03  0.90899544705E+02 0.  0.
         11    1    5    5    0    0 -0.45079170978E+02 -0.39382817876E+01  0.69153971088E+02  0.82643290331E+02  0.00000000000E+00 0. -1.
        -12    1    5    5    0    0 -0.32971835575E+02  0.49158125878E+02  0.52025953491E+01  0.59419948497E+02  0.00000000000E+00 0.  1.
         13    1    3    3    0    0  0.57910152581E+02  0.25492131642E+02 -0.56009437878E+02  0.84501430041E+02  0.00000000000E+00 0. -1.
        -14    1    3    3    0    0  0.18638803305E+03  0.65140256302E+02 -0.41940794350E+03  0.46355881496E+03  0.00000000000E+00 0.  1.
          2    1    6    6  502    0  0.23525101094E+01 -0.31345474314E+02 -0.16833976748E+03  0.17124938067E+03  0.00000000000E+00 0. -1.
         -1    1    6    6    0  502 -0.16859968919E+03 -0.10450675772E+03 -0.63898736171E+03  0.66906828204E+03  0.00000000000E+00 0.  1.
<mgrwt>
<rscale>  0 0.29747704E+03</rscale>
<asrwt>0</asrwt>
<pdfrwt beam="1">  1        1 0.24773324E-01 0.29747704E+03</pdfrwt>
<pdfrwt beam="2">  1       -2 0.21067916E+00 0.29747704E+03</pdfrwt>
<totfact> 0.21028810E+01</totfact>
</mgrwt>
</event>
<event>
12    3  0.2422421E-007  0.7509733E+03  0.7818608E-02  0.9633825E-01
         -2   -1    0    0    0  501 -0.00000000000E+00  0.00000000000E+00  0.78440371996E+03  0.78440371996E+03  0.00000000000E+00 0.  1.
          1   -1    0    0  501    0  0.00000000000E+00 -0.00000000000E+00 -0.10488587152E+04  0.10488587152E+04  0.00000000000E+00 0. -1.
        -24    2    1    2    0    0 -0.84721798202E+02  0.63442098777E+03  0.37688670075E+03  0.74647045134E+03  0.74207659372E+02 0.  0.
    5000000    2    1    2    0    0  0.84721798202E+02 -0.63442098777E+03 -0.64134169595E+03  0.10867919838E+04  0.60010821709E+03 0.  0.
        -24    2    4    4    0    0 -0.88631854923E+02 -0.66709870728E+03 -0.54755488286E+03  0.87128679930E+03  0.80299725650E+02 0.  0.
         24    2    4    4    0    0  0.17335365312E+03  0.32677719504E+02 -0.93786813091E+02  0.21550518447E+03  0.80791062754E+02 0.  0.
         11    1    5    5    0    0 -0.18848555584E+02 -0.36138431289E+03 -0.32884675785E+03  0.48897247345E+03  0.00000000000E+00 0. -1.
        -12    1    5    5    0    0 -0.69783299338E+02 -0.30571439439E+03 -0.21870812501E+03  0.38231432585E+03  0.00000000000E+00 0.  1.
         11    1    3    3    0    0 -0.45320711751E+02  0.35434646418E+03  0.25269371788E+03  0.43757227819E+03  0.00000000000E+00 0. -1.
        -12    1    3    3    0    0 -0.39401086451E+02  0.28007452360E+03  0.12419298287E+03  0.30889817315E+03  0.00000000000E+00 0.  1.
          4    1    6    6  502    0  0.56203050800E+02 -0.17671704209E+02 -0.58896447706E+02  0.83305843741E+02  0.00000000000E+00 0. -1.
         -3    1    6    6    0  502  0.11715060232E+03  0.50349423713E+02 -0.34890365385E+02  0.13219934073E+03  0.00000000000E+00 0.  1.
<mgrwt>
<rscale>  0 0.75097326E+03</rscale>
<asrwt>0</asrwt>
<pdfrwt beam="1">  1        1 0.16136288E+00 0.75097326E+03</pdfrwt>
<pdfrwt beam="2">  1       -2 0.12067750E+00 0.75097326E+03</pdfrwt>
<totfact> 0.65265621E+00</totfact>
</mgrwt>
</event>
<event>
12    3  0.2422421E-007  0.9257585E+03  0.7818608E-02  0.9393943E-01
          1   -1    0    0  501    0  0.00000000000E+00  0.00000000000E+00  0.19602724529E+04  0.19602724529E+04  0.00000000000E+00 0. -1.
         -2   -1    0    0    0  501 -0.00000000000E+00 -0.00000000000E+00 -0.10771186090E+04  0.10771186090E+04  0.00000000000E+00 0.  1.
        -24    2    1    2    0    0  0.65120873749E+03 -0.55151832444E+03 -0.72359349627E+03  0.11216854831E+04  0.79658604402E+02 0.  0.
    5000000    2    1    2    0    0 -0.65120873749E+03  0.55151832444E+03  0.16067473401E+04  0.19157055788E+04  0.60003797179E+03 0.  0.
        -24    2    4    4    0    0 -0.30292280348E+03 -0.36146796968E+02  0.28686861379E+03  0.42653932105E+03  0.81076353079E+02 0.  0.
         24    2    4    4    0    0 -0.34828593402E+03  0.58766512141E+03  0.13198787263E+04  0.14891662577E+04  0.94249160055E+02 0.  0.
         11    1    3    3    0    0  0.26098841400E+03 -0.23951006121E+03 -0.34859679428E+03  0.49699069070E+03  0.00000000000E+00 0. -1.
        -12    1    3    3    0    0  0.39022032349E+03 -0.31200826323E+03 -0.37499670199E+03  0.62469479243E+03  0.00000000000E+00 0.  1.
         13    1    5    5    0    0 -0.25940267481E+03 -0.23840381657E+01  0.22197427625E+03  0.34142057737E+03  0.00000000000E+00 0. -1.
        -14    1    5    5    0    0 -0.43520128672E+02 -0.33762758802E+02  0.64894337537E+02  0.85118743682E+02  0.00000000000E+00 0.  1.
          2    1    6    6  502    0 -0.16417614812E+03  0.28506500359E+03  0.53469385214E+03  0.62778450077E+03  0.00000000000E+00 0. -1.
         -1    1    6    6    0  502 -0.18410978590E+03  0.30260011781E+03  0.78518487418E+03  0.86138175695E+03  0.00000000000E+00 0.  1.
<mgrwt>
<rscale>  0 0.92575846E+03</rscale>
<asrwt>0</asrwt>
<pdfrwt beam="1">  1        1 0.30158038E+00 0.92575846E+03</pdfrwt>
<pdfrwt beam="2">  1       -2 0.16571056E+00 0.92575846E+03</pdfrwt>
<totfact> 0.64577898E-01</totfact>
</mgrwt>
</event>
<event>
12    3  0.2428276E-007  0.9958966E+03  0.7818608E-02  0.9313057E-01
          1   -1    0    0  501    0  0.00000000000E+00  0.00000000000E+00  0.22398120259E+04  0.22398120259E+04  0.00000000000E+00 0. -1.
         -2   -1    0    0    0  501 -0.00000000000E+00 -0.00000000000E+00 -0.51244948212E+03  0.51244948212E+03  0.00000000000E+00 0.  1.
        -24    2    1    2    0    0  0.94077216291E+03  0.23160478582E+03  0.56289973177E+03  0.11229251004E+04  0.73563807462E+02 0.  0.
    5000000    2    1    2    0    0 -0.94077216291E+03 -0.23160478582E+03  0.11644628120E+04  0.16293364076E+04  0.60005870489E+03 0.  0.
        -24    2    4    4    0    0 -0.65988887807E+02  0.27402874701E+02  0.46081064841E+03  0.47443247140E+03  0.87374283249E+02 0.  0.
         24    2    4    4    0    0 -0.87478327511E+03 -0.25900766052E+03  0.70365216361E+03  0.11549039362E+04  0.79661709445E+02 0.  0.
         11    1    3    3    0    0  0.34713558015E+03  0.50090211778E+02  0.19369049747E+03  0.40065964251E+03  0.00000000000E+00 0. -1.
        -12    1    3    3    0    0  0.59363658276E+03  0.18151457404E+03  0.36920923430E+03  0.72226545790E+03  0.00000000000E+00 0.  1.
         13    1    5    5    0    0  0.17034254770E+02 -0.45883552832E+01  0.15321491683E+03  0.15422720117E+03  0.00000000000E+00 0. -1.
        -14    1    5    5    0    0 -0.83023142577E+02  0.31991229984E+02  0.30759573158E+03  0.32020527023E+03  0.00000000000E+00 0.  1.
          4    1    6    6  502    0 -0.32541356245E+03 -0.71349356136E+02  0.21925911253E+03  0.39882236106E+03  0.00000000000E+00 0. -1.
         -3    1    6    6    0  502 -0.54936971265E+03 -0.18765830439E+03  0.48439305108E+03  0.75608157518E+03  0.00000000000E+00 0.  1.
<mgrwt>
<rscale>  0 0.99589661E+03</rscale>
<asrwt>0</asrwt>
<pdfrwt beam="1">  1        1 0.34458646E+00 0.99589661E+03</pdfrwt>
<pdfrwt beam="2">  1       -2 0.78838383E-01 0.99589661E+03</pdfrwt>
<totfact> 0.25955018E+00</totfact>
</mgrwt>
</event>
<event>
12    3  0.2422421E-007  0.4246351E+03  0.7818608E-02  0.1035568E+00
          1   -1    0    0  501    0  0.00000000000E+00  0.00000000000E+00  0.24832847067E+03  0.24832847067E+03  0.00000000000E+00 0. -1.
         -2   -1    0    0    0  501 -0.00000000000E+00 -0.00000000000E+00 -0.13467401045E+04  0.13467401045E+04  0.00000000000E+00 0.  1.
        -24    2    1    2    0    0  0.30639625037E+03  0.25247307424E+03 -0.22444305454E+03  0.46303737592E+03  0.80047556542E+02 0.  0.
    5000000    2    1    2    0    0 -0.30639625037E+03 -0.25247307424E+03 -0.87396857934E+03  0.11320311993E+04  0.60004353429E+03 0.  0.
        -24    2    4    4    0    0 -0.29648592392E+03 -0.25298206615E+03 -0.18563577958E+03  0.43888264261E+03  0.79079089835E+02 0.  0.
         24    2    4    4    0    0 -0.99103264495E+01  0.50899191175E+00 -0.68833279976E+03  0.69314855668E+03  0.80959278389E+02 0.  0.
         13    1    3    3    0    0  0.14754098869E+03  0.16632758456E+03 -0.14632435676E+03  0.26616541118E+03  0.00000000000E+00 0. -1.
        -14    1    3    3    0    0  0.15885526168E+03  0.86145489681E+02 -0.78118697781E+02  0.19687196474E+03  0.00000000000E+00 0.  1.
         13    1    5    5    0    0 -0.11742836762E+03 -0.11742783987E+03 -0.12006512154E+03  0.20492523639E+03  0.00000000000E+00 0. -1.
        -14    1    5    5    0    0 -0.17905755631E+03 -0.13555422627E+03 -0.65570658041E+02  0.23395740622E+03  0.00000000000E+00 0.  1.
          2    1    6    6  502    0 -0.61654423473E+01 -0.27059831844E+02 -0.90294859586E+02  0.94463796485E+02  0.00000000000E+00 0. -1.
         -1    1    6    6    0  502 -0.37448841022E+01  0.27568823756E+02 -0.59803794017E+03  0.59868476019E+03  0.00000000000E+00 0.  1.
<mgrwt>
<rscale>  0 0.42463511E+03</rscale>
<asrwt>0</asrwt>
<pdfrwt beam="1">  1        1 0.38204380E-01 0.42463511E+03</pdfrwt>
<pdfrwt beam="2">  1       -2 0.20719079E+00 0.42463511E+03</pdfrwt>
<totfact> 0.12435939E+01</totfact>
</mgrwt>
</event>
<event>
12    3  0.2422421E-007  0.7385419E+03  0.7818608E-02  0.9653500E-01
         -2   -1    0    0    0  501 -0.00000000000E+00  0.00000000000E+00  0.61278200575E+03  0.61278200575E+03  0.00000000000E+00 0.  1.
          1   -1    0    0  501    0  0.00000000000E+00 -0.00000000000E+00 -0.10157426888E+04  0.10157426888E+04  0.00000000000E+00 0. -1.
        -24    2    1    2    0    0  0.52560774548E+03 -0.39361000527E+03 -0.25254062634E+02  0.66212021515E+03  0.81074492152E+02 0.  0.
    5000000    2    1    2    0    0 -0.52560774548E+03  0.39361000527E+03 -0.37770662039E+03  0.96640447937E+03  0.60006915293E+03 0.  0.
        -24    2    4    4    0    0  0.40289909749E+02  0.22130466027E+03 -0.26913145467E+03  0.35981726926E+03  0.80235265780E+02 0.  0.
         24    2    4    4    0    0 -0.56589765523E+03  0.17230534499E+03 -0.10857516572E+03  0.60658721011E+03  0.78931544724E+02 0.  0.
         11    1    5    5    0    0  0.13360310483E+02  0.49115454416E+02 -0.12033152038E+03  0.13065412568E+03  0.00000000000E+00 0. -1.
        -12    1    5    5    0    0  0.26929599266E+02  0.17218920586E+03 -0.14879993429E+03  0.22916314358E+03  0.00000000000E+00 0.  1.
         13    1    3    3    0    0  0.31235812035E+03 -0.27330137964E+03  0.73780858094E+01  0.41510923335E+03  0.00000000000E+00 0. -1.
        -14    1    3    3    0    0  0.21324962513E+03 -0.12030862563E+03 -0.32632148444E+02  0.24701098180E+03  0.00000000000E+00 0.  1.
          2    1    6    6  502    0 -0.21772394600E+03  0.54415042946E+02 -0.78556488475E+02  0.23777265495E+03  0.00000000000E+00 0. -1.
         -1    1    6    6    0  502 -0.34817370923E+03  0.11789030205E+03 -0.30018677246E+02  0.36881455516E+03  0.00000000000E+00 0.  1.
<mgrwt>
<rscale>  0 0.73854193E+03</rscale>
<asrwt>0</asrwt>
<pdfrwt beam="1">  1        1 0.15626811E+00 0.73854193E+03</pdfrwt>
<pdfrwt beam="2">  1       -2 0.94274155E-01 0.73854193E+03</pdfrwt>
<totfact> 0.12548192E+01</totfact>
</mgrwt>
</event>
<event>
12    3  0.2422421E-007  0.7882581E+03  0.7818608E-02  0.9577170E-01
         -2   -1    0    0    0  501 -0.00000000000E+00  0.00000000000E+00  0.35375743640E+03  0.35375743640E+03  0.00000000000E+00 0.  1.
          1   -1    0    0  501    0  0.00000000000E+00 -0.00000000000E+00 -0.22154746258E+04  0.22154746258E+04  0.00000000000E+00 0. -1.
        -24    2    1    2    0    0  0.36197089052E+02  0.68519950482E+03 -0.28390140320E+03  0.74697757156E+03  0.81036380773E+02 0.  0.
    5000000    2    1    2    0    0 -0.36197089052E+02 -0.68519950482E+03 -0.15778157862E+04  0.18222544907E+04  0.60025010026E+03 0.  0.
        -24    2    4    4    0    0 -0.28201062198E+03 -0.49778326874E+03 -0.11666569464E+04  0.13017590723E+04  0.78549845738E+02 0.  0.
         24    2    4    4    0    0  0.24581353293E+03 -0.18741623608E+03 -0.41115883982E+03  0.52049541834E+03  0.79465403990E+02 0.  0.
         11    1    5    5    0    0 -0.17833889109E+03 -0.25649527322E+03 -0.57353851540E+03  0.65310107480E+03  0.00000000000E+00 0. -1.
        -12    1    5    5    0    0 -0.10367173089E+03 -0.24128799553E+03 -0.59311843099E+03  0.64865799753E+03  0.00000000000E+00 0.  1.
         13    1    3    3    0    0 -0.24843954900E+02  0.17077518980E+03 -0.80814609775E+02  0.19055809796E+03  0.00000000000E+00 0. -1.
        -14    1    3    3    0    0  0.61041043952E+02  0.51442431503E+03 -0.20308679343E+03  0.55641947360E+03  0.00000000000E+00 0.  1.
          2    1    6    6  502    0  0.17724160999E+03 -0.11566888747E+03 -0.22101568420E+03  0.30600949741E+03  0.00000000000E+00 0. -1.
         -1    1    6    6    0  502  0.68571922935E+02 -0.71747348614E+02 -0.19014315563E+03  0.21448592094E+03  0.00000000000E+00 0.  1.
<mgrwt>
<rscale>  0 0.78825809E+03</rscale>
<asrwt>0</asrwt>
<pdfrwt beam="1">  1        1 0.34084224E+00 0.78825809E+03</pdfrwt>
<pdfrwt beam="2">  1       -2 0.54424222E-01 0.78825809E+03</pdfrwt>
<totfact> 0.61771205E+00</totfact>
</mgrwt>
</event>
<event>
12    3  0.2422421E-007  0.6117414E+03  0.7818608E-02  0.9881341E-01
         -2   -1    0    0    0  501 -0.00000000000E+00  0.00000000000E+00  0.44575173351E+03  0.44575173351E+03  0.00000000000E+00 0.  1.
          1   -1    0    0  501    0  0.00000000000E+00 -0.00000000000E+00 -0.14183572601E+04  0.14183572601E+04  0.00000000000E+00 0. -1.
        -24    2    1    2    0    0 -0.55249274745E+03  0.91602841150E+02 -0.86892184368E+03  0.10367370125E+04  0.78480227259E+02 0.  0.
    5000000    2    1    2    0    0  0.55249274745E+03 -0.91602841150E+02 -0.10368368290E+03  0.82737198114E+03  0.60012896330E+03 0.  0.
        -24    2    4    4    0    0  0.33536756938E+02  0.81250296804E+02 -0.23487986440E+03  0.26199084018E+03  0.75791324322E+02 0.  0.
         24    2    4    4    0    0  0.51895599051E+03 -0.17285313795E+03  0.13119618150E+03  0.56538114096E+03  0.57007623433E+02 0.  0.
         11    1    5    5    0    0  0.57042489136E+02  0.45045304395E+02 -0.15492799174E+03  0.17113038199E+03  0.00000000000E+00 0. -1.
        -12    1    5    5    0    0 -0.23505732198E+02  0.36204992409E+02 -0.79951872659E+02  0.90860458194E+02  0.00000000000E+00 0.  1.
         11    1    3    3    0    0 -0.41438143313E+03  0.65736709447E+02 -0.58444937620E+03  0.71945421011E+03  0.00000000000E+00 0. -1.
        -12    1    3    3    0    0 -0.13811131431E+03  0.25866131703E+02 -0.28447246748E+03  0.31728280235E+03  0.00000000000E+00 0.  1.
          4    1    6    6  502    0  0.49792122270E+03 -0.16043409706E+03  0.11372395617E+03  0.53534828077E+03  0.00000000000E+00 0. -1.
         -3    1    6    6    0  502  0.21034767807E+02 -0.12419040891E+02  0.17472225326E+02  0.30032860190E+02  0.00000000000E+00 0.  1.
<mgrwt>
<rscale>  0 0.61174137E+03</rscale>
<asrwt>0</asrwt>
<pdfrwt beam="1">  1        1 0.21820881E+00 0.61174137E+03</pdfrwt>
<pdfrwt beam="2">  1       -2 0.68577190E-01 0.61174137E+03</pdfrwt>
<totfact> 0.13365836E+01</totfact>
</mgrwt>
</event>
<event>
12    3  0.4081390E-007  0.9436377E+03  0.7818608E-02  0.9372618E-01
          1   -1    0    0  501    0  0.00000000000E+00  0.00000000000E+00  0.12907076937E+04  0.12907076937E+04  0.00000000000E+00 0. -1.
         -2   -1    0    0    0  501 -0.00000000000E+00 -0.00000000000E+00 -0.80131615917E+03  0.80131615917E+03  0.00000000000E+00 0.  1.
        -24    2    1    2    0    0  0.66375974439E+03  0.63612940928E+03  0.10457289892E+03  0.92871538500E+03  0.79618788744E+02 0.  0.
    5000000    2    1    2    0    0 -0.66375974439E+03 -0.63612940928E+03  0.38481863558E+03  0.11633084678E+04  0.59996965377E+03 0.  0.
        -24    2    4    4    0    0 -0.17153503658E+03 -0.44337145936E+02 -0.13011762335E+03  0.23408251947E+03  0.80461038590E+02 0.  0.
         24    2    4    4    0    0 -0.49222470781E+03 -0.59179226335E+03  0.51493625893E+03  0.92922594837E+03  0.76146348796E+02 0.  0.
         11    1    3    3    0    0  0.29426576126E+03  0.33654881846E+03  0.56461069047E+02  0.45060547908E+03  0.00000000000E+00 0. -1.
        -12    1    3    3    0    0  0.36949398313E+03  0.29958059082E+03  0.48111829873E+02  0.47810990592E+03  0.00000000000E+00 0.  1.
         13    1    5    5    0    0 -0.30276527383E+02 -0.40160945529E+02 -0.53099864641E+02  0.73137987947E+02  0.00000000000E+00 0. -1.
        -14    1    5    5    0    0 -0.14125850920E+03 -0.41762004071E+01 -0.77017758712E+02  0.16094453153E+03  0.00000000000E+00 0.  1.
          4    1    6    6  502    0 -0.97936722749E+02 -0.16500370212E+03  0.11252943159E+03  0.22244256865E+03  0.00000000000E+00 0. -1.
         -3    1    6    6    0  502 -0.39428798506E+03 -0.42678856123E+03  0.40240682734E+03  0.70678337972E+03  0.00000000000E+00 0.  1.
<mgrwt>
<rscale>  0 0.94363771E+03</rscale>
<asrwt>0</asrwt>
<pdfrwt beam="1">  1        1 0.19857042E+00 0.94363771E+03</pdfrwt>
<pdfrwt beam="2">  1       -2 0.12327941E+00 0.94363771E+03</pdfrwt>
<totfact> 0.40164525E+00</totfact>
</mgrwt>
</event>
<event>
12    3  0.2422421E-007  0.1395151E+04  0.7818608E-02  0.8957336E-01
          1   -1    0    0  501    0  0.00000000000E+00  0.00000000000E+00  0.14854376614E+04  0.14854376614E+04  0.00000000000E+00 0. -1.
         -2   -1    0    0    0  501 -0.00000000000E+00 -0.00000000000E+00 -0.13555990393E+04  0.13555990393E+04  0.00000000000E+00 0.  1.
        -24    2    1    2    0    0 -0.95099076563E+03  0.94189817068E+03  0.27193519331E+03  0.13673072946E+04  0.63442006012E+02 0.  0.
    5000000    2    1    2    0    0  0.95099076563E+03 -0.94189817068E+03 -0.14209657117E+03  0.14737294061E+04  0.60010942886E+03 0.  0.
        -24    2    4    4    0    0  0.37730592507E+03 -0.75328296147E+03 -0.17547387899E+03  0.86452651105E+03  0.82583442460E+02 0.  0.
         24    2    4    4    0    0  0.57368484056E+03 -0.18861520921E+03  0.33377307822E+02  0.60920289505E+03  0.72966630881E+02 0.  0.
         11    1    5    5    0    0  0.12804959352E+03 -0.25671918491E+03 -0.10000318233E+03  0.30381256521E+03  0.00000000000E+00 0. -1.
        -12    1    5    5    0    0  0.24925633155E+03 -0.49656377656E+03 -0.75470696657E+02  0.56071394584E+03  0.00000000000E+00 0.  1.
         13    1    3    3    0    0 -0.61582570460E+02  0.84078191266E+02  0.25532496109E+02  0.10730080889E+03  0.00000000000E+00 0. -1.
        -14    1    3    3    0    0 -0.88940819517E+03  0.85781997942E+03  0.24640269720E+03  0.12600064857E+04  0.00000000000E+00 0.  1.
          4    1    6    6  502    0  0.30365080859E+03 -0.63130341841E+02  0.27755904430E+02  0.31138343541E+03  0.00000000000E+00 0. -1.
         -3    1    6    6    0  502  0.27003403197E+03 -0.12548486737E+03  0.56214033926E+01  0.29781945964E+03  0.00000000000E+00 0.  1.
<mgrwt>
<rscale>  0 0.13951509E+04</rscale>
<asrwt>0</asrwt>
<pdfrwt beam="1">  1        1 0.22852887E+00 0.13951509E+04</pdfrwt>
<pdfrwt beam="2">  1       -2 0.20855370E+00 0.13951509E+04</pdfrwt>
<totfact> 0.65498993E-01</totfact>
</mgrwt>
</event>
<event>
12    3  0.2422421E-007  0.1021181E+04  0.7818608E-02  0.9285614E-01
          1   -1    0    0  501    0  0.00000000000E+00  0.00000000000E+00  0.22913278331E+04  0.22913278331E+04  0.00000000000E+00 0. -1.
         -2   -1    0    0    0  501 -0.00000000000E+00 -0.00000000000E+00 -0.47301214787E+03  0.47301214787E+03  0.00000000000E+00 0.  1.
        -24    2    1    2    0    0 -0.91455668959E+02  0.94842077812E+03  0.83928308161E+03  0.12722975936E+04  0.80492010854E+02 0.  0.
    5000000    2    1    2    0    0  0.91455668959E+02 -0.94842077812E+03  0.97903260364E+03  0.14920423874E+04  0.59984959367E+03 0.  0.
        -24    2    4    4    0    0 -0.14172787672E+03 -0.76970975916E+03  0.85854163387E+03  0.11645499166E+04  0.80887989737E+02 0.  0.
         24    2    4    4    0    0  0.23318354568E+03 -0.17871101896E+03  0.12049096977E+03  0.32749247075E+03  0.80131456541E+02 0.  0.
         11    1    3    3    0    0 -0.33790808946E+02  0.65598617501E+03  0.60753176823E+03  0.89473712898E+03  0.00000000000E+00 0. -1.
        -12    1    3    3    0    0 -0.57664860013E+02  0.29243460312E+03  0.23175131338E+03  0.37756046460E+03  0.00000000000E+00 0.  1.
         13    1    5    5    0    0 -0.38536648675E+02 -0.30446715315E+03  0.38969711682E+03  0.49603342981E+03  0.00000000000E+00 0. -1.
        -14    1    5    5    0    0 -0.10319122804E+03 -0.46524260602E+03  0.46884451705E+03  0.66851648683E+03  0.00000000000E+00 0.  1.
          2    1    6    6  502    0  0.18401916343E+03 -0.95445871963E+02  0.73129397397E+02  0.21982009860E+03  0.00000000000E+00 0. -1.
         -3    1    6    6    0  502  0.49164382245E+02 -0.83265146998E+02  0.47361572370E+02  0.10767237215E+03  0.00000000000E+00 0.  1.
<mgrwt>
<rscale>  0 0.10211815E+04</rscale>
<asrwt>0</asrwt>
<pdfrwt beam="1">  1        1 0.35251197E+00 0.10211815E+04</pdfrwt>
<pdfrwt beam="2">  1       -2 0.72771101E-01 0.10211815E+04</pdfrwt>
<totfact> 0.28539274E+00</totfact>
</mgrwt>
</event>
<event>
12    3  0.2422421E-007  0.6740323E+03  0.7818608E-02  0.9762701E-01
          1   -1    0    0  501    0  0.00000000000E+00  0.00000000000E+00  0.20564139329E+04  0.20564139329E+04  0.00000000000E+00 0. -1.
         -2   -1    0    0    0  501 -0.00000000000E+00 -0.00000000000E+00 -0.27957879722E+03  0.27957879722E+03  0.00000000000E+00 0.  1.
        -24    2    1    2    0    0 -0.38001457377E+03 -0.38748387922E+03  0.23902224609E+03  0.59829913977E+03  0.79217381848E+02 0.  0.
    5000000    2    1    2    0    0  0.38001457377E+03  0.38748387922E+03  0.15378128896E+04  0.17376935903E+04  0.60012973401E+03 0.  0.
        -24    2    4    4    0    0 -0.14024361180E+03  0.17502353644E+03  0.53475061725E+03  0.58520613238E+03  0.78781252619E+02 0.  0.
         24    2    4    4    0    0  0.52025818557E+03  0.21246034278E+03  0.10030622723E+04  0.11524874580E+04  0.79280777608E+02 0.  0.
         11    1    5    5    0    0 -0.10719440886E+03  0.73516985955E+02  0.26697448400E+03  0.29693562201E+03  0.00000000000E+00 0. -1.
        -12    1    5    5    0    0 -0.33049202945E+02  0.10150655049E+03  0.26777613325E+03  0.28827051036E+03  0.00000000000E+00 0.  1.
         11    1    3    3    0    0 -0.14140874258E+03 -0.11475246988E+03  0.46483942105E+02  0.18795030911E+03  0.00000000000E+00 0. -1.
        -12    1    3    3    0    0 -0.23860583119E+03 -0.27273140935E+03  0.19253830399E+03  0.41034883066E+03  0.00000000000E+00 0.  1.
          2    1    6    6  502    0  0.44488817901E+03  0.15172267636E+03  0.85233314774E+03  0.97335351085E+03  0.00000000000E+00 0. -1.
         -1    1    6    6    0  502  0.75370006557E+02  0.60737666423E+02  0.15072912457E+03  0.17913394710E+03  0.00000000000E+00 0.  1.
<mgrwt>
<rscale>  0 0.67403231E+03</rscale>
<asrwt>0</asrwt>
<pdfrwt beam="1">  1        1 0.31637136E+00 0.67403231E+03</pdfrwt>
<pdfrwt beam="2">  1       -2 0.43012124E-01 0.67403231E+03</pdfrwt>
<totfact> 0.12933227E+01</totfact>
</mgrwt>
</event>
<event>
12    3  0.2422421E-007  0.9295058E+03  0.7818608E-02  0.9389431E-01
          1   -1    0    0  501    0  0.00000000000E+00  0.00000000000E+00  0.10654738944E+04  0.10654738944E+04  0.00000000000E+00 0. -1.
         -2   -1    0    0    0  501 -0.00000000000E+00 -0.00000000000E+00 -0.82658947580E+03  0.82658947580E+03  0.00000000000E+00 0.  1.
        -24    2    1    2    0    0  0.17512392122E+03  0.81896909519E+03  0.35433786334E+02  0.84201542401E+03  0.79722358244E+02 0.  0.
    5000000    2    1    2    0    0 -0.17512392122E+03 -0.81896909519E+03  0.20345063226E+03  0.10500479462E+04  0.59985811894E+03 0.  0.
        -24    2    4    4    0    0 -0.26534600685E+03 -0.10186874947E+03  0.26245265919E+00  0.29498987446E+03  0.78950691461E+02 0.  0.
         24    2    4    4    0    0  0.90222085625E+02 -0.71710034571E+03  0.20318817960E+03  0.75505807173E+03  0.80338812509E+02 0.  0.
         13    1    3    3    0    0  0.13553392115E+03  0.44509740939E+03  0.23260980262E+02  0.46585643800E+03  0.00000000000E+00 0. -1.
        -14    1    3    3    0    0  0.39590000075E+02  0.37387168580E+03  0.12172806072E+02  0.37615898601E+03  0.00000000000E+00 0.  1.
         13    1    5    5    0    0 -0.19582386899E+03 -0.11045969940E+03  0.36172930088E+01  0.22485866153E+03  0.00000000000E+00 0. -1.
        -14    1    5    5    0    0 -0.69522137854E+02  0.85909499229E+01 -0.33548403497E+01  0.70131212924E+02  0.00000000000E+00 0.  1.
          2    1    6    6  502    0  0.31446255153E+02 -0.30630280818E+03  0.12732608037E+03  0.33319995199E+03  0.00000000000E+00 0. -1.
         -1    1    6    6    0  502  0.58775830472E+02 -0.41079753754E+03  0.75862099231E+02  0.42185811974E+03  0.00000000000E+00 0.  1.
<mgrwt>
<rscale>  0 0.92950578E+03</rscale>
<asrwt>0</asrwt>
<pdfrwt beam="1">  1        1 0.16391906E+00 0.92950578E+03</pdfrwt>
<pdfrwt beam="2">  1       -2 0.12716761E+00 0.92950578E+03</pdfrwt>
<totfact> 0.54443755E+00</totfact>
</mgrwt>
</event>
<event>
12    3  0.2422421E-007  0.8744251E+03  0.7818608E-02  0.9458128E-01
          1   -1    0    0  501    0  0.00000000000E+00  0.00000000000E+00  0.20368937029E+04  0.20368937029E+04  0.00000000000E+00 0. -1.
         -2   -1    0    0    0  501 -0.00000000000E+00 -0.00000000000E+00 -0.45833211813E+03  0.45833211813E+03  0.00000000000E+00 0.  1.
        -24    2    1    2    0    0  0.38467477275E+03  0.73537154603E+03  0.10564783654E+04  0.13458829109E+04  0.80673922393E+02 0.  0.
    5000000    2    1    2    0    0 -0.38467477275E+03 -0.73537154603E+03  0.52208321929E+03  0.11493429101E+04  0.59972680912E+03 0.  0.
        -24    2    4    4    0    0  0.48306350374E+02 -0.56573406395E+02 -0.83579672021E+02  0.13807644768E+03  0.80904202800E+02 0.  0.
         24    2    4    4    0    0 -0.43298112312E+03 -0.67879813964E+03  0.60566289131E+03  0.10112664624E+04  0.87136402900E+02 0.  0.
         11    1    5    5    0    0  0.67169022420E+02 -0.58750644329E+02 -0.58839636022E+02  0.10688974950E+03  0.00000000000E+00 0. -1.
        -12    1    5    5    0    0 -0.18862672046E+02  0.21772379343E+01 -0.24740035998E+02  0.31186698173E+02  0.00000000000E+00 0.  1.
         11    1    3    3    0    0  0.13571960579E+03  0.22087934409E+03  0.38410930774E+03  0.46340851992E+03  0.00000000000E+00 0. -1.
        -12    1    3    3    0    0  0.24895516696E+03  0.51449220194E+03  0.67236905770E+03  0.88247439100E+03  0.00000000000E+00 0.  1.
          4    1    6    6  502    0 -0.11023399440E+03 -0.24921147887E+03  0.20661138030E+03  0.34197391303E+03  0.00000000000E+00 0. -1.
         -1    1    6    6    0  502 -0.32274712871E+03 -0.42958666077E+03  0.39905151101E+03  0.66929254937E+03  0.00000000000E+00 0.  1.
<mgrwt>
<rscale>  0 0.87442514E+03</rscale>
<asrwt>0</asrwt>
<pdfrwt beam="1">  1        1 0.31336826E+00 0.87442514E+03</pdfrwt>
<pdfrwt beam="2">  1       -2 0.70512635E-01 0.87442514E+03</pdfrwt>
<totfact> 0.46310088E+00</totfact>
</mgrwt>
</event>
<event>
12    3  0.2422421E-007  0.5996790E+03  0.7818608E-02  0.9906072E-01
          1   -1    0    0  501    0  0.00000000000E+00  0.00000000000E+00  0.81370869665E+03  0.81370869665E+03  0.00000000000E+00 0. -1.
         -2   -1    0    0    0  501 -0.00000000000E+00 -0.00000000000E+00 -0.83724689156E+03  0.83724689156E+03  0.00000000000E+00 0.  1.
        -24    2    1    2    0    0  0.44377749658E+03 -0.37727696143E+03 -0.42316592970E+03  0.72427729340E+03  0.78941887379E+02 0.  0.
    5000000    2    1    2    0    0 -0.44377749658E+03  0.37727696143E+03  0.39962773479E+03  0.92667829482E+03  0.59979493461E+03 0.  0.
        -24    2    4    4    0    0 -0.23983535423E+03  0.27368743275E+03 -0.88544119371E+02  0.38276108608E+03  0.78994809732E+02 0.  0.
         24    2    4    4    0    0 -0.20394214235E+03  0.10358952868E+03  0.48817185416E+03  0.54391720873E+03  0.72187137958E+02 0.  0.
         11    1    5    5    0    0 -0.60097169218E+02  0.12566561152E+03 -0.26529373586E+02  0.14180029383E+03  0.00000000000E+00 0. -1.
        -12    1    5    5    0    0 -0.17973818501E+03  0.14802182122E+03 -0.62014745784E+02  0.24096079225E+03  0.00000000000E+00 0.  1.
         13    1    3    3    0    0  0.36156379549E+03 -0.26334762772E+03 -0.32160688768E+03  0.55091863414E+03  0.00000000000E+00 0. -1.
        -14    1    3    3    0    0  0.82213701082E+02 -0.11392933370E+03 -0.10155904202E+03  0.17335865926E+03  0.00000000000E+00 0.  1.
          4    1    6    6  502    0 -0.15472960637E+03  0.41513506676E+02  0.31077276722E+03  0.34963457377E+03  0.00000000000E+00 0. -1.
         -3    1    6    6    0  502 -0.49212535979E+02  0.62076022002E+02  0.17739908693E+03  0.19428263497E+03  0.00000000000E+00 0.  1.
<mgrwt>
<rscale>  0 0.59967898E+03</rscale>
<asrwt>0</asrwt>
<pdfrwt beam="1">  1        1 0.12518595E+00 0.59967898E+03</pdfrwt>
<pdfrwt beam="2">  1       -2 0.12880721E+00 0.59967898E+03</pdfrwt>
<totfact> 0.87333777E+00</totfact>
</mgrwt>
</event>
<event>
12    3  0.2826752E-007  0.1437741E+04  0.7818608E-02  0.8926944E-01
         -2   -1    0    0    0  501 -0.00000000000E+00  0.00000000000E+00  0.72783148805E+03  0.72783148805E+03  0.00000000000E+00 0.  1.
          1   -1    0    0  501    0  0.00000000000E+00 -0.00000000000E+00 -0.30756009237E+04  0.30756009237E+04  0.00000000000E+00 0. -1.
        -24    2    1    2    0    0 -0.17385007028E+03 -0.13725509972E+04 -0.64477305303E+03  0.15287342999E+04  0.84712352658E+02 0.  0.
    5000000    2    1    2    0    0  0.17385007028E+03  0.13725509972E+04 -0.17029963826E+04  0.22746981119E+04  0.59994560926E+03 0.  0.
        -24    2    4    4    0    0 -0.19076726850E+03  0.62104453326E+03 -0.59277815894E+03  0.88315504627E+03  0.80550772935E+02 0.  0.
         24    2    4    4    0    0  0.36461733877E+03  0.75150646397E+03 -0.11102182237E+04  0.13915430656E+04  0.78101409314E+02 0.  0.
         13    1    3    3    0    0 -0.16640120772E+03 -0.10427488247E+04 -0.47814456173E+03  0.11591534390E+04  0.00000000000E+00 0. -1.
        -14    1    3    3    0    0 -0.74488625578E+01 -0.32980217254E+03 -0.16662849130E+03  0.36958086081E+03  0.00000000000E+00 0.  1.
         13    1    5    5    0    0 -0.88435498654E+02  0.38437202104E+03 -0.32108216537E+03  0.50858278078E+03  0.00000000000E+00 0. -1.
        -14    1    5    5    0    0 -0.10233176984E+03  0.23667251222E+03 -0.27169599357E+03  0.37457226550E+03  0.00000000000E+00 0.  1.
          4    1    6    6  502    0  0.20810081536E+03  0.36099359974E+03 -0.51029080040E+03  0.65880120627E+03  0.00000000000E+00 0. -1.
         -3    1    6    6    0  502  0.15651652341E+03  0.39051286423E+03 -0.59992742329E+03  0.73274185935E+03  0.00000000000E+00 0.  1.
<mgrwt>
<rscale>  0 0.14377412E+04</rscale>
<asrwt>0</asrwt>
<pdfrwt beam="1">  1        1 0.47316938E+00 0.14377412E+04</pdfrwt>
<pdfrwt beam="2">  1       -2 0.11197407E+00 0.14377412E+04</pdfrwt>
<totfact> 0.27952553E-01</totfact>
</mgrwt>
</event>
<event>
12    3  0.2422421E-007  0.6605027E+03  0.7818608E-02  0.9787269E-01
          1   -1    0    0  501    0  0.00000000000E+00  0.00000000000E+00  0.81544863699E+03  0.81544863699E+03  0.00000000000E+00 0. -1.
         -2   -1    0    0    0  501 -0.00000000000E+00 -0.00000000000E+00 -0.62188780950E+03  0.62188780950E+03  0.00000000000E+00 0.  1.
        -24    2    1    2    0    0  0.44764555272E+03  0.37067827935E+03  0.11654726168E+03  0.59845955318E+03  0.82350743365E+02 0.  0.
    5000000    2    1    2    0    0 -0.44764555272E+03 -0.37067827935E+03  0.77013565809E+02  0.83887689332E+03  0.59999535430E+03 0.  0.
        -24    2    4    4    0    0 -0.16291168895E+01  0.88656328483E+02 -0.11823430076E+03  0.16470852219E+03  0.72711407662E+02 0.  0.
         24    2    4    4    0    0 -0.44601643583E+03 -0.45933460783E+03  0.19524786657E+03  0.67416837113E+03  0.80388557954E+02 0.  0.
         11    1    5    5    0    0 -0.33015036721E+01  0.46035061012E+02 -0.11259014195E+03  0.12168264803E+03  0.00000000000E+00 0. -1.
        -12    1    5    5    0    0  0.16723867826E+01  0.42621267470E+02 -0.56441588141E+01  0.43025874158E+02  0.00000000000E+00 0.  1.
         11    1    3    3    0    0  0.41451159858E+03  0.30927649407E+03  0.10529390024E+03  0.52778652936E+03  0.00000000000E+00 0. -1.
        -12    1    3    3    0    0  0.33133954140E+02  0.61401785278E+02  0.11253361440E+02  0.70673023821E+02  0.00000000000E+00 0.  1.
          2    1    6    6  502    0 -0.20693955419E+03 -0.27057526182E+03  0.10610174495E+03  0.35678078939E+03  0.00000000000E+00 0. -1.
         -1    1    6    6    0  502 -0.23907688164E+03 -0.18875934601E+03  0.89146121623E+02  0.31738758174E+03  0.00000000000E+00 0.  1.
<mgrwt>
<rscale>  0 0.66050274E+03</rscale>
<asrwt>0</asrwt>
<pdfrwt beam="1">  1        1 0.12545364E+00 0.66050274E+03</pdfrwt>
<pdfrwt beam="2">  1       -2 0.95675047E-01 0.66050274E+03</pdfrwt>
<totfact> 0.17755112E+01</totfact>
</mgrwt>
</event>
<event>
12    3  0.2422421E-007  0.8867042E+03  0.7818608E-02  0.9442356E-01
          1   -1    0    0  501    0  0.00000000000E+00  0.00000000000E+00  0.73304370496E+03  0.73304370496E+03  0.00000000000E+00 0. -1.
         -2   -1    0    0    0  501 -0.00000000000E+00 -0.00000000000E+00 -0.12349945544E+04  0.12349945544E+04  0.00000000000E+00 0.  1.
        -24    2    1    2    0    0  0.61012276463E+03  0.53957144910E+03 -0.49457657784E+03  0.95634634134E+03  0.81272360841E+02 0.  0.
    5000000    2    1    2    0    0 -0.61012276463E+03 -0.53957144910E+03 -0.73742716334E+01  0.10116919180E+04  0.60006584683E+03 0.  0.
        -24    2    4    4    0    0 -0.53491818861E+03 -0.63534448207E+03  0.86568867773E+02  0.83779665829E+03  0.67889560086E+02 0.  0.
         24    2    4    4    0    0 -0.75204576022E+02  0.95773032968E+02 -0.93943139406E+02  0.17389525975E+03  0.81154456586E+02 0.  0.
         11    1    3    3    0    0  0.45425592601E+03  0.43779314769E+03 -0.40565428200E+03  0.75004445400E+03  0.00000000000E+00 0. -1.
        -12    1    3    3    0    0  0.15586683862E+03  0.10177830142E+03 -0.88922295839E+02  0.20630188734E+03  0.00000000000E+00 0.  1.
         13    1    5    5    0    0 -0.64066612858E+02 -0.45494775312E+02  0.85513234410E+01  0.79040689498E+02  0.00000000000E+00 0. -1.
        -14    1    5    5    0    0 -0.47085157575E+03 -0.58984970676E+03  0.78017544332E+02  0.75875596879E+03  0.00000000000E+00 0.  1.
          4    1    6    6  502    0 -0.40892758578E+02  0.65959670802E+02 -0.97525271031E+01  0.78217694042E+02  0.00000000000E+00 0. -1.
         -3    1    6    6    0  502 -0.34311817444E+02  0.29813362166E+02 -0.84190612303E+02  0.95677565708E+02  0.00000000000E+00 0.  1.
<mgrwt>
<rscale>  0 0.88670424E+03</rscale>
<asrwt>0</asrwt>
<pdfrwt beam="1">  1        1 0.11277596E+00 0.88670424E+03</pdfrwt>
<pdfrwt beam="2">  1       -2 0.18999916E+00 0.88670424E+03</pdfrwt>
<totfact> 0.34776121E+00</totfact>
</mgrwt>
</event>
<event>
12    3  0.2422421E-007  0.6500895E+03  0.7818608E-02  0.9806611E-01
          1   -1    0    0  501    0  0.00000000000E+00  0.00000000000E+00  0.85126483935E+03  0.85126483935E+03  0.00000000000E+00 0. -1.
         -2   -1    0    0    0  501 -0.00000000000E+00 -0.00000000000E+00 -0.72184642680E+03  0.72184642680E+03  0.00000000000E+00 0.  1.
        -24    2    1    2    0    0 -0.30272577782E+03  0.42476122681E+03  0.47147287850E+03  0.70761226341E+03  0.79771196639E+02 0.  0.
    5000000    2    1    2    0    0  0.30272577782E+03 -0.42476122681E+03 -0.34205446595E+03  0.86549900274E+03  0.60001855781E+03 0.  0.
        -24    2    4    4    0    0 -0.11982822796E+03  0.34214506630E+02  0.88516612478E+00  0.14885752826E+03  0.81414639483E+02 0.  0.
         24    2    4    4    0    0  0.42255400578E+03 -0.45897573344E+03 -0.34293963207E+03  0.71664147448E+03  0.82199756745E+02 0.  0.
         11    1    3    3    0    0 -0.86090698683E+02  0.72126840675E+02  0.79596807819E+02  0.13765733312E+03  0.00000000000E+00 0. -1.
        -12    1    3    3    0    0 -0.21663507913E+03  0.35263438614E+03  0.39187607068E+03  0.56995493030E+03  0.00000000000E+00 0.  1.
         11    1    5    5    0    0 -0.45160196775E+02 -0.25942205514E+02  0.80699859511E+01  0.52702619222E+02  0.00000000000E+00 0. -1.
        -12    1    5    5    0    0 -0.74668031185E+02  0.60156712144E+02 -0.71848198263E+01  0.96154909042E+02  0.00000000000E+00 0.  1.
          2    1    6    6  502    0  0.29991401870E+03 -0.35914295728E+03 -0.28696524268E+03  0.54889082055E+03  0.00000000000E+00 0. -1.
         -1    1    6    6    0  502  0.12263998707E+03 -0.99832776164E+02 -0.55974389399E+02  0.16775065393E+03  0.00000000000E+00 0.  1.
<mgrwt>
<rscale>  0 0.65008954E+03</rscale>
<asrwt>0</asrwt>
<pdfrwt beam="1">  1        1 0.13096382E+00 0.65008954E+03</pdfrwt>
<pdfrwt beam="2">  1       -2 0.11105330E+00 0.65008954E+03</pdfrwt>
<totfact> 0.11626441E+01</totfact>
</mgrwt>
</event>
<event>
12    3  0.2422421E-007  0.6111756E+03  0.7818608E-02  0.9882488E-01
         -2   -1    0    0    0  501 -0.00000000000E+00  0.00000000000E+00  0.54913327706E+03  0.54913327706E+03  0.00000000000E+00 0.  1.
          1   -1    0    0  501    0  0.00000000000E+00 -0.00000000000E+00 -0.10164495600E+04  0.10164495600E+04  0.00000000000E+00 0. -1.
        -24    2    1    2    0    0  0.25142247201E+02  0.48900261948E+03 -0.60135859488E+03  0.77965212538E+03  0.80433715110E+02 0.  0.
    5000000    2    1    2    0    0 -0.25142247201E+02 -0.48900261948E+03  0.13404231192E+03  0.78593071170E+03  0.59997003906E+03 0.  0.
        -24    2    4    4    0    0  0.22797945057E+03 -0.38620924241E+03  0.19417147280E+03  0.49494687913E+03  0.78343114009E+02 0.  0.
         24    2    4    4    0    0 -0.25312169777E+03 -0.10279337707E+03 -0.60129160883E+02  0.29098383257E+03  0.80118678078E+02 0.  0.
         13    1    5    5    0    0  0.14534180858E+03 -0.19413584146E+03  0.13538296284E+03  0.27774360998E+03  0.00000000000E+00 0. -1.
        -14    1    5    5    0    0  0.82637641988E+02 -0.19207340095E+03  0.58788509959E+02  0.21720326915E+03  0.00000000000E+00 0.  1.
         13    1    3    3    0    0 -0.22948905031E+02  0.82544907173E+02 -0.12597332479E+03  0.15234694779E+03  0.00000000000E+00 0. -1.
        -14    1    3    3    0    0  0.48091152232E+02  0.40645771231E+03 -0.47538527009E+03  0.62730517759E+03  0.00000000000E+00 0.  1.
          2    1    6    6  502    0 -0.15815182748E+03 -0.44317150006E+02  0.72984640702E-01  0.16424376898E+03  0.00000000000E+00 0. -1.
         -1    1    6    6    0  502 -0.94969870287E+02 -0.58476227064E+02 -0.60202145523E+02  0.12674006359E+03  0.00000000000E+00 0.  1.
<mgrwt>
<rscale>  0 0.61117564E+03</rscale>
<asrwt>0</asrwt>
<pdfrwt beam="1">  1        1 0.15637685E+00 0.61117564E+03</pdfrwt>
<pdfrwt beam="2">  1       -2 0.84482043E-01 0.61117564E+03</pdfrwt>
<totfact> 0.16387121E+01</totfact>
</mgrwt>
</event>
<event>
12    3  0.2422421E-007  0.9039197E+03  0.7818608E-02  0.9420695E-01
          1   -1    0    0  501    0  0.00000000000E+00  0.00000000000E+00  0.91901511825E+03  0.91901511825E+03  0.00000000000E+00 0. -1.
         -2   -1    0    0    0  501 -0.00000000000E+00 -0.00000000000E+00 -0.10649240309E+04  0.10649240309E+04  0.00000000000E+00 0.  1.
        -24    2    1    2    0    0  0.44114240406E+03 -0.78021807213E+03 -0.42089345317E+02  0.90035596146E+03  0.74313414742E+02 0.  0.
    5000000    2    1    2    0    0 -0.44114240406E+03  0.78021807213E+03 -0.10381956732E+03  0.10835831877E+04  0.60002263400E+03 0.  0.
        -24    2    4    4    0    0 -0.11824675218E+03  0.25391302509E+03 -0.31242625986E+03  0.42705199114E+03  0.79429947608E+02 0.  0.
         24    2    4    4    0    0 -0.32289565188E+03  0.52630504704E+03  0.20860669253E+03  0.65653119654E+03  0.79106607266E+02 0.  0.
         13    1    3    3    0    0  0.19521085930E+03 -0.28229069419E+03 -0.34626075134E+02  0.34495547639E+03  0.00000000000E+00 0. -1.
        -14    1    3    3    0    0  0.24593154476E+03 -0.49792737795E+03 -0.74632701829E+01  0.55540048507E+03  0.00000000000E+00 0.  1.
         13    1    5    5    0    0 -0.76610224555E+02  0.22958630126E+03 -0.24744949023E+03  0.34613616749E+03  0.00000000000E+00 0. -1.
        -14    1    5    5    0    0 -0.41636527630E+02  0.24326723832E+02 -0.64976769629E+02  0.80915823649E+02  0.00000000000E+00 0.  1.
          4    1    6    6  502    0 -0.18273109828E+02  0.53945248342E+02 -0.13106916072E+00  0.56956242332E+02  0.00000000000E+00 0. -1.
         -3    1    6    6    0  502 -0.30462254205E+03  0.47235979870E+03  0.20873776169E+03  0.59957495420E+03  0.00000000000E+00 0.  1.
<mgrwt>
<rscale>  0 0.90391968E+03</rscale>
<asrwt>0</asrwt>
<pdfrwt beam="1">  1        1 0.14138694E+00 0.90391968E+03</pdfrwt>
<pdfrwt beam="2">  1       -2 0.16383447E+00 0.90391968E+03</pdfrwt>
<totfact> 0.36557350E+00</totfact>
</mgrwt>
</event>
<event>
12    3  0.2422421E-007  0.1142815E+04  0.7818608E-02  0.9164438E-01
         -2   -1    0    0    0  501 -0.00000000000E+00  0.00000000000E+00  0.14396295685E+04  0.14396295685E+04  0.00000000000E+00 0.  1.
          1   -1    0    0  501    0  0.00000000000E+00 -0.00000000000E+00 -0.11779526416E+04  0.11779526416E+04  0.00000000000E+00 0. -1.
        -24    2    1    2    0    0 -0.21629161516E+03 -0.10423320299E+04  0.74680733028E+03  0.13028806179E+04  0.80861563942E+02 0.  0.
    5000000    2    1    2    0    0  0.21629161516E+03  0.10423320299E+04 -0.48513040339E+03  0.13147015922E+04  0.59987552444E+03 0.  0.
        -24    2    4    4    0    0 -0.18222353040E+03  0.52225352429E+03 -0.17435411482E+03  0.58532430670E+03  0.79063442811E+02 0.  0.
         24    2    4    4    0    0  0.39851514557E+03  0.52007850560E+03 -0.31077628856E+03  0.72937728546E+03  0.78187913308E+02 0.  0.
         13    1    3    3    0    0 -0.16958728349E+03 -0.62435300544E+03  0.45862622406E+03  0.79304132018E+03  0.00000000000E+00 0. -1.
        -14    1    3    3    0    0 -0.46704331672E+02 -0.41797902446E+03  0.28818110622E+03  0.50983929769E+03  0.00000000000E+00 0.  1.
         13    1    5    5    0    0 -0.94432937176E+02  0.15807005004E+03 -0.55977276625E+02  0.19245045036E+03  0.00000000000E+00 0. -1.
        -14    1    5    5    0    0 -0.87790593227E+02  0.36418347425E+03 -0.11837683820E+03  0.39287385634E+03  0.00000000000E+00 0.  1.
          4    1    6    6  502    0  0.28919360040E+03  0.31987116846E+03 -0.18933174420E+03  0.47095330160E+03  0.00000000000E+00 0. -1.
         -3    1    6    6    0  502  0.10932154516E+03  0.20020733714E+03 -0.12144454436E+03  0.25842398386E+03  0.00000000000E+00 0.  1.
<mgrwt>
<rscale>  0 0.11428151E+04</rscale>
<asrwt>0</asrwt>
<pdfrwt beam="1">  1        1 0.18122348E+00 0.11428151E+04</pdfrwt>
<pdfrwt beam="2">  1       -2 0.22148147E+00 0.11428151E+04</pdfrwt>
<totfact> 0.92301483E-01</totfact>
</mgrwt>
</event>
<event>
12    3  0.2422421E-007  0.4725966E+03  0.7818608E-02  0.1021190E+00
         -2   -1    0    0    0  501 -0.00000000000E+00  0.00000000000E+00  0.51631558202E+03  0.51631558202E+03  0.00000000000E+00 0.  1.
          1   -1    0    0  501    0  0.00000000000E+00 -0.00000000000E+00 -0.70406777030E+03  0.70406777030E+03  0.00000000000E+00 0. -1.
        -24    2    1    2    0    0  0.43918869124E+03  0.61508323029E+02 -0.14472185332E+03  0.47306430071E+03  0.78583951679E+02 0.  0.
    5000000    2    1    2    0    0 -0.43918869124E+03 -0.61508323029E+02 -0.43030334960E+02  0.74731905161E+03  0.59997014497E+03 0.  0.
        -24    2    4    4    0    0 -0.54885679124E+02 -0.93972561964E+02  0.23094736401E+03  0.26769530538E+03  0.80503486906E+02 0.  0.
         24    2    4    4    0    0 -0.38430301212E+03  0.32464238935E+02 -0.27397769897E+03  0.47962374623E+03  0.78945718597E+02 0.  0.
         11    1    3    3    0    0  0.20333254210E+03  0.27197482471E+02 -0.10824621589E+03  0.23195057444E+03  0.00000000000E+00 0. -1.
        -12    1    3    3    0    0  0.23585614914E+03  0.34310840558E+02 -0.36475637421E+02  0.24111372626E+03  0.00000000000E+00 0.  1.
         11    1    5    5    0    0 -0.14248697069E+02 -0.34862701806E+02  0.16828761677E+03  0.17245044304E+03  0.00000000000E+00 0. -1.
        -12    1    5    5    0    0 -0.40636982055E+02 -0.59109860158E+02  0.62659747238E+02  0.95244862341E+02  0.00000000000E+00 0.  1.
          4    1    6    6  502    0 -0.17601661193E+03  0.50869479557E+02 -0.14782155391E+03  0.23541614946E+03  0.00000000000E+00 0. -1.
         -3    1    6    6    0  502 -0.20828640019E+03 -0.18405240622E+02 -0.12615614506E+03  0.24420759677E+03  0.00000000000E+00 0.  1.
<mgrwt>
<rscale>  0 0.47259663E+03</rscale>
<asrwt>0</asrwt>
<pdfrwt beam="1">  1        1 0.10831812E+00 0.47259663E+03</pdfrwt>
<pdfrwt beam="2">  1       -2 0.79433166E-01 0.47259663E+03</pdfrwt>
<totfact> 0.34863547E+01</totfact>
</mgrwt>
</event>
<event>
12    3  0.2422421E-007  0.1039888E+04  0.7818608E-02  0.9265847E-01
         -2   -1    0    0    0  501 -0.00000000000E+00  0.00000000000E+00  0.18170467743E+04  0.18170467743E+04  0.00000000000E+00 0.  1.
          1   -1    0    0  501    0  0.00000000000E+00 -0.00000000000E+00 -0.13157924385E+04  0.13157924385E+04  0.00000000000E+00 0. -1.
        -24    2    1    2    0    0  0.68104000958E+03 -0.72022797382E+03  0.13641502162E+04  0.16881411105E+04  0.79817089425E+02 0.  0.
    5000000    2    1    2    0    0 -0.68104000958E+03  0.72022797382E+03 -0.86289588035E+03  0.14446981023E+04  0.60001623108E+03 0.  0.
        -24    2    4    4    0    0 -0.44829670119E+03  0.71969282473E+03 -0.44430738728E+03  0.95977092445E+03  0.69451268920E+02 0.  0.
         24    2    4    4    0    0 -0.23274330839E+03  0.53514908315E+00 -0.41858849307E+03  0.48492717786E+03  0.75949373310E+02 0.  0.
         11    1    3    3    0    0  0.19687680001E+03 -0.17036184281E+03  0.39864022401E+03  0.47612777704E+03  0.00000000000E+00 0. -1.
        -12    1    3    3    0    0  0.48416320957E+03 -0.54986613101E+03  0.96550999220E+03  0.12120133335E+04  0.00000000000E+00 0.  1.
         13    1    5    5    0    0 -0.20512398079E+03  0.37821446042E+03 -0.19889104257E+03  0.47400387380E+03  0.00000000000E+00 0. -1.
        -14    1    5    5    0    0 -0.24317272040E+03  0.34147836431E+03 -0.24541634472E+03  0.48576705065E+03  0.00000000000E+00 0.  1.
          2    1    6    6  502    0 -0.14508778219E+03 -0.22135454021E+02 -0.31390967343E+03  0.34652521688E+03  0.00000000000E+00 0. -1.
         -1    1    6    6    0  502 -0.87655526202E+02  0.22670603104E+02 -0.10467881965E+03  0.13840196097E+03  0.00000000000E+00 0.  1.
<mgrwt>
<rscale>  0 0.10398876E+04</rscale>
<asrwt>0</asrwt>
<pdfrwt beam="1">  1        1 0.20242961E+00 0.10398876E+04</pdfrwt>
<pdfrwt beam="2">  1       -2 0.27954566E+00 0.10398876E+04</pdfrwt>
<totfact> 0.32769122E-01</totfact>
</mgrwt>
</event>
<event>
12    3  0.2422421E-007  0.2190974E+04  0.7818608E-02  0.8522194E-01
          1   -1    0    0  501    0  0.00000000000E+00  0.00000000000E+00  0.34508954388E+04  0.34508954388E+04  0.00000000000E+00 0. -1.
         -2   -1    0    0    0  501 -0.00000000000E+00 -0.00000000000E+00 -0.13997871356E+04  0.13997871356E+04  0.00000000000E+00 0.  1.
        -24    2    1    2    0    0  0.10274118189E+03 -0.21505103715E+04  0.87784118396E+03  0.23264338004E+04  0.80240106380E+02 0.  0.
    5000000    2    1    2    0    0 -0.10274118189E+03  0.21505103715E+04  0.11732671192E+04  0.25242487740E+04  0.60002127590E+03 0.  0.
        -24    2    4    4    0    0 -0.32304794563E+03  0.16253685286E+04  0.90268839225E+03  0.18887976640E+04  0.80792656444E+02 0.  0.
         24    2    4    4    0    0  0.22030676375E+03  0.52514184298E+03  0.27057872699E+03  0.63545111000E+03  0.79222725883E+02 0.  0.
         11    1    3    3    0    0  0.21634215952E+02 -0.65429774958E+03  0.22865043263E+03  0.69343680660E+03  0.00000000000E+00 0. -1.
        -12    1    3    3    0    0  0.81106965935E+02 -0.14962126219E+04  0.64919075133E+03  0.16329969938E+04  0.00000000000E+00 0.  1.
         13    1    5    5    0    0 -0.27358788885E+03  0.12038598748E+04  0.68360224792E+03  0.14111842418E+04  0.00000000000E+00 0. -1.
        -14    1    5    5    0    0 -0.49460056781E+02  0.42150865377E+03  0.21908614433E+03  0.47761342219E+03  0.00000000000E+00 0.  1.
          2    1    6    6  502    0  0.19802279849E+03  0.45222332198E+03  0.26151369046E+03  0.55866660179E+03  0.00000000000E+00 0. -1.
         -1    1    6    6    0  502  0.22283965258E+02  0.72918521002E+02  0.90650365302E+01  0.76784508204E+02  0.00000000000E+00 0.  1.
<mgrwt>
<rscale>  0 0.21909740E+04</rscale>
<asrwt>0</asrwt>
<pdfrwt beam="1">  1        1 0.53090699E+00 0.21909740E+04</pdfrwt>
<pdfrwt beam="2">  1       -2 0.21535187E+00 0.21909740E+04</pdfrwt>
<totfact> 0.22157991E-02</totfact>
</mgrwt>
</event>
<event>
12    3  0.2422421E-007  0.7973736E+03  0.7818608E-02  0.9563827E-01
         -2   -1    0    0    0  501 -0.00000000000E+00  0.00000000000E+00  0.67193176429E+03  0.67193176429E+03  0.00000000000E+00 0.  1.
          1   -1    0    0  501    0  0.00000000000E+00 -0.00000000000E+00 -0.31823555653E+04  0.31823555653E+04  0.00000000000E+00 0. -1.
        -24    2    1    2    0    0 -0.46991195025E+03 -0.57558067937E+03  0.35972371956E+03  0.82938253331E+03  0.79773884801E+02 0.  0.
    5000000    2    1    2    0    0  0.46991195025E+03  0.57558067937E+03 -0.28701475206E+04  0.30249047963E+04  0.60015987640E+03 0.  0.
        -24    2    4    4    0    0  0.20431372168E+03  0.20691903501E+01 -0.14733235267E+04  0.14896506733E+04  0.81415820515E+02 0.  0.
         24    2    4    4    0    0  0.26559822857E+03  0.57351148902E+03 -0.13968239939E+04  0.15352541229E+04  0.80187936046E+02 0.  0.
         11    1    3    3    0    0 -0.63010686370E+02 -0.83385353137E+02  0.21385248122E+02  0.10668079748E+03  0.00000000000E+00 0. -1.
        -12    1    3    3    0    0 -0.40690126388E+03 -0.49219532623E+03  0.33833847144E+03  0.72270173583E+03  0.00000000000E+00 0.  1.
         13    1    5    5    0    0  0.38470552765E+02  0.33233192133E+02 -0.30622960115E+03  0.31042067765E+03  0.00000000000E+00 0. -1.
        -14    1    5    5    0    0  0.16584316891E+03 -0.31164001783E+02 -0.11670939256E+04  0.11792299957E+04  0.00000000000E+00 0.  1.
          2    1    6    6  502    0  0.13863425156E+03  0.30362325244E+03 -0.83340712246E+03  0.89776052870E+03  0.00000000000E+00 0. -1.
         -1    1    6    6    0  502  0.12696397700E+03  0.26988823658E+03 -0.56341687141E+03  0.63749359423E+03  0.00000000000E+00 0.  1.
<mgrwt>
<rscale>  0 0.79737357E+03</rscale>
<asrwt>0</asrwt>
<pdfrwt beam="1">  1        1 0.48959316E+00 0.79737357E+03</pdfrwt>
<pdfrwt beam="2">  1       -2 0.10337412E+00 0.79737357E+03</pdfrwt>
<totfact> 0.31342853E-01</totfact>
</mgrwt>
</event>
<event>
12    3  0.2422421E-007  0.8422088E+03  0.7818608E-02  0.9500854E-01
          1   -1    0    0  501    0  0.00000000000E+00  0.00000000000E+00  0.39423574716E+04  0.39423574716E+04  0.00000000000E+00 0. -1.
         -2   -1    0    0    0  501 -0.00000000000E+00 -0.00000000000E+00 -0.25017923802E+03  0.25017923802E+03  0.00000000000E+00 0.  1.
        -24    2    1    2    0    0  0.81140472647E+03 -0.14106798078E+03  0.24501945768E+04  0.25861330923E+04  0.79706345764E+02 0.  0.
    5000000    2    1    2    0    0 -0.81140472647E+03  0.14106798078E+03  0.12419836568E+04  0.16064036174E+04  0.59977610218E+03 0.  0.
        -24    2    4    4    0    0 -0.94036401747E+02  0.45314193446E+02  0.66362068622E+03  0.67664452080E+03  0.80988711360E+02 0.  0.
         24    2    4    4    0    0 -0.71736832472E+03  0.95753787336E+02  0.57836297059E+03  0.92975909656E+03  0.78499368063E+02 0.  0.
         11    1    5    5    0    0  0.21166727778E+01  0.35168586942E+02  0.16123942128E+03  0.16504381475E+03  0.00000000000E+00 0. -1.
        -12    1    5    5    0    0 -0.96153074525E+02  0.10145606504E+02  0.50238126493E+03  0.51160070605E+03  0.00000000000E+00 0.  1.
         13    1    3    3    0    0  0.19089747924E+03 -0.67538910197E+02  0.61554527327E+03  0.64799640077E+03  0.00000000000E+00 0. -1.
        -14    1    3    3    0    0  0.62050724723E+03 -0.73529070586E+02  0.18346493035E+04  0.19381366915E+04  0.00000000000E+00 0.  1.
          2    1    6    6  502    0 -0.64509670031E+03  0.99806535141E+02  0.49417300060E+03  0.81872953515E+03  0.00000000000E+00 0. -1.
         -1    1    6    6    0  502 -0.72271624413E+02 -0.40527478049E+01  0.84189969994E+02  0.11102956141E+03  0.00000000000E+00 0.  1.
<mgrwt>
<rscale>  0 0.84220877E+03</rscale>
<asrwt>0</asrwt>
<pdfrwt beam="1">  1        1 0.60651649E+00 0.84220877E+03</pdfrwt>
<pdfrwt beam="2">  1       -2 0.38489116E-01 0.84220877E+03</pdfrwt>
<totfact> 0.65253809E-01</totfact>
</mgrwt>
</event>
<event>
12    3  0.2422421E-007  0.6480544E+03  0.7818608E-02  0.9810437E-01
          1   -1    0    0  501    0  0.00000000000E+00  0.00000000000E+00  0.27934740285E+04  0.27934740285E+04  0.00000000000E+00 0. -1.
         -2   -1    0    0    0  501 -0.00000000000E+00 -0.00000000000E+00 -0.25342252607E+03  0.25342252607E+03  0.00000000000E+00 0.  1.
        -24    2    1    2    0    0 -0.32899413056E+03 -0.40028874051E+03  0.20481776841E+04  0.21139393186E+04  0.72383722539E+02 0.  0.
    5000000    2    1    2    0    0  0.32899413056E+03  0.40028874051E+03  0.49187381831E+03  0.93295723596E+03  0.60000094774E+03 0.  0.
        -24    2    4    4    0    0  0.99721263950E+02  0.50390351535E+03  0.38699850513E+03  0.64809123733E+03  0.79945767030E+02 0.  0.
         24    2    4    4    0    0  0.22927286661E+03 -0.10361477484E+03  0.10487531318E+03  0.28486599863E+03  0.82751053978E+02 0.  0.
         11    1    3    3    0    0 -0.24057371514E+03 -0.28263599843E+03  0.15880722730E+04  0.16308685920E+04  0.00000000000E+00 0. -1.
        -12    1    3    3    0    0 -0.88420415414E+02 -0.11765274208E+03  0.46010541112E+03  0.48307072662E+03  0.00000000000E+00 0.  1.
         13    1    5    5    0    0  0.44614701876E+02  0.21159394367E+03  0.11452215289E+03  0.24469939135E+03  0.00000000000E+00 0. -1.
        -14    1    5    5    0    0  0.55106562073E+02  0.29230957168E+03  0.27247635224E+03  0.40339184599E+03  0.00000000000E+00 0.  1.
          2    1    6    6  502    0  0.70239087829E+02  0.66459281412E+01  0.18444562896E+02  0.72923931054E+02  0.00000000000E+00 0. -1.
         -1    1    6    6    0  502  0.15903377878E+03 -0.11026070299E+03  0.86430750281E+02  0.21194206758E+03  0.00000000000E+00 0.  1.
<mgrwt>
<rscale>  0 0.64805443E+03</rscale>
<asrwt>0</asrwt>
<pdfrwt beam="1">  1        1 0.42976521E+00 0.64805443E+03</pdfrwt>
<pdfrwt beam="2">  1       -2 0.38988083E-01 0.64805443E+03</pdfrwt>
<totfact> 0.49746880E+00</totfact>
</mgrwt>
</event>
<event>
12    3  0.2422421E-007  0.6845641E+03  0.7818608E-02  0.9744000E-01
          1   -1    0    0  501    0  0.00000000000E+00  0.00000000000E+00  0.37101078827E+04  0.37101078827E+04  0.00000000000E+00 0. -1.
         -2   -1    0    0    0  501 -0.00000000000E+00 -0.00000000000E+00 -0.18661382533E+03  0.18661382533E+03  0.00000000000E+00 0.  1.
        -24    2    1    2    0    0 -0.63206384547E+03 -0.65757694055E+02  0.73710785983E+03  0.97648099320E+03  0.79739287614E+02 0.  0.
    5000000    2    1    2    0    0  0.63206384547E+03  0.65757694055E+02  0.27863861976E+04  0.29202407148E+04  0.60002417589E+03 0.  0.
        -24    2    4    4    0    0  0.57862377238E+03 -0.65615695430E+02  0.13200216885E+04  0.14448243202E+04  0.77130855256E+02 0.  0.
         24    2    4    4    0    0  0.53440073080E+02  0.13137338949E+03  0.14663645091E+04  0.14754163946E+04  0.80708457625E+02 0.  0.
         11    1    3    3    0    0 -0.30119947616E+02 -0.16904261188E+02  0.59556857404E+02  0.68847545740E+02  0.00000000000E+00 0. -1.
        -12    1    3    3    0    0 -0.60194389785E+03 -0.48853432867E+02  0.67755100242E+03  0.90763344746E+03  0.00000000000E+00 0.  1.
         13    1    5    5    0    0  0.53227496081E+03 -0.72784753241E+02  0.12498920490E+04  0.13604574188E+04  0.00000000000E+00 0. -1.
        -14    1    5    5    0    0  0.46348811575E+02  0.71690578112E+01  0.70129639456E+02  0.84366901415E+02  0.00000000000E+00 0.  1.
          2    1    6    6  502    0  0.34743572010E+02  0.38745646328E+02  0.87531014963E+03  0.87685585984E+03  0.00000000000E+00 0. -1.
         -1    1    6    6    0  502  0.18696501070E+02  0.92627743157E+02  0.59105435947E+03  0.59856053478E+03  0.00000000000E+00 0.  1.
<mgrwt>
<rscale>  0 0.68456412E+03</rscale>
<asrwt>0</asrwt>
<pdfrwt beam="1">  1        1 0.57078578E+00 0.68456412E+03</pdfrwt>
<pdfrwt beam="2">  1       -2 0.28709822E-01 0.68456412E+03</pdfrwt>
<totfact> 0.18283898E+00</totfact>
</mgrwt>
</event>
<event>
12    3  0.2422421E-007  0.7373898E+03  0.7818608E-02  0.9655344E-01
          1   -1    0    0  501    0  0.00000000000E+00  0.00000000000E+00  0.10491362688E+04  0.10491362688E+04  0.00000000000E+00 0. -1.
         -2   -1    0    0    0  501 -0.00000000000E+00 -0.00000000000E+00 -0.60104315810E+03  0.60104315810E+03  0.00000000000E+00 0.  1.
        -24    2    1    2    0    0 -0.36745854599E+03  0.56955819493E+03  0.21538780228E+03  0.71554320449E+03  0.78662899000E+02 0.  0.
    5000000    2    1    2    0    0  0.36745854599E+03 -0.56955819493E+03  0.23270530839E+03  0.93463622238E+03  0.59997565551E+03 0.  0.
        -24    2    4    4    0    0 -0.16864452055E+02 -0.34211217171E+03 -0.10723716808E+03  0.36750877660E+03  0.78979382669E+02 0.  0.
         24    2    4    4    0    0  0.38432299805E+03 -0.22744602322E+03  0.33994247647E+03  0.56712744578E+03  0.81466509330E+02 0.  0.
         11    1    5    5    0    0 -0.53281381972E+00 -0.15311980564E+03 -0.88580713003E+02  0.17689686681E+03  0.00000000000E+00 0. -1.
        -12    1    5    5    0    0 -0.16331638235E+02 -0.18899236607E+03 -0.18656455076E+02  0.19061190979E+03  0.00000000000E+00 0.  1.
         11    1    3    3    0    0 -0.11488794060E+03  0.15074968641E+03  0.94312147002E+02  0.21170613577E+03  0.00000000000E+00 0. -1.
        -12    1    3    3    0    0 -0.25257060540E+03  0.41880850852E+03  0.12107565528E+03  0.50383706872E+03  0.00000000000E+00 0.  1.
          4    1    6    6  502    0  0.78312987521E+02 -0.12286063150E+02  0.48638943238E+02  0.93003323390E+02  0.00000000000E+00 0. -1.
         -3    1    6    6    0  502  0.30601001053E+03 -0.21515996007E+03  0.29130353323E+03  0.47412412239E+03  0.00000000000E+00 0.  1.
<mgrwt>
<rscale>  0 0.73738982E+03</rscale>
<asrwt>0</asrwt>
<pdfrwt beam="1">  1        1 0.16140558E+00 0.73738982E+03</pdfrwt>
<pdfrwt beam="2">  1       -2 0.92468178E-01 0.73738982E+03</pdfrwt>
<totfact> 0.12377959E+01</totfact>
</mgrwt>
</event>
<event>
12    3  0.2422421E-007  0.1022196E+04  0.7818608E-02  0.9284531E-01
          1   -1    0    0  501    0  0.00000000000E+00  0.00000000000E+00  0.24111401741E+04  0.24111401741E+04  0.00000000000E+00 0. -1.
         -2   -1    0    0    0  501 -0.00000000000E+00 -0.00000000000E+00 -0.55982939493E+03  0.55982939493E+03  0.00000000000E+00 0.  1.
        -24    2    1    2    0    0  0.23047208344E+03 -0.92174942452E+03  0.20082642982E+03  0.97425274221E+03  0.78088206157E+02 0.  0.
    5000000    2    1    2    0    0 -0.23047208344E+03  0.92174942452E+03  0.16504843493E+04  0.19967168268E+04  0.60003342921E+03 0.  0.
        -24    2    4    4    0    0  0.48405321229E+02 -0.25080610176E+02  0.33548606628E+03  0.35067957613E+03  0.86331641461E+02 0.  0.
         24    2    4    4    0    0 -0.27887740467E+03  0.94683003470E+03  0.13149982830E+04  0.16460372507E+04  0.77190833064E+02 0.  0.
         11    1    3    3    0    0  0.89369753240E+02 -0.49041719814E+03  0.82714511229E+02  0.50530948080E+03  0.00000000000E+00 0. -1.
        -12    1    3    3    0    0  0.14110233020E+03 -0.43133222639E+03  0.11811191859E+03  0.46894326141E+03  0.00000000000E+00 0.  1.
         13    1    5    5    0    0  0.64920593955E+02  0.77018639698E+01  0.21822588876E+03  0.22780812267E+03  0.00000000000E+00 0. -1.
        -14    1    5    5    0    0 -0.16515272726E+02 -0.32782474145E+02  0.11726017752E+03  0.12287145346E+03  0.00000000000E+00 0.  1.
          4    1    6    6  502    0 -0.26595466154E+03  0.80987935018E+03  0.11390256828E+04  0.14226791451E+04  0.00000000000E+00 0. -1.
         -3    1    6    6    0  502 -0.12922743135E+02  0.13695068451E+03  0.17597260021E+03  0.22335810553E+03  0.00000000000E+00 0.  1.
<mgrwt>
<rscale>  0 0.10221956E+04</rscale>
<asrwt>0</asrwt>
<pdfrwt beam="1">  1        1 0.37094464E+00 0.10221956E+04</pdfrwt>
<pdfrwt beam="2">  1       -2 0.86127601E-01 0.10221956E+04</pdfrwt>
<totfact> 0.16177033E+00</totfact>
</mgrwt>
</event>
<event>
12    3  0.2422421E-007  0.6969103E+03  0.7818608E-02  0.9722531E-01
         -2   -1    0    0    0  501 -0.00000000000E+00  0.00000000000E+00  0.57325197992E+03  0.57325197992E+03  0.00000000000E+00 0.  1.
          1   -1    0    0  501    0  0.00000000000E+00 -0.00000000000E+00 -0.10364568639E+04  0.10364568639E+04  0.00000000000E+00 0. -1.
        -24    2    1    2    0    0  0.18047254722E+03  0.61656774500E+03 -0.30805379551E+03  0.71700044729E+03  0.80413779969E+02 0.  0.
    5000000    2    1    2    0    0 -0.18047254722E+03 -0.61656774500E+03 -0.15515108847E+03  0.89270839653E+03  0.60010857060E+03 0.  0.
        -24    2    4    4    0    0 -0.84352207868E+02  0.80372009148E+01  0.14748965219E+03  0.18746714653E+03  0.78808895144E+02 0.  0.
         24    2    4    4    0    0 -0.96120339348E+02 -0.62460494591E+03 -0.30264074066E+03  0.70524125000E+03  0.80020901650E+02 0.  0.
         11    1    3    3    0    0  0.97763850371E+02  0.30402734335E+03 -0.19663436676E+03  0.37504062465E+03  0.00000000000E+00 0. -1.
        -12    1    3    3    0    0  0.82708696845E+02  0.31254040165E+03 -0.11141942875E+03  0.34195982264E+03  0.00000000000E+00 0.  1.
         11    1    5    5    0    0 -0.45255960164E+01  0.31026546966E+02  0.28658069223E+02  0.42478377647E+02  0.00000000000E+00 0. -1.
        -12    1    5    5    0    0 -0.79826611852E+02 -0.22989346051E+02  0.11883158296E+03  0.14498876888E+03  0.00000000000E+00 0.  1.
          2    1    6    6  502    0  0.13776626937E+02 -0.65510354367E+02 -0.38190642113E+02  0.77070922688E+02  0.00000000000E+00 0. -1.
         -1    1    6    6    0  502 -0.10989696629E+03 -0.55909459155E+03 -0.26445009854E+03  0.62817032731E+03  0.00000000000E+00 0.  1.
<mgrwt>
<rscale>  0 0.69691028E+03</rscale>
<asrwt>0</asrwt>
<pdfrwt beam="1">  1        1 0.15945490E+00 0.69691028E+03</pdfrwt>
<pdfrwt beam="2">  1       -2 0.88192613E-01 0.69691028E+03</pdfrwt>
<totfact> 0.14186023E+01</totfact>
</mgrwt>
</event>
<event>
12    3  0.2422421E-007  0.6183163E+03  0.7818608E-02  0.9868118E-01
         -2   -1    0    0    0  501 -0.00000000000E+00  0.00000000000E+00  0.51178931281E+03  0.51178931281E+03  0.00000000000E+00 0.  1.
          1   -1    0    0  501    0  0.00000000000E+00 -0.00000000000E+00 -0.10709116605E+04  0.10709116605E+04  0.00000000000E+00 0. -1.
        -24    2    1    2    0    0  0.14818140359E+03  0.56951499558E+03 -0.42799761880E+03  0.73201455642E+03  0.79738889860E+02 0.  0.
    5000000    2    1    2    0    0 -0.14818140359E+03 -0.56951499558E+03 -0.13112472887E+03  0.85068641687E+03  0.60014050586E+03 0.  0.
        -24    2    4    4    0    0 -0.18237993161E+03 -0.21849939627E+03 -0.32583199315E+03  0.43984460209E+03  0.79324401060E+02 0.  0.
         24    2    4    4    0    0  0.34198528023E+02 -0.35101559931E+03  0.19470726428E+03  0.41084181478E+03  0.80613818505E+02 0.  0.
         11    1    3    3    0    0  0.73883643247E+02  0.14871491041E+03 -0.13326611643E+03  0.21291964472E+03  0.00000000000E+00 0. -1.
        -12    1    3    3    0    0  0.74297760344E+02  0.42080008517E+03 -0.29473150237E+03  0.51909491170E+03  0.00000000000E+00 0.  1.
         13    1    5    5    0    0 -0.63103590747E+02 -0.58110179504E+02 -0.15389890071E+03  0.17619230337E+03  0.00000000000E+00 0. -1.
        -14    1    5    5    0    0 -0.11927634087E+03 -0.16038921677E+03 -0.17193309244E+03  0.26365229872E+03  0.00000000000E+00 0.  1.
          4    1    6    6  502    0 -0.15191869545E+01 -0.25742599852E+03  0.16718945454E+03  0.30695727122E+03  0.00000000000E+00 0. -1.
         -3    1    6    6    0  502  0.35717714978E+02 -0.93589600788E+02  0.27517809734E+02  0.10388454356E+03  0.00000000000E+00 0.  1.
<mgrwt>
<rscale>  0 0.61831631E+03</rscale>
<asrwt>0</asrwt>
<pdfrwt beam="1">  1        1 0.16475564E+00 0.61831631E+03</pdfrwt>
<pdfrwt beam="2">  1       -2 0.78736819E-01 0.61831631E+03</pdfrwt>
<totfact> 0.17446169E+01</totfact>
</mgrwt>
</event>
<event>
12    3  0.2422421E-007  0.4184330E+03  0.7818608E-02  0.1037578E+00
         -2   -1    0    0    0  501 -0.00000000000E+00  0.00000000000E+00  0.17482454991E+03  0.17482454991E+03  0.00000000000E+00 0.  1.
          1   -1    0    0  501    0  0.00000000000E+00 -0.00000000000E+00 -0.16662373684E+04  0.16662373684E+04  0.00000000000E+00 0. -1.
        -24    2    1    2    0    0 -0.35200752542E+03 -0.70400268703E+01 -0.69810875611E+03  0.78592243233E+03  0.79745685437E+02 0.  0.
    5000000    2    1    2    0    0  0.35200752542E+03  0.70400268703E+01 -0.79330406236E+03  0.10551394860E+04  0.60002428248E+03 0.  0.
        -24    2    4    4    0    0  0.87587090170E+02  0.14221367553E+03  0.19707705576E+02  0.18597223675E+03  0.79379161699E+02 0.  0.
         24    2    4    4    0    0  0.26442043525E+03 -0.13517364866E+03 -0.81301176794E+03  0.86916724922E+03  0.79205368772E+02 0.  0.
         11    1    5    5    0    0  0.15651838920E+02  0.83413543437E+02 -0.16134039841E+02  0.86389273245E+02  0.00000000000E+00 0. -1.
        -12    1    5    5    0    0  0.71935251250E+02  0.58800132091E+02  0.35841745417E+02  0.99582963507E+02  0.00000000000E+00 0.  1.
         13    1    3    3    0    0 -0.19285223215E+03 -0.20293496626E+02 -0.30279917578E+03  0.35957078622E+03  0.00000000000E+00 0. -1.
        -14    1    3    3    0    0 -0.15915529327E+03  0.13253469755E+02 -0.39530958033E+03  0.42635164611E+03  0.00000000000E+00 0.  1.
          4    1    6    6  502    0  0.43064810289E+02 -0.55407363098E+02 -0.22999589215E+03  0.24046343626E+03  0.00000000000E+00 0. -1.
         -3    1    6    6    0  502  0.22135562496E+03 -0.79766285560E+02 -0.58301587579E+03  0.62870381296E+03  0.00000000000E+00 0.  1.
<mgrwt>
<rscale>  0 0.41843304E+03</rscale>
<asrwt>0</asrwt>
<pdfrwt beam="1">  1        1 0.25634422E+00 0.41843304E+03</pdfrwt>
<pdfrwt beam="2">  1       -2 0.26896083E-01 0.41843304E+03</pdfrwt>
<totfact> 0.59514457E+01</totfact>
</mgrwt>
</event>
<event>
12    3  0.2422421E-007  0.1279840E+04  0.7818608E-02  0.9045707E-01
          1   -1    0    0  501    0  0.00000000000E+00  0.00000000000E+00  0.31713995549E+04  0.31713995549E+04  0.00000000000E+00 0. -1.
         -2   -1    0    0    0  501 -0.00000000000E+00 -0.00000000000E+00 -0.61080920358E+03  0.61080920358E+03  0.00000000000E+00 0.  1.
        -24    2    1    2    0    0 -0.98342602348E+03 -0.71213109322E+03  0.49817179671E+03  0.13148649056E+04  0.80231810388E+02 0.  0.
    5000000    2    1    2    0    0  0.98342602348E+03  0.71213109322E+03  0.20624185546E+04  0.24673438529E+04  0.59996496254E+03 0.  0.
        -24    2    4    4    0    0  0.10700638212E+02 -0.62587544455E+02  0.96605827745E+02  0.13994903575E+03  0.78875485884E+02 0.  0.
         24    2    4    4    0    0  0.97272538527E+03  0.77471863767E+03  0.19658127269E+04  0.23273948171E+04  0.77222502718E+02 0.  0.
         11    1    5    5    0    0  0.26723093530E+02 -0.75263743927E+02  0.68605989649E+02  0.10528787534E+03  0.00000000000E+00 0. -1.
        -12    1    5    5    0    0 -0.16022455318E+02  0.12676199473E+02  0.27999838096E+02  0.34661160409E+02  0.00000000000E+00 0.  1.
         13    1    3    3    0    0 -0.33658539156E+03 -0.28074384001E+03  0.15357094018E+03  0.46442530420E+03  0.00000000000E+00 0. -1.
        -14    1    3    3    0    0 -0.64684063192E+03 -0.43138725321E+03  0.34460085653E+03  0.85043960142E+03  0.00000000000E+00 0.  1.
          2    1    6    6  502    0  0.21524254268E+03  0.17747425751E+03  0.50259697030E+03  0.57483056531E+03  0.00000000000E+00 0. -1.
         -1    1    6    6    0  502  0.75748284259E+03  0.59724438016E+03  0.14632157566E+04  0.17525642518E+04  0.00000000000E+00 0.  1.
<mgrwt>
<rscale>  0 0.12798403E+04</rscale>
<asrwt>0</asrwt>
<pdfrwt beam="1">  1        1 0.48790762E+00 0.12798403E+04</pdfrwt>
<pdfrwt beam="2">  1       -2 0.93970648E-01 0.12798403E+04</pdfrwt>
<totfact> 0.36915735E-01</totfact>
</mgrwt>
</event>
<event>
12    3  0.2422421E-007  0.3955241E+03  0.7818608E-02  0.1045341E+00
         -2   -1    0    0    0  501 -0.00000000000E+00  0.00000000000E+00  0.61946440225E+03  0.61946440225E+03  0.00000000000E+00 0.  1.
          1   -1    0    0  501    0  0.00000000000E+00 -0.00000000000E+00 -0.46093123934E+03  0.46093123934E+03  0.00000000000E+00 0. -1.
        -24    2    1    2    0    0  0.32405714241E+03  0.41738611897E+02  0.20798353329E+03  0.39542988761E+03  0.79702588596E+02 0.  0.
    5000000    2    1    2    0    0 -0.32405714241E+03 -0.41738611897E+02 -0.49450370379E+02  0.68496575398E+03  0.59998133449E+03 0.  0.
        -24    2    4    4    0    0  0.12119542590E+02  0.63251986382E+02 -0.25133985087E+03  0.27117540910E+03  0.78845955954E+02 0.  0.
         24    2    4    4    0    0 -0.33617668500E+03 -0.10499059828E+03  0.20188948049E+03  0.41379034489E+03  0.80157956117E+02 0.  0.
         13    1    3    3    0    0  0.17629754187E+03 -0.16738040767E+02  0.10107369750E+03  0.20390408923E+03  0.00000000000E+00 0. -1.
        -14    1    3    3    0    0  0.14775960054E+03  0.58476652664E+02  0.10690983578E+03  0.19152579838E+03  0.00000000000E+00 0.  1.
         13    1    5    5    0    0 -0.22336548307E+01  0.79411400580E+02 -0.18301533814E+03  0.19951384351E+03  0.00000000000E+00 0. -1.
        -14    1    5    5    0    0  0.14353197420E+02 -0.16159414198E+02 -0.68324512726E+02  0.71661565588E+02  0.00000000000E+00 0.  1.
          4    1    6    6  502    0 -0.21958572243E+03 -0.86185926643E+02  0.94338274516E+02  0.25405828758E+03  0.00000000000E+00 0. -1.
         -3    1    6    6    0  502 -0.11659096256E+03 -0.18804671636E+02  0.10755120597E+03  0.15973205731E+03  0.00000000000E+00 0.  1.
<mgrwt>
<rscale>  0 0.39552411E+03</rscale>
<asrwt>0</asrwt>
<pdfrwt beam="1">  1        1 0.70912499E-01 0.39552411E+03</pdfrwt>
<pdfrwt beam="2">  1       -2 0.95302216E-01 0.39552411E+03</pdfrwt>
<totfact> 0.42155000E+01</totfact>
</mgrwt>
</event>
<event>
12    3  0.2422421E-007  0.6150208E+03  0.7818608E-02  0.9874723E-01
         -2   -1    0    0    0  501 -0.00000000000E+00  0.00000000000E+00  0.13599280300E+04  0.13599280300E+04  0.00000000000E+00 0.  1.
          1   -1    0    0  501    0  0.00000000000E+00 -0.00000000000E+00 -0.40480552557E+03  0.40480552557E+03  0.00000000000E+00 0. -1.
        -24    2    1    2    0    0  0.31310252139E+02  0.51213049645E+03  0.81023476575E+03  0.96219936020E+03  0.78033684161E+02 0.  0.
    5000000    2    1    2    0    0 -0.31310252139E+02 -0.51213049645E+03  0.14488773864E+03  0.80253419534E+03  0.59984222976E+03 0.  0.
        -24    2    4    4    0    0  0.17014591167E+03 -0.46317727538E+03 -0.56480159656E+02  0.50331896442E+03  0.81591371031E+02 0.  0.
         24    2    4    4    0    0 -0.20145616381E+03 -0.48953221067E+02  0.20136789830E+03  0.29921523092E+03  0.77457860539E+02 0.  0.
         11    1    3    3    0    0 -0.20548820805E+02  0.27973823631E+03  0.41967394785E+03  0.50477911743E+03  0.00000000000E+00 0. -1.
        -12    1    3    3    0    0  0.51859072945E+02  0.23239226014E+03  0.39056081791E+03  0.45742024278E+03  0.00000000000E+00 0.  1.
         11    1    5    5    0    0  0.55730523088E+02 -0.22794202295E+03 -0.58049697975E+02  0.24172965160E+03  0.00000000000E+00 0. -1.
        -12    1    5    5    0    0  0.11441538858E+03 -0.23523525243E+03  0.15695383188E+01  0.26158931282E+03  0.00000000000E+00 0.  1.
          2    1    6    6  502    0 -0.15677634293E+03 -0.12027299087E+02  0.11338413137E+03  0.19385416909E+03  0.00000000000E+00 0. -1.
         -1    1    6    6    0  502 -0.44679820881E+02 -0.36925921980E+02  0.87983766925E+02  0.10536106183E+03  0.00000000000E+00 0.  1.
<mgrwt>
<rscale>  0 0.61502085E+03</rscale>
<asrwt>0</asrwt>
<pdfrwt beam="1">  1        1 0.62277774E-01 0.61502085E+03</pdfrwt>
<pdfrwt beam="2">  1       -2 0.20921969E+00 0.61502085E+03</pdfrwt>
<totfact> 0.62393578E+00</totfact>
</mgrwt>
</event>
<event>
12    3  0.2422421E-007  0.9753986E+03  0.7818608E-02  0.9335947E-01
         -2   -1    0    0    0  501 -0.00000000000E+00  0.00000000000E+00  0.69140814327E+03  0.69140814327E+03  0.00000000000E+00 0.  1.
          1   -1    0    0  501    0  0.00000000000E+00 -0.00000000000E+00 -0.17535781719E+04  0.17535781719E+04  0.00000000000E+00 0. -1.
        -24    2    1    2    0    0 -0.72494346992E+03 -0.51804200554E+03  0.53750802353E+02  0.89604381109E+03  0.78069254876E+02 0.  0.
    5000000    2    1    2    0    0  0.72494346992E+03  0.51804200554E+03 -0.11159208309E+04  0.15489425040E+04  0.60002752084E+03 0.  0.
        -24    2    4    4    0    0  0.68676779279E+03  0.17979221127E+03 -0.64534965047E+03  0.96273339805E+03  0.80026145152E+02 0.  0.
         24    2    4    4    0    0  0.38175677137E+02  0.33824979427E+03 -0.47057118047E+03  0.58620910598E+03  0.79583757132E+02 0.  0.
         11    1    3    3    0    0 -0.56187618288E+03 -0.43840222194E+03  0.33772918533E+02  0.71347176756E+03  0.00000000000E+00 0. -1.
        -12    1    3    3    0    0 -0.16306728705E+03 -0.79639783605E+02  0.19977883819E+02  0.18257204353E+03  0.00000000000E+00 0.  1.
         13    1    5    5    0    0  0.61354290168E+03  0.13866784337E+03 -0.54883779406E+03  0.83479733299E+03  0.00000000000E+00 0. -1.
        -14    1    5    5    0    0  0.73224891112E+02  0.41124367905E+02 -0.96511856417E+02  0.12793606506E+03  0.00000000000E+00 0.  1.
          4    1    6    6  502    0  0.34039265855E+02  0.10536075992E+03 -0.10407245674E+03  0.15195603839E+03  0.00000000000E+00 0. -1.
         -3    1    6    6    0  502  0.41364112820E+01  0.23288903434E+03 -0.36649872373E+03  0.43425306759E+03  0.00000000000E+00 0.  1.
<mgrwt>
<rscale>  0 0.97539855E+03</rscale>
<asrwt>0</asrwt>
<pdfrwt beam="1">  1        1 0.26978125E+00 0.97539855E+03</pdfrwt>
<pdfrwt beam="2">  1       -2 0.10637049E+00 0.97539855E+03</pdfrwt>
<totfact> 0.27552981E+00</totfact>
</mgrwt>
</event>
<event>
12    3  0.2422421E-007  0.4553991E+03  0.7818608E-02  0.1026124E+00
          1   -1    0    0  501    0  0.00000000000E+00  0.00000000000E+00  0.52533658119E+03  0.52533658119E+03  0.00000000000E+00 0. -1.
         -2   -1    0    0    0  501 -0.00000000000E+00 -0.00000000000E+00 -0.55262003254E+03  0.55262003254E+03  0.00000000000E+00 0.  1.
        -24    2    1    2    0    0  0.74921763153E+02 -0.35669781379E+03  0.19592943098E+02  0.37423460225E+03  0.82589667332E+02 0.  0.
    5000000    2    1    2    0    0 -0.74921763153E+02  0.35669781379E+03 -0.46876394455E+02  0.70372201148E+03  0.60015054122E+03 0.  0.
        -24    2    4    4    0    0  0.27939733184E+02 -0.63992817650E+02 -0.20928286391E+03  0.23436358519E+03  0.79064932410E+02 0.  0.
         24    2    4    4    0    0 -0.10286149634E+03  0.42069063144E+03  0.16240646945E+03  0.46935842629E+03  0.79751966755E+02 0.  0.
         13    1    5    5    0    0 -0.15410829375E+02 -0.58657447513E+02 -0.13838681520E+03  0.15109301914E+03  0.00000000000E+00 0. -1.
        -14    1    5    5    0    0  0.43350562558E+02 -0.53353701373E+01 -0.70896048709E+02  0.83270566055E+02  0.00000000000E+00 0.  1.
         13    1    3    3    0    0  0.61071573554E+02 -0.11253880534E+03 -0.70513877117E+01  0.12823588372E+03  0.00000000000E+00 0. -1.
        -14    1    3    3    0    0  0.13850189599E+02 -0.24415900845E+03  0.26644330810E+02  0.24599871854E+03  0.00000000000E+00 0.  1.
          2    1    6    6  502    0 -0.62945864293E+02  0.20215812838E+03  0.11942929436E+03  0.24309143764E+03  0.00000000000E+00 0. -1.
         -1    1    6    6    0  502 -0.39915632044E+02  0.21853250306E+03  0.42977175090E+02  0.22626698865E+03  0.00000000000E+00 0.  1.
<mgrwt>
<rscale>  0 0.45539913E+03</rscale>
<asrwt>0</asrwt>
<pdfrwt beam="1">  1        1 0.80821012E-01 0.45539913E+03</pdfrwt>
<pdfrwt beam="2">  1       -2 0.85018467E-01 0.45539913E+03</pdfrwt>
<totfact> 0.45552761E+01</totfact>
</mgrwt>
</event>
<event>
12    3  0.2422421E-007  0.7715644E+03  0.7818608E-02  0.9602114E-01
         -2   -1    0    0    0  501 -0.00000000000E+00  0.00000000000E+00  0.70844751462E+03  0.70844751462E+03  0.00000000000E+00 0.  1.
          1   -1    0    0  501    0  0.00000000000E+00 -0.00000000000E+00 -0.97204155476E+03  0.97204155476E+03  0.00000000000E+00 0. -1.
        -24    2    1    2    0    0  0.30833654569E+03  0.64617966585E+03 -0.51150388608E+02  0.72240563436E+03  0.81449078163E+02 0.  0.
    5000000    2    1    2    0    0 -0.30833654569E+03 -0.64617966585E+03 -0.21244365153E+03  0.95808343503E+03  0.60014329742E+03 0.  0.
        -24    2    4    4    0    0 -0.25628085129E+03 -0.11647346645E+03  0.13278966343E+03  0.31922770245E+03  0.70903372072E+02 0.  0.
         24    2    4    4    0    0 -0.52055694398E+02 -0.52970619939E+03 -0.34523331496E+03  0.63885573258E+03  0.75180797422E+02 0.  0.
         11    1    3    3    0    0  0.25967265893E+03  0.54317953614E+03 -0.12760087649E+02  0.60219325645E+03  0.00000000000E+00 0. -1.
        -12    1    3    3    0    0  0.48663886759E+02  0.10300012970E+03 -0.38390300959E+02  0.12021237790E+03  0.00000000000E+00 0.  1.
         13    1    5    5    0    0 -0.15072245052E+03 -0.10444595934E+03  0.94540681109E+02  0.20631082351E+03  0.00000000000E+00 0. -1.
        -14    1    5    5    0    0 -0.10555840078E+03 -0.12027507117E+02  0.38248982318E+02  0.11291687894E+03  0.00000000000E+00 0.  1.
          2    1    6    6  502    0 -0.51768549940E+02 -0.16719780055E+03 -0.11355761904E+03  0.20863945004E+03  0.00000000000E+00 0. -1.
         -1    1    6    6    0  502 -0.28714445811E+00 -0.36250839884E+03 -0.23167569592E+03  0.43021628254E+03  0.00000000000E+00 0.  1.
<mgrwt>
<rscale>  0 0.77156442E+03</rscale>
<asrwt>0</asrwt>
<pdfrwt beam="1">  1        1 0.14954486E+00 0.77156442E+03</pdfrwt>
<pdfrwt beam="2">  1       -2 0.10899192E+00 0.77156442E+03</pdfrwt>
<totfact> 0.95740118E+00</totfact>
</mgrwt>
</event>
<event>
12    3  0.2422421E-007  0.1897333E+04  0.7818608E-02  0.8656185E-01
          1   -1    0    0  501    0  0.00000000000E+00  0.00000000000E+00  0.11095523677E+04  0.11095523677E+04  0.00000000000E+00 0. -1.
         -2   -1    0    0    0  501 -0.00000000000E+00 -0.00000000000E+00 -0.38187562844E+04  0.38187562844E+04  0.00000000000E+00 0.  1.
        -24    2    1    2    0    0  0.15566207232E+04 -0.10710370996E+04 -0.21603402006E+04  0.28712007148E+04  0.80840691826E+02 0.  0.
    5000000    2    1    2    0    0 -0.15566207232E+04  0.10710370996E+04 -0.54886371612E+03  0.20571079374E+04  0.60021091489E+03 0.  0.
        -24    2    4    4    0    0 -0.80648937791E+03  0.42993920013E+03 -0.54532073741E+03  0.10671322515E+04  0.78254092496E+02 0.  0.
         24    2    4    4    0    0 -0.75013134530E+03  0.64109789949E+03 -0.35429787123E+01  0.98997568589E+03  0.79597449748E+02 0.  0.
         11    1    5    5    0    0 -0.37605547563E+03  0.15641820113E+03 -0.24170039285E+03  0.47360685626E+03  0.00000000000E+00 0. -1.
        -12    1    5    5    0    0 -0.43043390228E+03  0.27352099900E+03 -0.30362034456E+03  0.59352539521E+03  0.00000000000E+00 0.  1.
         13    1    3    3    0    0  0.10292211511E+04 -0.67286429302E+03 -0.13665062354E+04  0.18383095023E+04  0.00000000000E+00 0. -1.
        -14    1    3    3    0    0  0.52739957210E+03 -0.39817280660E+03 -0.79383396518E+03  0.10328912125E+04  0.00000000000E+00 0.  1.
          4    1    6    6  502    0 -0.20517549821E+03  0.16540170812E+03  0.33471116297E+02  0.26565960502E+03  0.00000000000E+00 0. -1.
         -1    1    6    6    0  502 -0.54495584710E+03  0.47569619137E+03 -0.37014095009E+02  0.72431608086E+03  0.00000000000E+00 0.  1.
<mgrwt>
<rscale>  0 0.18973334E+04</rscale>
<asrwt>0</asrwt>
<pdfrwt beam="1">  1        1 0.17070037E+00 0.18973334E+04</pdfrwt>
<pdfrwt beam="2">  1       -2 0.58750095E+00 0.18973334E+04</pdfrwt>
<totfact> 0.55023954E-03</totfact>
</mgrwt>
</event>
<event>
12    3  0.2422421E-007  0.8923727E+03  0.7818608E-02  0.9435166E-01
          1   -1    0    0  501    0  0.00000000000E+00  0.00000000000E+00  0.10354132645E+04  0.10354132645E+04  0.00000000000E+00 0. -1.
         -2   -1    0    0    0  501 -0.00000000000E+00 -0.00000000000E+00 -0.83103842405E+03  0.83103842405E+03  0.00000000000E+00 0.  1.
        -24    2    1    2    0    0 -0.69560334246E+03 -0.44031345373E+03  0.18398544355E+03  0.84742013071E+03  0.80810190607E+02 0.  0.
    5000000    2    1    2    0    0  0.69560334246E+03  0.44031345373E+03  0.20389396862E+02  0.10190315578E+04  0.60022465855E+03 0.  0.
        -24    2    4    4    0    0  0.18787513525E+03 -0.99109486275E+02  0.13679436241E+03  0.26481505191E+03  0.79338246850E+02 0.  0.
         24    2    4    4    0    0  0.50772820721E+03  0.53942294001E+03 -0.11640496555E+03  0.75421650590E+03  0.80792209843E+02 0.  0.
         11    1    5    5    0    0  0.73714259368E+02 -0.86649883761E+01  0.78224832541E+02  0.10783319750E+03  0.00000000000E+00 0. -1.
        -12    1    5    5    0    0  0.11416087589E+03 -0.90444497899E+02  0.58569529872E+02  0.15698185441E+03  0.00000000000E+00 0.  1.
         13    1    3    3    0    0 -0.55040740639E+03 -0.36494877604E+03  0.11721046318E+03  0.67072663196E+03  0.00000000000E+00 0. -1.
        -14    1    3    3    0    0 -0.14519593607E+03 -0.75364677689E+02  0.66774980371E+02  0.17669349874E+03  0.00000000000E+00 0.  1.
          4    1    6    6  502    0  0.25436196329E+03  0.27886442394E+03 -0.18851829897E+02  0.37791634894E+03  0.00000000000E+00 0. -1.
         -3    1    6    6    0  502  0.25336624391E+03  0.26055851607E+03 -0.97553135654E+02  0.37630015696E+03  0.00000000000E+00 0.  1.
<mgrwt>
<rscale>  0 0.89237267E+03</rscale>
<asrwt>0</asrwt>
<pdfrwt beam="1">  1        1 0.15929435E+00 0.89237267E+03</pdfrwt>
<pdfrwt beam="2">  1       -2 0.12785207E+00 0.89237267E+03</pdfrwt>
<totfact> 0.56854259E+00</totfact>
</mgrwt>
</event>
<event>
12    3  0.2422421E-007  0.8060041E+03  0.7818608E-02  0.9551367E-01
          1   -1    0    0  501    0  0.00000000000E+00  0.00000000000E+00  0.11719101924E+04  0.11719101924E+04  0.00000000000E+00 0. -1.
         -2   -1    0    0    0  501 -0.00000000000E+00 -0.00000000000E+00 -0.60350907760E+03  0.60350907760E+03  0.00000000000E+00 0.  1.
        -24    2    1    2    0    0 -0.51979160477E+03 -0.48554464183E+03  0.42918605307E+03  0.83452098586E+03  0.79294994024E+02 0.  0.
    5000000    2    1    2    0    0  0.51979160477E+03  0.48554464183E+03  0.13921506172E+03  0.94089828414E+03  0.59997652961E+03 0.  0.
        -24    2    4    4    0    0  0.23106486985E+03  0.54531057517E+03  0.19850307265E+03  0.62976472630E+03  0.80284140230E+02 0.  0.
         24    2    4    4    0    0  0.28872673492E+03 -0.59765933331E+02 -0.59288010925E+02  0.31113355784E+03  0.79711531980E+02 0.  0.
         13    1    3    3    0    0 -0.24246233345E+02 -0.51394254367E+02  0.36665353829E+02  0.67628377067E+02  0.00000000000E+00 0. -1.
        -14    1    3    3    0    0 -0.49554537143E+03 -0.43415038747E+03  0.39252069924E+03  0.76689260879E+03  0.00000000000E+00 0.  1.
         13    1    5    5    0    0  0.16660465911E+03  0.46197103057E+03  0.14789651530E+03  0.51288178440E+03  0.00000000000E+00 0. -1.
        -14    1    5    5    0    0  0.64460210734E+02  0.83339544590E+02  0.50606557349E+02  0.11688294190E+03  0.00000000000E+00 0.  1.
          2    1    6    6  502    0  0.24211177968E+03 -0.70298838731E+02 -0.71022021405E+02  0.26192397392E+03  0.00000000000E+00 0. -1.
         -1    1    6    6    0  502  0.46614955240E+02  0.10532905400E+02  0.11734010480E+02  0.49209583926E+02  0.00000000000E+00 0.  1.
<mgrwt>
<rscale>  0 0.80600413E+03</rscale>
<asrwt>0</asrwt>
<pdfrwt beam="1">  1        1 0.18029388E+00 0.80600413E+03</pdfrwt>
<pdfrwt beam="2">  1       -2 0.92847550E-01 0.80600413E+03</pdfrwt>
<totfact> 0.98540397E+00</totfact>
</mgrwt>
</event>
<event>
12    3  0.2422421E-007  0.1733708E+04  0.7818608E-02  0.8742370E-01
          1   -1    0    0  501    0  0.00000000000E+00  0.00000000000E+00  0.31486930060E+04  0.31486930060E+04  0.00000000000E+00 0. -1.
         -2   -1    0    0    0  501 -0.00000000000E+00 -0.00000000000E+00 -0.10855921835E+04  0.10855921835E+04  0.00000000000E+00 0.  1.
        -24    2    1    2    0    0  0.12891495419E+04  0.11412937872E+04  0.16028445946E+04  0.23537395244E+04  0.80752117552E+02 0.  0.
    5000000    2    1    2    0    0 -0.12891495419E+04 -0.11412937872E+04  0.46025622796E+03  0.18805456651E+04  0.60013177980E+03 0.  0.
        -24    2    4    4    0    0 -0.97000152933E+03 -0.97763454658E+03  0.57600761289E+03  0.14949303395E+04  0.79747578204E+02 0.  0.
         24    2    4    4    0    0 -0.31914801258E+03 -0.16365924059E+03 -0.11575138493E+03  0.38561532562E+03  0.81614920667E+02 0.  0.
         11    1    3    3    0    0  0.52032527036E+03  0.48949300391E+03  0.71066625275E+03  0.10076647809E+04  0.00000000000E+00 0. -1.
        -12    1    3    3    0    0  0.76882427155E+03  0.65180078326E+03  0.89217834183E+03  0.13460747436E+04  0.00000000000E+00 0.  1.
         13    1    5    5    0    0 -0.42274894524E+03 -0.40912529524E+03  0.20540005656E+03  0.62312868746E+03  0.00000000000E+00 0. -1.
        -14    1    5    5    0    0 -0.54725258409E+03 -0.56850925135E+03  0.37060755633E+03  0.87180165202E+03  0.00000000000E+00 0.  1.
          2    1    6    6  502    0 -0.27238180571E+03 -0.10325359183E+03 -0.96049670826E+02  0.30672249929E+03  0.00000000000E+00 0. -1.
         -1    1    6    6    0  502 -0.46766206872E+02 -0.60405648758E+02 -0.19701714104E+02  0.78892826326E+02  0.00000000000E+00 0.  1.
<mgrwt>
<rscale>  0 0.17337078E+04</rscale>
<asrwt>0</asrwt>
<pdfrwt beam="1">  1        1 0.48441431E+00 0.17337078E+04</pdfrwt>
<pdfrwt beam="2">  1       -2 0.16701418E+00 0.17337078E+04</pdfrwt>
<totfact> 0.84135631E-02</totfact>
</mgrwt>
</event>
<event>
12    3  0.2422421E-007  0.7414496E+03  0.7818608E-02  0.9648861E-01
         -2   -1    0    0    0  501 -0.00000000000E+00  0.00000000000E+00  0.12849299335E+04  0.12849299335E+04  0.00000000000E+00 0.  1.
          1   -1    0    0  501    0  0.00000000000E+00 -0.00000000000E+00 -0.47748739375E+03  0.47748739375E+03  0.00000000000E+00 0. -1.
        -24    2    1    2    0    0  0.58862948834E+03  0.22836325632E+03  0.10845079137E+03  0.64571889663E+03  0.80974489408E+02 0.  0.
    5000000    2    1    2    0    0 -0.58862948834E+03 -0.22836325632E+03  0.69899174839E+03  0.11166984306E+04  0.59982619922E+03 0.  0.
        -24    2    4    4    0    0  0.64265879633E+02 -0.17621689348E+03  0.10633638078E+03  0.22983080177E+03  0.79575591336E+02 0.  0.
         24    2    4    4    0    0 -0.65289536797E+03 -0.52146362849E+02  0.59265536761E+03  0.88686762886E+03  0.79386407357E+02 0.  0.
         13    1    5    5    0    0  0.34861011993E+02 -0.53091176727E+02 -0.15102191127E+01  0.63531440761E+02  0.00000000000E+00 0. -1.
        -14    1    5    5    0    0  0.29404867639E+02 -0.12312571675E+03  0.10784659989E+03  0.16629936101E+03  0.00000000000E+00 0.  1.
         13    1    3    3    0    0  0.55672712475E+03  0.19462520105E+03  0.10604112336E+03  0.59922348098E+03  0.00000000000E+00 0. -1.
        -14    1    3    3    0    0  0.31902363588E+02  0.33738055276E+02  0.24096680030E+01  0.46495415647E+02  0.00000000000E+00 0.  1.
          2    1    6    6  502    0 -0.53400491411E+03 -0.24671170594E+02  0.44685057986E+03  0.69673908724E+03  0.00000000000E+00 0. -1.
         -1    1    6    6    0  502 -0.11889045386E+03 -0.27475192255E+02  0.14580478775E+03  0.19012854162E+03  0.00000000000E+00 0.  1.
<mgrwt>
<rscale>  0 0.74144959E+03</rscale>
<asrwt>0</asrwt>
<pdfrwt beam="1">  1        1 0.73459599E-01 0.74144959E+03</pdfrwt>
<pdfrwt beam="2">  1       -2 0.19768153E+00 0.74144959E+03</pdfrwt>
<totfact> 0.58376444E+00</totfact>
</mgrwt>
</event>
<event>
12    3  0.2422421E-007  0.1213063E+04  0.7818608E-02  0.9101499E-01
          1   -1    0    0  501    0  0.00000000000E+00  0.00000000000E+00  0.29521032601E+04  0.29521032601E+04  0.00000000000E+00 0. -1.
         -2   -1    0    0    0  501 -0.00000000000E+00 -0.00000000000E+00 -0.50915399154E+03  0.50915399154E+03  0.00000000000E+00 0.  1.
        -24    2    1    2    0    0  0.46668104707E+03 -0.10441477885E+04  0.96681956042E+03  0.14998619179E+04  0.82522156859E+02 0.  0.
    5000000    2    1    2    0    0 -0.46668104707E+03  0.10441477885E+04  0.14761297081E+04  0.19613953338E+04  0.60006410993E+03 0.  0.
        -24    2    4    4    0    0 -0.17850201379E+03  0.95727816686E+03  0.12174205073E+04  0.15610595643E+04  0.80930921464E+02 0.  0.
         24    2    4    4    0    0 -0.28817903328E+03  0.86869621657E+02  0.25870920088E+03  0.40033576947E+03  0.52390755923E+02 0.  0.
         11    1    3    3    0    0  0.10907507533E+03 -0.25872272952E+03  0.28440295111E+03  0.39964967338E+03  0.00000000000E+00 0. -1.
        -12    1    3    3    0    0  0.35760597174E+03 -0.78542505899E+03  0.68241660931E+03  0.11002122445E+04  0.00000000000E+00 0.  1.
         13    1    5    5    0    0 -0.99477109556E+02  0.33199191285E+03  0.41352031981E+03  0.53954923818E+03  0.00000000000E+00 0. -1.
        -14    1    5    5    0    0 -0.79024904233E+02  0.62528625401E+03  0.80390018745E+03  0.10215103261E+04  0.00000000000E+00 0.  1.
          4    1    6    6  502    0 -0.10218354076E+03  0.57385897022E+02  0.98887607122E+02  0.15334071873E+03  0.00000000000E+00 0. -1.
         -3    1    6    6    0  502 -0.18599549252E+03  0.29483724635E+02  0.15982159376E+03  0.24699505074E+03  0.00000000000E+00 0.  1.
<mgrwt>
<rscale>  0 0.12130633E+04</rscale>
<asrwt>0</asrwt>
<pdfrwt beam="1">  1        1 0.45416972E+00 0.12130633E+04</pdfrwt>
<pdfrwt beam="2">  1       -2 0.78331385E-01 0.12130633E+04</pdfrwt>
<totfact> 0.81849128E-01</totfact>
</mgrwt>
</event>
<event>
12    3  0.2422421E-007  0.9514423E+03  0.7818608E-02  0.9363466E-01
          1   -1    0    0  501    0  0.00000000000E+00  0.00000000000E+00  0.10853024466E+04  0.10853024466E+04  0.00000000000E+00 0. -1.
         -2   -1    0    0    0  501 -0.00000000000E+00 -0.00000000000E+00 -0.10073044448E+04  0.10073044448E+04  0.00000000000E+00 0.  1.
        -24    2    1    2    0    0  0.16725010231E+03  0.86993628620E+03 -0.32872718839E+03  0.94805506405E+03  0.77363436511E+02 0.  0.
    5000000    2    1    2    0    0 -0.16725010231E+03 -0.86993628620E+03  0.40672519016E+03  0.11445518273E+04  0.59984311812E+03 0.  0.
        -24    2    4    4    0    0 -0.27731618700E+03 -0.83319529529E+03  0.21797460479E+03  0.90823147507E+03  0.79074751390E+02 0.  0.
         24    2    4    4    0    0  0.11006608468E+03 -0.36740990913E+02  0.18875058537E+03  0.23632035226E+03  0.82195389189E+02 0.  0.
         13    1    3    3    0    0  0.47544499705E+02  0.33884937671E+03 -0.16277369854E+03  0.37891246547E+03  0.00000000000E+00 0. -1.
        -14    1    3    3    0    0  0.11970560261E+03  0.53108690949E+03 -0.16595348985E+03  0.56914259858E+03  0.00000000000E+00 0.  1.
         13    1    5    5    0    0 -0.24573298267E+02 -0.98185119237E+02  0.82554344425E+00  0.10121682740E+03  0.00000000000E+00 0. -1.
        -14    1    5    5    0    0 -0.25274288873E+03 -0.73501017605E+03  0.21714906135E+03  0.80701464767E+03  0.00000000000E+00 0.  1.
          4    1    6    6  502    0  0.11206169131E+03 -0.11644051587E+02  0.12777752156E+03  0.17035404784E+03  0.00000000000E+00 0. -1.
         -3    1    6    6    0  502 -0.19956066299E+01 -0.25096939326E+02  0.60973063804E+02  0.65966304421E+02  0.00000000000E+00 0.  1.
<mgrwt>
<rscale>  0 0.95144230E+03</rscale>
<asrwt>0</asrwt>
<pdfrwt beam="1">  1        1 0.16696961E+00 0.95144230E+03</pdfrwt>
<pdfrwt beam="2">  1       -2 0.15496991E+00 0.95144230E+03</pdfrwt>
<totfact> 0.31369467E+00</totfact>
</mgrwt>
</event>
<event>
12    3  0.2422421E-007  0.3507066E+03  0.7818608E-02  0.1062325E+00
          1   -1    0    0  501    0  0.00000000000E+00  0.00000000000E+00  0.17142950725E+04  0.17142950725E+04  0.00000000000E+00 0. -1.
         -2   -1    0    0    0  501 -0.00000000000E+00 -0.00000000000E+00 -0.15366648878E+03  0.15366648878E+03  0.00000000000E+00 0.  1.
        -24    2    1    2    0    0  0.21173664050E+03  0.22296850651E+03  0.74299717830E+03  0.80824828627E+03  0.81689200394E+02 0.  0.
    5000000    2    1    2    0    0 -0.21173664050E+03 -0.22296850651E+03  0.81763140541E+03  0.10597132750E+04  0.59993645522E+03 0.  0.
        -24    2    4    4    0    0 -0.11017944244E+03  0.21578852826E+02  0.76611453810E+03  0.77852940566E+03  0.81064132389E+02 0.  0.
         24    2    4    4    0    0 -0.10155719806E+03 -0.24454735934E+03  0.51516867303E+02  0.28118386935E+03  0.79329095095E+02 0.  0.
         13    1    5    5    0    0 -0.28733141737E+02  0.83813202537E+01  0.47517267846E+03  0.47611439205E+03  0.00000000000E+00 0. -1.
        -14    1    5    5    0    0 -0.81446300700E+02  0.13197532572E+02  0.29094185964E+03  0.30241501361E+03  0.00000000000E+00 0.  1.
         13    1    3    3    0    0  0.10192507871E+03  0.14766505958E+03  0.35006689145E+03  0.39337071571E+03  0.00000000000E+00 0. -1.
        -14    1    3    3    0    0  0.10981156179E+03  0.75303446932E+02  0.39293028686E+03  0.41487757056E+03  0.00000000000E+00 0.  1.
          2    1    6    6  502    0 -0.61150670322E+02 -0.53899237155E+02  0.13394851236E+02  0.82607229020E+02  0.00000000000E+00 0. -1.
         -1    1    6    6    0  502 -0.40406527742E+02 -0.19064812218E+03  0.38122016067E+02  0.19857664033E+03  0.00000000000E+00 0.  1.
<mgrwt>
<rscale>  0 0.35070663E+03</rscale>
<asrwt>0</asrwt>
<pdfrwt beam="1">  1        1 0.26373769E+00 0.35070663E+03</pdfrwt>
<pdfrwt beam="2">  1       -2 0.23640999E-01 0.35070663E+03</pdfrwt>
<totfact> 0.70604960E+01</totfact>
</mgrwt>
</event>
<event>
12    3  0.2422421E-007  0.6560352E+03  0.7818608E-02  0.9795520E-01
         -2   -1    0    0    0  501 -0.00000000000E+00  0.00000000000E+00  0.34550276238E+03  0.34550276238E+03  0.00000000000E+00 0.  1.
          1   -1    0    0  501    0  0.00000000000E+00 -0.00000000000E+00 -0.14511041910E+04  0.14511041910E+04  0.00000000000E+00 0. -1.
        -24    2    1    2    0    0  0.27556627068E+03  0.48243331653E+03 -0.65651913880E+03  0.86368504559E+03  0.79093640330E+02 0.  0.
    5000000    2    1    2    0    0 -0.27556627068E+03 -0.48243331653E+03 -0.44908228979E+03  0.93292190776E+03  0.59999142372E+03 0.  0.
        -24    2    4    4    0    0 -0.19223753682E+03  0.60376659519E+02 -0.27984031217E+03  0.35282476929E+03  0.74659935264E+02 0.  0.
         24    2    4    4    0    0 -0.83328733853E+02 -0.54280997605E+03 -0.16924197762E+03  0.58009713846E+03  0.79268499914E+02 0.  0.
         11    1    5    5    0    0 -0.15649557693E+02 -0.26544863057E+01  0.12373932737E+00  0.15873571273E+02  0.00000000000E+00 0. -1.
        -12    1    5    5    0    0 -0.17658797913E+03  0.63031145825E+02 -0.27996405150E+03  0.33695119802E+03  0.00000000000E+00 0.  1.
         13    1    3    3    0    0  0.88705700328E+02  0.20807390727E+03 -0.22259296343E+03  0.31735008985E+03  0.00000000000E+00 0. -1.
        -14    1    3    3    0    0  0.18686057035E+03  0.27435940926E+03 -0.43392617537E+03  0.54633495574E+03  0.00000000000E+00 0.  1.
          2    1    6    6  502    0 -0.60892541988E+02 -0.26799174670E+03 -0.48422380603E+02  0.27905591718E+03  0.00000000000E+00 0. -1.
         -1    1    6    6    0  502 -0.22436191864E+02 -0.27481822935E+03 -0.12081959702E+03  0.30104122128E+03  0.00000000000E+00 0.  1.
<mgrwt>
<rscale>  0 0.65603519E+03</rscale>
<asrwt>0</asrwt>
<pdfrwt beam="1">  1        1 0.22324679E+00 0.65603519E+03</pdfrwt>
<pdfrwt beam="2">  1       -2 0.53154272E-01 0.65603519E+03</pdfrwt>
<totfact> 0.21586212E+01</totfact>
</mgrwt>
</event>
<event>
12    3  0.2422421E-007  0.9462602E+03  0.7818608E-02  0.9369533E-01
          1   -1    0    0  501    0  0.00000000000E+00  0.00000000000E+00  0.14936573827E+04  0.14936573827E+04  0.00000000000E+00 0. -1.
         -2   -1    0    0    0  501 -0.00000000000E+00 -0.00000000000E+00 -0.83498290838E+03  0.83498290838E+03  0.00000000000E+00 0.  1.
        -24    2    1    2    0    0  0.19246765018E+03 -0.82962242382E+03  0.91843204717E+03  0.12550064619E+04  0.78782178618E+02 0.  0.
    5000000    2    1    2    0    0 -0.19246765018E+03  0.82962242382E+03 -0.25975757283E+03  0.10736338292E+04  0.59991536078E+03 0.  0.
        -24    2    4    4    0    0 -0.13552014326E+03 -0.43013825688E+02 -0.43101272040E+02  0.16940742647E+03  0.81395688219E+02 0.  0.
         24    2    4    4    0    0 -0.56947506922E+02  0.87263624951E+03 -0.21665630079E+03  0.90422640274E+03  0.77125820819E+02 0.  0.
         11    1    5    5    0    0 -0.72443377458E+02  0.18432943537E+02 -0.10395822181E+02  0.75471116752E+02  0.00000000000E+00 0. -1.
        -12    1    5    5    0    0 -0.63076765803E+02 -0.61446769224E+02 -0.32705449859E+02  0.93936309715E+02  0.00000000000E+00 0.  1.
         13    1    3    3    0    0  0.66013659979E+02 -0.23553699891E+03  0.21543134552E+03  0.32595420812E+03  0.00000000000E+00 0. -1.
        -14    1    3    3    0    0  0.12645399020E+03 -0.59408542491E+03  0.70300070165E+03  0.92905225378E+03  0.00000000000E+00 0.  1.
          4    1    6    6  502    0 -0.75320476768E+02  0.73383264832E+03 -0.18885510715E+03  0.76147868089E+03  0.00000000000E+00 0. -1.
         -3    1    6    6    0  502  0.18372969846E+02  0.13880360119E+03 -0.27801193644E+02  0.14274772185E+03  0.00000000000E+00 0.  1.
<mgrwt>
<rscale>  0 0.94626019E+03</rscale>
<asrwt>0</asrwt>
<pdfrwt beam="1">  1        1 0.22979344E+00 0.94626019E+03</pdfrwt>
<pdfrwt beam="2">  1       -2 0.12845891E+00 0.94626019E+03</pdfrwt>
<totfact> 0.26093538E+00</totfact>
</mgrwt>
</event>
<event>
12    3  0.2422421E-007  0.4809896E+03  0.7818608E-02  0.1018864E+00
         -2   -1    0    0    0  501 -0.00000000000E+00  0.00000000000E+00  0.18685569824E+03  0.18685569824E+03  0.00000000000E+00 0.  1.
          1   -1    0    0  501    0  0.00000000000E+00 -0.00000000000E+00 -0.13818934125E+04  0.13818934125E+04  0.00000000000E+00 0. -1.
        -24    2    1    2    0    0 -0.71447917932E+02 -0.31597887011E+03 -0.43027871521E+03  0.54404836634E+03  0.76820575469E+02 0.  0.
    5000000    2    1    2    0    0  0.71447917932E+02  0.31597887011E+03 -0.76475899903E+03  0.10247007444E+04  0.60017317302E+03 0.  0.
        -24    2    4    4    0    0  0.26094571748E+03  0.34808420578E+03 -0.65230166863E+03  0.78779317531E+03  0.76585497224E+02 0.  0.
         24    2    4    4    0    0 -0.18949779955E+03 -0.32105335675E+02 -0.11245733040E+03  0.23690756907E+03  0.80860228232E+02 0.  0.
         13    1    3    3    0    0 -0.42334454488E+02 -0.11405870472E+03 -0.21786865758E+03  0.24953626213E+03  0.00000000000E+00 0. -1.
        -14    1    3    3    0    0 -0.29113463445E+02 -0.20192016538E+03 -0.21241005763E+03  0.29451210421E+03  0.00000000000E+00 0.  1.
         13    1    5    5    0    0  0.21186198197E+02  0.60924637305E+02 -0.13256397578E+03  0.14742412998E+03  0.00000000000E+00 0. -1.
        -14    1    5    5    0    0  0.23975951928E+03  0.28715956848E+03 -0.51973769285E+03  0.64036904534E+03  0.00000000000E+00 0.  1.
          2    1    6    6  502    0 -0.13051114268E+03  0.92821934957E-01 -0.10827054149E+03  0.16957498971E+03  0.00000000000E+00 0. -1.
         -1    1    6    6    0  502 -0.58986656866E+02 -0.32198157610E+02 -0.41867889044E+01  0.67332579359E+02  0.00000000000E+00 0.  1.
<mgrwt>
<rscale>  0 0.48098963E+03</rscale>
<asrwt>0</asrwt>
<pdfrwt beam="1">  1        1 0.21259899E+00 0.48098963E+03</pdfrwt>
<pdfrwt beam="2">  1       -2 0.28747030E-01 0.48098963E+03</pdfrwt>
<totfact> 0.81138210E+01</totfact>
</mgrwt>
</event>
<event>
12    3  0.2422421E-007  0.8344349E+03  0.7818608E-02  0.9511469E-01
         -2   -1    0    0    0  501 -0.00000000000E+00  0.00000000000E+00  0.55081434042E+03  0.55081434042E+03  0.00000000000E+00 0.  1.
          1   -1    0    0  501    0  0.00000000000E+00 -0.00000000000E+00 -0.13696726286E+04  0.13696726286E+04  0.00000000000E+00 0. -1.
        -24    2    1    2    0    0  0.46167554996E+03 -0.60672151313E+03 -0.34924363176E+03  0.84262787496E+03  0.82433690982E+02 0.  0.
    5000000    2    1    2    0    0 -0.46167554996E+03  0.60672151313E+03 -0.46961465643E+03  0.10778590941E+04  0.59998916089E+03 0.  0.
        -24    2    4    4    0    0 -0.51356542298E+03  0.33058529683E+03 -0.48854174533E+03  0.78503727147E+03  0.67634299829E+02 0.  0.
         24    2    4    4    0    0  0.51889873015E+02  0.27613621630E+03  0.18927088902E+02  0.29282182259E+03  0.80265909412E+02 0.  0.
         13    1    5    5    0    0 -0.14128048084E+03  0.12661199595E+03 -0.16206332949E+03  0.24951010911E+03  0.00000000000E+00 0. -1.
        -14    1    5    5    0    0 -0.37228494214E+03  0.20397330088E+03 -0.32647841584E+03  0.53552716236E+03  0.00000000000E+00 0.  1.
         13    1    3    3    0    0  0.15590937559E+03 -0.16952658859E+03 -0.71565570086E+02  0.24118173326E+03  0.00000000000E+00 0. -1.
        -14    1    3    3    0    0  0.30576617437E+03 -0.43719492454E+03 -0.27767806168E+03  0.60144614171E+03  0.00000000000E+00 0.  1.
          4    1    6    6  502    0 -0.18577103165E+01  0.18509805782E+03 -0.16651147173E+01  0.18511486894E+03  0.00000000000E+00 0. -1.
         -3    1    6    6    0  502  0.53747583331E+02  0.91038158486E+02  0.20592203619E+02  0.10770695365E+03  0.00000000000E+00 0.  1.
<mgrwt>
<rscale>  0 0.83443489E+03</rscale>
<asrwt>0</asrwt>
<pdfrwt beam="1">  1        1 0.21071886E+00 0.83443489E+03</pdfrwt>
<pdfrwt beam="2">  1       -2 0.84740669E-01 0.83443489E+03</pdfrwt>
<totfact> 0.87558141E+00</totfact>
</mgrwt>
</event>
<event>
12    3  0.2422421E-007  0.4819876E+03  0.7818608E-02  0.1018590E+00
         -2   -1    0    0    0  501 -0.00000000000E+00  0.00000000000E+00  0.38934258770E+03  0.38934258770E+03  0.00000000000E+00 0.  1.
          1   -1    0    0  501    0  0.00000000000E+00 -0.00000000000E+00 -0.97248345169E+03  0.97248345169E+03  0.00000000000E+00 0. -1.
        -24    2    1    2    0    0 -0.41261755354E+03  0.15506627313E+03 -0.60394106311E+02  0.45218615669E+03  0.80784142440E+02 0.  0.
    5000000    2    1    2    0    0  0.41261755354E+03 -0.15506627313E+03 -0.52274675768E+03  0.90963988270E+03  0.59990144939E+03 0.  0.
        -24    2    4    4    0    0  0.41673408394E+03 -0.15019459730E+03 -0.76836558327E+02  0.45642018570E+03  0.78675380158E+02 0.  0.
         24    2    4    4    0    0 -0.41165304014E+01 -0.48716758264E+01 -0.44591019936E+03  0.45321969700E+03  0.80817750588E+02 0.  0.
         13    1    3    3    0    0 -0.20051083473E+03  0.91048562770E+02  0.78577218512E+01  0.22035466734E+03  0.00000000000E+00 0. -1.
        -14    1    3    3    0    0 -0.21210671881E+03  0.64017710358E+02 -0.68251828163E+02  0.23183148935E+03  0.00000000000E+00 0.  1.
         13    1    5    5    0    0  0.19676605541E+03 -0.53511224107E+02  0.78896947108E+00  0.20391408519E+03  0.00000000000E+00 0. -1.
        -14    1    5    5    0    0  0.21996802853E+03 -0.96683373194E+02 -0.77625527798E+02  0.25250610051E+03  0.00000000000E+00 0.  1.
          4    1    6    6  502    0 -0.62844268930E+01  0.36271913417E+02 -0.27288418921E+03  0.27535599947E+03  0.00000000000E+00 0. -1.
         -3    1    6    6    0  502  0.21678964916E+01 -0.41143589243E+02 -0.17302601015E+03  0.17786369753E+03  0.00000000000E+00 0.  1.
<mgrwt>
<rscale>  0 0.48198765E+03</rscale>
<asrwt>0</asrwt>
<pdfrwt beam="1">  1        1 0.14961284E+00 0.48198765E+03</pdfrwt>
<pdfrwt beam="2">  1       -2 0.59898860E-01 0.48198765E+03</pdfrwt>
<totfact> 0.38191444E+01</totfact>
</mgrwt>
</event>
<event>
12    3  0.2422421E-007  0.1297930E+04  0.7818608E-02  0.9031208E-01
          1   -1    0    0  501    0  0.00000000000E+00  0.00000000000E+00  0.20971063291E+04  0.20971063291E+04  0.00000000000E+00 0. -1.
         -2   -1    0    0    0  501 -0.00000000000E+00 -0.00000000000E+00 -0.82499389106E+03  0.82499389106E+03  0.00000000000E+00 0.  1.
        -24    2    1    2    0    0  0.95443462662E+03  0.78662277991E+03  0.43960755945E+03  0.13149266335E+04  0.77822816411E+02 0.  0.
    5000000    2    1    2    0    0 -0.95443462662E+03 -0.78662277991E+03  0.83250487859E+03  0.16071735867E+04  0.60018473025E+03 0.  0.
        -24    2    4    4    0    0 -0.20356444111E+03  0.70175451001E+02  0.17772451720E+03  0.29045394822E+03  0.80090051921E+02 0.  0.
         24    2    4    4    0    0 -0.75087018551E+03 -0.85679823092E+03  0.65478036139E+03  0.13167196384E+04  0.84285470936E+02 0.  0.
         13    1    5    5    0    0 -0.15848523283E+03  0.39897261782E+02  0.16963068457E+03  0.23555026994E+03  0.00000000000E+00 0. -1.
        -14    1    5    5    0    0 -0.45079208286E+02  0.30278189218E+02  0.80938326240E+01  0.54903678279E+02  0.00000000000E+00 0.  1.
         13    1    3    3    0    0  0.81230012253E+03  0.63519591436E+03  0.35310497466E+03  0.10899488345E+04  0.00000000000E+00 0. -1.
        -14    1    3    3    0    0  0.14213450409E+03  0.15142686555E+03  0.86502584789E+02  0.22497779899E+03  0.00000000000E+00 0.  1.
          2    1    6    6  502    0 -0.50893980612E+03 -0.57610359622E+03  0.48657664201E+03  0.90976475442E+03  0.00000000000E+00 0. -1.
         -1    1    6    6    0  502 -0.24193037939E+03 -0.28069463470E+03  0.16820371938E+03  0.40695488403E+03  0.00000000000E+00 0.  1.
<mgrwt>
<rscale>  0 0.12979304E+04</rscale>
<asrwt>0</asrwt>
<pdfrwt beam="1">  1        1 0.32263174E+00 0.12979304E+04</pdfrwt>
<pdfrwt beam="2">  1       -2 0.12692214E+00 0.12979304E+04</pdfrwt>
<totfact> 0.10046647E+00</totfact>
</mgrwt>
</event>
<event>
12    3  0.2422421E-007  0.9925010E+03  0.7818608E-02  0.9316808E-01
          1   -1    0    0  501    0  0.00000000000E+00  0.00000000000E+00  0.12523886195E+04  0.12523886195E+04  0.00000000000E+00 0. -1.
         -2   -1    0    0    0  501 -0.00000000000E+00 -0.00000000000E+00 -0.96265016012E+03  0.96265016012E+03  0.00000000000E+00 0.  1.
        -24    2    1    2    0    0 -0.50109279889E+03 -0.76041485718E+03  0.58427179752E+03  0.10853878519E+04  0.85840011759E+02 0.  0.
    5000000    2    1    2    0    0  0.50109279889E+03  0.76041485718E+03 -0.29453333819E+03  0.11296509276E+04  0.60003048498E+03 0.  0.
        -24    2    4    4    0    0  0.24115331997E+03 -0.22880386972E+02 -0.18321206642E+02  0.25566667817E+03  0.79695344091E+02 0.  0.
         24    2    4    4    0    0  0.25993947891E+03  0.78329524416E+03 -0.27621213155E+03  0.87398424948E+03  0.80220661347E+02 0.  0.
         11    1    5    5    0    0  0.38498428497E+02  0.10024436630E+02 -0.30302361862E+02  0.50008513884E+02  0.00000000000E+00 0. -1.
        -12    1    5    5    0    0  0.20265489148E+03 -0.32904823602E+02  0.11981155221E+02  0.20565816428E+03  0.00000000000E+00 0.  1.
         11    1    3    3    0    0 -0.21408102924E+03 -0.25719793677E+03  0.19273797709E+03  0.38617275094E+03  0.00000000000E+00 0. -1.
        -12    1    3    3    0    0 -0.28701176965E+03 -0.50321692042E+03  0.39153382044E+03  0.69921510099E+03  0.00000000000E+00 0.  1.
          2    1    6    6  502    0  0.14449646898E+03  0.38292834822E+03 -0.17539584342E+03  0.44528311365E+03  0.00000000000E+00 0. -1.
         -1    1    6    6    0  502  0.11544300994E+03  0.40036689594E+03 -0.10081628813E+03  0.42870113583E+03  0.00000000000E+00 0.  1.
<mgrwt>
<rscale>  0 0.99250102E+03</rscale>
<asrwt>0</asrwt>
<pdfrwt beam="1">  1        1 0.19267517E+00 0.99250102E+03</pdfrwt>
<pdfrwt beam="2">  1       -2 0.14810002E+00 0.99250102E+03</pdfrwt>
<totfact> 0.26538038E+00</totfact>
</mgrwt>
</event>
<event>
12    3  0.2422421E-007  0.5619807E+03  0.7818608E-02  0.9987583E-01
          1   -1    0    0  501    0  0.00000000000E+00  0.00000000000E+00  0.19453990314E+04  0.19453990314E+04  0.00000000000E+00 0. -1.
         -2   -1    0    0    0  501 -0.00000000000E+00 -0.00000000000E+00 -0.17764270941E+03  0.17764270941E+03  0.00000000000E+00 0.  1.
        -24    2    1    2    0    0  0.31952251701E+03  0.27432999148E+03  0.81310988811E+03  0.91943663531E+03  0.82851995147E+02 0.  0.
    5000000    2    1    2    0    0 -0.31952251701E+03 -0.27432999148E+03  0.95464643384E+03  0.12036051055E+04  0.59996987688E+03 0.  0.
        -24    2    4    4    0    0  0.13505573811E+03  0.46201372998E+02  0.14372214264E+03  0.21695231090E+03  0.77702198520E+02 0.  0.
         24    2    4    4    0    0 -0.45457825512E+03 -0.32053136448E+03  0.81092429120E+03  0.98665279457E+03  0.80646049687E+02 0.  0.
         11    1    5    5    0    0  0.98333641998E+02  0.33231582282E+02  0.14460003408E+03  0.17799722769E+03  0.00000000000E+00 0. -1.
        -12    1    5    5    0    0  0.36722096115E+02  0.12969790715E+02 -0.87789144038E+00  0.38955083207E+02  0.00000000000E+00 0.  1.
         13    1    3    3    0    0  0.26255290189E+03  0.24453095036E+03  0.62524503358E+03  0.72087499887E+03  0.00000000000E+00 0. -1.
        -14    1    3    3    0    0  0.56969615120E+02  0.29799041128E+02  0.18786485453E+03  0.19856163644E+03  0.00000000000E+00 0.  1.
          4    1    6    6  502    0 -0.49901674867E+02 -0.54254777863E+02  0.15082514986E+03  0.16787490553E+03  0.00000000000E+00 0. -1.
         -3    1    6    6    0  502 -0.40467658026E+03 -0.26627658662E+03  0.66009914133E+03  0.81877788904E+03  0.00000000000E+00 0.  1.
<mgrwt>
<rscale>  0 0.56198067E+03</rscale>
<asrwt>0</asrwt>
<pdfrwt beam="1">  1        1 0.29929214E+00 0.56198067E+03</pdfrwt>
<pdfrwt beam="2">  1       -2 0.27329649E-01 0.56198067E+03</pdfrwt>
<totfact> 0.36838381E+01</totfact>
</mgrwt>
</event>
<event>
12    3  0.2422421E-007  0.3576883E+03  0.7818608E-02  0.1059503E+00
         -2   -1    0    0    0  501 -0.00000000000E+00  0.00000000000E+00  0.65656335360E+03  0.65656335360E+03  0.00000000000E+00 0.  1.
          1   -1    0    0  501    0  0.00000000000E+00 -0.00000000000E+00 -0.10577264426E+04  0.10577264426E+04  0.00000000000E+00 0. -1.
        -24    2    1    2    0    0 -0.68971284013E+02  0.26111993740E+03 -0.86483006846E+03  0.90939001456E+03  0.78220787084E+02 0.  0.
    5000000    2    1    2    0    0  0.68971284013E+02 -0.26111993740E+03  0.46366697947E+03  0.80489978164E+03  0.59994660672E+03 0.  0.
        -24    2    4    4    0    0 -0.10552558150E+03 -0.21090910971E+03  0.53871015565E+03  0.59359853703E+03  0.80822586332E+02 0.  0.
         24    2    4    4    0    0  0.17449686551E+03 -0.50210827686E+02 -0.75043176175E+02  0.21130124461E+03  0.77758950560E+02 0.  0.
         13    1    3    3    0    0 -0.45508415445E+02  0.75320139615E+02 -0.36962351564E+03  0.37995484287E+03  0.00000000000E+00 0. -1.
        -14    1    3    3    0    0 -0.23462868568E+02  0.18579979778E+03 -0.49520655282E+03  0.52943517168E+03  0.00000000000E+00 0.  1.
         13    1    5    5    0    0 -0.68235986089E+02 -0.62273276330E+02  0.25382411108E+03  0.27011255081E+03  0.00000000000E+00 0. -1.
        -14    1    5    5    0    0 -0.37289595412E+02 -0.14863583338E+03  0.28488604457E+03  0.32348598622E+03  0.00000000000E+00 0.  1.
          2    1    6    6  502    0  0.14781638333E+03 -0.12582949356E+02 -0.40818741143E+02  0.15386417200E+03  0.00000000000E+00 0. -1.
         -1    1    6    6    0  502  0.26680482182E+02 -0.37627878330E+02 -0.34224435032E+02  0.57437072613E+02  0.00000000000E+00 0.  1.
<mgrwt>
<rscale>  0 0.35768826E+03</rscale>
<asrwt>0</asrwt>
<pdfrwt beam="1">  1        1 0.16272714E+00 0.35768826E+03</pdfrwt>
<pdfrwt beam="2">  1       -2 0.10100975E+00 0.35768826E+03</pdfrwt>
<totfact> 0.10589931E+01</totfact>
</mgrwt>
</event>
<event>
12    3  0.2422421E-007  0.6606569E+03  0.7818608E-02  0.9786985E-01
         -2   -1    0    0    0  501 -0.00000000000E+00  0.00000000000E+00  0.11116314764E+04  0.11116314764E+04  0.00000000000E+00 0.  1.
          1   -1    0    0  501    0  0.00000000000E+00 -0.00000000000E+00 -0.42877517569E+03  0.42877517569E+03  0.00000000000E+00 0. -1.
        -24    2    1    2    0    0 -0.48407563715E+03 -0.22646826251E+03  0.45186923498E+03  0.70428605929E+03  0.78841305091E+02 0.  0.
    5000000    2    1    2    0    0  0.48407563715E+03  0.22646826251E+03  0.23098706571E+03  0.83612059278E+03  0.60010459483E+03 0.  0.
        -24    2    4    4    0    0  0.29873908043E+03  0.41817549195E+03  0.19511358950E+03  0.55549461791E+03  0.79932330589E+02 0.  0.
         24    2    4    4    0    0  0.18533655672E+03 -0.19170722944E+03  0.35873476209E+02  0.28062597487E+03  0.79766724900E+02 0.  0.
         11    1    5    5    0    0  0.78009844112E+02  0.15728180777E+03  0.39306424882E+02  0.17991136115E+03  0.00000000000E+00 0. -1.
        -12    1    5    5    0    0  0.22072923632E+03  0.26089368418E+03  0.15580716462E+03  0.37558325676E+03  0.00000000000E+00 0.  1.
         13    1    3    3    0    0 -0.14066964269E+03 -0.48512958203E+02  0.85917148126E+02  0.17182319934E+03  0.00000000000E+00 0. -1.
        -14    1    3    3    0    0 -0.34340599446E+03 -0.17795530430E+03  0.36595208685E+03  0.53246285996E+03  0.00000000000E+00 0.  1.
          4    1    6    6  502    0  0.10010000660E+03 -0.12532967566E+03  0.57604782603E+02  0.17042843043E+03  0.00000000000E+00 0. -1.
         -3    1    6    6    0  502  0.85236550118E+02 -0.66377553786E+02 -0.21731306395E+02  0.11019754444E+03  0.00000000000E+00 0.  1.
<mgrwt>
<rscale>  0 0.66065694E+03</rscale>
<asrwt>0</asrwt>
<pdfrwt beam="1">  1        1 0.65965412E-01 0.66065694E+03</pdfrwt>
<pdfrwt beam="2">  1       -2 0.17102023E+00 0.66065694E+03</pdfrwt>
<totfact> 0.10322980E+01</totfact>
</mgrwt>
</event>
<event>
12    3  0.2422421E-007  0.9552522E+03  0.7818608E-02  0.9359032E-01
         -2   -1    0    0    0  501 -0.00000000000E+00  0.00000000000E+00  0.13875713979E+04  0.13875713979E+04  0.00000000000E+00 0.  1.
          1   -1    0    0  501    0  0.00000000000E+00 -0.00000000000E+00 -0.10000125886E+04  0.10000125886E+04  0.00000000000E+00 0. -1.
        -24    2    1    2    0    0 -0.84054079398E+03  0.21388774500E+03 -0.50418259754E+03  0.10064660361E+04  0.80727915175E+02 0.  0.
    5000000    2    1    2    0    0  0.84054079398E+03 -0.21388774500E+03  0.89174140681E+03  0.13811179504E+04  0.60002271824E+03 0.  0.
        -24    2    4    4    0    0  0.34278716675E+03  0.19119369611E+03  0.42393967495E+03  0.58318980472E+03  0.79545139432E+02 0.  0.
         24    2    4    4    0    0  0.49775362722E+03 -0.40508144111E+03  0.46780173186E+03  0.79792814565E+03  0.77467528314E+02 0.  0.
         13    1    3    3    0    0 -0.98246762096E+02  0.52677017099E+02 -0.64238648874E+02  0.12866195398E+03  0.00000000000E+00 0. -1.
        -14    1    3    3    0    0 -0.74229403188E+03  0.16121072790E+03 -0.43994394866E+03  0.87780408208E+03  0.00000000000E+00 0.  1.
         13    1    5    5    0    0  0.10559691220E+02  0.10260379678E+02 -0.36766819047E+00  0.14728124446E+02  0.00000000000E+00 0. -1.
        -14    1    5    5    0    0  0.33222747553E+03  0.18093331643E+03  0.42430734314E+03  0.56846168027E+03  0.00000000000E+00 0.  1.
          2    1    6    6  502    0  0.35235562277E+03 -0.23950082609E+03  0.30620029823E+03  0.52466537262E+03  0.00000000000E+00 0. -1.
         -1    1    6    6    0  502  0.14539800445E+03 -0.16558061502E+03  0.16160143363E+03  0.27326277303E+03  0.00000000000E+00 0.  1.
<mgrwt>
<rscale>  0 0.95525225E+03</rscale>
<asrwt>0</asrwt>
<pdfrwt beam="1">  1        1 0.15384809E+00 0.95525225E+03</pdfrwt>
<pdfrwt beam="2">  1       -2 0.21347252E+00 0.95525225E+03</pdfrwt>
<totfact> 0.14478024E+00</totfact>
</mgrwt>
</event>
<event>
12    3  0.2422421E-007  0.8451367E+03  0.7818608E-02  0.9496888E-01
          3   -1    0    0  501    0  0.00000000000E+00  0.00000000000E+00  0.67051776815E+03  0.67051776815E+03  0.00000000000E+00 0. -1.
         -4   -1    0    0    0  501 -0.00000000000E+00 -0.00000000000E+00 -0.12291122058E+04  0.12291122058E+04  0.00000000000E+00 0.  1.
        -24    2    1    2    0    0 -0.43806042024E+03  0.67674041289E+03 -0.22672435203E+03  0.84124292783E+03  0.80070054343E+02 0.  0.
    5000000    2    1    2    0    0  0.43806042024E+03 -0.67674041289E+03 -0.33187008557E+03  0.10583870461E+04  0.60014237260E+03 0.  0.
        -24    2    4    4    0    0  0.22993967864E+03 -0.62731134948E+03 -0.44252448007E+03  0.80482516731E+03  0.74322604068E+02 0.  0.
         24    2    4    4    0    0  0.20812074160E+03 -0.49429063408E+02  0.11065439449E+03  0.25356187877E+03  0.79320589716E+02 0.  0.
         11    1    3    3    0    0 -0.28592608848E+03  0.41498698111E+03 -0.17873612986E+03  0.53470975930E+03  0.00000000000E+00 0. -1.
        -12    1    3    3    0    0 -0.15213433175E+03  0.26175343177E+03 -0.47988222179E+02  0.30653316853E+03  0.00000000000E+00 0.  1.
         13    1    5    5    0    0  0.12811848247E+03 -0.34904662678E+03 -0.20175443923E+03  0.42302806877E+03  0.00000000000E+00 0. -1.
        -14    1    5    5    0    0  0.10182119617E+03 -0.27826472270E+03 -0.24077004084E+03  0.38179709854E+03  0.00000000000E+00 0.  1.
          4    1    6    6  502    0  0.21509487762E+02 -0.13523861435E+02  0.46503879799E+02  0.52992110057E+02  0.00000000000E+00 0. -1.
         -3    1    6    6    0  502  0.18661125383E+03 -0.35905201972E+02  0.64150514693E+02  0.20056976871E+03  0.00000000000E+00 0.  1.
<mgrwt>
<rscale>  0 0.84513665E+03</rscale>
<asrwt>0</asrwt>
<pdfrwt beam="1">  1        3 0.10315658E+00 0.84513665E+03</pdfrwt>
<pdfrwt beam="2">  1       -4 0.18909418E+00 0.84513665E+03</pdfrwt>
<totfact> 0.28398653E-01</totfact>
</mgrwt>
</event>
<event>
12    3  0.2422421E-007  0.7381351E+03  0.7818608E-02  0.9654151E-01
         -2   -1    0    0    0  501 -0.00000000000E+00  0.00000000000E+00  0.27674429618E+03  0.27674429618E+03  0.00000000000E+00 0.  1.
          1   -1    0    0  501    0  0.00000000000E+00 -0.00000000000E+00 -0.25470594071E+04  0.25470594071E+04  0.00000000000E+00 0. -1.
        -24    2    1    2    0    0  0.65796510488E+03  0.19701643457E+03 -0.14084300784E+04  0.15690057646E+04  0.79813839832E+02 0.  0.
    5000000    2    1    2    0    0 -0.65796510488E+03 -0.19701643457E+03 -0.86188503256E+03  0.12547979387E+04  0.59994875017E+03 0.  0.
        -24    2    4    4    0    0 -0.63827231396E+03 -0.63336664217E+02 -0.38347399082E+03  0.75160802677E+03  0.80369424938E+02 0.  0.
         24    2    4    4    0    0 -0.19692790919E+02 -0.13367977036E+03 -0.47841104174E+03  0.50318991191E+03  0.77877311003E+02 0.  0.
         11    1    3    3    0    0  0.27210057813E+03  0.52241090481E+02 -0.50508908863E+03  0.57609273872E+03  0.00000000000E+00 0. -1.
        -12    1    3    3    0    0  0.38586452675E+03  0.14477534409E+03 -0.90334098976E+03  0.99291302592E+03  0.00000000000E+00 0.  1.
         13    1    5    5    0    0 -0.43454049815E+03 -0.55845892548E+01 -0.25202619444E+03  0.50236822636E+03  0.00000000000E+00 0. -1.
        -14    1    5    5    0    0 -0.20373181581E+03 -0.57752074963E+02 -0.13144779638E+03  0.24923980041E+03  0.00000000000E+00 0.  1.
          4    1    6    6  502    0 -0.84339788961E+01 -0.21237621235E+01 -0.13485072791E+03  0.13513090388E+03  0.00000000000E+00 0. -1.
         -3    1    6    6    0  502 -0.11258812023E+02 -0.13155600823E+03 -0.34356031383E+03  0.36805900803E+03  0.00000000000E+00 0.  1.
<mgrwt>
<rscale>  0 0.73813505E+03</rscale>
<asrwt>0</asrwt>
<pdfrwt beam="1">  1        1 0.39185531E+00 0.73813505E+03</pdfrwt>
<pdfrwt beam="2">  1       -2 0.42576044E-01 0.73813505E+03</pdfrwt>
<totfact> 0.60954048E+00</totfact>
</mgrwt>
</event>
<event>
12    3  0.2422421E-007  0.9772647E+03  0.7818608E-02  0.9333838E-01
          3   -1    0    0  501    0  0.00000000000E+00  0.00000000000E+00  0.81363121623E+03  0.81363121623E+03  0.00000000000E+00 0. -1.
         -4   -1    0    0    0  501 -0.00000000000E+00 -0.00000000000E+00 -0.13702631842E+04  0.13702631842E+04  0.00000000000E+00 0.  1.
        -24    2    1    2    0    0 -0.84969837385E+03 -0.37712479980E+03 -0.53738461191E+03  0.10769892500E+04  0.83145548716E+02 0.  0.
    5000000    2    1    2    0    0  0.84969837385E+03  0.37712479980E+03 -0.19247356084E+02  0.11069051505E+04  0.60054817485E+03 0.  0.
        -24    2    4    4    0    0  0.40118036834E+03 -0.42982960591E+02  0.18977536161E+03  0.45293185168E+03  0.79620044886E+02 0.  0.
         24    2    4    4    0    0  0.44851800551E+03  0.42010776039E+03 -0.20902271769E+03  0.65397329881E+03  0.79571649731E+02 0.  0.
         13    1    3    3    0    0 -0.30574392813E+03 -0.16135813194E+03 -0.16228959959E+03  0.38190798691E+03  0.00000000000E+00 0. -1.
        -14    1    3    3    0    0 -0.54395444572E+03 -0.21576666786E+03 -0.37509501232E+03  0.69508126305E+03  0.00000000000E+00 0.  1.
         13    1    5    5    0    0  0.20990759917E+03 -0.56151458594E+01  0.13804316934E+03  0.25129394472E+03  0.00000000000E+00 0. -1.
        -14    1    5    5    0    0  0.19127276918E+03 -0.37367814731E+02  0.51732192263E+02  0.20163790696E+03  0.00000000000E+00 0.  1.
          2    1    6    6  502    0  0.12467492429E+03  0.16330191340E+03 -0.52840434851E+02  0.21214019709E+03  0.00000000000E+00 0. -1.
         -3    1    6    6    0  502  0.32384308122E+03  0.25680584699E+03 -0.15618228284E+03  0.44183310172E+03  0.00000000000E+00 0.  1.
<mgrwt>
<rscale>  0 0.97726465E+03</rscale>
<asrwt>0</asrwt>
<pdfrwt beam="1">  1        3 0.12517404E+00 0.97726465E+03</pdfrwt>
<pdfrwt beam="2">  1       -4 0.21080972E+00 0.97726465E+03</pdfrwt>
<totfact> 0.12667066E-01</totfact>
</mgrwt>
</event>
<event>
12    3  0.2422421E-007  0.9268577E+03  0.7818608E-02  0.9392617E-01
         -2   -1    0    0    0  501 -0.00000000000E+00  0.00000000000E+00  0.11547684539E+04  0.11547684539E+04  0.00000000000E+00 0.  1.
          1   -1    0    0  501    0  0.00000000000E+00 -0.00000000000E+00 -0.91998704902E+03  0.91998704902E+03  0.00000000000E+00 0. -1.
        -24    2    1    2    0    0  0.86071932044E+03 -0.29556497031E+03  0.35012430483E+03  0.97840959355E+03  0.80634382731E+02 0.  0.
    5000000    2    1    2    0    0 -0.86071932044E+03  0.29556497031E+03 -0.11534289998E+03  0.10963459093E+04  0.60039484349E+03 0.  0.
        -24    2    4    4    0    0 -0.83073448917E+03  0.27690377207E+03 -0.27578595362E+03  0.92166254769E+03  0.81292491112E+02 0.  0.
         24    2    4    4    0    0 -0.29984831267E+02  0.18661198239E+02  0.16044305365E+03  0.17468336164E+03  0.59371482588E+02 0.  0.
         11    1    3    3    0    0  0.60459779812E+03 -0.18267535750E+03  0.21148890438E+03  0.66606031289E+03  0.00000000000E+00 0. -1.
        -12    1    3    3    0    0  0.25612152232E+03 -0.11288961281E+03  0.13863540045E+03  0.31234928067E+03  0.00000000000E+00 0.  1.
         11    1    5    5    0    0 -0.23795716701E+03  0.42578176678E+02 -0.65378737413E+02  0.25042143233E+03  0.00000000000E+00 0. -1.
        -12    1    5    5    0    0 -0.59277732215E+03  0.23432559540E+03 -0.21040721621E+03  0.67124111536E+03  0.00000000000E+00 0.  1.
          4    1    6    6  502    0 -0.44879951815E+02  0.10491950518E+02  0.78780087440E+02  0.91272083780E+02  0.00000000000E+00 0. -1.
         -3    1    6    6    0  502  0.14895120548E+02  0.81692477210E+01  0.81662966209E+02  0.83411277862E+02  0.00000000000E+00 0.  1.
<mgrwt>
<rscale>  0 0.92685774E+03</rscale>
<asrwt>0</asrwt>
<pdfrwt beam="1">  1        1 0.14153647E+00 0.92685774E+03</pdfrwt>
<pdfrwt beam="2">  1       -2 0.17765668E+00 0.92685774E+03</pdfrwt>
<totfact> 0.29036711E+00</totfact>
</mgrwt>
</event>
<event>
12    3  0.2422421E-007  0.7684210E+03  0.7818608E-02  0.9606886E-01
          1   -1    0    0  501    0  0.00000000000E+00  0.00000000000E+00  0.25544048358E+04  0.25544048358E+04  0.00000000000E+00 0. -1.
         -2   -1    0    0    0  501 -0.00000000000E+00 -0.00000000000E+00 -0.29237208659E+03  0.29237208659E+03  0.00000000000E+00 0.  1.
        -24    2    1    2    0    0  0.53936764445E+03 -0.53206353157E+03  0.95908971060E+03  0.12245334020E+04  0.74966139759E+02 0.  0.
    5000000    2    1    2    0    0 -0.53936764445E+03  0.53206353157E+03  0.13029430386E+04  0.16222435204E+04  0.60000368340E+03 0.  0.
        -24    2    4    4    0    0 -0.30036991809E+03  0.38529777854E+03  0.30213447048E+03  0.57964773894E+03  0.77651768609E+02 0.  0.
         24    2    4    4    0    0 -0.23899772636E+03  0.14676575304E+03  0.10008085681E+04  0.10425957814E+04  0.82024837715E+02 0.  0.
         11    1    3    3    0    0  0.22288799306E+02 -0.46238858316E+02  0.76390013020E+02  0.92033997425E+02  0.00000000000E+00 0. -1.
        -12    1    3    3    0    0  0.51707884514E+03 -0.48582467326E+03  0.88269969758E+03  0.11324994046E+04  0.00000000000E+00 0.  1.
         13    1    5    5    0    0 -0.23270909852E+03  0.23968701404E+03  0.20042970415E+03  0.38958369517E+03  0.00000000000E+00 0. -1.
        -14    1    5    5    0    0 -0.67660819572E+02  0.14561076449E+03  0.10170476633E+03  0.19006404377E+03  0.00000000000E+00 0.  1.
          2    1    6    6  502    0 -0.12038701586E+03  0.87169426797E+02  0.66706376306E+03  0.68342198278E+03  0.00000000000E+00 0. -1.
         -1    1    6    6    0  502 -0.11861071050E+03  0.59596326240E+02  0.33374480504E+03  0.35917379865E+03  0.00000000000E+00 0.  1.
<mgrwt>
<rscale>  0 0.76842103E+03</rscale>
<asrwt>0</asrwt>
<pdfrwt beam="1">  1        1 0.39298534E+00 0.76842103E+03</pdfrwt>
<pdfrwt beam="2">  1       -2 0.44980323E-01 0.76842103E+03</pdfrwt>
<totfact> 0.53759432E+00</totfact>
</mgrwt>
</event>
<event>
12    3  0.2422421E-007  0.6690716E+03  0.7818608E-02  0.9771636E-01
          1   -1    0    0  501    0  0.00000000000E+00  0.00000000000E+00  0.22112148419E+03  0.22112148419E+03  0.00000000000E+00 0. -1.
         -2   -1    0    0    0  501 -0.00000000000E+00 -0.00000000000E+00 -0.21100751668E+04  0.21100751668E+04  0.00000000000E+00 0.  1.
        -24    2    1    2    0    0 -0.22822031229E+03  0.49623014577E+03 -0.67340609254E+03  0.86973084349E+03  0.68022835381E+02 0.  0.
    5000000    2    1    2    0    0  0.22822031229E+03 -0.49623014577E+03 -0.12155475901E+04  0.14614658075E+04  0.59999791187E+03 0.  0.
        -24    2    4    4    0    0  0.14474152861E+03 -0.62040682522E+03 -0.98292444419E+03  0.11739285405E+04  0.78185780750E+02 0.  0.
         24    2    4    4    0    0  0.83478783684E+02  0.12417667945E+03 -0.23262314588E+03  0.28753726701E+03  0.78584965963E+02 0.  0.
         11    1    3    3    0    0 -0.10940145081E+03  0.24245850115E+03 -0.38171470915E+03  0.46525360976E+03  0.00000000000E+00 0. -1.
        -12    1    3    3    0    0 -0.11881886148E+03  0.25377164462E+03 -0.29169138340E+03  0.40447723373E+03  0.00000000000E+00 0.  1.
         13    1    5    5    0    0  0.16844313832E+02 -0.22706207180E+03 -0.37237688151E+03  0.43646930848E+03  0.00000000000E+00 0. -1.
        -14    1    5    5    0    0  0.12789721477E+03 -0.39334475342E+03 -0.61054756268E+03  0.73745923202E+03  0.00000000000E+00 0.  1.
          2    1    6    6  502    0  0.10400698653E+02  0.27811541289E+02 -0.54666364449E+01  0.30191728592E+02  0.00000000000E+00 0. -1.
         -1    1    6    6    0  502  0.73078085032E+02  0.96365138157E+02 -0.22715650943E+03  0.25734553841E+03  0.00000000000E+00 0.  1.
<mgrwt>
<rscale>  0 0.66907161E+03</rscale>
<asrwt>0</asrwt>
<pdfrwt beam="1">  1        1 0.34018689E-01 0.66907161E+03</pdfrwt>
<pdfrwt beam="2">  1       -2 0.32462695E+00 0.66907161E+03</pdfrwt>
<totfact> 0.27107221E+00</totfact>
</mgrwt>
</event>
<event>
12    3  0.2422421E-007  0.1165278E+04  0.7818608E-02  0.9143803E-01
         -2   -1    0    0    0  501 -0.00000000000E+00  0.00000000000E+00  0.73389417758E+03  0.73389417758E+03  0.00000000000E+00 0.  1.
          1   -1    0    0  501    0  0.00000000000E+00 -0.00000000000E+00 -0.19340315640E+04  0.19340315640E+04  0.00000000000E+00 0. -1.
        -24    2    1    2    0    0  0.10531148713E+04 -0.35194624066E+03 -0.66762737227E+03  0.12980632841E+04  0.79529195105E+02 0.  0.
    5000000    2    1    2    0    0 -0.10531148713E+04  0.35194624066E+03 -0.53251001414E+03  0.13698624575E+04  0.60003262315E+03 0.  0.
        -24    2    4    4    0    0 -0.55210982322E+03  0.44637578528E+03 -0.45881109461E+03  0.84906571562E+03  0.79551054784E+02 0.  0.
         24    2    4    4    0    0 -0.50100504805E+03 -0.94429544621E+02 -0.73698919528E+02  0.52079674186E+03  0.76646712415E+02 0.  0.
         11    1    3    3    0    0  0.18319609452E+03 -0.51433212062E+02 -0.82113134500E+02  0.20724080488E+03  0.00000000000E+00 0. -1.
        -12    1    3    3    0    0  0.86991877675E+03 -0.30051302860E+03 -0.58551423777E+03  0.10908224792E+04  0.00000000000E+00 0.  1.
         13    1    5    5    0    0 -0.25879803445E+03  0.21557665977E+03 -0.26463191942E+03  0.42834538827E+03  0.00000000000E+00 0. -1.
        -14    1    5    5    0    0 -0.29331178877E+03  0.23079912551E+03 -0.19417917519E+03  0.42072032735E+03  0.00000000000E+00 0.  1.
          4    1    6    6  502    0 -0.23523402376E+03 -0.47444944255E+02  0.37898854616E+01  0.24000089979E+03  0.00000000000E+00 0. -1.
         -3    1    6    6    0  502 -0.26577102429E+03 -0.46984600366E+02 -0.77488804990E+02  0.28079584207E+03  0.00000000000E+00 0.  1.
<mgrwt>
<rscale>  0 0.11652784E+04</rscale>
<asrwt>0</asrwt>
<pdfrwt beam="1">  1        1 0.29754331E+00 0.11652784E+04</pdfrwt>
<pdfrwt beam="2">  1       -2 0.11290680E+00 0.11652784E+04</pdfrwt>
<totfact> 0.17599444E+00</totfact>
</mgrwt>
</event>
<event>
12    3  0.2422421E-007  0.8167512E+03  0.7818608E-02  0.9536082E-01
          1   -1    0    0  501    0  0.00000000000E+00  0.00000000000E+00  0.20294772936E+04  0.20294772936E+04  0.00000000000E+00 0. -1.
         -2   -1    0    0    0  501 -0.00000000000E+00 -0.00000000000E+00 -0.35886550214E+03  0.35886550214E+03  0.00000000000E+00 0.  1.
        -24    2    1    2    0    0  0.63274368367E+03  0.38184339071E+03  0.87286733111E+03  0.11463018647E+04  0.77082053878E+02 0.  0.
    5000000    2    1    2    0    0 -0.63274368367E+03 -0.38184339071E+03  0.79774446031E+03  0.12420409310E+04  0.60008374924E+03 0.  0.
        -24    2    4    4    0    0  0.34230583770E+02  0.48196626483E+02 -0.17490451082E+02  0.10185275891E+03  0.81076636276E+02 0.  0.
         24    2    4    4    0    0 -0.66697426744E+03 -0.43004001719E+03  0.81523491139E+03  0.11401881721E+04  0.75046766969E+02 0.  0.
         13    1    3    3    0    0  0.40191809674E+03  0.19949701005E+03  0.53933040029E+03  0.70157999842E+03  0.00000000000E+00 0. -1.
        -14    1    3    3    0    0  0.23082558693E+03  0.18234638066E+03  0.33353693082E+03  0.44472186627E+03  0.00000000000E+00 0.  1.
         13    1    5    5    0    0  0.33167989161E+02  0.68060026937E+02 -0.53268378714E+00  0.75713714238E+02  0.00000000000E+00 0. -1.
        -14    1    5    5    0    0  0.10625946091E+01 -0.19863400455E+02 -0.16957767295E+02  0.26139044676E+02  0.00000000000E+00 0.  1.
          2    1    6    6  502    0 -0.18740661862E+03 -0.95745560077E+02  0.18027856320E+03  0.27710794526E+03  0.00000000000E+00 0. -1.
         -1    1    6    6    0  502 -0.47956764882E+03 -0.33429445712E+03  0.63495634819E+03  0.86308022684E+03  0.00000000000E+00 0.  1.
<mgrwt>
<rscale>  0 0.81675124E+03</rscale>
<asrwt>0</asrwt>
<pdfrwt beam="1">  1        1 0.31222727E+00 0.81675124E+03</pdfrwt>
<pdfrwt beam="2">  1       -2 0.55210079E-01 0.81675124E+03</pdfrwt>
<totfact> 0.79590331E+00</totfact>
</mgrwt>
</event>
<event>
12    3  0.2422421E-007  0.4350290E+03  0.7818608E-02  0.1032283E+00
          1   -1    0    0  501    0  0.00000000000E+00  0.00000000000E+00  0.24166452510E+04  0.24166452510E+04  0.00000000000E+00 0. -1.
         -2   -1    0    0    0  501 -0.00000000000E+00 -0.00000000000E+00 -0.12092417690E+03  0.12092417690E+03  0.00000000000E+00 0.  1.
        -24    2    1    2    0    0 -0.19474873087E+03 -0.31078113382E+03  0.88513796817E+03  0.96130032056E+03  0.78211906320E+02 0.  0.
    5000000    2    1    2    0    0  0.19474873087E+03  0.31078113382E+03  0.14105831059E+04  0.15762691073E+04  0.60030627075E+03 0.  0.
        -24    2    4    4    0    0  0.19933280466E+03  0.33081591773E+02  0.11976972280E+04  0.12172062326E+04  0.79274232403E+02 0.  0.
         24    2    4    4    0    0 -0.45840737903E+01  0.27769954205E+03  0.21288587792E+03  0.35906287476E+03  0.80422022028E+02 0.  0.
         13    1    5    5    0    0  0.15956155993E+02 -0.88967909213E+01  0.27057294490E+03  0.27118899372E+03  0.00000000000E+00 0. -1.
        -14    1    5    5    0    0  0.18337664867E+03  0.41978382695E+02  0.92712428309E+03  0.94601723884E+03  0.00000000000E+00 0.  1.
         13    1    3    3    0    0 -0.68885529410E+02 -0.18313738301E+03  0.45199048904E+03  0.49252402926E+03  0.00000000000E+00 0. -1.
        -14    1    3    3    0    0 -0.12586320146E+03 -0.12764375082E+03  0.43314747913E+03  0.46877629130E+03  0.00000000000E+00 0.  1.
          4    1    6    6  502    0 -0.29270065835E+02  0.38953415453E+02  0.29016563460E+02  0.56710371930E+02  0.00000000000E+00 0. -1.
         -3    1    6    6    0  502  0.24685992045E+02  0.23874612660E+03  0.18386931446E+03  0.30235250283E+03  0.00000000000E+00 0.  1.
<mgrwt>
<rscale>  0 0.43502899E+03</rscale>
<asrwt>0</asrwt>
<pdfrwt beam="1">  1        1 0.37179154E+00 0.43502899E+03</pdfrwt>
<pdfrwt beam="2">  1       -2 0.18603721E-01 0.43502899E+03</pdfrwt>
<totfact> 0.36190187E+01</totfact>
</mgrwt>
</event>
<event>
12    3  0.2422421E-007  0.1421178E+04  0.7818608E-02  0.8938630E-01
          1   -1    0    0  501    0  0.00000000000E+00  0.00000000000E+00  0.14898188312E+04  0.14898188312E+04  0.00000000000E+00 0. -1.
         -2   -1    0    0    0  501 -0.00000000000E+00 -0.00000000000E+00 -0.17888506009E+04  0.17888506009E+04  0.00000000000E+00 0.  1.
        -24    2    1    2    0    0  0.13696379998E+04  0.10743372109E+03  0.63150644922E+03  0.15141989132E+04  0.80917849331E+02 0.  0.
    5000000    2    1    2    0    0 -0.13696379998E+04 -0.10743372109E+03 -0.93053821895E+03  0.17644705190E+04  0.60000381707E+03 0.  0.
        -24    2    4    4    0    0 -0.51367661193E+03 -0.29066794119E+03 -0.53483586623E+03  0.80047135178E+03  0.79708641531E+02 0.  0.
         24    2    4    4    0    0 -0.85596138785E+03  0.18323422011E+03 -0.39570235272E+03  0.96399916719E+03  0.80432365831E+02 0.  0.
         13    1    5    5    0    0 -0.20832814878E+02 -0.92159217597E+01 -0.46381061459E+02  0.51673419198E+02  0.00000000000E+00 0. -1.
        -14    1    5    5    0    0 -0.49284379705E+03 -0.28145201943E+03 -0.48845480477E+03  0.74879793258E+03  0.00000000000E+00 0.  1.
         13    1    3    3    0    0  0.56083328631E+03  0.18637076141E+02  0.29165960023E+03  0.63241334430E+03  0.00000000000E+00 0. -1.
        -14    1    3    3    0    0  0.80880471347E+03  0.88796644946E+02  0.33984684900E+03  0.88178556886E+03  0.00000000000E+00 0.  1.
          2    1    6    6  502    0 -0.95691559380E+02  0.39296540966E+02 -0.27233413429E+02  0.10697079730E+03  0.00000000000E+00 0. -1.
         -1    1    6    6    0  502 -0.76026982847E+03  0.14393767914E+03 -0.36846893929E+03  0.85702836988E+03  0.00000000000E+00 0.  1.
<mgrwt>
<rscale>  0 0.14211783E+04</rscale>
<asrwt>0</asrwt>
<pdfrwt beam="1">  1        1 0.22920290E+00 0.14211783E+04</pdfrwt>
<pdfrwt beam="2">  1       -2 0.27520778E+00 0.14211783E+04</pdfrwt>
<totfact> 0.24971265E-01</totfact>
</mgrwt>
</event>
<event>
12    3  0.2422421E-007  0.9276773E+03  0.7818608E-02  0.9391630E-01
          1   -1    0    0  501    0  0.00000000000E+00  0.00000000000E+00  0.11493658733E+04  0.11493658733E+04  0.00000000000E+00 0. -1.
         -2   -1    0    0    0  501 -0.00000000000E+00 -0.00000000000E+00 -0.10779376358E+04  0.10779376358E+04  0.00000000000E+00 0.  1.
        -24    2    1    2    0    0  0.74607637442E+03  0.52846165293E+03 -0.44268922061E+03  0.10190177654E+04  0.80757569571E+02 0.  0.
    5000000    2    1    2    0    0 -0.74607637442E+03 -0.52846165293E+03  0.51411745820E+03  0.12082857437E+04  0.59977996175E+03 0.  0.
        -24    2    4    4    0    0 -0.65152981019E+03 -0.42166731352E+03  0.13023821276E+03  0.79104549547E+03  0.80601283984E+02 0.  0.
         24    2    4    4    0    0 -0.94546564231E+02 -0.10679433942E+03  0.38387924544E+03  0.41724024824E+03  0.79887833415E+02 0.  0.
         11    1    3    3    0    0  0.64294891847E+03  0.44962369545E+03 -0.34767829334E+03  0.85815206982E+03  0.00000000000E+00 0. -1.
        -12    1    3    3    0    0  0.10312745596E+03  0.78837957480E+02 -0.95010927271E+02  0.16086569557E+03  0.00000000000E+00 0.  1.
         13    1    5    5    0    0 -0.48906085631E+03 -0.29143068138E+03  0.12438322533E+03  0.58273797711E+03  0.00000000000E+00 0. -1.
        -14    1    5    5    0    0 -0.16246895388E+03 -0.13023663214E+03  0.58549874255E+01  0.20830751836E+03  0.00000000000E+00 0.  1.
          4    1    6    6  502    0 -0.10907810603E+03 -0.96474724983E+02  0.34473815933E+03  0.37423228652E+03  0.00000000000E+00 0. -1.
         -3    1    6    6    0  502  0.14531541796E+02 -0.10319614433E+02  0.39141086116E+02  0.43007961720E+02  0.00000000000E+00 0.  1.
<mgrwt>
<rscale>  0 0.92767726E+03</rscale>
<asrwt>0</asrwt>
<pdfrwt beam="1">  1        1 0.17682552E+00 0.92767726E+03</pdfrwt>
<pdfrwt beam="2">  1       -2 0.16583656E+00 0.92767726E+03</pdfrwt>
<totfact> 0.23425225E+00</totfact>
</mgrwt>
</event>
<event>
12    3  0.2422421E-007  0.4721312E+03  0.7818608E-02  0.1021320E+00
         -2   -1    0    0    0  501 -0.00000000000E+00  0.00000000000E+00  0.38072152247E+03  0.38072152247E+03  0.00000000000E+00 0.  1.
          1   -1    0    0  501    0  0.00000000000E+00 -0.00000000000E+00 -0.62810445362E+03  0.62810445362E+03  0.00000000000E+00 0. -1.
        -24    2    1    2    0    0 -0.29666614902E+03 -0.17078271778E+02 -0.94235399774E+02  0.32202351553E+03  0.80723990493E+02 0.  0.
    5000000    2    1    2    0    0  0.29666614902E+03  0.17078271778E+02 -0.15314753138E+03  0.68680246055E+03  0.59995081641E+03 0.  0.
        -24    2    4    4    0    0 -0.63157038713E+02 -0.20522346677E+03 -0.11055414093E+03  0.25437117009E+03  0.79856065783E+02 0.  0.
         24    2    4    4    0    0  0.35982318774E+03  0.22230173855E+03 -0.42593390451E+02  0.43243129047E+03  0.79321085900E+02 0.  0.
         11    1    5    5    0    0 -0.19834637163E+02 -0.37010159251E+02  0.97108534289E+01  0.43098322397E+02  0.00000000000E+00 0. -1.
        -12    1    5    5    0    0 -0.43322401550E+02 -0.16821330752E+03 -0.12026499436E+03  0.21127284769E+03  0.00000000000E+00 0.  1.
         13    1    3    3    0    0 -0.93114818159E+02  0.27760665515E+02 -0.11785806680E+02  0.97877112491E+02  0.00000000000E+00 0. -1.
        -14    1    3    3    0    0 -0.20355133086E+03 -0.44838937292E+02 -0.82449593094E+02  0.22414640304E+03  0.00000000000E+00 0.  1.
          2    1    6    6  502    0  0.20576155457E+03  0.12943503863E+03  0.15001506169E+02  0.24354936204E+03  0.00000000000E+00 0. -1.
         -1    1    6    6    0  502  0.15406163316E+03  0.92866699922E+02 -0.57594896620E+02  0.18888192842E+03  0.00000000000E+00 0.  1.
<mgrwt>
<rscale>  0 0.47213124E+03</rscale>
<asrwt>0</asrwt>
<pdfrwt beam="1">  1        1 0.96631454E-01 0.47213124E+03</pdfrwt>
<pdfrwt beam="2">  1       -2 0.58572542E-01 0.47213124E+03</pdfrwt>
<totfact> 0.79510515E+01</totfact>
</mgrwt>
</event>
<event>
12    3  0.2422421E-007  0.3286783E+03  0.7818608E-02  0.1071723E+00
         -2   -1    0    0    0  501 -0.00000000000E+00  0.00000000000E+00  0.50014890513E+03  0.50014890513E+03  0.00000000000E+00 0.  1.
          1   -1    0    0  501    0  0.00000000000E+00 -0.00000000000E+00 -0.51385027042E+03  0.51385027042E+03  0.00000000000E+00 0. -1.
        -24    2    1    2    0    0  0.19701294139E+03 -0.23031621042E+03 -0.11443888143E+03  0.33415142976E+03  0.81861251962E+02 0.  0.
    5000000    2    1    2    0    0 -0.19701294139E+03  0.23031621042E+03  0.10073751615E+03  0.67984774579E+03  0.60015435885E+03 0.  0.
        -24    2    4    4    0    0 -0.50834505243E+02  0.35624097048E+02 -0.23618064382E+03  0.25690573175E+03  0.79787438091E+02 0.  0.
         24    2    4    4    0    0 -0.14617843614E+03  0.19469211337E+03  0.33691815997E+03  0.42294201405E+03  0.78057328466E+02 0.  0.
         11    1    3    3    0    0  0.75787853582E+02 -0.35821280511E+02 -0.42235852851E+02  0.93866022362E+02  0.00000000000E+00 0. -1.
        -12    1    3    3    0    0  0.12122508780E+03 -0.19449492991E+03 -0.72203028583E+02  0.24028540740E+03  0.00000000000E+00 0.  1.
         13    1    5    5    0    0  0.17166777933E+02  0.63667794260E+01 -0.15012227479E+02  0.23677016677E+02  0.00000000000E+00 0. -1.
        -14    1    5    5    0    0 -0.68001283176E+02  0.29257317622E+02 -0.22116841634E+03  0.23322871507E+03  0.00000000000E+00 0.  1.
          4    1    6    6  502    0 -0.38794048811E+02  0.12919380794E+02  0.84485850607E+02  0.93860255572E+02  0.00000000000E+00 0. -1.
         -3    1    6    6    0  502 -0.10738438733E+03  0.18177273258E+03  0.25243230936E+03  0.32908175847E+03  0.00000000000E+00 0.  1.
<mgrwt>
<rscale>  0 0.32867826E+03</rscale>
<asrwt>0</asrwt>
<pdfrwt beam="1">  1        1 0.79053888E-01 0.32867826E+03</pdfrwt>
<pdfrwt beam="2">  1       -2 0.76945985E-01 0.32867826E+03</pdfrwt>
<totfact> 0.59604842E+01</totfact>
</mgrwt>
</event>
<event>
12    3  0.2422421E-007  0.7457390E+03  0.7818608E-02  0.9642059E-01
         -2   -1    0    0    0  501 -0.00000000000E+00  0.00000000000E+00  0.41960615657E+03  0.41960615657E+03  0.00000000000E+00 0.  1.
          1   -1    0    0  501    0  0.00000000000E+00 -0.00000000000E+00 -0.17978183025E+04  0.17978183025E+04  0.00000000000E+00 0. -1.
        -24    2    1    2    0    0  0.50485337268E+02  0.73705004714E+03 -0.84967463841E+03  0.11287119519E+04  0.79070461796E+02 0.  0.
    5000000    2    1    2    0    0 -0.50485337268E+02 -0.73705004714E+03 -0.52853750753E+03  0.10887125072E+04  0.60012622436E+03 0.  0.
        -24    2    4    4    0    0 -0.37963470331E+02 -0.19631548737E+03  0.11522941470E+03  0.24412677483E+03  0.79618267456E+02 0.  0.
         24    2    4    4    0    0 -0.12521866937E+02 -0.54073455977E+03 -0.64376692223E+03  0.84458573235E+03  0.79614997696E+02 0.  0.
         11    1    3    3    0    0  0.46830236801E+02  0.47474466401E+03 -0.49376938564E+03  0.68657393868E+03  0.00000000000E+00 0. -1.
        -12    1    3    3    0    0  0.36551004676E+01  0.26230538313E+03 -0.35590525277E+03  0.44213801321E+03  0.00000000000E+00 0.  1.
         13    1    5    5    0    0  0.11996165668E+02 -0.43702410070E+01  0.20915148419E+02  0.24504090078E+02  0.00000000000E+00 0. -1.
        -14    1    5    5    0    0 -0.49959635999E+02 -0.19194524636E+03  0.94314266284E+02  0.21962268475E+03  0.00000000000E+00 0.  1.
          2    1    6    6  502    0 -0.12261763345E+02 -0.29375887922E+03 -0.40997467251E+03  0.50450357983E+03  0.00000000000E+00 0. -1.
         -1    1    6    6    0  502 -0.26010359252E+00 -0.24697568055E+03 -0.23379224972E+03  0.34008215252E+03  0.00000000000E+00 0.  1.
<mgrwt>
<rscale>  0 0.74573902E+03</rscale>
<asrwt>0</asrwt>
<pdfrwt beam="1">  1        1 0.27658743E+00 0.74573902E+03</pdfrwt>
<pdfrwt beam="2">  1       -2 0.64554793E-01 0.74573902E+03</pdfrwt>
<totfact> 0.82596997E+00</totfact>
</mgrwt>
</event>
<event>
12    3  0.2422421E-007  0.4197747E+03  0.7818608E-02  0.1037140E+00
         -2   -1    0    0    0  501 -0.00000000000E+00  0.00000000000E+00  0.10214632082E+04  0.10214632082E+04  0.00000000000E+00 0.  1.
          1   -1    0    0  501    0  0.00000000000E+00 -0.00000000000E+00 -0.24203260707E+03  0.24203260707E+03  0.00000000000E+00 0. -1.
        -24    2    1    2    0    0  0.59246758109E+02 -0.30336738856E+03  0.26404613270E+03  0.41428949221E+03  0.79834030174E+02 0.  0.
    5000000    2    1    2    0    0 -0.59246758109E+02  0.30336738856E+03  0.51538446839E+03  0.84920632303E+03  0.59999023160E+03 0.  0.
        -24    2    4    4    0    0  0.65886035311E+01  0.38567739516E+03  0.90526132907E+02  0.40422001699E+03  0.80052348916E+02 0.  0.
         24    2    4    4    0    0 -0.65835361640E+02 -0.82310006593E+02  0.42485833549E+03  0.44498630603E+03  0.79993595347E+02 0.  0.
         11    1    5    5    0    0 -0.26928283066E+02  0.26663301375E+03  0.81998838739E+02  0.28025364584E+03  0.00000000000E+00 0. -1.
        -12    1    5    5    0    0  0.33516886597E+02  0.11904438140E+03  0.85272941675E+01  0.12396637115E+03  0.00000000000E+00 0.  1.
         13    1    3    3    0    0  0.76628318115E+02 -0.19732269789E+03  0.18007941351E+03  0.27791498954E+03  0.00000000000E+00 0. -1.
        -14    1    3    3    0    0 -0.17381560005E+02 -0.10604469068E+03  0.83966719184E+02  0.13637450267E+03  0.00000000000E+00 0.  1.
          2    1    6    6  502    0 -0.77588464831E+02 -0.45139548370E+02  0.24434665554E+03  0.26031295929E+03  0.00000000000E+00 0. -1.
         -1    1    6    6    0  502  0.11753103191E+02 -0.37170458223E+02  0.18051167995E+03  0.18467334674E+03  0.00000000000E+00 0.  1.
<mgrwt>
<rscale>  0 0.41977468E+03</rscale>
<asrwt>0</asrwt>
<pdfrwt beam="1">  1        1 0.37235786E-01 0.41977468E+03</pdfrwt>
<pdfrwt beam="2">  1       -2 0.15714818E+00 0.41977468E+03</pdfrwt>
<totfact> 0.28032885E+01</totfact>
</mgrwt>
</event>
<event>
12    3  0.2422421E-007  0.3825405E+03  0.7818608E-02  0.1049999E+00
         -2   -1    0    0    0  501 -0.00000000000E+00  0.00000000000E+00  0.45788792302E+02  0.45788792302E+02  0.00000000000E+00 0.  1.
          1   -1    0    0  501    0  0.00000000000E+00 -0.00000000000E+00 -0.36733637566E+04  0.36733637566E+04  0.00000000000E+00 0. -1.
        -24    2    1    2    0    0  0.15563875130E+03 -0.62958004281E+02 -0.66302088379E+03  0.68983677502E+03  0.89949722733E+02 0.  0.
    5000000    2    1    2    0    0 -0.15563875130E+03  0.62958004281E+02 -0.29645540805E+04  0.30293157739E+04  0.59998835858E+03 0.  0.
        -24    2    4    4    0    0 -0.33711623247E+03 -0.60278122001E+02 -0.12510997014E+04  0.13000227358E+04  0.86763151735E+02 0.  0.
         24    2    4    4    0    0  0.18147748117E+03  0.12323612628E+03 -0.17134543791E+04  0.17292930381E+04  0.80045508137E+02 0.  0.
         13    1    3    3    0    0  0.28869305952E+02 -0.51111265300E+02 -0.14575404660E+03  0.15713064745E+03  0.00000000000E+00 0. -1.
        -14    1    3    3    0    0  0.12676944535E+03 -0.11846738981E+02 -0.51726683718E+03  0.53270612757E+03  0.00000000000E+00 0.  1.
         13    1    5    5    0    0 -0.20828905083E+03 -0.91151949475E+01 -0.86576118232E+03  0.89051099953E+03  0.00000000000E+00 0. -1.
        -14    1    5    5    0    0 -0.12882718164E+03 -0.51162927054E+02 -0.38533851912E+03  0.40951173628E+03  0.00000000000E+00 0.  1.
          4    1    6    6  502    0  0.24568556736E+02  0.56181506833E+02 -0.37020700353E+03  0.37525085097E+03  0.00000000000E+00 0. -1.
         -3    1    6    6    0  502  0.15690892444E+03  0.67054619449E+02 -0.13432473756E+04  0.13540421871E+04  0.00000000000E+00 0.  1.
<mgrwt>
<rscale>  0 0.38254045E+03</rscale>
<asrwt>0</asrwt>
<pdfrwt beam="1">  1        1 0.56513265E+00 0.38254045E+03</pdfrwt>
<pdfrwt beam="2">  1       -2 0.70444325E-02 0.38254045E+03</pdfrwt>
<totfact> 0.22498684E+01</totfact>
</mgrwt>
</event>
<event>
12    3  0.2422421E-007  0.3220765E+03  0.7818608E-02  0.1074698E+00
          1   -1    0    0  501    0  0.00000000000E+00  0.00000000000E+00  0.32973721866E+03  0.32973721866E+03  0.00000000000E+00 0. -1.
         -2   -1    0    0    0  501 -0.00000000000E+00 -0.00000000000E+00 -0.52581726468E+03  0.52581726468E+03  0.00000000000E+00 0.  1.
        -24    2    1    2    0    0  0.10391719458E+03  0.79433264127E+02  0.89689084907E+02  0.17804886603E+03  0.80924903234E+02 0.  0.
    5000000    2    1    2    0    0 -0.10391719458E+03 -0.79433264127E+02 -0.28576913092E+03  0.67750561732E+03  0.60020116505E+03 0.  0.
        -24    2    4    4    0    0  0.18625393822E+03 -0.72325309173E+02 -0.30785641601E+03  0.37579906847E+03  0.80795341043E+02 0.  0.
         24    2    4    4    0    0 -0.29017113280E+03 -0.71079549541E+01  0.22087285088E+02  0.30170654885E+03  0.79304376435E+02 0.  0.
         13    1    5    5    0    0  0.96587809465E+02 -0.74366581935E+02 -0.21184016465E+03  0.24440918315E+03  0.00000000000E+00 0. -1.
        -14    1    5    5    0    0  0.89666128757E+02  0.20412727620E+01 -0.96016251356E+02  0.13138988532E+03  0.00000000000E+00 0.  1.
         13    1    3    3    0    0  0.19593283406E+02  0.24360397383E+02  0.68261289268E+02  0.75079486731E+02  0.00000000000E+00 0. -1.
        -14    1    3    3    0    0  0.84323911171E+02  0.55072866743E+02  0.21427795638E+02  0.10296937930E+03  0.00000000000E+00 0.  1.
          4    1    6    6  502    0 -0.26432272228E+03 -0.30049723401E+02  0.15151781373E+02  0.26645649526E+03  0.00000000000E+00 0. -1.
         -3    1    6    6    0  502 -0.25848410520E+02  0.22941768447E+02  0.69355037146E+01  0.35250053584E+02  0.00000000000E+00 0.  1.
<mgrwt>
<rscale>  0 0.32207652E+03</rscale>
<asrwt>0</asrwt>
<pdfrwt beam="1">  1        1 0.50728803E-01 0.32207652E+03</pdfrwt>
<pdfrwt beam="2">  1       -2 0.80894963E-01 0.32207652E+03</pdfrwt>
<totfact> 0.95263140E+01</totfact>
</mgrwt>
</event>
<event>
12    3  0.2422421E-007  0.1187046E+04  0.7818608E-02  0.9124271E-01
         -2   -1    0    0    0  501 -0.00000000000E+00  0.00000000000E+00  0.59202488009E+03  0.59202488009E+03  0.00000000000E+00 0.  1.
          1   -1    0    0  501    0  0.00000000000E+00 -0.00000000000E+00 -0.48810960745E+04  0.48810960745E+04  0.00000000000E+00 0. -1.
        -24    2    1    2    0    0 -0.99095907728E+03 -0.54370536662E+03 -0.15312472834E+03  0.11436631504E+04  0.83083094394E+02 0.  0.
    5000000    2    1    2    0    0  0.99095907728E+03  0.54370536662E+03 -0.41359464661E+04  0.43294578042E+04  0.60044674179E+03 0.  0.
        -24    2    4    4    0    0  0.50529107692E+03 -0.10976907930E+02 -0.12832032124E+04  0.13815660457E+04  0.81698772184E+02 0.  0.
         24    2    4    4    0    0  0.48566800036E+03  0.55468227455E+03 -0.28527432536E+04  0.29478917585E+04  0.91520032364E+02 0.  0.
         11    1    5    5    0    0  0.19537938596E+03 -0.30837368387E+01 -0.60720314519E+03  0.63787010701E+03  0.00000000000E+00 0. -1.
        -12    1    5    5    0    0  0.30991169096E+03 -0.78931710913E+01 -0.67600006725E+03  0.74369593872E+03  0.00000000000E+00 0.  1.
         11    1    3    3    0    0 -0.72249836793E+03 -0.39351717345E+03 -0.74014139432E+02  0.82603737827E+03  0.00000000000E+00 0. -1.
        -12    1    3    3    0    0 -0.26846070935E+03 -0.15018819317E+03 -0.79110588904E+02  0.31762577211E+03  0.00000000000E+00 0.  1.
          4    1    6    6  502    0  0.29550497656E+03  0.30742788100E+03 -0.14835839648E+04  0.15436503729E+04  0.00000000000E+00 0. -1.
         -3    1    6    6    0  502  0.19016302380E+03  0.24725439355E+03 -0.13691592889E+04  0.14042413856E+04  0.00000000000E+00 0.  1.
<mgrwt>
<rscale>  0 0.11870461E+04</rscale>
<asrwt>0</asrwt>
<pdfrwt beam="1">  1        1 0.75093785E+00 0.11870461E+04</pdfrwt>
<pdfrwt beam="2">  1       -2 0.91080751E-01 0.11870461E+04</pdfrwt>
<totfact> 0.11442766E-02</totfact>
</mgrwt>
</event>
<event>
12    3  0.2422421E-007  0.2047781E+04  0.7818608E-02  0.8584602E-01
          1   -1    0    0  501    0  0.00000000000E+00  0.00000000000E+00  0.30070855479E+04  0.30070855479E+04  0.00000000000E+00 0. -1.
         -2   -1    0    0    0  501 -0.00000000000E+00 -0.00000000000E+00 -0.15152878147E+04  0.15152878147E+04  0.00000000000E+00 0.  1.
        -24    2    1    2    0    0 -0.18768926415E+04 -0.79791927052E+03  0.23922004808E+03  0.20549142785E+04  0.77751594988E+02 0.  0.
    5000000    2    1    2    0    0  0.18768926415E+04  0.79791927052E+03  0.12525776851E+04  0.24674590841E+04  0.60000193679E+03 0.  0.
        -24    2    4    4    0    0  0.51752823963E+03  0.32530835822E+03  0.10515770543E+03  0.62529098666E+03  0.79181236685E+02 0.  0.
         24    2    4    4    0    0  0.13593644019E+04  0.47261091230E+03  0.11474199797E+04  0.18421680974E+04  0.76013404731E+02 0.  0.
         13    1    3    3    0    0 -0.96949779596E+03 -0.45152110316E+03  0.13945095832E+03  0.10785378309E+04  0.00000000000E+00 0. -1.
        -14    1    3    3    0    0 -0.90739484555E+03 -0.34639816736E+03  0.99769089757E+02  0.97637644756E+03  0.00000000000E+00 0.  1.
         13    1    5    5    0    0  0.21345043895E+03  0.16862137605E+03  0.19857060718E+02  0.27274266481E+03  0.00000000000E+00 0. -1.
        -14    1    5    5    0    0  0.30407780068E+03  0.15668698217E+03  0.85300644714E+02  0.35254832185E+03  0.00000000000E+00 0.  1.
          2    1    6    6  502    0  0.89467505214E+03  0.34433300146E+03  0.78543388421E+03  0.12393203990E+04  0.00000000000E+00 0. -1.
         -1    1    6    6    0  502  0.46468934974E+03  0.12827791083E+03  0.36198609550E+03  0.60284769843E+03  0.00000000000E+00 0.  1.
<mgrwt>
<rscale>  0 0.20477809E+04</rscale>
<asrwt>0</asrwt>
<pdfrwt beam="1">  1        1 0.46262855E+00 0.20477809E+04</pdfrwt>
<pdfrwt beam="2">  1       -2 0.23312120E+00 0.20477809E+04</pdfrwt>
<totfact> 0.37490964E-02</totfact>
</mgrwt>
</event>
<event>
12    3  0.2422421E-007  0.1075615E+04  0.7818608E-02  0.9229290E-01
          1   -1    0    0  501    0  0.00000000000E+00  0.00000000000E+00  0.27583808076E+04  0.27583808076E+04  0.00000000000E+00 0. -1.
         -2   -1    0    0    0  501 -0.00000000000E+00 -0.00000000000E+00 -0.53891202999E+03  0.53891202999E+03  0.00000000000E+00 0.  1.
        -24    2    1    2    0    0 -0.64350763030E+03  0.80204435852E+03  0.36579297875E+03  0.10942274499E+04  0.78434593821E+02 0.  0.
    5000000    2    1    2    0    0  0.64350763030E+03 -0.80204435852E+03  0.18536757988E+04  0.22030653877E+04  0.60000492653E+03 0.  0.
        -24    2    4    4    0    0  0.69326324641E+03 -0.64369805992E+03  0.12362267404E+04  0.15587830643E+04  0.81160130678E+02 0.  0.
         24    2    4    4    0    0 -0.49755616108E+02 -0.15834629861E+03  0.61744905846E+03  0.64428232335E+03  0.79417887021E+02 0.  0.
         11    1    3    3    0    0 -0.34478470537E+03  0.45894181929E+03  0.24046882865E+03  0.62235789069E+03  0.00000000000E+00 0. -1.
        -12    1    3    3    0    0 -0.29872292493E+03  0.34310253923E+03  0.12532415010E+03  0.47186955920E+03  0.00000000000E+00 0.  1.
         13    1    5    5    0    0  0.32676899641E+03 -0.30930339484E+03  0.65431984050E+03  0.79409131764E+03  0.00000000000E+00 0. -1.
        -14    1    5    5    0    0  0.36649425000E+03 -0.33439466507E+03  0.58190689987E+03  0.76469174667E+03  0.00000000000E+00 0.  1.
          2    1    6    6  502    0 -0.27053291310E+02 -0.14938111995E+03  0.58032439295E+03  0.59985248238E+03  0.00000000000E+00 0. -1.
         -1    1    6    6    0  502 -0.22702324798E+02 -0.89651786617E+01  0.37124665503E+02  0.44429840968E+02  0.00000000000E+00 0.  1.
<mgrwt>
<rscale>  0 0.10756151E+04</rscale>
<asrwt>0</asrwt>
<pdfrwt beam="1">  1        1 0.42436627E+00 0.10756151E+04</pdfrwt>
<pdfrwt beam="2">  1       -2 0.82909545E-01 0.10756151E+04</pdfrwt>
<totfact> 0.10067600E+00</totfact>
</mgrwt>
</event>
<event>
12    3  0.2422421E-007  0.8563098E+03  0.7818608E-02  0.9481907E-01
          1   -1    0    0  501    0  0.00000000000E+00  0.00000000000E+00  0.12989244566E+04  0.12989244566E+04  0.00000000000E+00 0. -1.
         -2   -1    0    0    0  501 -0.00000000000E+00 -0.00000000000E+00 -0.65038789173E+03  0.65038789173E+03  0.00000000000E+00 0.  1.
        -24    2    1    2    0    0  0.43426806610E+03  0.66415170120E+03  0.74762153890E+02  0.80092330847E+03  0.78756148699E+02 0.  0.
    5000000    2    1    2    0    0 -0.43426806610E+03 -0.66415170120E+03  0.57377441094E+03  0.11483890398E+04  0.59991172408E+03 0.  0.
        -24    2    4    4    0    0 -0.16022726195E+02  0.45215489476E+02  0.23952222222E+03  0.25608398684E+03  0.76856653153E+02 0.  0.
         24    2    4    4    0    0 -0.41824533991E+03 -0.70936719068E+03  0.33425218872E+03  0.89230505298E+03  0.79704493924E+02 0.  0.
         13    1    5    5    0    0 -0.39733554589E+02  0.50630292851E+02  0.19507392090E+03  0.20541668999E+03  0.00000000000E+00 0. -1.
        -14    1    5    5    0    0  0.23710828395E+02 -0.54148033754E+01  0.44448301326E+02  0.50667296845E+02  0.00000000000E+00 0.  1.
         13    1    3    3    0    0  0.13000913348E+03  0.26128492216E+03  0.10873550258E+02  0.29204523525E+03  0.00000000000E+00 0. -1.
        -14    1    3    3    0    0  0.30425893262E+03  0.40286677904E+03  0.63888603633E+02  0.50887807323E+03  0.00000000000E+00 0.  1.
          4    1    6    6  502    0 -0.38249450845E+03 -0.59428316093E+03  0.28086242138E+03  0.76049866804E+03  0.00000000000E+00 0. -1.
         -3    1    6    6    0  502 -0.35750831453E+02 -0.11508402975E+03  0.53389767339E+02  0.13180638494E+03  0.00000000000E+00 0.  1.
<mgrwt>
<rscale>  0 0.85630983E+03</rscale>
<asrwt>0</asrwt>
<pdfrwt beam="1">  1        1 0.19983453E+00 0.85630983E+03</pdfrwt>
<pdfrwt beam="2">  1       -2 0.10005968E+00 0.85630983E+03</pdfrwt>
<totfact> 0.66570154E+00</totfact>
</mgrwt>
</event>
<event>
12    3  0.2422421E-007  0.5772287E+03  0.7818608E-02  0.9953809E-01
         -2   -1    0    0    0  501 -0.00000000000E+00  0.00000000000E+00  0.25390602290E+03  0.25390602290E+03  0.00000000000E+00 0.  1.
          1   -1    0    0  501    0  0.00000000000E+00 -0.00000000000E+00 -0.18223159218E+04  0.18223159218E+04  0.00000000000E+00 0. -1.
        -24    2    1    2    0    0  0.34825562627E+03  0.36586652066E+03 -0.32418530409E+03  0.60543455395E+03  0.79464429563E+02 0.  0.
    5000000    2    1    2    0    0 -0.34825562627E+03 -0.36586652066E+03 -0.12442245948E+04  0.14707873907E+04  0.59998367832E+03 0.  0.
        -24    2    4    4    0    0 -0.37332129929E+03 -0.11209549583E+03 -0.32602782360E+03  0.51469596835E+03  0.81753320355E+02 0.  0.
         24    2    4    4    0    0  0.25065673021E+02 -0.25377102483E+03 -0.91819677118E+03  0.95609142236E+03  0.77443374721E+02 0.  0.
         11    1    5    5    0    0 -0.48459367266E+02 -0.10995147095E+02 -0.10738155558E+02  0.50838091234E+02  0.00000000000E+00 0. -1.
        -12    1    5    5    0    0 -0.32486193202E+03 -0.10110034874E+03 -0.31528966804E+03  0.46385787712E+03  0.00000000000E+00 0.  1.
         11    1    3    3    0    0  0.21216447537E+03  0.19995080506E+03 -0.14366846702E+03  0.32501494961E+03  0.00000000000E+00 0. -1.
        -12    1    3    3    0    0  0.13609115090E+03  0.16591571560E+03 -0.18051683707E+03  0.28041960435E+03  0.00000000000E+00 0.  1.
          4    1    6    6  502    0  0.41906439751E+01 -0.20865770584E+03 -0.63080889928E+03  0.66443620244E+03  0.00000000000E+00 0. -1.
         -3    1    6    6    0  502  0.20875029046E+02 -0.45113318992E+02 -0.28738787191E+03  0.29165521992E+03  0.00000000000E+00 0.  1.
<mgrwt>
<rscale>  0 0.57722866E+03</rscale>
<asrwt>0</asrwt>
<pdfrwt beam="1">  1        1 0.28035631E+00 0.57722866E+03</pdfrwt>
<pdfrwt beam="2">  1       -2 0.39062464E-01 0.57722866E+03</pdfrwt>
<totfact> 0.22702478E+01</totfact>
</mgrwt>
</event>
<event>
12    3  0.2422421E-007  0.4718238E+03  0.7818608E-02  0.1021407E+00
          1   -1    0    0  501    0  0.00000000000E+00  0.00000000000E+00  0.13616135899E+04  0.13616135899E+04  0.00000000000E+00 0. -1.
         -2   -1    0    0    0  501 -0.00000000000E+00 -0.00000000000E+00 -0.21188430997E+03  0.21188430997E+03  0.00000000000E+00 0.  1.
        -24    2    1    2    0    0 -0.25779021764E+03  0.25610518691E+03  0.37357065110E+03  0.52740790244E+03  0.80983955899E+02 0.  0.
    5000000    2    1    2    0    0  0.25779021764E+03 -0.25610518691E+03  0.77615862887E+03  0.10460899975E+04  0.59986365332E+03 0.  0.
        -24    2    4    4    0    0  0.10787128137E+03  0.11918926985E+03  0.13416741771E+02  0.17939459105E+03  0.78486399749E+02 0.  0.
         24    2    4    4    0    0  0.14991893628E+03 -0.37529445677E+03  0.76274188710E+03  0.86669540643E+03  0.77872488452E+02 0.  0.
         11    1    5    5    0    0  0.94281616708E+02  0.88198162048E+02 -0.21373030444E+02  0.13086155076E+03  0.00000000000E+00 0. -1.
        -12    1    5    5    0    0  0.13589664661E+02  0.30991107806E+02  0.34789772215E+02  0.48533040286E+02  0.00000000000E+00 0.  1.
         13    1    3    3    0    0 -0.19808011173E+03  0.15306047740E+03  0.28272624808E+03  0.37762067179E+03  0.00000000000E+00 0. -1.
        -14    1    3    3    0    0 -0.59710105917E+02  0.10304470951E+03  0.90844403016E+02  0.14978723065E+03  0.00000000000E+00 0.  1.
          2    1    6    6  502    0  0.77712202824E+01 -0.11027129875E+03  0.19101925718E+03  0.22070004034E+03  0.00000000000E+00 0. -1.
         -1    1    6    6    0  502  0.14214771599E+03 -0.26502315801E+03  0.57172262992E+03  0.64599536609E+03  0.00000000000E+00 0.  1.
<mgrwt>
<rscale>  0 0.47182377E+03</rscale>
<asrwt>0</asrwt>
<pdfrwt beam="1">  1        1 0.20947901E+00 0.47182377E+03</pdfrwt>
<pdfrwt beam="2">  1       -2 0.32597587E-01 0.47182377E+03</pdfrwt>
<totfact> 0.66505237E+01</totfact>
</mgrwt>
</event>
<event>
12    3  0.2422421E-007  0.1224534E+04  0.7818608E-02  0.9091649E-01
          1   -1    0    0  501    0  0.00000000000E+00  0.00000000000E+00  0.28151586569E+04  0.28151586569E+04  0.00000000000E+00 0. -1.
         -4   -1    0    0    0  501 -0.00000000000E+00 -0.00000000000E+00 -0.54775869767E+03  0.54775869767E+03  0.00000000000E+00 0.  1.
        -24    2    1    2    0    0 -0.69792903705E+02  0.11657069046E+04  0.10953727582E+04  0.16030637373E+04  0.78919131699E+02 0.  0.
    5000000    2    1    2    0    0  0.69792903705E+02 -0.11657069046E+04  0.11720272011E+04  0.17598536174E+04  0.59974441025E+03 0.  0.
        -24    2    4    4    0    0  0.24170035682E+03 -0.29453093847E+03  0.18938968567E+03  0.43302259087E+03  0.80452314790E+02 0.  0.
         24    2    4    4    0    0 -0.17190745311E+03 -0.87117596615E+03  0.98263751538E+03  0.13268310265E+04  0.80027181623E+02 0.  0.
         11    1    5    5    0    0  0.15619204145E+03 -0.13103454559E+03  0.83707606913E+02  0.22039276169E+03  0.00000000000E+00 0. -1.
        -12    1    5    5    0    0  0.85508315366E+02 -0.16349639288E+03  0.10568207876E+03  0.21262982917E+03  0.00000000000E+00 0.  1.
         11    1    3    3    0    0  0.75114164755E+01  0.26700192824E+03  0.28298264601E+03  0.38913446134E+03  0.00000000000E+00 0. -1.
        -12    1    3    3    0    0 -0.77304320180E+02  0.89870497638E+03  0.81239011222E+03  0.12139292759E+04  0.00000000000E+00 0.  1.
          4    1    6    6  502    0 -0.14372969326E+03 -0.82524156586E+03  0.92105053466E+03  0.12449963671E+04  0.00000000000E+00 0. -1.
         -3    1    6    6    0  502 -0.28177759851E+02 -0.45934400292E+02  0.61586980724E+02  0.81834659376E+02  0.00000000000E+00 0.  1.
<mgrwt>
<rscale>  0 0.12245341E+04</rscale>
<asrwt>0</asrwt>
<pdfrwt beam="1">  1        1 0.43310132E+00 0.12245341E+04</pdfrwt>
<pdfrwt beam="2">  1       -4 0.84270571E-01 0.12245341E+04</pdfrwt>
<totfact> 0.47988991E-01</totfact>
</mgrwt>
</event>
<event>
12    3  0.2422421E-007  0.9418255E+03  0.7818608E-02  0.9374757E-01
          1   -1    0    0  501    0  0.00000000000E+00  0.00000000000E+00  0.96074402449E+03  0.96074402449E+03  0.00000000000E+00 0. -1.
         -2   -1    0    0    0  501 -0.00000000000E+00 -0.00000000000E+00 -0.11693808104E+04  0.11693808104E+04  0.00000000000E+00 0.  1.
        -24    2    1    2    0    0 -0.90368377884E+03  0.25748720895E+03 -0.35091101452E+03  0.10061684900E+04  0.79324997844E+02 0.  0.
    5000000    2    1    2    0    0  0.90368377884E+03 -0.25748720895E+03  0.14227422863E+03  0.11239563449E+04  0.60007655688E+03 0.  0.
        -24    2    4    4    0    0  0.54790403140E+03 -0.16219125307E+03  0.36871186808E+03  0.68428977532E+03  0.76152641145E+02 0.  0.
         24    2    4    4    0    0  0.35577974744E+03 -0.95295955879E+02 -0.22643763945E+03  0.43966656954E+03  0.79825684543E+02 0.  0.
         11    1    5    5    0    0  0.24801064574E+03 -0.66607328799E+02  0.12168120718E+03  0.28416919754E+03  0.00000000000E+00 0. -1.
        -12    1    5    5    0    0  0.29989338566E+03 -0.95583924270E+02  0.24703066090E+03  0.40012057779E+03  0.00000000000E+00 0.  1.
         13    1    3    3    0    0 -0.78885418280E+03  0.19657937770E+03 -0.30537011677E+03  0.86843841559E+03  0.00000000000E+00 0. -1.
        -14    1    3    3    0    0 -0.11482959605E+03  0.60907831246E+02 -0.45540897754E+02  0.13773007443E+03  0.00000000000E+00 0.  1.
          2    1    6    6  502    0  0.19832057905E+03 -0.40520079108E+02 -0.79599952964E+02  0.21750650886E+03  0.00000000000E+00 0. -1.
         -1    1    6    6    0  502  0.15745916839E+03 -0.54775876771E+02 -0.14683768649E+03  0.22216006068E+03  0.00000000000E+00 0.  1.
<mgrwt>
<rscale>  0 0.94182546E+03</rscale>
<asrwt>0</asrwt>
<pdfrwt beam="1">  1        1 0.14780677E+00 0.94182546E+03</pdfrwt>
<pdfrwt beam="2">  1       -2 0.17990474E+00 0.94182546E+03</pdfrwt>
<totfact> 0.25937701E+00</totfact>
</mgrwt>
</event>
<event>
12    3  0.2422421E-007  0.1970074E+04  0.7818608E-02  0.8620741E-01
          1   -1    0    0  501    0  0.00000000000E+00  0.00000000000E+00  0.29684108666E+04  0.29684108666E+04  0.00000000000E+00 0. -1.
         -2   -1    0    0    0  501 -0.00000000000E+00 -0.00000000000E+00 -0.13242725623E+04  0.13242725623E+04  0.00000000000E+00 0.  1.
        -24    2    1    2    0    0 -0.18939241490E+04  0.35038758226E+03  0.58692836337E+03  0.20150885155E+04  0.79854126904E+02 0.  0.
    5000000    2    1    2    0    0  0.18939241490E+04 -0.35038758226E+03  0.10572099409E+04  0.22775949134E+04  0.60002132506E+03 0.  0.
        -24    2    4    4    0    0  0.40481196732E+03 -0.32450547822E+03  0.30841871813E+03  0.60876128290E+03  0.79319982292E+02 0.  0.
         24    2    4    4    0    0  0.14891121817E+04 -0.25882104046E+02  0.74879122274E+03  0.16688336305E+04  0.78691918920E+02 0.  0.
         13    1    5    5    0    0  0.37161521106E+03 -0.26992549430E+03  0.28595880421E+03  0.54104535417E+03  0.00000000000E+00 0. -1.
        -14    1    5    5    0    0  0.33196756252E+02 -0.54579983920E+02  0.22459913921E+02  0.67715928729E+02  0.00000000000E+00 0.  1.
         13    1    3    3    0    0 -0.10565663265E+04  0.21062170320E+03  0.28980536385E+03  0.11156527476E+04  0.00000000000E+00 0. -1.
        -14    1    3    3    0    0 -0.83735782247E+03  0.13976587906E+03  0.29712299952E+03  0.89943576794E+03  0.00000000000E+00 0.  1.
          2    1    6    6  502    0  0.13462389212E+04 -0.41953813788E+02  0.66065503636E+03  0.15001947982E+04  0.00000000000E+00 0. -1.
         -1    1    6    6    0  502  0.14287326048E+03  0.16071709742E+02  0.88136186381E+02  0.16863883231E+03  0.00000000000E+00 0.  1.
<mgrwt>
<rscale>  0 0.19700740E+04</rscale>
<asrwt>0</asrwt>
<pdfrwt beam="1">  1        1 0.45667859E+00 0.19700740E+04</pdfrwt>
<pdfrwt beam="2">  1       -2 0.20373424E+00 0.19700740E+04</pdfrwt>
<totfact> 0.62253447E-02</totfact>
</mgrwt>
</event>
<event>
12    3  0.2422421E-007  0.7770498E+03  0.7818608E-02  0.9593844E-01
         -2   -1    0    0    0  501 -0.00000000000E+00  0.00000000000E+00  0.38756096592E+03  0.38756096592E+03  0.00000000000E+00 0.  1.
          1   -1    0    0  501    0  0.00000000000E+00 -0.00000000000E+00 -0.36345176685E+04  0.36345176685E+04  0.00000000000E+00 0. -1.
        -24    2    1    2    0    0  0.66876274883E+03  0.85240909306E+01 -0.30219208780E+04  0.30960639769E+04  0.79310036810E+02 0.  0.
    5000000    2    1    2    0    0 -0.66876274883E+03 -0.85240909306E+01 -0.22503582459E+03  0.92601465752E+03  0.59962133823E+03 0.  0.
        -24    2    4    4    0    0 -0.86873643122E+02  0.23377345401E+03 -0.67439889533E+02  0.27119065285E+03  0.82457102921E+02 0.  0.
         24    2    4    4    0    0 -0.58188910570E+03 -0.24229754494E+03 -0.15759593506E+03  0.65482400468E+03  0.81577979468E+02 0.  0.
         11    1    3    3    0    0  0.38911519782E+03 -0.18579565293E+02 -0.16098005142E+04  0.16562649344E+04  0.00000000000E+00 0. -1.
        -12    1    3    3    0    0  0.27964755100E+03  0.27103656223E+02 -0.14121203638E+04  0.14397990425E+04  0.00000000000E+00 0.  1.
         13    1    5    5    0    0 -0.14219949450E+01  0.34475643395E+02  0.17024861343E+02  0.38476459827E+02  0.00000000000E+00 0. -1.
        -14    1    5    5    0    0 -0.85451648177E+02  0.19929781061E+03 -0.84464750876E+02  0.23271419302E+03  0.00000000000E+00 0.  1.
          4    1    6    6  502    0 -0.35459305166E+02 -0.26373288023E+01  0.61545571360E+01  0.36085958483E+02  0.00000000000E+00 0. -1.
         -3    1    6    6    0  502 -0.54642980054E+03 -0.23966021614E+03 -0.16375049220E+03  0.61873804619E+03  0.00000000000E+00 0.  1.
<mgrwt>
<rscale>  0 0.77704978E+03</rscale>
<asrwt>0</asrwt>
<pdfrwt beam="1">  1        1 0.55915656E+00 0.77704978E+03</pdfrwt>
<pdfrwt beam="2">  1       -2 0.59624764E-01 0.77704978E+03</pdfrwt>
<totfact> 0.48889862E-01</totfact>
</mgrwt>
</event>
<event>
12    3  0.2422421E-007  0.9286451E+03  0.7818608E-02  0.9390465E-01
          1   -1    0    0  501    0  0.00000000000E+00  0.00000000000E+00  0.11954079380E+04  0.11954079380E+04  0.00000000000E+00 0. -1.
         -2   -1    0    0    0  501 -0.00000000000E+00 -0.00000000000E+00 -0.93445666658E+03  0.93445666658E+03  0.00000000000E+00 0.  1.
        -24    2    1    2    0    0  0.75333785675E+03  0.46634692946E+03  0.51905060679E+03  0.10291078769E+04  0.68206340687E+02 0.  0.
    5000000    2    1    2    0    0 -0.75333785675E+03 -0.46634692946E+03 -0.25809933539E+03  0.11007567276E+04  0.60004393293E+03 0.  0.
        -24    2    4    4    0    0 -0.46678987465E+03 -0.69957758730E+02 -0.35485011992E+03  0.59581034024E+03  0.79274705000E+02 0.  0.
         24    2    4    4    0    0 -0.28654798210E+03 -0.39638917073E+03  0.96750784527E+02  0.50494638738E+03  0.79849978736E+02 0.  0.
         11    1    3    3    0    0  0.23845803712E+03  0.14537040828E+03  0.20081936863E+03  0.34398140921E+03  0.00000000000E+00 0. -1.
        -12    1    3    3    0    0  0.51487981964E+03  0.32097652118E+03  0.31823123816E+03  0.68512646771E+03  0.00000000000E+00 0.  1.
         13    1    5    5    0    0 -0.40209604646E+03 -0.37969266045E+02 -0.27755913629E+03  0.49006323049E+03  0.00000000000E+00 0. -1.
        -14    1    5    5    0    0 -0.64693828185E+02 -0.31988492685E+02 -0.77290983631E+02  0.10574710975E+03  0.00000000000E+00 0.  1.
          4    1    6    6  502    0 -0.26955625290E+03 -0.32697309470E+03  0.89560383607E+02  0.43312012242E+03  0.00000000000E+00 0. -1.
         -3    1    6    6    0  502 -0.16991729202E+02 -0.69416076028E+02  0.71904009199E+01  0.71826264958E+02  0.00000000000E+00 0.  1.
<mgrwt>
<rscale>  0 0.92864509E+03</rscale>
<asrwt>0</asrwt>
<pdfrwt beam="1">  1        1 0.18390892E+00 0.92864509E+03</pdfrwt>
<pdfrwt beam="2">  1       -2 0.14376256E+00 0.92864509E+03</pdfrwt>
<totfact> 0.31800118E+00</totfact>
</mgrwt>
</event>
<event>
12    3  0.2422421E-007  0.1058620E+04  0.7818608E-02  0.9246490E-01
         -2   -1    0    0    0  501 -0.00000000000E+00  0.00000000000E+00  0.73356419104E+03  0.73356419104E+03  0.00000000000E+00 0.  1.
          1   -1    0    0  501    0  0.00000000000E+00 -0.00000000000E+00 -0.21824335194E+04  0.21824335194E+04  0.00000000000E+00 0. -1.
        -24    2    1    2    0    0 -0.97648900379E+03  0.89133820112E+02 -0.14671230391E+04  0.17663074531E+04  0.76918102261E+02 0.  0.
    5000000    2    1    2    0    0  0.97648900379E+03 -0.89133820112E+02  0.18253710720E+02  0.11496902574E+04  0.59998239776E+03 0.  0.
        -24    2    4    4    0    0  0.16990655965E+03 -0.25655009854E+03 -0.47318244581E+02  0.31933313306E+03  0.71052385811E+02 0.  0.
         24    2    4    4    0    0  0.80658244415E+03  0.16741627843E+03  0.65571955301E+02  0.83035712435E+03  0.81177725743E+02 0.  0.
         13    1    3    3    0    0 -0.60606054802E+03  0.89169410051E+02 -0.94261726330E+03  0.11241832042E+04  0.00000000000E+00 0. -1.
        -14    1    3    3    0    0 -0.37042845577E+03 -0.35589939117E-01 -0.52450577582E+03  0.64212424887E+03  0.00000000000E+00 0.  1.
         13    1    5    5    0    0  0.11744699562E+03 -0.14183337248E+03 -0.57138349046E+02  0.19280895534E+03  0.00000000000E+00 0. -1.
        -14    1    5    5    0    0  0.52459564029E+02 -0.11471672606E+03  0.98201044648E+01  0.12652417772E+03  0.00000000000E+00 0.  1.
          4    1    6    6  502    0  0.70437369522E+03  0.15171872215E+03  0.30532948970E+02  0.72117482911E+03  0.00000000000E+00 0. -1.
         -3    1    6    6    0  502  0.10220874892E+03  0.15697556273E+02  0.35039006331E+02  0.10918229524E+03  0.00000000000E+00 0.  1.
<mgrwt>
<rscale>  0 0.10586198E+04</rscale>
<asrwt>0</asrwt>
<pdfrwt beam="1">  1        1 0.33575900E+00 0.10586198E+04</pdfrwt>
<pdfrwt beam="2">  1       -2 0.11285603E+00 0.10586198E+04</pdfrwt>
<totfact> 0.12127386E+00</totfact>
</mgrwt>
</event>
<event>
12    3  0.2422421E-007  0.5591811E+03  0.7818608E-02  0.9993909E-01
         -2   -1    0    0    0  501 -0.00000000000E+00  0.00000000000E+00  0.13695935422E+03  0.13695935422E+03  0.00000000000E+00 0.  1.
          1   -1    0    0  501    0  0.00000000000E+00 -0.00000000000E+00 -0.32840408039E+04  0.32840408039E+04  0.00000000000E+00 0. -1.
        -24    2    1    2    0    0 -0.43556502922E+03  0.15981345467E+03 -0.19353224327E+04  0.19917415107E+04  0.79398310322E+02 0.  0.
    5000000    2    1    2    0    0  0.43556502922E+03 -0.15981345467E+03 -0.12117590169E+04  0.14292586474E+04  0.59930220356E+03 0.  0.
        -24    2    4    4    0    0 -0.38980970793E+02 -0.16925333556E+03 -0.98026288912E+02  0.21591897212E+03  0.82738392048E+02 0.  0.
         24    2    4    4    0    0  0.47454600001E+03  0.94398808936E+01 -0.11137327280E+04  0.12133396753E+04  0.80681849124E+02 0.  0.
         11    1    5    5    0    0 -0.47427361698E+02 -0.13691792846E+03 -0.10836186577E+03  0.18093691642E+03  0.00000000000E+00 0. -1.
        -12    1    5    5    0    0  0.84463909045E+01 -0.32335407101E+02  0.10335576854E+02  0.34982055694E+02  0.00000000000E+00 0.  1.
         13    1    3    3    0    0 -0.31915433682E+03  0.11462348410E+03 -0.12525578810E+04  0.12976514475E+04  0.00000000000E+00 0. -1.
        -14    1    3    3    0    0 -0.11641069240E+03  0.45189970570E+02 -0.68276455170E+03  0.69409006318E+03  0.00000000000E+00 0.  1.
          2    1    6    6  502    0  0.98920060290E+02  0.16906267428E+02 -0.31624201111E+03  0.33178307642E+03  0.00000000000E+00 0. -1.
         -1    1    6    6    0  502  0.37562593972E+03 -0.74663865344E+01 -0.79749071686E+03  0.88155659886E+03  0.00000000000E+00 0.  1.
<mgrwt>
<rscale>  0 0.55918113E+03</rscale>
<asrwt>0</asrwt>
<pdfrwt beam="1">  1        1 0.50523706E+00 0.55918113E+03</pdfrwt>
<pdfrwt beam="2">  1       -2 0.21070669E-01 0.55918113E+03</pdfrwt>
<totfact> 0.69903773E+00</totfact>
</mgrwt>
</event>
<event>
12    3  0.2422421E-007  0.5778571E+03  0.7818608E-02  0.9952441E-01
          1   -1    0    0  501    0  0.00000000000E+00  0.00000000000E+00  0.26417275834E+04  0.26417275834E+04  0.00000000000E+00 0. -1.
         -2   -1    0    0    0  501 -0.00000000000E+00 -0.00000000000E+00 -0.18462512655E+03  0.18462512655E+03  0.00000000000E+00 0.  1.
        -24    2    1    2    0    0 -0.59186592453E+02 -0.43724771294E+03  0.28741840378E+03  0.53236544258E+03  0.78198532085E+02 0.  0.
    5000000    2    1    2    0    0  0.59186592453E+02  0.43724771294E+03  0.21696840530E+04  0.22939872673E+04  0.60013338312E+03 0.  0.
        -24    2    4    4    0    0 -0.22924897603E+03  0.31391763784E+03  0.88302154628E+03  0.96733537831E+03  0.70080714689E+02 0.  0.
         24    2    4    4    0    0  0.28843556849E+03  0.12333007510E+03  0.12866625068E+04  0.13266518890E+04  0.78098935966E+02 0.  0.
         11    1    5    5    0    0 -0.18613046624E+03  0.20893149251E+03  0.58633606296E+03  0.64968215133E+03  0.00000000000E+00 0. -1.
        -12    1    5    5    0    0 -0.43118509789E+02  0.10498614533E+03  0.29668548332E+03  0.31765322698E+03  0.00000000000E+00 0.  1.
         11    1    3    3    0    0 -0.72835964123E+00 -0.26013877918E+03  0.14603806574E+03  0.29832839554E+03  0.00000000000E+00 0. -1.
        -12    1    3    3    0    0 -0.58458232811E+02 -0.17710893377E+03  0.14138033804E+03  0.23403704704E+03  0.00000000000E+00 0.  1.
          2    1    6    6  502    0  0.15143162086E+03  0.45171837958E+02  0.50169620823E+03  0.52599535748E+03  0.00000000000E+00 0. -1.
         -1    1    6    6    0  502  0.13700394763E+03  0.78158237145E+02  0.78496629853E+03  0.80065653156E+03  0.00000000000E+00 0.  1.
<mgrwt>
<rscale>  0 0.57785710E+03</rscale>
<asrwt>0</asrwt>
<pdfrwt beam="1">  1        1 0.40641960E+00 0.57785710E+03</pdfrwt>
<pdfrwt beam="2">  1       -2 0.28403868E-01 0.57785710E+03</pdfrwt>
<totfact> 0.11668714E+01</totfact>
</mgrwt>
</event>
<event>
12    3  0.2422421E-007  0.5682305E+03  0.7818608E-02  0.9973602E-01
         -2   -1    0    0    0  501 -0.00000000000E+00  0.00000000000E+00  0.59023926667E+03  0.59023926667E+03  0.00000000000E+00 0.  1.
          1   -1    0    0  501    0  0.00000000000E+00 -0.00000000000E+00 -0.96800729955E+03  0.96800729955E+03  0.00000000000E+00 0. -1.
        -24    2    1    2    0    0  0.27584953486E+03 -0.48093306681E+03 -0.47653575411E+03  0.73537173081E+03  0.79345301702E+02 0.  0.
    5000000    2    1    2    0    0 -0.27584953486E+03  0.48093306681E+03  0.98767721234E+02  0.82287483540E+03  0.59998195919E+03 0.  0.
        -24    2    4    4    0    0 -0.10009596873E+03  0.99128572674E+02  0.30727228085E+03  0.34696064506E+03  0.78228880639E+02 0.  0.
         24    2    4    4    0    0 -0.17575356613E+03  0.38180449413E+03 -0.20850455962E+03  0.47591419034E+03  0.79725638513E+02 0.  0.
         11    1    3    3    0    0  0.26658416188E+03 -0.42315096071E+03 -0.40949279419E+03  0.64638084703E+03  0.00000000000E+00 0. -1.
        -12    1    3    3    0    0  0.92653729836E+01 -0.57782106095E+02 -0.67042959925E+02  0.88990883785E+02  0.00000000000E+00 0.  1.
         11    1    5    5    0    0 -0.64696098270E+02  0.10295298290E+03  0.20137512809E+03  0.23523784567E+03  0.00000000000E+00 0. -1.
        -12    1    5    5    0    0 -0.35399870458E+02 -0.38244102285E+01  0.10589715276E+03  0.11172279940E+03  0.00000000000E+00 0.  1.
          4    1    6    6  502    0 -0.16528411462E+03  0.36682343050E+03 -0.17713326097E+03  0.43960716538E+03  0.00000000000E+00 0. -1.
         -3    1    6    6    0  502 -0.10469451516E+02  0.14981063631E+02 -0.31371298652E+02  0.36307024963E+02  0.00000000000E+00 0.  1.
<mgrwt>
<rscale>  0 0.56823045E+03</rscale>
<asrwt>0</asrwt>
<pdfrwt beam="1">  1        1 0.14892420E+00 0.56823045E+03</pdfrwt>
<pdfrwt beam="2">  1       -2 0.90806041E-01 0.56823045E+03</pdfrwt>
<totfact> 0.15237627E+01</totfact>
</mgrwt>
</event>
<event>
12    3  0.2422421E-007  0.1164194E+04  0.7818608E-02  0.9144788E-01
         -2   -1    0    0    0  501 -0.00000000000E+00  0.00000000000E+00  0.35428660483E+03  0.35428660483E+03  0.00000000000E+00 0.  1.
          1   -1    0    0  501    0  0.00000000000E+00 -0.00000000000E+00 -0.45556809996E+04  0.45556809996E+04  0.00000000000E+00 0. -1.
        -24    2    1    2    0    0  0.87435543474E+03 -0.75518678845E+03 -0.13721072893E+04  0.17955793694E+04  0.81377801698E+02 0.  0.
    5000000    2    1    2    0    0 -0.87435543474E+03  0.75518678845E+03 -0.28292871054E+04  0.31143882350E+04  0.59978666359E+03 0.  0.
        -24    2    4    4    0    0 -0.69501408328E+03  0.56304956992E+03 -0.14291705233E+04  0.16871016107E+04  0.60943139008E+02 0.  0.
         24    2    4    4    0    0 -0.17934135146E+03  0.19213721854E+03 -0.14001165821E+04  0.14272866243E+04  0.87980868294E+02 0.  0.
         13    1    5    5    0    0 -0.52608242240E+03  0.43727388239E+03 -0.10452761763E+04  0.12492291416E+04  0.00000000000E+00 0. -1.
        -14    1    5    5    0    0 -0.16893166088E+03  0.12577568753E+03 -0.38389434695E+03  0.43787246915E+03  0.00000000000E+00 0.  1.
         13    1    3    3    0    0  0.75717658124E+03 -0.62733527151E+03 -0.11975915053E+04  0.15495455242E+04  0.00000000000E+00 0. -1.
        -14    1    3    3    0    0  0.11717885350E+03 -0.12785151694E+03 -0.17451578406E+03  0.24603384519E+03  0.00000000000E+00 0.  1.
          4    1    6    6  502    0 -0.24717614109E+02  0.85858933653E+02 -0.47690795560E+03  0.48520502373E+03  0.00000000000E+00 0. -1.
         -3    1    6    6    0  502 -0.15462373735E+03  0.10627828488E+03 -0.92320862653E+03  0.94208160055E+03  0.00000000000E+00 0.  1.
<mgrwt>
<rscale>  0 0.11641944E+04</rscale>
<asrwt>0</asrwt>
<pdfrwt beam="1">  1        1 0.70087397E+00 0.11641944E+04</pdfrwt>
<pdfrwt beam="2">  1       -2 0.54505634E-01 0.11641944E+04</pdfrwt>
<totfact> 0.81607121E-02</totfact>
</mgrwt>
</event>
<event>
12    3  0.2422421E-007  0.9687731E+03  0.7818608E-02  0.9343473E-01
          1   -1    0    0  501    0  0.00000000000E+00  0.00000000000E+00  0.17364665292E+04  0.17364665292E+04  0.00000000000E+00 0. -1.
         -2   -1    0    0    0  501 -0.00000000000E+00 -0.00000000000E+00 -0.70956096871E+03  0.70956096871E+03  0.00000000000E+00 0.  1.
        -24    2    1    2    0    0  0.65126027565E+03 -0.58788719641E+03  0.10652398715E+04  0.13824017179E+04  0.80914914329E+02 0.  0.
    5000000    2    1    2    0    0 -0.65126027565E+03  0.58788719641E+03 -0.38334311001E+02  0.10636257801E+04  0.60006581161E+03 0.  0.
        -24    2    4    4    0    0 -0.22708865968E+03 -0.87360464881E+02  0.35960021619E+02  0.25884814965E+03  0.80672989547E+02 0.  0.
         24    2    4    4    0    0 -0.42417161597E+03  0.67524766130E+03 -0.74294332620E+02  0.80477763041E+03  0.79160739463E+02 0.  0.
         11    1    3    3    0    0  0.31684352404E+03 -0.23414443917E+03  0.49483504879E+03  0.63251495052E+03  0.00000000000E+00 0. -1.
        -12    1    3    3    0    0  0.33441675160E+03 -0.35374275724E+03  0.57040482272E+03  0.74988676734E+03  0.00000000000E+00 0.  1.
         13    1    5    5    0    0 -0.14180272131E+03 -0.11828657676E+02  0.16056292336E+02  0.14319823126E+03  0.00000000000E+00 0. -1.
        -14    1    5    5    0    0 -0.85285938373E+02 -0.75531807205E+02  0.19903729283E+02  0.11564991839E+03  0.00000000000E+00 0.  1.
          4    1    6    6  502    0 -0.28239339309E+03  0.50881766191E+03 -0.69790635273E+02  0.58609911645E+03  0.00000000000E+00 0. -1.
         -3    1    6    6    0  502 -0.14177822288E+03  0.16642999938E+03 -0.45036973474E+01  0.21867851396E+03  0.00000000000E+00 0.  1.
<mgrwt>
<rscale>  0 0.96877309E+03</rscale>
<asrwt>0</asrwt>
<pdfrwt beam="1">  1        1 0.26714869E+00 0.96877309E+03</pdfrwt>
<pdfrwt beam="2">  1       -2 0.10916323E+00 0.96877309E+03</pdfrwt>
<totfact> 0.26597754E+00</totfact>
</mgrwt>
</event>
<event>
12    3  0.2422421E-007  0.8889481E+03  0.7818608E-02  0.9439503E-01
         -2   -1    0    0    0  501 -0.00000000000E+00  0.00000000000E+00  0.11107954387E+04  0.11107954387E+04  0.00000000000E+00 0.  1.
          1   -1    0    0  501    0  0.00000000000E+00 -0.00000000000E+00 -0.85737576015E+03  0.85737576015E+03  0.00000000000E+00 0. -1.
        -24    2    1    2    0    0  0.86970457339E+03 -0.10016232895E+03  0.87676217079E+01  0.87916229334E+03  0.80193077761E+02 0.  0.
    5000000    2    1    2    0    0 -0.86970457339E+03  0.10016232895E+03  0.24465205683E+03  0.10890089055E+04  0.59972262774E+03 0.  0.
        -24    2    4    4    0    0 -0.23084771157E+03  0.11329857703E+03  0.34439479913E+03  0.43741800231E+03  0.81237291787E+02 0.  0.
         24    2    4    4    0    0 -0.63885686182E+03 -0.13136248086E+02 -0.99742742297E+02  0.65159090319E+03  0.79444569203E+02 0.  0.
         13    1    3    3    0    0  0.53174536290E+03 -0.62834343766E+02 -0.33708778834E+02  0.53650495570E+03  0.00000000000E+00 0. -1.
        -14    1    3    3    0    0  0.33795921050E+03 -0.37327985181E+02  0.42476400542E+02  0.34265733764E+03  0.00000000000E+00 0.  1.
         13    1    5    5    0    0 -0.19851774953E+00  0.89246036924E+01  0.42471067670E+02  0.43399073139E+02  0.00000000000E+00 0. -1.
        -14    1    5    5    0    0 -0.23064919382E+03  0.10437397334E+03  0.30192373146E+03  0.39401892917E+03  0.00000000000E+00 0.  1.
          4    1    6    6  502    0 -0.13833680052E+02 -0.65024036877E+01  0.80974497887E+01  0.17297995566E+02  0.00000000000E+00 0. -1.
         -3    1    6    6    0  502 -0.62502318177E+03 -0.66338443980E+01 -0.10784019209E+03  0.63429290763E+03  0.00000000000E+00 0.  1.
<mgrwt>
<rscale>  0 0.88894807E+03</rscale>
<asrwt>0</asrwt>
<pdfrwt beam="1">  1        1 0.13190396E+00 0.88894807E+03</pdfrwt>
<pdfrwt beam="2">  1       -2 0.17089161E+00 0.88894807E+03</pdfrwt>
<totfact> 0.36632987E+00</totfact>
</mgrwt>
</event>
<event>
12    3  0.2422421E-007  0.4117196E+03  0.7818608E-02  0.1039795E+00
          1   -1    0    0  501    0  0.00000000000E+00  0.00000000000E+00  0.13998024398E+04  0.13998024398E+04  0.00000000000E+00 0. -1.
         -2   -1    0    0    0  501 -0.00000000000E+00 -0.00000000000E+00 -0.23178266252E+03  0.23178266252E+03  0.00000000000E+00 0.  1.
        -24    2    1    2    0    0  0.11278954841E+03  0.36093831304E+03  0.21256441033E+03  0.44168963582E+03  0.83115328335E+02 0.  0.
    5000000    2    1    2    0    0 -0.11278954841E+03 -0.36093831304E+03  0.95545536698E+03  0.11898954665E+04  0.59996526143E+03 0.  0.
        -24    2    4    4    0    0 -0.54261379196E+02 -0.48174323137E+02  0.83229532480E+03  0.83948547974E+03  0.82190634086E+02 0.  0.
         24    2    4    4    0    0 -0.58528169212E+02 -0.31276398990E+03  0.12316004218E+03  0.35040998678E+03  0.79824199825E+02 0.  0.
         11    1    5    5    0    0  0.19225677532E+02 -0.25756882782E+02  0.28974077926E+03  0.29151803178E+03  0.00000000000E+00 0. -1.
        -12    1    5    5    0    0 -0.73487056729E+02 -0.22417440355E+02  0.54255454555E+03  0.54796744797E+03  0.00000000000E+00 0.  1.
         13    1    3    3    0    0  0.87160516353E+02  0.14121228699E+03  0.93101522578E+02  0.19027810992E+03  0.00000000000E+00 0. -1.
        -14    1    3    3    0    0  0.25629032056E+02  0.21972602605E+03  0.11946288776E+03  0.25141152590E+03  0.00000000000E+00 0.  1.
          2    1    6    6  502    0  0.13603323354E+02 -0.13175253536E+03  0.38299728683E+02  0.13787911443E+03  0.00000000000E+00 0. -1.
         -1    1    6    6    0  502 -0.72131492566E+02 -0.18101145454E+03  0.84860313492E+02  0.21253087235E+03  0.00000000000E+00 0.  1.
<mgrwt>
<rscale>  0 0.41171964E+03</rscale>
<asrwt>0</asrwt>
<pdfrwt beam="1">  1        1 0.21535422E+00 0.41171964E+03</pdfrwt>
<pdfrwt beam="2">  1       -2 0.35658872E-01 0.41171964E+03</pdfrwt>
<totfact> 0.53418793E+01</totfact>
</mgrwt>
</event>
<event>
12    3  0.2422421E-007  0.1132791E+04  0.7818608E-02  0.9173808E-01
          1   -1    0    0  501    0  0.00000000000E+00  0.00000000000E+00  0.21275043208E+04  0.21275043208E+04  0.00000000000E+00 0. -1.
         -2   -1    0    0    0  501 -0.00000000000E+00 -0.00000000000E+00 -0.63505360345E+03  0.63505360345E+03  0.00000000000E+00 0.  1.
        -24    2    1    2    0    0  0.23178924591E+03  0.10494738408E+04  0.53936236720E+03  0.12058048836E+04  0.89062097821E+02 0.  0.
    5000000    2    1    2    0    0 -0.23178924591E+03 -0.10494738408E+04  0.95308835016E+03  0.15567530406E+04  0.59998419094E+03 0.  0.
        -24    2    4    4    0    0 -0.21095481226E+03 -0.10343074599E+03  0.64064151400E+02  0.25626622483E+03  0.79801694602E+02 0.  0.
         24    2    4    4    0    0 -0.20834433646E+02 -0.94604309476E+03  0.88902419876E+03  0.13004868158E+04  0.73961620696E+02 0.  0.
         13    1    3    3    0    0  0.77713665503E+02  0.43701336539E+03  0.26740575793E+03  0.51819488101E+03  0.00000000000E+00 0. -1.
        -14    1    3    3    0    0  0.15407558040E+03  0.61246047537E+03  0.27195660928E+03  0.68761000261E+03  0.00000000000E+00 0.  1.
         13    1    5    5    0    0 -0.11709112324E+03 -0.88367624834E+02  0.66742880796E+02  0.16116383092E+03  0.00000000000E+00 0. -1.
        -14    1    5    5    0    0 -0.93863689025E+02 -0.15063121158E+02 -0.26787293956E+01  0.95102393910E+02  0.00000000000E+00 0.  1.
          4    1    6    6  502    0 -0.43113832035E+02 -0.71413942322E+03  0.69250340433E+03  0.99569818887E+03  0.00000000000E+00 0. -1.
         -3    1    6    6    0  502  0.22279398389E+02 -0.23190367154E+03  0.19652079443E+03  0.30478862694E+03  0.00000000000E+00 0.  1.
<mgrwt>
<rscale>  0 0.11327914E+04</rscale>
<asrwt>0</asrwt>
<pdfrwt beam="1">  1        1 0.32730835E+00 0.11327914E+04</pdfrwt>
<pdfrwt beam="2">  1       -2 0.97700555E-01 0.11327914E+04</pdfrwt>
<totfact> 0.18533621E+00</totfact>
</mgrwt>
</event>
<event>
12    3  0.2422421E-007  0.1392610E+04  0.7818608E-02  0.8959185E-01
         -4   -1    0    0    0  501 -0.00000000000E+00  0.00000000000E+00  0.28233222982E+04  0.28233222982E+04  0.00000000000E+00 0.  1.
          1   -1    0    0  501    0  0.00000000000E+00 -0.00000000000E+00 -0.71032453919E+03  0.71032453919E+03  0.00000000000E+00 0. -1.
        -24    2    1    2    0    0 -0.12102804917E+04  0.58653317657E+03  0.11746720800E+04  0.17874187596E+04  0.78811742522E+02 0.  0.
    5000000    2    1    2    0    0  0.12102804917E+04 -0.58653317657E+03  0.93832567905E+03  0.17462280778E+04  0.60004781800E+03 0.  0.
        -24    2    4    4    0    0  0.20789805177E+03 -0.35321752671E+03  0.12580479652E+03  0.43252148753E+03  0.57129407884E+02 0.  0.
         24    2    4    4    0    0  0.10023824400E+04 -0.23331564986E+03  0.81252088253E+03  0.13137065903E+04  0.80175260378E+02 0.  0.
         11    1    3    3    0    0 -0.38473311706E+03  0.21327002538E+03  0.42148039951E+03  0.60922032324E+03  0.00000000000E+00 0. -1.
        -12    1    3    3    0    0 -0.82554737468E+03  0.37326315119E+03  0.75319168050E+03  0.11781984364E+04  0.00000000000E+00 0.  1.
         11    1    5    5    0    0  0.16526420275E+03 -0.29199183856E+03  0.79818645331E+02  0.34488042368E+03  0.00000000000E+00 0. -1.
        -12    1    5    5    0    0  0.42633849018E+02 -0.61225688147E+02  0.45986151189E+02  0.87641063848E+02  0.00000000000E+00 0.  1.
          4    1    6    6  502    0  0.86915306793E+03 -0.20442255733E+03  0.66849480757E+03  0.11153927314E+04  0.00000000000E+00 0. -1.
         -3    1    6    6    0  502  0.13322937204E+03 -0.28893092532E+02  0.14402607496E+03  0.19831385892E+03  0.00000000000E+00 0.  1.
<mgrwt>
<rscale>  0 0.13926100E+04</rscale>
<asrwt>0</asrwt>
<pdfrwt beam="1">  1        1 0.10928070E+00 0.13926100E+04</pdfrwt>
<pdfrwt beam="2">  1       -4 0.43435727E+00 0.13926100E+04</pdfrwt>
<totfact> 0.47390007E-02</totfact>
</mgrwt>
</event>
<event>
12    3  0.2422421E-007  0.6388870E+03  0.7818608E-02  0.9827858E-01
          1   -1    0    0  501    0  0.00000000000E+00  0.00000000000E+00  0.81655232667E+03  0.81655232667E+03  0.00000000000E+00 0. -1.
         -2   -1    0    0    0  501 -0.00000000000E+00 -0.00000000000E+00 -0.67943600009E+03  0.67943600009E+03  0.00000000000E+00 0.  1.
        -24    2    1    2    0    0  0.14997619093E+03  0.59646051055E+03 -0.28888543281E+02  0.62085265124E+03  0.79783883823E+02 0.  0.
    5000000    2    1    2    0    0 -0.14997619093E+03 -0.59646051055E+03  0.16600486986E+03  0.87513567552E+03  0.60003902812E+03 0.  0.
        -24    2    4    4    0    0 -0.18125069579E+03 -0.35092585154E+03 -0.18047694211E+03  0.44175173184E+03  0.81067243378E+02 0.  0.
         24    2    4    4    0    0  0.31274504854E+02 -0.24553465902E+03  0.34648181197E+03  0.43338394369E+03  0.80663704289E+02 0.  0.
         11    1    3    3    0    0  0.44171245897E+02  0.20079502478E+03  0.27478308578E+02  0.20742419913E+03  0.00000000000E+00 0. -1.
        -12    1    3    3    0    0  0.10580494503E+03  0.39566548577E+03 -0.56366851859E+02  0.41342845211E+03  0.00000000000E+00 0.  1.
         13    1    5    5    0    0 -0.11516422375E+03 -0.13727195022E+03 -0.70779088647E+02  0.19265530395E+03  0.00000000000E+00 0. -1.
        -14    1    5    5    0    0 -0.66086472036E+02 -0.21365390131E+03 -0.10969785346E+03  0.24909642789E+03  0.00000000000E+00 0.  1.
          4    1    6    6  502    0 -0.23257505100E+02 -0.12955639407E+03  0.18954789996E+03  0.23076866591E+03  0.00000000000E+00 0. -1.
         -3    1    6    6    0  502  0.54532009955E+02 -0.11597826495E+03  0.15693391200E+03  0.20261527777E+03  0.00000000000E+00 0.  1.
<mgrwt>
<rscale>  0 0.63888702E+03</rscale>
<asrwt>0</asrwt>
<pdfrwt beam="1">  1        1 0.12562344E+00 0.63888702E+03</pdfrwt>
<pdfrwt beam="2">  1       -2 0.10452862E+00 0.63888702E+03</pdfrwt>
<totfact> 0.14407807E+01</totfact>
</mgrwt>
</event>
<event>
12    3  0.2422421E-007  0.3762082E+03  0.7818608E-02  0.1052344E+00
          1   -1    0    0  501    0  0.00000000000E+00  0.00000000000E+00  0.10107657147E+04  0.10107657147E+04  0.00000000000E+00 0. -1.
         -2   -1    0    0    0  501 -0.00000000000E+00 -0.00000000000E+00 -0.20310954695E+03  0.20310954695E+03  0.00000000000E+00 0.  1.
        -24    2    1    2    0    0  0.78418773439E+02 -0.23195663770E+03  0.22108013064E+03  0.33969812032E+03  0.81024706017E+02 0.  0.
    5000000    2    1    2    0    0 -0.78418773439E+02  0.23195663770E+03  0.58657603709E+03  0.87417714131E+03  0.60013401945E+03 0.  0.
        -24    2    4    4    0    0 -0.23480048786E+03  0.30672035414E+02  0.23555181224E+02  0.25097367505E+03  0.79755226485E+02 0.  0.
         24    2    4    4    0    0  0.15638171442E+03  0.20128460228E+03  0.56302085587E+03  0.62320346626E+03  0.80120811846E+02 0.  0.
         11    1    3    3    0    0  0.55249791404E+02 -0.14721264364E+03  0.18973124504E+03  0.24641843933E+03  0.00000000000E+00 0. -1.
        -12    1    3    3    0    0  0.23168982034E+02 -0.84743994057E+02  0.31348885605E+02  0.93279680992E+02  0.00000000000E+00 0.  1.
         13    1    5    5    0    0 -0.19291611926E+03  0.51559940790E+02  0.26290602265E+01  0.19970470331E+03  0.00000000000E+00 0. -1.
        -14    1    5    5    0    0 -0.41884368594E+02 -0.20887905376E+02  0.20926120998E+02  0.51268971742E+02  0.00000000000E+00 0.  1.
          2    1    6    6  502    0  0.15096858330E+03  0.16302220525E+03  0.42119018832E+03  0.47620261159E+03  0.00000000000E+00 0. -1.
         -1    1    6    6    0  502  0.54131311145E+01  0.38262397035E+02  0.14183066755E+03  0.14700085467E+03  0.00000000000E+00 0.  1.
<mgrwt>
<rscale>  0 0.37620819E+03</rscale>
<asrwt>0</asrwt>
<pdfrwt beam="1">  1        1 0.15550241E+00 0.37620819E+03</pdfrwt>
<pdfrwt beam="2">  1       -2 0.31247623E-01 0.37620819E+03</pdfrwt>
<totfact> 0.13014755E+02</totfact>
</mgrwt>
</event>
<event>
12    3  0.2422421E-007  0.9004520E+03  0.7818608E-02  0.9425017E-01
         -2   -1    0    0    0  501 -0.00000000000E+00  0.00000000000E+00  0.33140233895E+03  0.33140233895E+03  0.00000000000E+00 0.  1.
          1   -1    0    0  501    0  0.00000000000E+00 -0.00000000000E+00 -0.27406976749E+04  0.27406976749E+04  0.00000000000E+00 0. -1.
        -24    2    1    2    0    0  0.84829981797E+03 -0.10250498983E+03 -0.11832293216E+04  0.14617170086E+04  0.80406042911E+02 0.  0.
    5000000    2    1    2    0    0 -0.84829981797E+03  0.10250498983E+03 -0.12260660144E+04  0.16103830053E+04  0.59997974784E+03 0.  0.
        -24    2    4    4    0    0 -0.86848816022E+03  0.10202762914E+03 -0.83925547157E+03  0.12148863021E+04  0.83172465355E+02 0.  0.
         24    2    4    4    0    0  0.20188342247E+02  0.47736068505E+00 -0.38681054286E+03  0.39549670314E+03  0.79921518338E+02 0.  0.
         13    1    3    3    0    0  0.61657614976E+03 -0.76905917262E+02 -0.79712453402E+03  0.10106869898E+04  0.00000000000E+00 0. -1.
        -14    1    3    3    0    0  0.23172366822E+03 -0.25599072568E+02 -0.38610478754E+03  0.45103001883E+03  0.00000000000E+00 0.  1.
         13    1    5    5    0    0 -0.61517128137E+03  0.10707552707E+03 -0.61743436189E+03  0.87813783950E+03  0.00000000000E+00 0. -1.
        -14    1    5    5    0    0 -0.25331687885E+03 -0.50478979297E+01 -0.22182110968E+03  0.33674846263E+03  0.00000000000E+00 0.  1.
          2    1    6    6  502    0  0.40445250643E+02  0.15600529374E+02 -0.33558268770E+03  0.33837100216E+03  0.00000000000E+00 0. -1.
         -3    1    6    6    0  502 -0.20256908396E+02 -0.15123168689E+02 -0.51227855160E+02  0.57125700987E+02  0.00000000000E+00 0.  1.
<mgrwt>
<rscale>  0 0.90045202E+03</rscale>
<asrwt>0</asrwt>
<pdfrwt beam="1">  1        1 0.42164579E+00 0.90045202E+03</pdfrwt>
<pdfrwt beam="2">  1       -2 0.50984976E-01 0.90045202E+03</pdfrwt>
<totfact> 0.30361288E+00</totfact>
</mgrwt>
</event>
<event>
12    3  0.2422421E-007  0.9700326E+03  0.7818608E-02  0.9342037E-01
         -2   -1    0    0    0  501 -0.00000000000E+00  0.00000000000E+00  0.50288438504E+03  0.50288438504E+03  0.00000000000E+00 0.  1.
          1   -1    0    0  501    0  0.00000000000E+00 -0.00000000000E+00 -0.20793904453E+04  0.20793904453E+04  0.00000000000E+00 0. -1.
        -24    2    1    2    0    0  0.37095656399E+03  0.85526677681E+03 -0.68354248719E+03  0.11587750091E+04  0.80244364456E+02 0.  0.
    5000000    2    1    2    0    0 -0.37095656399E+03 -0.85526677681E+03 -0.89296357302E+03  0.14234998212E+04  0.59989812996E+03 0.  0.
        -24    2    4    4    0    0 -0.42557295109E+03 -0.56828710622E+03 -0.33217067328E+03  0.78794491794E+03  0.80357113726E+02 0.  0.
         24    2    4    4    0    0  0.54616387105E+02 -0.28697967060E+03 -0.56079289974E+03  0.63555490326E+03  0.64039656295E+02 0.  0.
         11    1    3    3    0    0  0.46293278332E+02  0.95102331645E+02 -0.48269807050E+02  0.11626476412E+03  0.00000000000E+00 0. -1.
        -12    1    3    3    0    0  0.32466328566E+03  0.76016444517E+03 -0.63527268014E+03  0.10425102450E+04  0.00000000000E+00 0.  1.
         13    1    5    5    0    0 -0.12158871640E+03 -0.11547585263E+03 -0.57271977171E+02  0.17719641042E+03  0.00000000000E+00 0. -1.
        -14    1    5    5    0    0 -0.30398423469E+03 -0.45281125359E+03 -0.27489869611E+03  0.61074850752E+03  0.00000000000E+00 0.  1.
          2    1    6    6  502    0  0.54467642001E+02 -0.19005501545E+03 -0.42482871661E+03  0.46857984525E+03  0.00000000000E+00 0. -1.
         -1    1    6    6    0  502  0.14874510362E+00 -0.96924655147E+02 -0.13596418314E+03  0.16697505801E+03  0.00000000000E+00 0.  1.
<mgrwt>
<rscale>  0 0.97003264E+03</rscale>
<asrwt>0</asrwt>
<pdfrwt beam="1">  1        1 0.31990622E+00 0.97003264E+03</pdfrwt>
<pdfrwt beam="2">  1       -2 0.77366830E-01 0.97003264E+03</pdfrwt>
<totfact> 0.34861276E+00</totfact>
</mgrwt>
</event>
<event>
12    3  0.2422421E-007  0.5429579E+03  0.7818608E-02  0.1003137E+00
         -2   -1    0    0    0  501 -0.00000000000E+00  0.00000000000E+00  0.59590845708E+03  0.59590845708E+03  0.00000000000E+00 0.  1.
          1   -1    0    0  501    0  0.00000000000E+00 -0.00000000000E+00 -0.88911800175E+03  0.88911800175E+03  0.00000000000E+00 0. -1.
        -24    2    1    2    0    0  0.21352501423E+03  0.40313354282E+03  0.27653864249E+03  0.54019813664E+03  0.85034234262E+02 0.  0.
    5000000    2    1    2    0    0 -0.21352501423E+03 -0.40313354282E+03 -0.56974818715E+03  0.94482832219E+03  0.59998164688E+03 0.  0.
        -24    2    4    4    0    0 -0.26661392301E+03 -0.78683836292E+02 -0.81961044855E+01  0.28914618449E+03  0.79146761408E+02 0.  0.
         24    2    4    4    0    0  0.53088908782E+02 -0.32444970653E+03 -0.56155208266E+03  0.65568213769E+03  0.80574684881E+02 0.  0.
         11    1    3    3    0    0  0.60140176768E+02  0.66817006101E+02  0.85693037708E+02  0.12419601394E+03  0.00000000000E+00 0. -1.
        -12    1    3    3    0    0  0.15338483746E+03  0.33631653672E+03  0.19084560478E+03  0.41600212271E+03  0.00000000000E+00 0.  1.
         11    1    5    5    0    0 -0.17559372283E+03 -0.13374122202E+02 -0.16124908614E+02  0.17683900961E+03  0.00000000000E+00 0. -1.
        -12    1    5    5    0    0 -0.91020200182E+02 -0.65309714089E+02  0.79288041285E+01  0.11230717488E+03  0.00000000000E+00 0.  1.
          2    1    6    6  502    0  0.74265900071E+02 -0.24348255877E+03 -0.43320461736E+03  0.50245937233E+03  0.00000000000E+00 0. -1.
         -1    1    6    6    0  502 -0.21176991289E+02 -0.80967147755E+02 -0.12834746530E+03  0.15322276536E+03  0.00000000000E+00 0.  1.
<mgrwt>
<rscale>  0 0.54295794E+03</rscale>
<asrwt>0</asrwt>
<pdfrwt beam="1">  1        1 0.13678738E+00 0.54295794E+03</pdfrwt>
<pdfrwt beam="2">  1       -2 0.91678224E-01 0.54295794E+03</pdfrwt>
<totfact> 0.17284850E+01</totfact>
</mgrwt>
</event>
<event>
12    3  0.2422421E-007  0.8219541E+03  0.7818608E-02  0.9528772E-01
         -2   -1    0    0    0  501 -0.00000000000E+00  0.00000000000E+00  0.62181560612E+03  0.62181560612E+03  0.00000000000E+00 0.  1.
          1   -1    0    0  501    0  0.00000000000E+00 -0.00000000000E+00 -0.12248432107E+04  0.12248432107E+04  0.00000000000E+00 0. -1.
        -24    2    1    2    0    0 -0.59347105980E+03  0.45609924986E+03 -0.44553182231E+03  0.87454130565E+03  0.78035030954E+02 0.  0.
    5000000    2    1    2    0    0  0.59347105980E+03 -0.45609924986E+03 -0.15749578231E+03  0.97211751120E+03  0.59997759092E+03 0.  0.
        -24    2    4    4    0    0  0.14744856824E+02 -0.27832793980E+03 -0.21200481433E+03  0.35928666714E+03  0.80355553711E+02 0.  0.
         24    2    4    4    0    0  0.57872620297E+03 -0.17777131006E+03  0.54509032016E+02  0.61283084406E+03  0.77870098088E+02 0.  0.
         11    1    5    5    0    0  0.21774365750E+02 -0.26858461106E+03 -0.21729107911E+03  0.34616069875E+03  0.00000000000E+00 0. -1.
        -12    1    5    5    0    0 -0.70295089257E+01 -0.97433287403E+01  0.52862647854E+01  0.13125968386E+02  0.00000000000E+00 0.  1.
         13    1    3    3    0    0 -0.52076339834E+03  0.36728087255E+03 -0.36573227744E+03  0.73474475511E+03  0.00000000000E+00 0. -1.
        -14    1    3    3    0    0 -0.72707661453E+02  0.88818377309E+02 -0.79799544874E+02  0.13979655054E+03  0.00000000000E+00 0.  1.
          4    1    6    6  502    0  0.26217418340E+03 -0.40193779734E+02  0.22094934989E+02  0.26615602289E+03  0.00000000000E+00 0. -1.
         -3    1    6    6    0  502  0.31655201957E+03 -0.13757753033E+03  0.32414097027E+02  0.34667482117E+03  0.00000000000E+00 0.  1.
<mgrwt>
<rscale>  0 0.82195414E+03</rscale>
<asrwt>0</asrwt>
<pdfrwt beam="1">  1        1 0.18843742E+00 0.82195414E+03</pdfrwt>
<pdfrwt beam="2">  1       -2 0.95663940E-01 0.82195414E+03</pdfrwt>
<totfact> 0.83956907E+00</totfact>
</mgrwt>
</event>
<event>
12    3  0.2422421E-007  0.6047329E+03  0.7818608E-02  0.9895635E-01
          1   -1    0    0  501    0  0.00000000000E+00  0.00000000000E+00  0.22054985500E+04  0.22054985500E+04  0.00000000000E+00 0. -1.
         -2   -1    0    0    0  501 -0.00000000000E+00 -0.00000000000E+00 -0.80076360249E+03  0.80076360249E+03  0.00000000000E+00 0.  1.
        -24    2    1    2    0    0 -0.46184947841E+03 -0.35691030860E+03 -0.59578515226E+03  0.83769095822E+03  0.77950527461E+02 0.  0.
    5000000    2    1    2    0    0  0.46184947841E+03  0.35691030860E+03  0.20005200997E+04  0.21685711942E+04  0.59994203546E+03 0.  0.
        -24    2    4    4    0    0  0.14586569869E+03  0.33762813066E+02  0.69132530143E+02  0.18333539944E+03  0.80098891147E+02 0.  0.
         24    2    4    4    0    0  0.31598377972E+03  0.32314749553E+03  0.19313875696E+04  0.19852357948E+04  0.81444238834E+02 0.  0.
         11    1    5    5    0    0  0.70743921172E+02 -0.19721592339E+02  0.50841614681E+02  0.89322524430E+02  0.00000000000E+00 0. -1.
        -12    1    5    5    0    0  0.75121777518E+02  0.53484405405E+02  0.18290915462E+02  0.94012875009E+02  0.00000000000E+00 0.  1.
         13    1    3    3    0    0 -0.15780073642E+03 -0.99771061631E+02 -0.23692543036E+03  0.30164382424E+03  0.00000000000E+00 0. -1.
        -14    1    3    3    0    0 -0.30404874199E+03 -0.25713924697E+03 -0.35885972190E+03  0.53604713397E+03  0.00000000000E+00 0.  1.
          2    1    6    6  502    0  0.28580804459E+03  0.24976564802E+03  0.15679120903E+04  0.16132009919E+04  0.00000000000E+00 0. -1.
         -1    1    6    6    0  502  0.30175735131E+02  0.73381847508E+02  0.36347547925E+03  0.37203480288E+03  0.00000000000E+00 0.  1.
<mgrwt>
<rscale>  0 0.60473290E+03</rscale>
<asrwt>0</asrwt>
<pdfrwt beam="1">  1        1 0.33930747E+00 0.60473290E+03</pdfrwt>
<pdfrwt beam="2">  1       -2 0.12319440E+00 0.60473290E+03</pdfrwt>
<totfact> 0.10225078E+00</totfact>
</mgrwt>
</event>
<event>
12    3  0.2422421E-007  0.1136683E+04  0.7818608E-02  0.9170158E-01
         -2   -1    0    0    0  501 -0.00000000000E+00  0.00000000000E+00  0.53575023725E+03  0.53575023725E+03  0.00000000000E+00 0.  1.
          1   -1    0    0  501    0  0.00000000000E+00 -0.00000000000E+00 -0.25604650489E+04  0.25604650489E+04  0.00000000000E+00 0. -1.
        -24    2    1    2    0    0  0.65490069487E+03  0.84611635578E+03 -0.65256522022E+03  0.12557009645E+04  0.78330950933E+02 0.  0.
    5000000    2    1    2    0    0 -0.65490069487E+03 -0.84611635578E+03 -0.13721495915E+04  0.18405143217E+04  0.59990887589E+03 0.  0.
        -24    2    4    4    0    0 -0.11881448219E+03  0.66193209276E+02 -0.11615977792E+03  0.19627559419E+03  0.80824456290E+02 0.  0.
         24    2    4    4    0    0 -0.53608621268E+03 -0.91230956506E+03 -0.12559898136E+04  0.16442387275E+04  0.79456978341E+02 0.  0.
         13    1    3    3    0    0  0.55036747239E+03  0.71424491843E+03 -0.51536921574E+03  0.10385834520E+04  0.00000000000E+00 0. -1.
        -14    1    3    3    0    0  0.10453322248E+03  0.13187143736E+03 -0.13719600448E+03  0.21711751251E+03  0.00000000000E+00 0.  1.
         13    1    5    5    0    0 -0.89974101594E+02  0.25878019091E+02 -0.32629518616E+02  0.99144824952E+02  0.00000000000E+00 0. -1.
        -14    1    5    5    0    0 -0.28840380597E+02  0.40315190185E+02 -0.83530259306E+02  0.97130769236E+02  0.00000000000E+00 0.  1.
          2    1    6    6  502    0 -0.86315630455E+02 -0.10367338879E+03 -0.18361046815E+03  0.22784065401E+03  0.00000000000E+00 0. -1.
         -1    1    6    6    0  502 -0.44977058223E+03 -0.80863617627E+03 -0.10723793454E+04  0.14163980735E+04  0.00000000000E+00 0.  1.
<mgrwt>
<rscale>  0 0.11366831E+04</rscale>
<asrwt>0</asrwt>
<pdfrwt beam="1">  1        1 0.39391769E+00 0.11366831E+04</pdfrwt>
<pdfrwt beam="2">  1       -2 0.82423116E-01 0.11366831E+04</pdfrwt>
<totfact> 0.13910415E+00</totfact>
</mgrwt>
</event>
<event>
12    3  0.2422421E-007  0.5558585E+03  0.7818608E-02  0.1000147E+00
         -2   -1    0    0    0  501 -0.00000000000E+00  0.00000000000E+00  0.54767047085E+03  0.54767047085E+03  0.00000000000E+00 0.  1.
          1   -1    0    0  501    0  0.00000000000E+00 -0.00000000000E+00 -0.85350543213E+03  0.85350543213E+03  0.00000000000E+00 0. -1.
        -24    2    1    2    0    0 -0.35456518964E+03 -0.41756128896E+03 -0.89739564919E+02  0.56045318579E+03  0.77334857657E+02 0.  0.
    5000000    2    1    2    0    0  0.35456518964E+03  0.41756128896E+03 -0.21609539636E+03  0.84072271719E+03  0.60003630151E+03 0.  0.
        -24    2    4    4    0    0  0.16725128351E+03  0.23399655490E+03 -0.40730769836E+03  0.50636674414E+03  0.88206229247E+02 0.  0.
         24    2    4    4    0    0  0.18731390613E+03  0.18356473406E+03  0.19121230201E+03  0.33435597305E+03  0.80307292682E+02 0.  0.
         11    1    3    3    0    0 -0.24110210838E+03 -0.24162834312E+03 -0.81535806594E+02  0.35094525302E+03  0.00000000000E+00 0. -1.
        -12    1    3    3    0    0 -0.11346308127E+03 -0.17593294584E+03 -0.82037583244E+01  0.20950793277E+03  0.00000000000E+00 0.  1.
         13    1    5    5    0    0  0.34938251949E+02  0.11507908702E+03 -0.13189246634E+03  0.17849229786E+03  0.00000000000E+00 0. -1.
        -14    1    5    5    0    0  0.13231303156E+03  0.11891746788E+03 -0.27541523203E+03  0.32787444628E+03  0.00000000000E+00 0.  1.
          4    1    6    6  502    0  0.16371853261E+03  0.16809536291E+03  0.13313108716E+03  0.26978453499E+03  0.00000000000E+00 0. -1.
         -3    1    6    6    0  502  0.23595373519E+02  0.15469371146E+02  0.58081214846E+02  0.64571438060E+02  0.00000000000E+00 0.  1.
<mgrwt>
<rscale>  0 0.55585847E+03</rscale>
<asrwt>0</asrwt>
<pdfrwt beam="1">  1        1 0.13130853E+00 0.55585847E+03</pdfrwt>
<pdfrwt beam="2">  1       -2 0.84256995E-01 0.55585847E+03</pdfrwt>
<totfact> 0.22377707E+01</totfact>
</mgrwt>
</event>
<event>
12    3  0.2422421E-007  0.9314235E+03  0.7818608E-02  0.9387131E-01
          3   -1    0    0  501    0  0.00000000000E+00  0.00000000000E+00  0.69877815978E+03  0.69877815978E+03  0.00000000000E+00 0. -1.
         -4   -1    0    0    0  501 -0.00000000000E+00 -0.00000000000E+00 -0.12865817006E+04  0.12865817006E+04  0.00000000000E+00 0.  1.
        -24    2    1    2    0    0  0.67658288857E+03  0.49307499158E+03 -0.42718700411E+03  0.94294615425E+03  0.75969473595E+02 0.  0.
    5000000    2    1    2    0    0 -0.67658288857E+03 -0.49307499158E+03 -0.16061653667E+03  0.10424137061E+04  0.59995109000E+03 0.  0.
        -24    2    4    4    0    0  0.44496386853E+01 -0.30503499136E+03 -0.98642288905E+01  0.31574100224E+03  0.80801808420E+02 0.  0.
         24    2    4    4    0    0 -0.68103252725E+03 -0.18804000022E+03 -0.15075230778E+03  0.72667270386E+03  0.78502327242E+02 0.  0.
         13    1    3    3    0    0  0.53010674277E+03  0.42169709814E+03 -0.35437580880E+03  0.76447617044E+03  0.00000000000E+00 0. -1.
        -14    1    3    3    0    0  0.14647614580E+03  0.71377893438E+02 -0.72811195312E+02  0.17846998381E+03  0.00000000000E+00 0.  1.
         13    1    5    5    0    0 -0.34363636101E+02 -0.20924045036E+03 -0.15621726166E+01  0.21204920640E+03  0.00000000000E+00 0. -1.
        -14    1    5    5    0    0  0.38813274786E+02 -0.95794541001E+02 -0.83020562739E+01  0.10369179584E+03  0.00000000000E+00 0.  1.
          2    1    6    6  502    0 -0.59663289227E+03 -0.17464269992E+03 -0.10749947255E+03  0.63089382417E+03  0.00000000000E+00 0. -1.
         -1    1    6    6    0  502 -0.84399634981E+02 -0.13397300304E+02 -0.43252835235E+02  0.95778879699E+02  0.00000000000E+00 0.  1.
<mgrwt>
<rscale>  0 0.93142345E+03</rscale>
<asrwt>0</asrwt>
<pdfrwt beam="1">  1        3 0.10750433E+00 0.93142345E+03</pdfrwt>
<pdfrwt beam="2">  1       -4 0.19793564E+00 0.93142345E+03</pdfrwt>
<totfact> 0.22342559E-01</totfact>
</mgrwt>
</event>
<event>
12    3  0.2422421E-007  0.5357539E+03  0.7818608E-02  0.1004846E+00
         -2   -1    0    0    0  501 -0.00000000000E+00  0.00000000000E+00  0.21214149679E+03  0.21214149679E+03  0.00000000000E+00 0.  1.
          1   -1    0    0  501    0  0.00000000000E+00 -0.00000000000E+00 -0.13977409797E+04  0.13977409797E+04  0.00000000000E+00 0. -1.
        -24    2    1    2    0    0 -0.18469322112E+03  0.32341319440E+03 -0.45575041690E+03  0.59417238310E+03  0.81392248340E+02 0.  0.
    5000000    2    1    2    0    0  0.18469322112E+03 -0.32341319440E+03 -0.72984906602E+03  0.10157100934E+04  0.60023300012E+03 0.  0.
        -24    2    4    4    0    0  0.36490911042E+03 -0.34408880706E+03 -0.53599779734E+03  0.73869690156E+03  0.82605735947E+02 0.  0.
         24    2    4    4    0    0 -0.18021588930E+03  0.20675612664E+02 -0.19385126868E+03  0.27701319184E+03  0.79074309162E+02 0.  0.
         11    1    3    3    0    0 -0.12933270244E+03  0.27131844515E+03 -0.39780921585E+03  0.49859083307E+03  0.00000000000E+00 0. -1.
        -12    1    3    3    0    0 -0.55360518676E+02  0.52094749245E+02 -0.57941201051E+02  0.95581550030E+02  0.00000000000E+00 0.  1.
         11    1    5    5    0    0  0.77655306041E+02 -0.12377409714E+03 -0.14531711445E+03  0.20607629032E+03  0.00000000000E+00 0. -1.
        -12    1    5    5    0    0  0.28725380438E+03 -0.22031470992E+03 -0.39068068289E+03  0.53262061124E+03  0.00000000000E+00 0.  1.
          2    1    6    6  502    0 -0.16989309847E+03  0.75051491966E+01 -0.13891404521E+03  0.21958393413E+03  0.00000000000E+00 0. -1.
         -1    1    6    6    0  502 -0.10322790831E+02  0.13170463467E+02 -0.54937223468E+02  0.57429257707E+02  0.00000000000E+00 0.  1.
<mgrwt>
<rscale>  0 0.53575390E+03</rscale>
<asrwt>0</asrwt>
<pdfrwt beam="1">  1        1 0.21503708E+00 0.53575390E+03</pdfrwt>
<pdfrwt beam="2">  1       -2 0.32637152E-01 0.53575390E+03</pdfrwt>
<totfact> 0.62098239E+01</totfact>
</mgrwt>
</event>
<event>
12    3  0.2422421E-007  0.4362488E+03  0.7818608E-02  0.1031904E+00
          1   -1    0    0  501    0  0.00000000000E+00  0.00000000000E+00  0.82973839751E+03  0.82973839751E+03  0.00000000000E+00 0. -1.
         -2   -1    0    0    0  501 -0.00000000000E+00 -0.00000000000E+00 -0.25844188921E+04  0.25844188921E+04  0.00000000000E+00 0.  1.
        -24    2    1    2    0    0  0.18524687072E+03  0.21068267169E+03  0.75973066554E+03  0.81399332119E+03  0.81797625378E+02 0.  0.
    5000000    2    1    2    0    0 -0.18524687072E+03 -0.21068267169E+03 -0.25144111601E+04  0.26001639684E+04  0.59990465008E+03 0.  0.
        -24    2    4    4    0    0 -0.35703537018E+03 -0.16791397370E+03 -0.10730141080E+04  0.11461370527E+04  0.81249673417E+02 0.  0.
         24    2    4    4    0    0  0.17178849946E+03 -0.42768697988E+02 -0.14413970522E+04  0.14540269158E+04  0.72307397358E+02 0.  0.
         13    1    5    5    0    0 -0.20575306070E+03 -0.60569129252E+02 -0.50698724283E+03  0.55048978718E+03  0.00000000000E+00 0. -1.
        -14    1    5    5    0    0 -0.15128230948E+03 -0.10734484445E+03 -0.56602686516E+03  0.59564726547E+03  0.00000000000E+00 0.  1.
         13    1    3    3    0    0  0.10989406758E+03  0.10834755503E+03  0.52318374244E+03  0.54546963904E+03  0.00000000000E+00 0. -1.
        -14    1    3    3    0    0  0.75352803141E+02  0.10233511666E+03  0.23654692311E+03  0.26852368215E+03  0.00000000000E+00 0.  1.
          2    1    6    6  502    0  0.15713653694E+03 -0.12686421734E+02 -0.12081074931E+04  0.12183499298E+04  0.00000000000E+00 0. -1.
         -1    1    6    6    0  502  0.14651962524E+02 -0.30082276255E+02 -0.23328955904E+03  0.23567698595E+03  0.00000000000E+00 0.  1.
<mgrwt>
<rscale>  0 0.43624879E+03</rscale>
<asrwt>0</asrwt>
<pdfrwt beam="1">  1        1 0.12765206E+00 0.43624879E+03</pdfrwt>
<pdfrwt beam="2">  1       -2 0.39760290E+00 0.43624879E+03</pdfrwt>
<totfact> 0.16622215E-01</totfact>
</mgrwt>
</event>
<event>
12    3  0.2422421E-007  0.3631460E+03  0.7818608E-02  0.1057345E+00
          1   -1    0    0  501    0  0.00000000000E+00  0.00000000000E+00  0.23264208480E+03  0.23264208480E+03  0.00000000000E+00 0. -1.
         -2   -1    0    0    0  501 -0.00000000000E+00 -0.00000000000E+00 -0.11454223998E+04  0.11454223998E+04  0.00000000000E+00 0.  1.
        -24    2    1    2    0    0  0.20149738680E+03  0.42988464750E+02  0.48476675582E+02  0.22630509774E+03  0.80092472779E+02 0.  0.
    5000000    2    1    2    0    0 -0.20149738680E+03 -0.42988464750E+02 -0.96125699054E+03  0.11517593868E+04  0.60007122768E+03 0.  0.
        -24    2    4    4    0    0  0.43435204460E+02  0.17921816289E+03 -0.97871569578E+02  0.22375389162E+03  0.80505856841E+02 0.  0.
         24    2    4    4    0    0 -0.24493259126E+03 -0.22220662764E+03 -0.86338542096E+03  0.92800549521E+03  0.79950324437E+02 0.  0.
         11    1    3    3    0    0  0.63050856189E+02  0.89595502800E+01 -0.21859663650E+02  0.67331485223E+02  0.00000000000E+00 0. -1.
        -12    1    3    3    0    0  0.13844653061E+03  0.34028914470E+02  0.70336339232E+02  0.15897361251E+03  0.00000000000E+00 0.  1.
         11    1    5    5    0    0  0.39828867664E+02  0.10343164255E+03 -0.15751115394E+02  0.11194883214E+03  0.00000000000E+00 0. -1.
        -12    1    5    5    0    0  0.36063367958E+01  0.75786520338E+02 -0.82120454184E+02  0.11180505948E+03  0.00000000000E+00 0.  1.
          2    1    6    6  502    0 -0.11083120307E+03 -0.72962889345E+02 -0.25611461669E+03  0.28844728405E+03  0.00000000000E+00 0. -1.
         -1    1    6    6    0  502 -0.13410138820E+03 -0.14924373830E+03 -0.60727080427E+03  0.63955821115E+03  0.00000000000E+00 0.  1.
<mgrwt>
<rscale>  0 0.36314600E+03</rscale>
<asrwt>0</asrwt>
<pdfrwt beam="1">  1        1 0.35791090E-01 0.36314600E+03</pdfrwt>
<pdfrwt beam="2">  1       -2 0.17621883E+00 0.36314600E+03</pdfrwt>
<totfact> 0.21772105E+01</totfact>
</mgrwt>
</event>
<event>
12    3  0.2422421E-007  0.4209257E+03  0.7818608E-02  0.1036765E+00
          1   -1    0    0  501    0  0.00000000000E+00  0.00000000000E+00  0.16401864644E+04  0.16401864644E+04  0.00000000000E+00 0. -1.
         -2   -1    0    0    0  501 -0.00000000000E+00 -0.00000000000E+00 -0.46494234464E+03  0.46494234464E+03  0.00000000000E+00 0.  1.
        -24    2    1    2    0    0 -0.20335455863E+03  0.85063325169E+02  0.14060778666E+04  0.14254865349E+04  0.79800052535E+02 0.  0.
    5000000    2    1    2    0    0  0.20335455863E+03 -0.85063325169E+02 -0.23083374691E+03  0.67964227409E+03  0.60003379590E+03 0.  0.
        -24    2    4    4    0    0 -0.84109340974E+02 -0.26039359654E+03 -0.51228314271E+02  0.28967281367E+03  0.80042441471E+02 0.  0.
         24    2    4    4    0    0  0.28746389961E+03  0.17533027137E+03 -0.17960543264E+03  0.38996946043E+03  0.80261267091E+02 0.  0.
         11    1    5    5    0    0 -0.36110644512E+02 -0.33063914955E+02  0.86969041780E+01  0.49727630765E+02  0.00000000000E+00 0. -1.
        -12    1    5    5    0    0 -0.47998696462E+02 -0.22732968159E+03 -0.59925218449E+02  0.23994518290E+03  0.00000000000E+00 0.  1.
         13    1    3    3    0    0 -0.18712322783E+03  0.84379688378E+02  0.13766752577E+04  0.13918943205E+04  0.00000000000E+00 0. -1.
        -14    1    3    3    0    0 -0.16231330809E+02  0.68363679013E+00  0.29402608934E+02  0.33592214444E+02  0.00000000000E+00 0.  1.
          4    1    6    6  502    0  0.22567442485E+03  0.15580401810E+03 -0.17433049312E+03  0.32495377966E+03  0.00000000000E+00 0. -1.
         -3    1    6    6    0  502  0.61789474760E+02  0.19526253269E+02 -0.52749395169E+01  0.65015680761E+02  0.00000000000E+00 0.  1.
<mgrwt>
<rscale>  0 0.42092568E+03</rscale>
<asrwt>0</asrwt>
<pdfrwt beam="1">  1        1 0.25233638E+00 0.42092568E+03</pdfrwt>
<pdfrwt beam="2">  1       -2 0.71529592E-01 0.42092568E+03</pdfrwt>
<totfact> 0.89755041E+00</totfact>
</mgrwt>
</event>
<event>
12    3  0.2422421E-007  0.4656555E+03  0.7818608E-02  0.1023154E+00
         -2   -1    0    0    0  501 -0.00000000000E+00  0.00000000000E+00  0.15086388501E+03  0.15086388501E+03  0.00000000000E+00 0.  1.
          1   -1    0    0  501    0  0.00000000000E+00 -0.00000000000E+00 -0.26556057962E+04  0.26556057962E+04  0.00000000000E+00 0. -1.
        -24    2    1    2    0    0  0.48142438037E+02  0.27907286891E+03 -0.18487983714E+04  0.18733802049E+04  0.10629493608E+03 0.  0.
    5000000    2    1    2    0    0 -0.48142438037E+02 -0.27907286891E+03 -0.65594353970E+03  0.93308947625E+03  0.60016221383E+03 0.  0.
        -24    2    4    4    0    0 -0.29127224963E+03 -0.77804783605E+02 -0.19259620254E+03  0.36660931911E+03  0.80099861864E+02 0.  0.
         24    2    4    4    0    0  0.24312981160E+03 -0.20126808530E+03 -0.46334733716E+03  0.56648015714E+03  0.81166902884E+02 0.  0.
         11    1    5    5    0    0 -0.14047179641E+03 -0.68279469287E+02 -0.12939268856E+03  0.20282228518E+03  0.00000000000E+00 0. -1.
        -12    1    5    5    0    0 -0.15080045322E+03 -0.95253143175E+01 -0.63203513970E+02  0.16378703393E+03  0.00000000000E+00 0.  1.
         13    1    3    3    0    0  0.78454099446E+02  0.17360062715E+03 -0.10597418644E+04  0.10767288621E+04  0.00000000000E+00 0. -1.
        -14    1    3    3    0    0 -0.30311661410E+02  0.10547224176E+03 -0.78905650710E+03  0.79665134280E+03  0.00000000000E+00 0.  1.
          2    1    6    6  502    0  0.19488990546E+03 -0.11882645056E+03 -0.29595756096E+03  0.37375483742E+03  0.00000000000E+00 0. -1.
         -1    1    6    6    0  502  0.48239906133E+02 -0.82441634743E+02 -0.16738977620E+03  0.19272531972E+03  0.00000000000E+00 0.  1.
<mgrwt>
<rscale>  0 0.46565553E+03</rscale>
<asrwt>0</asrwt>
<pdfrwt beam="1">  1        1 0.40855477E+00 0.46565553E+03</pdfrwt>
<pdfrwt beam="2">  1       -2 0.23209827E-01 0.46565553E+03</pdfrwt>
<totfact> 0.16840341E+01</totfact>
</mgrwt>
</event>
<event>
12    3  0.2422421E-007  0.7225403E+03  0.7818608E-02  0.9679443E-01
         -2   -1    0    0    0  501 -0.00000000000E+00  0.00000000000E+00  0.69237490771E+03  0.69237490771E+03  0.00000000000E+00 0.  1.
          1   -1    0    0  501    0  0.00000000000E+00 -0.00000000000E+00 -0.94312947114E+03  0.94312947114E+03  0.00000000000E+00 0. -1.
        -24    2    1    2    0    0  0.65149367252E+03  0.19470553414E+03 -0.25024898566E+03  0.72880655702E+03  0.78614199512E+02 0.  0.
    5000000    2    1    2    0    0 -0.65149367252E+03 -0.19470553414E+03 -0.50557776855E+00  0.90669782184E+03  0.59978865790E+03 0.  0.
        -24    2    4    4    0    0 -0.30138622650E+03  0.79461836036E+02  0.23409024717E+03  0.39796824162E+03  0.80203719431E+02 0.  0.
         24    2    4    4    0    0 -0.35010744603E+03 -0.27416737018E+03 -0.23459582493E+03  0.50872958022E+03  0.77637710415E+02 0.  0.
         11    1    3    3    0    0  0.19400178934E+03  0.90379280600E+02 -0.58228365172E+02  0.22180092682E+03  0.00000000000E+00 0. -1.
        -12    1    3    3    0    0  0.45749188318E+03  0.10432625354E+03 -0.19202062049E+03  0.50700563020E+03  0.00000000000E+00 0.  1.
         11    1    5    5    0    0 -0.20367767773E+03  0.26036126000E+02  0.18456241994E+03  0.27609013585E+03  0.00000000000E+00 0. -1.
        -12    1    5    5    0    0 -0.97708548765E+02  0.53425710036E+02  0.49527827229E+02  0.12187810576E+03  0.00000000000E+00 0.  1.
          2    1    6    6  502    0 -0.17723782375E+03 -0.15140213594E+03 -0.16494185942E+03  0.28555502083E+03  0.00000000000E+00 0. -1.
         -1    1    6    6    0  502 -0.17286962228E+03 -0.12276523424E+03 -0.69653965512E+02  0.22317455939E+03  0.00000000000E+00 0.  1.
<mgrwt>
<rscale>  0 0.72254032E+03</rscale>
<asrwt>0</asrwt>
<pdfrwt beam="1">  1        1 0.14509684E+00 0.72254032E+03</pdfrwt>
<pdfrwt beam="2">  1       -2 0.10651922E+00 0.72254032E+03</pdfrwt>
<totfact> 0.10726985E+01</totfact>
</mgrwt>
</event>
<event>
12    3  0.2422421E-007  0.8681192E+03  0.7818608E-02  0.9466336E-01
          1   -1    0    0  501    0  0.00000000000E+00  0.00000000000E+00  0.19520552221E+04  0.19520552221E+04  0.00000000000E+00 0. -1.
         -2   -1    0    0    0  501 -0.00000000000E+00 -0.00000000000E+00 -0.52682099456E+03  0.52682099456E+03  0.00000000000E+00 0.  1.
        -24    2    1    2    0    0 -0.77807101903E+03  0.19959564202E+03  0.92850177850E+02  0.81137027100E+03  0.66840333305E+02 0.  0.
    5000000    2    1    2    0    0  0.77807101903E+03 -0.19959564202E+03  0.13323840497E+04  0.16675059457E+04  0.60007990471E+03 0.  0.
        -24    2    4    4    0    0  0.26517556456E+03 -0.30777501940E+03  0.87545132368E+03  0.96803502376E+03  0.75054943112E+02 0.  0.
         24    2    4    4    0    0  0.51289545448E+03  0.10817937738E+03  0.45693272605E+03  0.69947092195E+03  0.75548193964E+02 0.  0.
         11    1    5    5    0    0  0.23838869794E+03 -0.26660956056E+03  0.70326598298E+03  0.78898217464E+03  0.00000000000E+00 0. -1.
        -12    1    5    5    0    0  0.26786866622E+02 -0.41165458838E+02  0.17218534070E+03  0.17905284912E+03  0.00000000000E+00 0.  1.
         13    1    3    3    0    0 -0.37723878979E+03  0.91045422636E+02  0.78018860605E+02  0.39583496070E+03  0.00000000000E+00 0. -1.
        -14    1    3    3    0    0 -0.40083222924E+03  0.10855021938E+03  0.14831317245E+02  0.41553531029E+03  0.00000000000E+00 0.  1.
          4    1    6    6  502    0  0.35607203718E+03  0.53566002117E+02  0.34873866782E+03  0.50127364849E+03  0.00000000000E+00 0. -1.
         -3    1    6    6    0  502  0.15682341730E+03  0.54613375260E+02  0.10819405823E+03  0.19819727346E+03  0.00000000000E+00 0.  1.
<mgrwt>
<rscale>  0 0.86811918E+03</rscale>
<asrwt>0</asrwt>
<pdfrwt beam="1">  1        1 0.30031619E+00 0.86811918E+03</pdfrwt>
<pdfrwt beam="2">  1       -2 0.81049384E-01 0.86811918E+03</pdfrwt>
<totfact> 0.38759843E+00</totfact>
</mgrwt>
</event>
<event>
12    3  0.2422421E-007  0.9287110E+03  0.7818608E-02  0.9390386E-01
          1   -1    0    0  501    0  0.00000000000E+00  0.00000000000E+00  0.17155028464E+04  0.17155028464E+04  0.00000000000E+00 0. -1.
         -2   -1    0    0    0  501 -0.00000000000E+00 -0.00000000000E+00 -0.55115662439E+03  0.55115662439E+03  0.00000000000E+00 0.  1.
        -24    2    1    2    0    0 -0.73147571594E+03 -0.47469643282E+03  0.64384696973E+03  0.10869503580E+04  0.80800581326E+02 0.  0.
    5000000    2    1    2    0    0  0.73147571594E+03  0.47469643282E+03  0.52049925227E+03  0.11797091128E+04  0.60033381784E+03 0.  0.
        -24    2    4    4    0    0 -0.35973067828E+02 -0.42565915429E+02  0.16429463903E+03  0.18478404875E+03  0.63612086055E+02 0.  0.
         24    2    4    4    0    0  0.76744878377E+03  0.51726234825E+03  0.35620461323E+03  0.99492506404E+03  0.80350382275E+02 0.  0.
         13    1    3    3    0    0 -0.34867786913E+03 -0.21550444248E+03  0.25396070138E+03  0.48219753109E+03  0.00000000000E+00 0. -1.
        -14    1    3    3    0    0 -0.38279784682E+03 -0.25919199035E+03  0.38988626834E+03  0.60475282689E+03  0.00000000000E+00 0.  1.
         13    1    5    5    0    0 -0.26276539286E+01 -0.72750153382E+01 -0.46336981829E+01  0.90167384453E+01  0.00000000000E+00 0. -1.
        -14    1    5    5    0    0 -0.33345413899E+02 -0.35290900091E+02  0.16892833722E+03  0.17576731031E+03  0.00000000000E+00 0.  1.
          2    1    6    6  502    0  0.37616244414E+03  0.20546702920E+03  0.16858882831E+03  0.46058340993E+03  0.00000000000E+00 0. -1.
         -1    1    6    6    0  502  0.39128633963E+03  0.31179531906E+03  0.18761578492E+03  0.53434165411E+03  0.00000000000E+00 0.  1.
<mgrwt>
<rscale>  0 0.92871101E+03</rscale>
<asrwt>0</asrwt>
<pdfrwt beam="1">  1        1 0.26392351E+00 0.92871101E+03</pdfrwt>
<pdfrwt beam="2">  1       -2 0.84793328E-01 0.92871101E+03</pdfrwt>
<totfact> 0.50070967E+00</totfact>
</mgrwt>
</event>
<event>
12    3  0.2422421E-007  0.5661143E+03  0.7818608E-02  0.9978314E-01
          1   -1    0    0  501    0  0.00000000000E+00  0.00000000000E+00  0.61781456827E+03  0.61781456827E+03  0.00000000000E+00 0. -1.
         -2   -1    0    0    0  501 -0.00000000000E+00 -0.00000000000E+00 -0.61354069226E+03  0.61354069226E+03  0.00000000000E+00 0.  1.
        -24    2    1    2    0    0  0.43920469582E+03 -0.64833575245E+01  0.15541749845E+03  0.47259701275E+03  0.79060349595E+02 0.  0.
    5000000    2    1    2    0    0 -0.43920469582E+03  0.64833575245E+01 -0.15114362244E+03  0.75875824779E+03  0.59993906793E+03 0.  0.
        -24    2    4    4    0    0 -0.38060855364E+03 -0.23176081264E+03 -0.20174640044E+03  0.49559168073E+03  0.79583657483E+02 0.  0.
         24    2    4    4    0    0 -0.58596142180E+02  0.23824417016E+03  0.50602778002E+02  0.26316656706E+03  0.80636272132E+02 0.  0.
         11    1    3    3    0    0  0.24339703693E+03 -0.57922065130E+01  0.12742951257E+03  0.27479801294E+03  0.00000000000E+00 0. -1.
        -12    1    3    3    0    0  0.19580765889E+03 -0.69115101141E+00  0.27987985872E+02  0.19779899981E+03  0.00000000000E+00 0.  1.
         11    1    5    5    0    0 -0.23964497935E+03 -0.15068879239E+03 -0.16906178136E+03  0.32972521013E+03  0.00000000000E+00 0. -1.
        -12    1    5    5    0    0 -0.14096357429E+03 -0.81072020249E+02 -0.32684619078E+02  0.16586647060E+03  0.00000000000E+00 0.  1.
          4    1    6    6  502    0 -0.16627841458E+02  0.13165903278E+03 -0.10896700002E+02  0.13315150804E+03  0.00000000000E+00 0. -1.
         -3    1    6    6    0  502 -0.41968300722E+02  0.10658513738E+03  0.61499478004E+02  0.13001505902E+03  0.00000000000E+00 0.  1.
<mgrwt>
<rscale>  0 0.56611430E+03</rscale>
<asrwt>0</asrwt>
<pdfrwt beam="1">  1        1 0.95048395E-01 0.56611430E+03</pdfrwt>
<pdfrwt beam="2">  1       -2 0.94390876E-01 0.56611430E+03</pdfrwt>
<totfact> 0.28194900E+01</totfact>
</mgrwt>
</event>
<event>
12    3  0.2422421E-007  0.4931883E+03  0.7818608E-02  0.1015572E+00
          1   -1    0    0  501    0  0.00000000000E+00  0.00000000000E+00  0.32241168236E+03  0.32241168236E+03  0.00000000000E+00 0. -1.
         -2   -1    0    0    0  501 -0.00000000000E+00 -0.00000000000E+00 -0.11672462852E+04  0.11672462852E+04  0.00000000000E+00 0.  1.
        -24    2    1    2    0    0  0.14718389005E+03  0.43847281237E+03 -0.33416582887E+03  0.57596408923E+03  0.78398509027E+02 0.  0.
    5000000    2    1    2    0    0 -0.14718389005E+03 -0.43847281237E+03 -0.51066877398E+03  0.91369387833E+03  0.60011032478E+03 0.  0.
        -24    2    4    4    0    0 -0.10639112255E+02 -0.26868839580E+02  0.11962233007E+03  0.14516186103E+03  0.76989212208E+02 0.  0.
         24    2    4    4    0    0 -0.13654477780E+03 -0.41160397279E+03 -0.63029110405E+03  0.76853201730E+03  0.72885382662E+02 0.  0.
         13    1    3    3    0    0 -0.25780905531E+01  0.60136111502E+02 -0.26133180933E+02  0.65619673903E+02  0.00000000000E+00 0. -1.
        -14    1    3    3    0    0  0.14976198060E+03  0.37833670087E+03 -0.30803264794E+03  0.51034441533E+03  0.00000000000E+00 0.  1.
         13    1    5    5    0    0 -0.42333295203E+02 -0.26315416481E+02  0.82046117178E+02  0.96000908180E+02  0.00000000000E+00 0. -1.
        -14    1    5    5    0    0  0.31694182949E+02 -0.55342309867E+00  0.37576212897E+02  0.49160952855E+02  0.00000000000E+00 0.  1.
          2    1    6    6  502    0 -0.12376927386E+03 -0.28787856301E+03 -0.48303840339E+03  0.57577686593E+03  0.00000000000E+00 0. -1.
         -1    1    6    6    0  502 -0.12775503933E+02 -0.12372540978E+03 -0.14725270066E+03  0.19275515137E+03  0.00000000000E+00 0.  1.
<mgrwt>
<rscale>  0 0.49318828E+03</rscale>
<asrwt>0</asrwt>
<pdfrwt beam="1">  1        1 0.49601796E-01 0.49318828E+03</pdfrwt>
<pdfrwt beam="2">  1       -2 0.17957635E+00 0.49318828E+03</pdfrwt>
<totfact> 0.13355223E+01</totfact>
</mgrwt>
</event>
<event>
12    3  0.2422421E-007  0.8829376E+03  0.7818608E-02  0.9447165E-01
         -2   -1    0    0    0  501 -0.00000000000E+00  0.00000000000E+00  0.58629535254E+03  0.58629535254E+03  0.00000000000E+00 0.  1.
          1   -1    0    0  501    0  0.00000000000E+00 -0.00000000000E+00 -0.17569415317E+04  0.17569415317E+04  0.00000000000E+00 0. -1.
        -24    2    1    2    0    0 -0.46710485879E+02  0.86979938464E+03 -0.17800870696E+03  0.89265039680E+03  0.80029945257E+02 0.  0.
    5000000    2    1    2    0    0  0.46710485879E+02 -0.86979938464E+03 -0.99263747217E+03  0.14505864874E+04  0.60011596154E+03 0.  0.
        -24    2    4    4    0    0 -0.20896309541E+02 -0.15373734972E+03 -0.60534809726E+03  0.62993660356E+03  0.79384993541E+02 0.  0.
         24    2    4    4    0    0  0.67606795420E+02 -0.71606203492E+03 -0.38728937491E+03  0.82064988384E+03  0.78470728962E+02 0.  0.
         13    1    5    5    0    0 -0.45248593030E+02 -0.48903354686E+02 -0.23715496902E+03  0.24633605623E+03  0.00000000000E+00 0. -1.
        -14    1    5    5    0    0  0.24352283490E+02 -0.10483399504E+03 -0.36819312824E+03  0.38360054733E+03  0.00000000000E+00 0.  1.
         13    1    3    3    0    0 -0.54092049584E+02  0.59641214246E+03 -0.91515767722E+02  0.60581228878E+03  0.00000000000E+00 0. -1.
        -14    1    3    3    0    0  0.73815637047E+01  0.27338724218E+03 -0.86492939242E+02  0.28683810801E+03  0.00000000000E+00 0.  1.
          4    1    6    6  502    0  0.27343643849E+02 -0.32494598380E+03 -0.13164320980E+03  0.35166390479E+03  0.00000000000E+00 0. -1.
         -3    1    6    6    0  502  0.40263151572E+02 -0.39111605112E+03 -0.25564616511E+03  0.46898597905E+03  0.00000000000E+00 0.  1.
<mgrwt>
<rscale>  0 0.88293764E+03</rscale>
<asrwt>0</asrwt>
<pdfrwt beam="1">  1        1 0.27029870E+00 0.88293764E+03</pdfrwt>
<pdfrwt beam="2">  1       -2 0.90199285E-01 0.88293764E+03</pdfrwt>
<totfact> 0.40967129E+00</totfact>
</mgrwt>
</event>
<event>
12    3  0.2422421E-007  0.9219946E+03  0.7818608E-02  0.9398497E-01
         -2   -1    0    0    0  501 -0.00000000000E+00  0.00000000000E+00  0.33406921901E+03  0.33406921901E+03  0.00000000000E+00 0.  1.
          1   -1    0    0  501    0  0.00000000000E+00 -0.00000000000E+00 -0.32384600192E+04  0.32384600192E+04  0.00000000000E+00 0. -1.
        -24    2    1    2    0    0 -0.90989606689E+03  0.11979267955E+03 -0.17666049605E+04  0.19923730507E+04  0.79975921005E+02 0.  0.
    5000000    2    1    2    0    0  0.90989606689E+03 -0.11979267955E+03 -0.11377858397E+04  0.15801561875E+04  0.60006318118E+03 0.  0.
        -24    2    4    4    0    0  0.86378699047E+03 -0.11222484516E+03 -0.11882473255E+04  0.14753167196E+04  0.76846182891E+02 0.  0.
         24    2    4    4    0    0  0.46109076423E+02 -0.75678343921E+01  0.50461485846E+02  0.10483946791E+03  0.79130483575E+02 0.  0.
         11    1    5    5    0    0  0.31843207566E+03 -0.78878638370E+02 -0.44642887755E+03  0.55400322121E+03  0.00000000000E+00 0. -1.
        -12    1    5    5    0    0  0.54535491481E+03 -0.33346206793E+02 -0.74181844797E+03  0.92131349841E+03  0.00000000000E+00 0.  1.
         13    1    3    3    0    0 -0.73536589824E+03  0.75607450117E+02 -0.14697975844E+04  0.16452308136E+04  0.00000000000E+00 0. -1.
        -14    1    3    3    0    0 -0.17453016866E+03  0.44185229438E+02 -0.29680737610E+03  0.34714223710E+03  0.00000000000E+00 0.  1.
          4    1    6    6  502    0  0.28693407647E+01  0.45463541946E+01 -0.20318016999E+02  0.21017237394E+02  0.00000000000E+00 0. -1.
         -3    1    6    6    0  502  0.43239735659E+02 -0.12114188587E+02  0.70779502845E+02  0.83822230512E+02  0.00000000000E+00 0.  1.
<mgrwt>
<rscale>  0 0.92199464E+03</rscale>
<asrwt>0</asrwt>
<pdfrwt beam="1">  1        1 0.49822462E+00 0.92199464E+03</pdfrwt>
<pdfrwt beam="2">  1       -2 0.51395265E-01 0.92199464E+03</pdfrwt>
<totfact> 0.13039417E+00</totfact>
</mgrwt>
</event>
<event>
12    3  0.2422421E-007  0.2985033E+03  0.7818608E-02  0.1085991E+00
         -2   -1    0    0    0  501 -0.00000000000E+00  0.00000000000E+00  0.85819847697E+03  0.85819847697E+03  0.00000000000E+00 0.  1.
          1   -1    0    0  501    0  0.00000000000E+00 -0.00000000000E+00 -0.58458222727E+03  0.58458222727E+03  0.00000000000E+00 0. -1.
        -24    2    1    2    0    0 -0.27815704572E+03  0.50929240568E+02  0.62614783678E+03  0.69163361681E+03  0.79566429889E+02 0.  0.
    5000000    2    1    2    0    0  0.27815704572E+03 -0.50929240568E+02 -0.35253158707E+03  0.75114708743E+03  0.59998191426E+03 0.  0.
        -24    2    4    4    0    0  0.18731910086E+03 -0.39626442604E+02 -0.51073488705E+03  0.55118411298E+03  0.79341672830E+02 0.  0.
         24    2    4    4    0    0  0.90837944861E+02 -0.11302797965E+02  0.15820329998E+03  0.19996297445E+03  0.81102537322E+02 0.  0.
         13    1    3    3    0    0 -0.22405829299E+03  0.16137007017E+02  0.42895600473E+03  0.48421666188E+03  0.00000000000E+00 0. -1.
        -14    1    3    3    0    0 -0.54098752735E+02  0.34792233551E+02  0.19719183205E+03  0.20741695493E+03  0.00000000000E+00 0.  1.
         13    1    5    5    0    0  0.22766752371E+02 -0.35986017775E+02 -0.99005207763E+02  0.10777453156E+03  0.00000000000E+00 0. -1.
        -14    1    5    5    0    0  0.16455234849E+03 -0.36404248286E+01 -0.41172967929E+03  0.44340958142E+03  0.00000000000E+00 0.  1.
          2    1    6    6  502    0  0.68101960326E+02 -0.26982925344E+02  0.50996629884E+02  0.89255876668E+02  0.00000000000E+00 0. -1.
         -1    1    6    6    0  502  0.22735984535E+02  0.15680127379E+02  0.10720667009E+03  0.11070709778E+03  0.00000000000E+00 0.  1.
<mgrwt>
<rscale>  0 0.29850328E+03</rscale>
<asrwt>0</asrwt>
<pdfrwt beam="1">  1        1 0.89935727E-01 0.29850328E+03</pdfrwt>
<pdfrwt beam="2">  1       -2 0.13203054E+00 0.29850328E+03</pdfrwt>
<totfact> 0.14182041E+01</totfact>
</mgrwt>
</event>
<event>
12    3  0.2422421E-007  0.1424384E+04  0.7818608E-02  0.8936355E-01
          1   -1    0    0  501    0  0.00000000000E+00  0.00000000000E+00  0.27455581248E+04  0.27455581248E+04  0.00000000000E+00 0. -1.
         -2   -1    0    0    0  501 -0.00000000000E+00 -0.00000000000E+00 -0.92238611594E+03  0.92238611594E+03  0.00000000000E+00 0.  1.
        -24    2    1    2    0    0 -0.11113808439E+04 -0.87035941759E+03  0.18809472608E+03  0.14260405002E+04  0.74289880204E+02 0.  0.
    5000000    2    1    2    0    0  0.11113808439E+04  0.87035941759E+03  0.16350772828E+04  0.22419037406E+04  0.59996813675E+03 0.  0.
        -24    2    4    4    0    0  0.10180074268E+04  0.77192415006E+03  0.16450837812E+04  0.20846824984E+04  0.85991033099E+02 0.  0.
         24    2    4    4    0    0  0.93373417108E+02  0.98435267528E+02 -0.10006498340E+02  0.15722124212E+03  0.78805406211E+02 0.  0.
         13    1    5    5    0    0  0.61031254907E+03  0.51480739138E+03  0.10324530708E+04  0.13051694913E+04  0.00000000000E+00 0. -1.
        -14    1    5    5    0    0  0.40769487773E+03  0.25711675868E+03  0.61263071041E+03  0.77951300711E+03  0.00000000000E+00 0.  1.
         13    1    3    3    0    0 -0.51473835192E+03 -0.40803561505E+03  0.50362370816E+02  0.65877538091E+03  0.00000000000E+00 0. -1.
        -14    1    3    3    0    0 -0.59664249199E+03 -0.46232380254E+03  0.13773235526E+03  0.76726511932E+03  0.00000000000E+00 0.  1.
          2    1    6    6  502    0  0.59604460971E+01  0.61489614337E+02 -0.80590655467E+01  0.62301269060E+02  0.00000000000E+00 0. -1.
         -1    1    6    6    0  502  0.87412971011E+02  0.36945653191E+02 -0.19474327936E+01  0.94919973057E+02  0.00000000000E+00 0.  1.
<mgrwt>
<rscale>  0 0.14243841E+04</rscale>
<asrwt>0</asrwt>
<pdfrwt beam="1">  1        1 0.42239355E+00 0.14243841E+04</pdfrwt>
<pdfrwt beam="2">  1       -2 0.14190556E+00 0.14243841E+04</pdfrwt>
<totfact> 0.26521058E-01</totfact>
</mgrwt>
</event>
<event>
12    3  0.2422421E-007  0.7042063E+03  0.7818608E-02  0.9710066E-01
         -2   -1    0    0    0  501 -0.00000000000E+00  0.00000000000E+00  0.55943734248E+03  0.55943734248E+03  0.00000000000E+00 0.  1.
          1   -1    0    0  501    0  0.00000000000E+00 -0.00000000000E+00 -0.10220341684E+04  0.10220341684E+04  0.00000000000E+00 0. -1.
        -24    2    1    2    0    0 -0.62961055104E+03 -0.63836204689E+02 -0.15030938274E+03  0.65539765610E+03  0.80428042818E+02 0.  0.
    5000000    2    1    2    0    0  0.62961055104E+03  0.63836204689E+02 -0.31228744320E+03  0.92607385481E+03  0.59967060155E+03 0.  0.
        -24    2    4    4    0    0  0.32750905195E+03 -0.18367283395E+03  0.51759193439E+02  0.38647116589E+03  0.75386065811E+02 0.  0.
         24    2    4    4    0    0  0.30210149909E+03  0.24750903864E+03 -0.36404663664E+03  0.53960268892E+03  0.78198901986E+02 0.  0.
         13    1    3    3    0    0 -0.15426186631E+03 -0.26788660864E+02 -0.38426809612E+01  0.15661775744E+03  0.00000000000E+00 0. -1.
        -14    1    3    3    0    0 -0.47534868473E+03 -0.37047543825E+02 -0.14646670178E+03  0.49877989866E+03  0.00000000000E+00 0.  1.
         13    1    5    5    0    0  0.20079599904E+03 -0.15055269779E+03  0.47551836897E+02  0.25543360240E+03  0.00000000000E+00 0. -1.
        -14    1    5    5    0    0  0.12671305290E+03 -0.33120136164E+02  0.42073565428E+01  0.13103756349E+03  0.00000000000E+00 0.  1.
          4    1    6    6  502    0  0.19343659922E+03  0.18546562868E+03 -0.20595519662E+03  0.33798337290E+03  0.00000000000E+00 0. -1.
         -3    1    6    6    0  502  0.10866489988E+03  0.62043409959E+02 -0.15809144002E+03  0.20161931602E+03  0.00000000000E+00 0.  1.
<mgrwt>
<rscale>  0 0.70420628E+03</rscale>
<asrwt>0</asrwt>
<pdfrwt beam="1">  1        1 0.15723603E+00 0.70420628E+03</pdfrwt>
<pdfrwt beam="2">  1       -2 0.86067284E-01 0.70420628E+03</pdfrwt>
<totfact> 0.15372402E+01</totfact>
</mgrwt>
</event>
<event>
12    3  0.2422421E-007  0.3932668E+03  0.7818608E-02  0.1046136E+00
         -4   -1    0    0    0  501 -0.00000000000E+00  0.00000000000E+00  0.24149112485E+03  0.24149112485E+03  0.00000000000E+00 0.  1.
          1   -1    0    0  501    0  0.00000000000E+00 -0.00000000000E+00 -0.94576667908E+03  0.94576667908E+03  0.00000000000E+00 0. -1.
        -24    2    1    2    0    0  0.28976562826E+02  0.27367845735E+03 -0.14121511216E+03  0.31960722120E+03  0.80420947053E+02 0.  0.
    5000000    2    1    2    0    0 -0.28976562826E+02 -0.27367845735E+03 -0.56306044207E+03  0.86765058274E+03  0.60003410994E+03 0.  0.
        -24    2    4    4    0    0  0.19412730650E+03 -0.11327724367E+03 -0.28455619927E+01  0.23861698999E+03  0.80080120041E+02 0.  0.
         24    2    4    4    0    0 -0.22310386932E+03 -0.16040121368E+03 -0.56021488008E+03  0.62903359275E+03  0.79615721389E+02 0.  0.
         11    1    3    3    0    0  0.30794423228E+02  0.23343120246E+03 -0.84748495927E+02  0.25024134419E+03  0.00000000000E+00 0. -1.
        -12    1    3    3    0    0 -0.18178604015E+01  0.40247254897E+02 -0.56466616235E+02  0.69365877002E+02  0.00000000000E+00 0.  1.
         13    1    5    5    0    0  0.91364290175E+02 -0.38913280262E+02  0.36509878757E+02  0.10580476429E+03  0.00000000000E+00 0. -1.
        -14    1    5    5    0    0  0.10276301632E+03 -0.74363963411E+02 -0.39355440750E+02  0.13281222570E+03  0.00000000000E+00 0.  1.
          2    1    6    6  502    0 -0.16279228613E+03 -0.72910377225E+02 -0.31982363453E+03  0.36620268805E+03  0.00000000000E+00 0. -1.
         -1    1    6    6    0  502 -0.60311583197E+02 -0.87490836457E+02 -0.24039124555E+03  0.26283090470E+03  0.00000000000E+00 0.  1.
<mgrwt>
<rscale>  0 0.39326679E+03</rscale>
<asrwt>0</asrwt>
<pdfrwt beam="1">  1        1 0.14550257E+00 0.39326679E+03</pdfrwt>
<pdfrwt beam="2">  1       -4 0.37152481E-01 0.39326679E+03</pdfrwt>
<totfact> 0.58497024E+01</totfact>
</mgrwt>
</event>
<event>
12    3  0.2422421E-007  0.8194121E+03  0.7818608E-02  0.9532336E-01
         -2   -1    0    0    0  501 -0.00000000000E+00  0.00000000000E+00  0.32310400409E+03  0.32310400409E+03  0.00000000000E+00 0.  1.
          1   -1    0    0  501    0  0.00000000000E+00 -0.00000000000E+00 -0.24638469432E+04  0.24638469432E+04  0.00000000000E+00 0. -1.
        -24    2    1    2    0    0  0.48024458938E+03  0.53724340836E+03 -0.44927212896E+03  0.85299673469E+03  0.80576907843E+02 0.  0.
    5000000    2    1    2    0    0 -0.48024458938E+03 -0.53724340836E+03 -0.16914708102E+04  0.19339542126E+04  0.59986669302E+03 0.  0.
        -24    2    4    4    0    0 -0.33667542599E+03  0.16566035462E+02 -0.48034811122E+03  0.59212252259E+03  0.79056927663E+02 0.  0.
         24    2    4    4    0    0 -0.14356916339E+03 -0.55380944382E+03 -0.12111226990E+04  0.13418316900E+04  0.79856669790E+02 0.  0.
         11    1    5    5    0    0 -0.18506258531E+03 -0.65962048080E+01 -0.32348854459E+03  0.37274187969E+03  0.00000000000E+00 0. -1.
        -12    1    5    5    0    0 -0.15161284068E+03  0.23162240270E+02 -0.15685956663E+03  0.21938064289E+03  0.00000000000E+00 0.  1.
         11    1    3    3    0    0  0.22356942262E+03  0.19075953108E+03 -0.18206881329E+03  0.34571887163E+03  0.00000000000E+00 0. -1.
        -12    1    3    3    0    0  0.25667516676E+03  0.34648387728E+03 -0.26720331568E+03  0.50727786306E+03  0.00000000000E+00 0.  1.
          4    1    6    6  502    0 -0.51137377598E+02 -0.31469188140E+03 -0.73251973319E+03  0.79889371704E+03  0.00000000000E+00 0. -1.
         -3    1    6    6    0  502 -0.92431785792E+02 -0.23911756242E+03 -0.47860296576E+03  0.54293797299E+03  0.00000000000E+00 0.  1.
<mgrwt>
<rscale>  0 0.81941210E+03</rscale>
<asrwt>0</asrwt>
<pdfrwt beam="1">  1        1 0.37905339E+00 0.81941210E+03</pdfrwt>
<pdfrwt beam="2">  1       -2 0.49708307E-01 0.81941210E+03</pdfrwt>
<totfact> 0.50279400E+00</totfact>
</mgrwt>
</event>
<event>
12    3  0.2422421E-007  0.9809460E+03  0.7818608E-02  0.9329693E-01
          1   -1    0    0  501    0  0.00000000000E+00  0.00000000000E+00  0.90420828270E+03  0.90420828270E+03  0.00000000000E+00 0. -1.
         -2   -1    0    0    0  501 -0.00000000000E+00 -0.00000000000E+00 -0.14844297809E+04  0.14844297809E+04  0.00000000000E+00 0.  1.
        -24    2    1    2    0    0 -0.81268198366E+02 -0.91303773626E+03 -0.85828851240E+03  0.12583508372E+04  0.80902603038E+02 0.  0.
    5000000    2    1    2    0    0  0.81268198366E+02  0.91303773626E+03  0.27806701415E+03  0.11302872264E+04  0.59998793481E+03 0.  0.
        -24    2    4    4    0    0  0.16073825656E+02 -0.48189480004E+02  0.11639418151E+03  0.15019244948E+03  0.80184615342E+02 0.  0.
         24    2    4    4    0    0  0.65194372710E+02  0.96122721626E+03  0.16167283264E+03  0.98009477692E+03  0.78991135111E+02 0.  0.
         13    1    5    5    0    0 -0.95355130155E+01 -0.51753367197E+02  0.11229402283E+03  0.12401324360E+03  0.00000000000E+00 0. -1.
        -14    1    5    5    0    0  0.25609338672E+02  0.35638871930E+01  0.41001586720E+01  0.26179205876E+02  0.00000000000E+00 0.  1.
         13    1    3    3    0    0 -0.81654266132E+02 -0.47734852064E+03 -0.46612755572E+03  0.67216361664E+03  0.00000000000E+00 0. -1.
        -14    1    3    3    0    0  0.38606776606E+00 -0.43568921561E+03 -0.39216095668E+03  0.58618722060E+03  0.00000000000E+00 0.  1.
          4    1    6    6  502    0  0.30998675990E+02  0.47861899303E+03  0.12050306421E+03  0.49452810526E+03  0.00000000000E+00 0. -1.
         -3    1    6    6    0  502  0.34195696720E+02  0.48260822322E+03  0.41169768433E+02  0.48556667166E+03  0.00000000000E+00 0.  1.
<mgrwt>
<rscale>  0 0.98094598E+03</rscale>
<asrwt>0</asrwt>
<pdfrwt beam="1">  1        1 0.13910897E+00 0.98094598E+03</pdfrwt>
<pdfrwt beam="2">  1       -2 0.22837381E+00 0.98094598E+03</pdfrwt>
<totfact> 0.13870376E+00</totfact>
</mgrwt>
</event>
<event>
12    3  0.2422421E-007  0.5539212E+03  0.7818608E-02  0.1000590E+00
          1   -1    0    0  501    0  0.00000000000E+00  0.00000000000E+00  0.72579921050E+03  0.72579921050E+03  0.00000000000E+00 0. -1.
         -2   -1    0    0    0  501 -0.00000000000E+00 -0.00000000000E+00 -0.72984257502E+03  0.72984257502E+03  0.00000000000E+00 0.  1.
        -24    2    1    2    0    0 -0.34397932248E+02  0.43896710853E+03 -0.41149525079E+03  0.60719863407E+03  0.74070909865E+02 0.  0.
    5000000    2    1    2    0    0  0.34397932248E+02 -0.43896710853E+03  0.40745188626E+03  0.84844315145E+03  0.59996950048E+03 0.  0.
        -24    2    4    4    0    0 -0.17153730153E+03 -0.40932106760E+03  0.43198054394E+03  0.62423084760E+03  0.78026781007E+02 0.  0.
         24    2    4    4    0    0  0.20593523378E+03 -0.29646040924E+02 -0.24528657681E+02  0.22421230384E+03  0.79883001283E+02 0.  0.
         13    1    3    3    0    0 -0.14726092939E+02  0.24447165602E+03 -0.17851927432E+03  0.30307157523E+03  0.00000000000E+00 0. -1.
        -14    1    3    3    0    0 -0.19671839310E+02  0.19449545251E+03 -0.23297597647E+03  0.30412705884E+03  0.00000000000E+00 0.  1.
         13    1    5    5    0    0 -0.12140710982E+03 -0.25102589704E+03  0.31741240186E+03  0.42249771616E+03  0.00000000000E+00 0. -1.
        -14    1    5    5    0    0 -0.50130191709E+02 -0.15829517056E+03  0.11456814208E+03  0.20173313145E+03  0.00000000000E+00 0.  1.
          4    1    6    6  502    0  0.72806484367E+02  0.27299741475E+02 -0.29120537540E+01  0.77810925374E+02  0.00000000000E+00 0. -1.
         -3    1    6    6    0  502  0.13312874941E+03 -0.56945782399E+02 -0.21616603927E+02  0.14640137847E+03  0.00000000000E+00 0.  1.
<mgrwt>
<rscale>  0 0.55392125E+03</rscale>
<asrwt>0</asrwt>
<pdfrwt beam="1">  1        1 0.11166142E+00 0.55392125E+03</pdfrwt>
<pdfrwt beam="2">  1       -2 0.11228347E+00 0.55392125E+03</pdfrwt>
<totfact> 0.14737661E+01</totfact>
</mgrwt>
</event>
<event>
12    3  0.2422421E-007  0.5381958E+03  0.7818608E-02  0.1004264E+00
          1   -1    0    0  501    0  0.00000000000E+00  0.00000000000E+00  0.14558657185E+04  0.14558657185E+04  0.00000000000E+00 0. -1.
         -2   -1    0    0    0  501 -0.00000000000E+00 -0.00000000000E+00 -0.99108446250E+03  0.99108446250E+03  0.00000000000E+00 0.  1.
        -24    2    1    2    0    0  0.42069446299E+03 -0.54289419096E+02  0.12792004649E+04  0.13500536609E+04  0.79748891370E+02 0.  0.
    5000000    2    1    2    0    0 -0.42069446299E+03  0.54289419096E+02 -0.81441920894E+03  0.10968965201E+04  0.59997679591E+03 0.  0.
        -24    2    4    4    0    0 -0.51913187614E+03  0.34879489421E+02 -0.39321394821E+03  0.65699621416E+03  0.79450190299E+02 0.  0.
         24    2    4    4    0    0  0.98437413151E+02  0.19409929675E+02 -0.42120526073E+03  0.43990030591E+03  0.77664263343E+02 0.  0.
         11    1    3    3    0    0  0.54605288176E+02  0.16262334900E+02  0.13138619229E+03  0.14320800452E+03  0.00000000000E+00 0. -1.
        -12    1    3    3    0    0  0.36608917482E+03 -0.70551753996E+02  0.11478142726E+04  0.12068456564E+04  0.00000000000E+00 0.  1.
         13    1    5    5    0    0 -0.43639428853E+03  0.38942397037E+02 -0.29344419557E+03  0.52731961965E+03  0.00000000000E+00 0. -1.
        -14    1    5    5    0    0 -0.82737587611E+02 -0.40629076169E+01 -0.99769752637E+02  0.12967659451E+03  0.00000000000E+00 0.  1.
          2    1    6    6  502    0  0.87732518331E+02 -0.15517114999E+02 -0.26890592223E+03  0.28328108063E+03  0.00000000000E+00 0. -1.
         -1    1    6    6    0  502  0.10704894820E+02  0.34927044674E+02 -0.15229933850E+03  0.15661922529E+03  0.00000000000E+00 0.  1.
<mgrwt>
<rscale>  0 0.53819575E+03</rscale>
<asrwt>0</asrwt>
<pdfrwt beam="1">  1        1 0.22397934E+00 0.53819575E+03</pdfrwt>
<pdfrwt beam="2">  1       -2 0.15247453E+00 0.53819575E+03</pdfrwt>
<totfact> 0.19071059E+00</totfact>
</mgrwt>
</event>
<event>
12    3  0.2422421E-007  0.1772078E+04  0.7818608E-02  0.8721291E-01
          1   -1    0    0  501    0  0.00000000000E+00  0.00000000000E+00  0.20718717765E+04  0.20718717765E+04  0.00000000000E+00 0. -1.
         -2   -1    0    0    0  501 -0.00000000000E+00 -0.00000000000E+00 -0.22955644702E+04  0.22955644702E+04  0.00000000000E+00 0.  1.
        -24    2    1    2    0    0 -0.16005217977E+04 -0.72427417881E+03  0.11118376663E+04  0.20804875156E+04  0.77473838597E+02 0.  0.
    5000000    2    1    2    0    0  0.16005217977E+04  0.72427417881E+03 -0.13355303600E+04  0.22869487311E+04  0.60020833499E+03 0.  0.
        -24    2    4    4    0    0  0.63375355834E+03  0.12208773341E+03 -0.20853023872E+03  0.68273164792E+03  0.78029835648E+02 0.  0.
         24    2    4    4    0    0  0.96676823934E+03  0.60218644541E+03 -0.11270001213E+04  0.16042170832E+04  0.78191003916E+02 0.  0.
         11    1    3    3    0    0 -0.32521690124E+03 -0.11855067211E+03  0.23850790088E+03  0.42036450075E+03  0.00000000000E+00 0. -1.
        -12    1    3    3    0    0 -0.12753048964E+04 -0.60572350671E+03  0.87332976539E+03  0.16601230149E+04  0.00000000000E+00 0.  1.
         13    1    5    5    0    0  0.23487183013E+03  0.59669885665E+02 -0.41745077425E+02  0.24590226378E+03  0.00000000000E+00 0. -1.
        -14    1    5    5    0    0  0.39888172821E+03  0.62417847745E+02 -0.16678516130E+03  0.43682938414E+03  0.00000000000E+00 0.  1.
          2    1    6    6  502    0  0.65351574809E+03  0.43456677004E+03 -0.81412875176E+03  0.11308124226E+04  0.00000000000E+00 0. -1.
         -1    1    6    6    0  502  0.31325249125E+03  0.16761967536E+03 -0.31287136949E+03  0.47340466061E+03  0.00000000000E+00 0.  1.
<mgrwt>
<rscale>  0 0.17720779E+04</rscale>
<asrwt>0</asrwt>
<pdfrwt beam="1">  1        1 0.31874951E+00 0.17720779E+04</pdfrwt>
<pdfrwt beam="2">  1       -2 0.35316376E+00 0.17720779E+04</pdfrwt>
<totfact> 0.31573650E-02</totfact>
</mgrwt>
</event>
<event>
12    3  0.2422421E-007  0.4065429E+03  0.7818608E-02  0.1041537E+00
         -2   -1    0    0    0  501 -0.00000000000E+00  0.00000000000E+00  0.67061028089E+03  0.67061028089E+03  0.00000000000E+00 0.  1.
          1   -1    0    0  501    0  0.00000000000E+00 -0.00000000000E+00 -0.59123018416E+03  0.59123018416E+03  0.00000000000E+00 0. -1.
        -24    2    1    2    0    0 -0.89989169775E+02  0.34744992383E+03 -0.29253901069E+03  0.46989202702E+03  0.79999650230E+02 0.  0.
    5000000    2    1    2    0    0  0.89989169775E+02 -0.34744992383E+03  0.37191910743E+03  0.79194843803E+03  0.60003250394E+03 0.  0.
        -24    2    4    4    0    0 -0.62150569375E+02  0.82413098459E+00  0.39133659280E+03  0.40140105781E+03  0.64149106655E+02 0.  0.
         24    2    4    4    0    0  0.15213973915E+03 -0.34827405481E+03 -0.19417485369E+02  0.39054738022E+03  0.87800341532E+02 0.  0.
         11    1    3    3    0    0 -0.40230500459E+02  0.42132467156E+02 -0.50837178829E+02  0.77317893835E+02  0.00000000000E+00 0. -1.
        -12    1    3    3    0    0 -0.49758669315E+02  0.30531745667E+03 -0.24170183186E+03  0.39257413319E+03  0.00000000000E+00 0.  1.
         11    1    5    5    0    0 -0.37878899007E+02  0.10317034552E+02  0.35219719061E+03  0.35437848872E+03  0.00000000000E+00 0. -1.
        -12    1    5    5    0    0 -0.24271670368E+02 -0.94929035672E+01  0.39139402183E+02  0.47022569090E+02  0.00000000000E+00 0.  1.
          4    1    6    6  502    0  0.38907538117E+02 -0.99335020014E+02 -0.45179244016E+02  0.11585511130E+03  0.00000000000E+00 0. -1.
         -3    1    6    6    0  502  0.11323220103E+03 -0.24893903480E+03  0.25761758647E+02  0.27469226892E+03  0.00000000000E+00 0.  1.
<mgrwt>
<rscale>  0 0.40654290E+03</rscale>
<asrwt>0</asrwt>
<pdfrwt beam="1">  1        1 0.90958489E-01 0.40654290E+03</pdfrwt>
<pdfrwt beam="2">  1       -2 0.10317081E+00 0.40654290E+03</pdfrwt>
<totfact> 0.24881985E+01</totfact>
</mgrwt>
</event>
<event>
12    3  0.2422421E-007  0.5105586E+03  0.7818608E-02  0.1011059E+00
         -2   -1    0    0    0  501 -0.00000000000E+00  0.00000000000E+00  0.30016345759E+03  0.30016345759E+03  0.00000000000E+00 0.  1.
          1   -1    0    0  501    0  0.00000000000E+00 -0.00000000000E+00 -0.10822164623E+04  0.10822164623E+04  0.00000000000E+00 0. -1.
        -24    2    1    2    0    0 -0.35756743849E+03  0.16195958199E+03 -0.15369635548E+03  0.42900916360E+03  0.79629853101E+02 0.  0.
    5000000    2    1    2    0    0  0.35756743849E+03 -0.16195958199E+03 -0.62835664921E+03  0.95337075627E+03  0.59999861754E+03 0.  0.
        -24    2    4    4    0    0 -0.11394451366E+03 -0.14022945097E+02 -0.35857218317E+03  0.38482824864E+03  0.79616425602E+02 0.  0.
         24    2    4    4    0    0  0.47151195215E+03 -0.14793663689E+03 -0.26978446604E+03  0.56854250763E+03  0.79045273839E+02 0.  0.
         11    1    3    3    0    0 -0.31719198769E+03  0.15210801048E+03 -0.16090144885E+03  0.38682926485E+03  0.00000000000E+00 0. -1.
        -12    1    3    3    0    0 -0.40375450800E+02  0.98515715107E+01  0.72050933643E+01  0.42179898754E+02  0.00000000000E+00 0.  1.
         13    1    5    5    0    0 -0.56557130534E+02  0.27384517711E+02 -0.22572418671E+03  0.23430755278E+03  0.00000000000E+00 0. -1.
        -14    1    5    5    0    0 -0.57387383127E+02 -0.41407462809E+02 -0.13284799646E+03  0.15052069586E+03  0.00000000000E+00 0.  1.
          2    1    6    6  502    0  0.28101528485E+03 -0.88358497402E+02 -0.11608945024E+03  0.31662844919E+03  0.00000000000E+00 0. -1.
         -1    1    6    6    0  502  0.19049666730E+03 -0.59578139488E+02 -0.15369501580E+03  0.25191405844E+03  0.00000000000E+00 0.  1.
<mgrwt>
<rscale>  0 0.51055861E+03</rscale>
<asrwt>0</asrwt>
<pdfrwt beam="1">  1        1 0.16649484E+00 0.51055861E+03</pdfrwt>
<pdfrwt beam="2">  1       -2 0.46178994E-01 0.51055861E+03</pdfrwt>
<totfact> 0.53460881E+01</totfact>
</mgrwt>
</event>
<event>
12    3  0.2422421E-007  0.8554479E+03  0.7818608E-02  0.9483054E-01
         -2   -1    0    0    0  501 -0.00000000000E+00  0.00000000000E+00  0.16129583767E+04  0.16129583767E+04  0.00000000000E+00 0.  1.
          1   -1    0    0  501    0  0.00000000000E+00 -0.00000000000E+00 -0.51011780472E+03  0.51011780472E+03  0.00000000000E+00 0. -1.
        -24    2    1    2    0    0 -0.12740921410E+03 -0.75846188047E+03  0.77309107824E+03  0.10933938516E+04  0.79641493946E+02 0.  0.
    5000000    2    1    2    0    0  0.12740921410E+03  0.75846188047E+03  0.32974949370E+03  0.10296823298E+04  0.60001119960E+03 0.  0.
        -24    2    4    4    0    0 -0.18086307234E+03  0.49719561729E+03  0.30614068292E+03  0.61702050692E+03  0.84126425258E+02 0.  0.
         24    2    4    4    0    0  0.30827228644E+03  0.26126626318E+03  0.23608810781E+02  0.41266182284E+03  0.80252982634E+02 0.  0.
         11    1    3    3    0    0 -0.64592322996E+02 -0.49699133213E+03  0.54898603239E+03  0.74334259676E+03  0.00000000000E+00 0. -1.
        -12    1    3    3    0    0 -0.62816891104E+02 -0.26147054834E+03  0.22410504585E+03  0.35005125487E+03  0.00000000000E+00 0.  1.
         13    1    5    5    0    0 -0.13585586367E+03  0.44730993871E+03  0.25443912942E+03  0.53224267730E+03  0.00000000000E+00 0. -1.
        -14    1    5    5    0    0 -0.45007208673E+02  0.49885678587E+02  0.51701553499E+02  0.84777829618E+02  0.00000000000E+00 0.  1.
          2    1    6    6  502    0  0.27886524635E+03  0.25040627116E+03  0.40634553847E+02  0.37698845237E+03  0.00000000000E+00 0. -1.
         -1    1    6    6    0  502  0.29407040092E+02  0.10859992024E+02 -0.17025743067E+02  0.35673370470E+02  0.00000000000E+00 0.  1.
<mgrwt>
<rscale>  0 0.85544790E+03</rscale>
<asrwt>0</asrwt>
<pdfrwt beam="1">  1        1 0.78479663E-01 0.85544790E+03</pdfrwt>
<pdfrwt beam="2">  1       -2 0.24814744E+00 0.85544790E+03</pdfrwt>
<totfact> 0.25389448E+00</totfact>
</mgrwt>
</event>
<event>
12    3  0.2422421E-007  0.9418334E+03  0.7818608E-02  0.9374747E-01
         -2   -1    0    0    0  501 -0.00000000000E+00  0.00000000000E+00  0.10672784271E+04  0.10672784271E+04  0.00000000000E+00 0.  1.
          1   -1    0    0  501    0  0.00000000000E+00 -0.00000000000E+00 -0.13454380168E+04  0.13454380168E+04  0.00000000000E+00 0. -1.
        -24    2    1    2    0    0  0.67936865427E+03 -0.52142558951E+03  0.59809132929E+03  0.10485888653E+04  0.91645820240E+02 0.  0.
    5000000    2    1    2    0    0 -0.67936865427E+03  0.52142558951E+03 -0.87625091896E+03  0.13641275786E+04  0.59966821161E+03 0.  0.
        -24    2    4    4    0    0 -0.63972882280E+03  0.17008279572E+03 -0.67490562137E+03  0.94884564014E+03  0.81420678763E+02 0.  0.
         24    2    4    4    0    0 -0.39639831471E+02  0.35134279379E+03 -0.20134529758E+03  0.41528193849E+03  0.83102855501E+02 0.  0.
         11    1    5    5    0    0 -0.46558868384E+03  0.13688887851E+03 -0.54037447268E+03  0.72630293838E+03  0.00000000000E+00 0. -1.
        -12    1    5    5    0    0 -0.17414013896E+03  0.33193917207E+02 -0.13453114870E+03  0.22254270176E+03  0.00000000000E+00 0.  1.
         13    1    3    3    0    0  0.14895463026E+03 -0.15459423698E+03  0.12137488398E+03  0.24661452197E+03  0.00000000000E+00 0. -1.
        -14    1    3    3    0    0  0.53041402401E+03 -0.36683135252E+03  0.47671644532E+03  0.80197434329E+03  0.00000000000E+00 0.  1.
          2    1    6    6  502    0  0.19820027996E+02  0.15782145813E+03 -0.10859973148E+03  0.19259893000E+03  0.00000000000E+00 0. -1.
         -1    1    6    6    0  502 -0.59459859467E+02  0.19352133566E+03 -0.92745566098E+02  0.22268300850E+03  0.00000000000E+00 0.  1.
<mgrwt>
<rscale>  0 0.94183336E+03</rscale>
<asrwt>0</asrwt>
<pdfrwt beam="1">  1        1 0.20699046E+00 0.94183336E+03</pdfrwt>
<pdfrwt beam="2">  1       -2 0.16419668E+00 0.94183336E+03</pdfrwt>
<totfact> 0.17356640E+00</totfact>
</mgrwt>
</event>
<event>
12    3  0.2422421E-007  0.2924737E+03  0.7818608E-02  0.1089065E+00
          1   -1    0    0  501    0  0.00000000000E+00  0.00000000000E+00  0.31710466016E+03  0.31710466016E+03  0.00000000000E+00 0. -1.
         -2   -1    0    0    0  501 -0.00000000000E+00 -0.00000000000E+00 -0.14267480917E+04  0.14267480917E+04  0.00000000000E+00 0.  1.
        -24    2    1    2    0    0  0.10595292375E+03  0.22679554687E+03 -0.10594816489E+04  0.10916428454E+04  0.80749585075E+02 0.  0.
    5000000    2    1    2    0    0 -0.10595292375E+03 -0.22679554687E+03 -0.50161782613E+02  0.65220990641E+03  0.60016607323E+03 0.  0.
        -24    2    4    4    0    0 -0.14807648761E+02  0.60821710069E+01 -0.28810609398E+03  0.29950515445E+03  0.80261802163E+02 0.  0.
         24    2    4    4    0    0 -0.91145274988E+02 -0.23287771787E+03  0.23794431137E+03  0.35270475196E+03  0.72413079678E+02 0.  0.
         11    1    5    5    0    0  0.29098121370E+02 -0.12989614688E+01 -0.55523877866E+02  0.62699991877E+02  0.00000000000E+00 0. -1.
        -12    1    5    5    0    0 -0.43905770131E+02  0.73811324757E+01 -0.23258221612E+03  0.23680516257E+03  0.00000000000E+00 0.  1.
         13    1    3    3    0    0  0.49786611383E+02  0.85576925697E+02 -0.58785714013E+03  0.59613600301E+03  0.00000000000E+00 0. -1.
        -14    1    3    3    0    0  0.56166312366E+02  0.14121862117E+03 -0.47162450878E+03  0.49550684243E+03  0.00000000000E+00 0.  1.
          4    1    6    6  502    0 -0.27811427723E+01 -0.10409023795E+03  0.92257174896E+02  0.13911829036E+03  0.00000000000E+00 0. -1.
         -3    1    6    6    0  502 -0.88364132216E+02 -0.12878747992E+03  0.14568713648E+03  0.21358646160E+03  0.00000000000E+00 0.  1.
<mgrwt>
<rscale>  0 0.29247366E+03</rscale>
<asrwt>0</asrwt>
<pdfrwt beam="1">  1        1 0.48785333E-01 0.29247366E+03</pdfrwt>
<pdfrwt beam="2">  1       -2 0.21949971E+00 0.29247366E+03</pdfrwt>
<totfact> 0.78589681E+00</totfact>
</mgrwt>
</event>
<event>
12    3  0.2422421E-007  0.3591345E+03  0.7818608E-02  0.1058927E+00
         -2   -1    0    0    0  501 -0.00000000000E+00  0.00000000000E+00  0.20498483961E+03  0.20498483961E+03  0.00000000000E+00 0.  1.
          1   -1    0    0  501    0  0.00000000000E+00 -0.00000000000E+00 -0.10805594202E+04  0.10805594202E+04  0.00000000000E+00 0. -1.
        -24    2    1    2    0    0  0.12410489770E+03 -0.21988053657E+03 -0.39883463129E+03  0.47867291391E+03  0.79430594853E+02 0.  0.
    5000000    2    1    2    0    0 -0.12410489770E+03  0.21988053657E+03 -0.47673994931E+03  0.80687134591E+03  0.60000909458E+03 0.  0.
        -24    2    4    4    0    0  0.13099921679E+03  0.10205715151E+03  0.61558934818E+02  0.19483097205E+03  0.81198203427E+02 0.  0.
         24    2    4    4    0    0 -0.25510411449E+03  0.11782338505E+03 -0.53829888413E+03  0.61204037386E+03  0.76598115391E+02 0.  0.
         11    1    3    3    0    0  0.13537547635E+02 -0.99025178045E+02 -0.13194529835E+03  0.16552586758E+03  0.00000000000E+00 0. -1.
        -12    1    3    3    0    0  0.11056735007E+03 -0.12085535852E+03 -0.26688933294E+03  0.31314704633E+03  0.00000000000E+00 0.  1.
         13    1    5    5    0    0  0.23903022695E+02  0.36517319253E+02  0.53456755401E+02  0.69010823770E+02  0.00000000000E+00 0. -1.
        -14    1    5    5    0    0  0.10709619409E+03  0.65539832259E+02  0.81021794169E+01  0.12582014828E+03  0.00000000000E+00 0.  1.
          4    1    6    6  502    0 -0.90773083173E+02  0.68577051499E+02 -0.27707946186E+03  0.29952561293E+03  0.00000000000E+00 0. -1.
         -3    1    6    6    0  502 -0.16433103132E+03  0.49246333556E+02 -0.26121942227E+03  0.31251476092E+03  0.00000000000E+00 0.  1.
<mgrwt>
<rscale>  0 0.35913453E+03</rscale>
<asrwt>0</asrwt>
<pdfrwt beam="1">  1        1 0.16623991E+00 0.35913453E+03</pdfrwt>
<pdfrwt beam="2">  1       -2 0.31536129E-01 0.35913453E+03</pdfrwt>
<totfact> 0.11380002E+02</totfact>
</mgrwt>
</event>
<event>
12    3  0.2422421E-007  0.3921102E+03  0.7818608E-02  0.1046546E+00
          1   -1    0    0  501    0  0.00000000000E+00  0.00000000000E+00  0.12670996726E+04  0.12670996726E+04  0.00000000000E+00 0. -1.
         -2   -1    0    0    0  501 -0.00000000000E+00 -0.00000000000E+00 -0.17138478464E+03  0.17138478464E+03  0.00000000000E+00 0.  1.
        -24    2    1    2    0    0 -0.23044971617E+03  0.76220893262E+02  0.48546736177E+03  0.54884799873E+03  0.81479261873E+02 0.  0.
    5000000    2    1    2    0    0  0.23044971617E+03 -0.76220893262E+02  0.61024752619E+03  0.88963645850E+03  0.60011189693E+03 0.  0.
        -24    2    4    4    0    0  0.10581649406E+03  0.19093252614E+03  0.52208982046E+03  0.57211643804E+03  0.84184785393E+02 0.  0.
         24    2    4    4    0    0  0.12463322211E+03 -0.26715341941E+03  0.88157705726E+02  0.31752002047E+03  0.78375970576E+02 0.  0.
         13    1    5    5    0    0  0.86378218136E+02  0.96276747942E+02  0.36967947255E+03  0.39165459424E+03  0.00000000000E+00 0. -1.
        -14    1    5    5    0    0  0.19438275921E+02  0.94655778201E+02  0.15241034790E+03  0.18046184380E+03  0.00000000000E+00 0.  1.
         13    1    3    3    0    0 -0.77865266147E+02 -0.12365259843E+02  0.17004000636E+03  0.18742866132E+03  0.00000000000E+00 0. -1.
        -14    1    3    3    0    0 -0.15258445002E+03  0.88586153105E+02  0.31542735541E+03  0.36141933741E+03  0.00000000000E+00 0.  1.
          4    1    6    6  502    0  0.13372089796E+03 -0.24750120028E+03  0.91034917496E+02  0.29567799867E+03  0.00000000000E+00 0. -1.
         -3    1    6    6    0  502 -0.90876758449E+01 -0.19652219123E+02 -0.28772117706E+01  0.21842021800E+02  0.00000000000E+00 0.  1.
<mgrwt>
<rscale>  0 0.39211020E+03</rscale>
<asrwt>0</asrwt>
<pdfrwt beam="1">  1        1 0.19493840E+00 0.39211020E+03</pdfrwt>
<pdfrwt beam="2">  1       -2 0.26366891E-01 0.39211020E+03</pdfrwt>
<totfact> 0.11544723E+02</totfact>
</mgrwt>
</event>
<event>
12    3  0.2422421E-007  0.8068683E+03  0.7818608E-02  0.9550128E-01
         -2   -1    0    0    0  501 -0.00000000000E+00  0.00000000000E+00  0.74781889713E+03  0.74781889713E+03  0.00000000000E+00 0.  1.
          1   -1    0    0  501    0  0.00000000000E+00 -0.00000000000E+00 -0.11909194999E+04  0.11909194999E+04  0.00000000000E+00 0. -1.
        -24    2    1    2    0    0  0.70662680250E+03  0.16369682689E+03  0.24817737277E+03  0.77084704222E+03  0.80591966101E+02 0.  0.
    5000000    2    1    2    0    0 -0.70662680250E+03 -0.16369682689E+03 -0.69127797553E+03  0.11678913548E+04  0.59998907326E+03 0.  0.
        -24    2    4    4    0    0 -0.14643978246E+03  0.17622536727E+03 -0.34638921482E+03  0.42308815576E+03  0.80734809413E+02 0.  0.
         24    2    4    4    0    0 -0.56018702004E+03 -0.33992219416E+03 -0.34488876071E+03  0.74480319904E+03  0.80168276308E+02 0.  0.
         11    1    5    5    0    0 -0.67888177085E+02  0.88513223623E+02 -0.99157793730E+02  0.14925033803E+03  0.00000000000E+00 0. -1.
        -12    1    5    5    0    0 -0.78551605371E+02  0.87712143647E+02 -0.24723142109E+03  0.27383781774E+03  0.00000000000E+00 0.  1.
         11    1    3    3    0    0  0.51410931831E+03  0.84976872767E+02  0.16171715588E+03  0.54560232641E+03  0.00000000000E+00 0. -1.
        -12    1    3    3    0    0  0.19251748419E+03  0.78719954125E+02  0.86460216885E+02  0.22524471581E+03  0.00000000000E+00 0.  1.
          4    1    6    6  502    0 -0.16756746733E+03 -0.10826462403E+03 -0.64771673305E+02  0.20975093465E+03  0.00000000000E+00 0. -1.
         -3    1    6    6    0  502 -0.39261955272E+03 -0.23165757013E+03 -0.28011708741E+03  0.53505226439E+03  0.00000000000E+00 0.  1.
<mgrwt>
<rscale>  0 0.80686829E+03</rscale>
<asrwt>0</asrwt>
<pdfrwt beam="1">  1        1 0.18321838E+00 0.80686829E+03</pdfrwt>
<pdfrwt beam="2">  1       -2 0.11504906E+00 0.80686829E+03</pdfrwt>
<totfact> 0.57171596E+00</totfact>
</mgrwt>
</event>
<event>
12    3  0.2422421E-007  0.6868696E+03  0.7818608E-02  0.9739954E-01
          1   -1    0    0  501    0  0.00000000000E+00  0.00000000000E+00  0.19105257016E+04  0.19105257016E+04  0.00000000000E+00 0. -1.
         -2   -1    0    0    0  501 -0.00000000000E+00 -0.00000000000E+00 -0.33907462435E+03  0.33907462435E+03  0.00000000000E+00 0.  1.
        -24    2    1    2    0    0 -0.67359029175E+03 -0.47272601318E+02  0.47508286516E+03  0.82918656672E+03  0.76733654177E+02 0.  0.
    5000000    2    1    2    0    0  0.67359029175E+03  0.47272601318E+02  0.10963682121E+04  0.14204137592E+04  0.59966108006E+03 0.  0.
        -24    2    4    4    0    0  0.16771607980E+03  0.24663444934E+02 -0.22346935569E+02  0.18937652679E+03  0.81407090780E+02 0.  0.
         24    2    4    4    0    0  0.50587421195E+03  0.22609156383E+02  0.11187151477E+04  0.12310372324E+04  0.86655604425E+02 0.  0.
         11    1    5    5    0    0  0.50758190031E+02  0.40538320312E+02 -0.29042833953E+02  0.71156415543E+02  0.00000000000E+00 0. -1.
        -12    1    5    5    0    0  0.11695788977E+03 -0.15874875377E+02  0.66958983836E+01  0.11822011125E+03  0.00000000000E+00 0.  1.
         13    1    3    3    0    0 -0.51401235275E+03 -0.58228727020E+02  0.39125210775E+03  0.64859655816E+03  0.00000000000E+00 0. -1.
        -14    1    3    3    0    0 -0.15957793900E+03  0.10956125703E+02  0.83830757414E+02  0.18059000857E+03  0.00000000000E+00 0.  1.
          4    1    6    6  502    0  0.34937089318E+03 -0.24014153205E+02  0.74505846328E+03  0.82325501169E+03  0.00000000000E+00 0. -1.
         -3    1    6    6    0  502  0.15650331877E+03  0.46623309589E+02  0.37365668437E+03  0.40778222074E+03  0.00000000000E+00 0.  1.
<mgrwt>
<rscale>  0 0.68686958E+03</rscale>
<asrwt>0</asrwt>
<pdfrwt beam="1">  1        1 0.29392702E+00 0.68686958E+03</pdfrwt>
<pdfrwt beam="2">  1       -2 0.52165328E-01 0.68686958E+03</pdfrwt>
<totfact> 0.10953814E+01</totfact>
</mgrwt>
</event>
<event>
12    3  0.2422421E-007  0.5854974E+03  0.7818608E-02  0.9935960E-01
          1   -1    0    0  501    0  0.00000000000E+00  0.00000000000E+00  0.10885422325E+04  0.10885422325E+04  0.00000000000E+00 0. -1.
         -2   -1    0    0    0  501 -0.00000000000E+00 -0.00000000000E+00 -0.37305313302E+03  0.37305313302E+03  0.00000000000E+00 0.  1.
        -24    2    1    2    0    0 -0.36812412932E+03  0.26559662731E+03  0.49780964598E+03  0.67833242282E+03  0.79142208611E+02 0.  0.
    5000000    2    1    2    0    0  0.36812412932E+03 -0.26559662731E+03  0.21767945351E+03  0.78326294271E+03  0.60004962289E+03 0.  0.
        -24    2    4    4    0    0 -0.12119452576E+03  0.20673874579E+02  0.14502523055E+03  0.20621471465E+03  0.79854047346E+02 0.  0.
         24    2    4    4    0    0  0.48931865508E+03 -0.28627050189E+03  0.72654222957E+02  0.57704822806E+03  0.79513992076E+02 0.  0.
         11    1    3    3    0    0 -0.30557588371E+03  0.21688535110E+03  0.45064138849E+03  0.58608321700E+03  0.00000000000E+00 0. -1.
        -12    1    3    3    0    0 -0.62548245609E+02  0.48711276217E+02  0.47168257492E+02  0.92249205819E+02  0.00000000000E+00 0.  1.
         13    1    5    5    0    0 -0.60778875948E+02  0.50667412569E+02  0.80101879298E+02  0.11259471357E+03  0.00000000000E+00 0. -1.
        -14    1    5    5    0    0 -0.60415649813E+02 -0.29993537990E+02  0.64923351256E+02  0.93620001078E+02  0.00000000000E+00 0.  1.
          2    1    6    6  502    0  0.33798944697E+03 -0.16303809089E+03  0.70816930718E+02  0.38188129441E+03  0.00000000000E+00 0. -1.
         -1    1    6    6    0  502  0.15132920810E+03 -0.12323241101E+03  0.18372922391E+01  0.19516693365E+03  0.00000000000E+00 0.  1.
<mgrwt>
<rscale>  0 0.58549736E+03</rscale>
<asrwt>0</asrwt>
<pdfrwt beam="1">  1        1 0.16746803E+00 0.58549736E+03</pdfrwt>
<pdfrwt beam="2">  1       -2 0.57392790E-01 0.58549736E+03</pdfrwt>
<totfact> 0.33628420E+01</totfact>
</mgrwt>
</event>
<event>
12    3  0.2422421E-007  0.1214343E+04  0.7818608E-02  0.9100394E-01
          1   -1    0    0  501    0  0.00000000000E+00  0.00000000000E+00  0.30422040005E+04  0.30422040005E+04  0.00000000000E+00 0. -1.
         -2   -1    0    0    0  501 -0.00000000000E+00 -0.00000000000E+00 -0.50123316137E+03  0.50123316137E+03  0.00000000000E+00 0.  1.
        -24    2    1    2    0    0  0.80383623768E+03  0.83575934361E+03  0.11399994786E+04  0.16282709030E+04  0.83791079560E+02 0.  0.
    5000000    2    1    2    0    0 -0.80383623768E+03 -0.83575934361E+03  0.14009713605E+04  0.19151662588E+04  0.60041208226E+03 0.  0.
        -24    2    4    4    0    0 -0.18379271200E+03  0.40881549267E+02  0.10197869808E+03  0.22807024532E+03  0.78519550950E+02 0.  0.
         24    2    4    4    0    0 -0.62004352567E+03 -0.87664089287E+03  0.12989926624E+04  0.16870960135E+04  0.77186740752E+02 0.  0.
         11    1    5    5    0    0 -0.13817700846E+02  0.13813556625E+02  0.41093637527E+02  0.45501980710E+02  0.00000000000E+00 0. -1.
        -12    1    5    5    0    0 -0.16997501116E+03  0.27067992643E+02  0.60885060556E+02  0.18256826461E+03  0.00000000000E+00 0.  1.
         13    1    3    3    0    0  0.53537001742E+03  0.52385570257E+03  0.68891814523E+03  0.10176709014E+04  0.00000000000E+00 0. -1.
        -14    1    3    3    0    0  0.26846622026E+03  0.31190364103E+03  0.45108133339E+03  0.61060000167E+03  0.00000000000E+00 0.  1.
          4    1    6    6  502    0 -0.23953733260E+03 -0.27603928304E+03  0.43285244401E+03  0.56651306938E+03  0.00000000000E+00 0. -1.
         -3    1    6    6    0  502 -0.38050619307E+03 -0.60060160984E+03  0.86614021839E+03  0.11205829441E+04  0.00000000000E+00 0.  1.
<mgrwt>
<rscale>  0 0.12143434E+04</rscale>
<asrwt>0</asrwt>
<pdfrwt beam="1">  1        1 0.46803137E+00 0.12143434E+04</pdfrwt>
<pdfrwt beam="2">  1       -2 0.77112796E-01 0.12143434E+04</pdfrwt>
<totfact> 0.72946469E-01</totfact>
</mgrwt>
</event>
<event>
12    3  0.2422421E-007  0.5413467E+03  0.7818608E-02  0.1003517E+00
         -2   -1    0    0    0  501 -0.00000000000E+00  0.00000000000E+00  0.24227232523E+03  0.24227232523E+03  0.00000000000E+00 0.  1.
          1   -1    0    0  501    0  0.00000000000E+00 -0.00000000000E+00 -0.13158853009E+04  0.13158853009E+04  0.00000000000E+00 0. -1.
        -24    2    1    2    0    0  0.15269326093E+03  0.34784814420E+03 -0.21439069993E+03  0.44337405567E+03  0.79395325228E+02 0.  0.
    5000000    2    1    2    0    0 -0.15269326093E+03 -0.34784814420E+03 -0.85922227574E+03  0.11147835705E+04  0.60013825615E+03 0.  0.
        -24    2    4    4    0    0 -0.27232629293E+03 -0.45419944275E+03 -0.66541523316E+03  0.85425419571E+03  0.80709694291E+02 0.  0.
         24    2    4    4    0    0  0.11963303200E+03  0.10635129856E+03 -0.19380704258E+03  0.26052937476E+03  0.68496162721E+02 0.  0.
         11    1    5    5    0    0  0.23402797678E+01 -0.28114012619E+02 -0.44325823829E+02  0.52541919198E+02  0.00000000000E+00 0. -1.
        -12    1    5    5    0    0 -0.27466657270E+03 -0.42608543013E+03 -0.62108940933E+03  0.80171227651E+03  0.00000000000E+00 0.  1.
         13    1    3    3    0    0  0.69859421649E+02  0.13937572522E+03 -0.13238699200E+03  0.20452933097E+03  0.00000000000E+00 0. -1.
        -14    1    3    3    0    0  0.82833839279E+02  0.20847241898E+03 -0.82003707930E+02  0.23884472470E+03  0.00000000000E+00 0.  1.
          4    1    6    6  502    0  0.12107413523E+03  0.89912948500E+02 -0.14579395973E+03  0.20975977503E+03  0.00000000000E+00 0. -1.
         -3    1    6    6    0  502 -0.14411032269E+01  0.16438350056E+02 -0.48013082854E+02  0.50769599724E+02  0.00000000000E+00 0.  1.
<mgrwt>
<rscale>  0 0.54134671E+03</rscale>
<asrwt>0</asrwt>
<pdfrwt beam="1">  1        1 0.20244389E+00 0.54134671E+03</pdfrwt>
<pdfrwt beam="2">  1       -2 0.37272666E-01 0.54134671E+03</pdfrwt>
<totfact> 0.54987764E+01</totfact>
</mgrwt>
</event>
<event>
12    3  0.2422421E-007  0.9058780E+03  0.7818608E-02  0.9418263E-01
         -2   -1    0    0    0  501 -0.00000000000E+00  0.00000000000E+00  0.80635373059E+03  0.80635373059E+03  0.00000000000E+00 0.  1.
          1   -1    0    0  501    0  0.00000000000E+00 -0.00000000000E+00 -0.15326062072E+04  0.15326062072E+04  0.00000000000E+00 0. -1.
        -24    2    1    2    0    0 -0.31072702742E+03  0.76306628442E+03 -0.98556293904E+03  0.12871719964E+04  0.81584320949E+02 0.  0.
    5000000    2    1    2    0    0  0.31072702742E+03 -0.76306628442E+03  0.25931046245E+03  0.10517879414E+04  0.60016207622E+03 0.  0.
        -24    2    4    4    0    0  0.43783470595E+03 -0.39922389267E+03  0.35607525245E+02  0.59896269457E+03  0.80059149480E+02 0.  0.
         24    2    4    4    0    0 -0.12710767852E+03 -0.36384239176E+03  0.22370293720E+03  0.45282524683E+03  0.80436633929E+02 0.  0.
         11    1    3    3    0    0 -0.20222970482E+03  0.49540565981E+03 -0.57810713539E+03  0.78773820606E+03  0.00000000000E+00 0. -1.
        -12    1    3    3    0    0 -0.10849732260E+03  0.26766062461E+03 -0.40745580364E+03  0.49943379031E+03  0.00000000000E+00 0.  1.
         13    1    5    5    0    0  0.31149683267E+03 -0.23436504186E+03  0.12982571612E+02  0.39003307138E+03  0.00000000000E+00 0. -1.
        -14    1    5    5    0    0  0.12633787328E+03 -0.16485885081E+03  0.22624953632E+02  0.20892962318E+03  0.00000000000E+00 0.  1.
          4    1    6    6  502    0 -0.13352486445E+03 -0.33192393602E+03  0.22013403839E+03  0.42007306934E+03  0.00000000000E+00 0. -1.
         -3    1    6    6    0  502  0.64171859217E+01 -0.31918455735E+02  0.35688988133E+01  0.32752177491E+02  0.00000000000E+00 0.  1.
<mgrwt>
<rscale>  0 0.90587803E+03</rscale>
<asrwt>0</asrwt>
<pdfrwt beam="1">  1        1 0.23578557E+00 0.90587803E+03</pdfrwt>
<pdfrwt beam="2">  1       -2 0.12405442E+00 0.90587803E+03</pdfrwt>
<totfact> 0.26928249E+00</totfact>
</mgrwt>
</event>
<event>
12    3  0.2422421E-007  0.5051819E+03  0.7818608E-02  0.1012435E+00
          1   -1    0    0  501    0  0.00000000000E+00  0.00000000000E+00  0.32599522324E+03  0.32599522324E+03  0.00000000000E+00 0. -1.
         -2   -1    0    0    0  501 -0.00000000000E+00 -0.00000000000E+00 -0.12834513360E+04  0.12834513360E+04  0.00000000000E+00 0.  1.
        -24    2    1    2    0    0  0.44130983526E+02  0.42044039606E+03 -0.36152646599E+02  0.43149760095E+03  0.78520668777E+02 0.  0.
    5000000    2    1    2    0    0 -0.44130983526E+02 -0.42044039606E+03 -0.92130346616E+03  0.11779489583E+04  0.60003833315E+03 0.  0.
        -24    2    4    4    0    0  0.11174592294E+03  0.21976687362E+02  0.26696341269E+01  0.13828968391E+03  0.78401426309E+02 0.  0.
         24    2    4    4    0    0 -0.15587690647E+03 -0.44241708342E+03 -0.92397310029E+03  0.10396592744E+04  0.84466745545E+02 0.  0.
         11    1    5    5    0    0  0.64458101493E+02  0.46767908899E+01 -0.36746495914E+02  0.74343958619E+02  0.00000000000E+00 0. -1.
        -12    1    5    5    0    0  0.47287821446E+02  0.17299896472E+02  0.39416130041E+02  0.63945725287E+02  0.00000000000E+00 0.  1.
         13    1    3    3    0    0 -0.61630938159E+01  0.32778617875E+02  0.16231104713E+02  0.37092725370E+02  0.00000000000E+00 0. -1.
        -14    1    3    3    0    0  0.50294077342E+02  0.38766177818E+03 -0.52383751312E+02  0.39440487558E+03  0.00000000000E+00 0.  1.
          2    1    6    6  502    0 -0.46036688150E+02 -0.19594056379E+03 -0.47420639904E+03  0.51515414207E+03  0.00000000000E+00 0. -1.
         -1    1    6    6    0  502 -0.10984021832E+03 -0.24647651963E+03 -0.44976670124E+03  0.52450513232E+03  0.00000000000E+00 0.  1.
<mgrwt>
<rscale>  0 0.50518194E+03</rscale>
<asrwt>0</asrwt>
<pdfrwt beam="1">  1        1 0.50153111E-01 0.50518194E+03</pdfrwt>
<pdfrwt beam="2">  1       -2 0.19745405E+00 0.50518194E+03</pdfrwt>
<totfact> 0.10002074E+01</totfact>
</mgrwt>
</event>
<event>
12    3  0.2422421E-007  0.1184812E+04  0.7818608E-02  0.9126255E-01
          1   -1    0    0  501    0  0.00000000000E+00  0.00000000000E+00  0.83338666062E+03  0.83338666062E+03  0.00000000000E+00 0. -1.
         -2   -1    0    0    0  501 -0.00000000000E+00 -0.00000000000E+00 -0.21055383983E+04  0.21055383983E+04  0.00000000000E+00 0.  1.
        -24    2    1    2    0    0  0.66499194221E+03 -0.96194448877E+03 -0.11105070161E+04  0.16147026454E+04  0.80543885637E+02 0.  0.
    5000000    2    1    2    0    0 -0.66499194221E+03  0.96194448877E+03 -0.16164472162E+03  0.13242224136E+04  0.59990374384E+03 0.  0.
        -24    2    4    4    0    0 -0.27384761979E+03  0.59174943269E+03 -0.35316857811E+03  0.74612254778E+03  0.82528187820E+02 0.  0.
         24    2    4    4    0    0 -0.39114432242E+03  0.37019505608E+03  0.19152385649E+03  0.57809986578E+03  0.86485875758E+02 0.  0.
         11    1    3    3    0    0  0.41883924785E+03 -0.57571399385E+03 -0.62658362288E+03  0.94840917052E+03  0.00000000000E+00 0. -1.
        -12    1    3    3    0    0  0.24615269436E+03 -0.38623049492E+03 -0.48392339318E+03  0.66629347484E+03  0.00000000000E+00 0.  1.
         13    1    5    5    0    0 -0.91415509682E+02  0.14171066735E+03 -0.60632700827E+02  0.17920667694E+03  0.00000000000E+00 0. -1.
        -14    1    5    5    0    0 -0.18243211011E+03  0.45003876534E+03 -0.29253587729E+03  0.56691587084E+03  0.00000000000E+00 0.  1.
          4    1    6    6  502    0 -0.15150268089E+03  0.20265655051E+03  0.86042770828E+02  0.26725661487E+03  0.00000000000E+00 0. -1.
         -3    1    6    6    0  502 -0.23964164153E+03  0.16753850557E+03  0.10548108567E+03  0.31084325091E+03  0.00000000000E+00 0.  1.
<mgrwt>
<rscale>  0 0.11848124E+04</rscale>
<asrwt>0</asrwt>
<pdfrwt beam="1">  1        1 0.12821333E+00 0.11848124E+04</pdfrwt>
<pdfrwt beam="2">  1       -2 0.32392898E+00 0.11848124E+04</pdfrwt>
<totfact> 0.40512410E-01</totfact>
</mgrwt>
</event>
<event>
12    3  0.3068658E-007  0.8095085E+03  0.7818608E-02  0.9546355E-01
          1   -1    0    0  501    0  0.00000000000E+00  0.00000000000E+00  0.28605895517E+04  0.28605895517E+04  0.00000000000E+00 0. -1.
         -2   -1    0    0    0  501 -0.00000000000E+00 -0.00000000000E+00 -0.34014516401E+03  0.34014516401E+03  0.00000000000E+00 0.  1.
        -24    2    1    2    0    0 -0.20411926394E+03 -0.73342474208E+03  0.19038397546E+04  0.20519428507E+04  0.79291395181E+02 0.  0.
    5000000    2    1    2    0    0  0.20411926394E+03  0.73342474208E+03  0.61660463316E+03  0.11487918650E+04  0.59995412266E+03 0.  0.
        -24    2    4    4    0    0  0.25312917748E+03  0.23975144153E+03  0.57321175119E+01  0.35772869621E+03  0.79886348723E+02 0.  0.
         24    2    4    4    0    0 -0.49009913534E+02  0.49367330055E+03  0.61087251565E+03  0.79106316882E+03  0.80625103938E+02 0.  0.
         11    1    5    5    0    0  0.14742411911E+03  0.19088664013E+03  0.13026584953E+01  0.24119137048E+03  0.00000000000E+00 0. -1.
        -12    1    5    5    0    0  0.10570505836E+03  0.48864801403E+02  0.44294590167E+01  0.11653732572E+03  0.00000000000E+00 0.  1.
         13    1    3    3    0    0 -0.46345198528E+02 -0.28460095298E+03  0.77766481017E+03  0.82940227685E+03  0.00000000000E+00 0. -1.
        -14    1    3    3    0    0 -0.15777406541E+03 -0.44882378910E+03  0.11261749444E+04  0.12225405739E+04  0.00000000000E+00 0.  1.
          4    1    6    6  502    0 -0.31640267410E+02  0.43338363421E+03  0.49032290112E+03  0.65516336000E+03  0.00000000000E+00 0. -1.
         -3    1    6    6    0  502 -0.17369646124E+02  0.60289666339E+02  0.12054961453E+03  0.13589980882E+03  0.00000000000E+00 0.  1.
<mgrwt>
<rscale>  0 0.80950849E+03</rscale>
<asrwt>0</asrwt>
<pdfrwt beam="1">  1        1 0.44009068E+00 0.80950849E+03</pdfrwt>
<pdfrwt beam="2">  1       -2 0.52330027E-01 0.80950849E+03</pdfrwt>
<totfact> 0.24059029E+00</totfact>
</mgrwt>
</event>
<event>
12    3  0.2422421E-007  0.1153028E+04  0.7818608E-02  0.9154995E-01
          1   -1    0    0  501    0  0.00000000000E+00  0.00000000000E+00  0.30376208587E+04  0.30376208587E+04  0.00000000000E+00 0. -1.
         -2   -1    0    0    0  501 -0.00000000000E+00 -0.00000000000E+00 -0.47204186789E+03  0.47204186789E+03  0.00000000000E+00 0.  1.
        -24    2    1    2    0    0 -0.10633840152E+04 -0.27882201874E+03  0.15232470318E+04  0.18802378183E+04  0.80532300723E+02 0.  0.
    5000000    2    1    2    0    0  0.10633840152E+04  0.27882201874E+03  0.10423319590E+04  0.16294249083E+04  0.60003527996E+03 0.  0.
        -24    2    4    4    0    0  0.40960714824E+03 -0.12574377871E+03  0.18104488885E+03  0.47229623113E+03  0.81834982691E+02 0.  0.
         24    2    4    4    0    0  0.65377686696E+03  0.40456579745E+03  0.86128707018E+03  0.11571286772E+04  0.77676779800E+02 0.  0.
         11    1    5    5    0    0  0.14016740794E+03 -0.36865762212E+01  0.65026873973E+02  0.15456062704E+03  0.00000000000E+00 0. -1.
        -12    1    5    5    0    0  0.26943974030E+03 -0.12205720249E+03  0.11601801488E+03  0.31773560409E+03  0.00000000000E+00 0.  1.
         13    1    3    3    0    0 -0.62182404412E+03 -0.19032513758E+03  0.84922429104E+03  0.10696124047E+04  0.00000000000E+00 0. -1.
        -14    1    3    3    0    0 -0.44155997108E+03 -0.88496881160E+02  0.67402274075E+03  0.81062541354E+03  0.00000000000E+00 0.  1.
          2    1    6    6  502    0  0.36949889724E+03  0.21126526848E+03  0.42264134177E+03  0.59982343444E+03  0.00000000000E+00 0. -1.
         -1    1    6    6    0  502  0.28427796973E+03  0.19330052898E+03  0.43864572841E+03  0.55730524277E+03  0.00000000000E+00 0.  1.
<mgrwt>
<rscale>  0 0.11530281E+04</rscale>
<asrwt>0</asrwt>
<pdfrwt beam="1">  1        1 0.46732627E+00 0.11530281E+04</pdfrwt>
<pdfrwt beam="2">  1       -2 0.72621828E-01 0.11530281E+04</pdfrwt>
<totfact> 0.84715843E-01</totfact>
</mgrwt>
</event>
<event>
12    3  0.2422421E-007  0.9648869E+03  0.7818608E-02  0.9347917E-01
          1   -1    0    0  501    0  0.00000000000E+00  0.00000000000E+00  0.14902606342E+04  0.14902606342E+04  0.00000000000E+00 0. -1.
         -2   -1    0    0    0  501 -0.00000000000E+00 -0.00000000000E+00 -0.69012568580E+03  0.69012568580E+03  0.00000000000E+00 0.  1.
        -24    2    1    2    0    0 -0.92214960938E+03  0.50215706522E+02  0.38644557758E+03  0.10038161840E+04  0.73656143472E+02 0.  0.
    5000000    2    1    2    0    0  0.92214960938E+03 -0.50215706522E+02  0.41368937081E+03  0.11765701360E+04  0.60024734089E+03 0.  0.
        -24    2    4    4    0    0  0.74580757874E+02  0.11126365355E+03  0.24971131719E+03  0.29492139916E+03  0.81737382528E+02 0.  0.
         24    2    4    4    0    0  0.84756885151E+03 -0.16147936007E+03  0.16397805362E+03  0.88164873689E+03  0.77247339194E+02 0.  0.
         11    1    5    5    0    0  0.71203452354E+02  0.69521607405E+02  0.10669936252E+03  0.14590387070E+03  0.00000000000E+00 0. -1.
        -12    1    5    5    0    0  0.33773055200E+01  0.41742046145E+02  0.14301195467E+03  0.14901752846E+03  0.00000000000E+00 0.  1.
         13    1    3    3    0    0 -0.62230720377E+03  0.43278240931E+02  0.22459831744E+03  0.66301106039E+03  0.00000000000E+00 0. -1.
        -14    1    3    3    0    0 -0.29984240561E+03  0.69374655909E+01  0.16184726015E+03  0.34080512357E+03  0.00000000000E+00 0.  1.
          2    1    6    6  502    0  0.54622804492E+03 -0.76539081981E+02  0.78631113958E+02  0.55714105953E+03  0.00000000000E+00 0. -1.
         -1    1    6    6    0  502  0.30134080658E+03 -0.84940278090E+02  0.85346939666E+02  0.32450767736E+03  0.00000000000E+00 0.  1.
<mgrwt>
<rscale>  0 0.96488691E+03</rscale>
<asrwt>0</asrwt>
<pdfrwt beam="1">  1        1 0.22927087E+00 0.96488691E+03</pdfrwt>
<pdfrwt beam="2">  1       -2 0.10617318E+00 0.96488691E+03</pdfrwt>
<totfact> 0.41901577E+00</totfact>
</mgrwt>
</event>
<event>
12    3  0.2422421E-007  0.3345240E+03  0.7818608E-02  0.1069153E+00
          1   -1    0    0  501    0  0.00000000000E+00  0.00000000000E+00  0.14947824523E+04  0.14947824523E+04  0.00000000000E+00 0. -1.
         -2   -1    0    0    0  501 -0.00000000000E+00 -0.00000000000E+00 -0.88441965696E+02  0.88441965696E+02  0.00000000000E+00 0.  1.
        -24    2    1    2    0    0  0.48354422198E+02 -0.67098536264E+02  0.30331728545E+03  0.32475594447E+03  0.81392162403E+02 0.  0.
    5000000    2    1    2    0    0 -0.48354422198E+02  0.67098536264E+02  0.11030232012E+04  0.12584684736E+04  0.60020192675E+03 0.  0.
        -24    2    4    4    0    0 -0.30331298309E+03  0.36016606956E+02  0.75506539921E+03  0.81816744044E+03  0.77319090920E+02 0.  0.
         24    2    4    4    0    0  0.25495856089E+03  0.31081929308E+02  0.34795780200E+03  0.44030103314E+03  0.82585796082E+02 0.  0.
         13    1    5    5    0    0 -0.18611066150E+03  0.59522921549E+02  0.45637228451E+03  0.49644316753E+03  0.00000000000E+00 0. -1.
        -14    1    5    5    0    0 -0.11720232159E+03 -0.23506314593E+02  0.29869311470E+03  0.32172427291E+03  0.00000000000E+00 0.  1.
         13    1    3    3    0    0  0.42123053869E+01 -0.38103396151E+02  0.23649939446E+03  0.23958625982E+03  0.00000000000E+00 0. -1.
        -14    1    3    3    0    0  0.44142116811E+02 -0.28995140114E+02  0.66817890986E+02  0.85169684646E+02  0.00000000000E+00 0.  1.
          2    1    6    6  502    0  0.24810208945E+03  0.40427570835E+02  0.34725334437E+03  0.42868860546E+03  0.00000000000E+00 0. -1.
         -1    1    6    6    0  502  0.68564714366E+01 -0.93456415267E+01  0.70445762593E+00  0.11612427681E+02  0.00000000000E+00 0.  1.
<mgrwt>
<rscale>  0 0.33452395E+03</rscale>
<asrwt>0</asrwt>
<pdfrwt beam="1">  1        1 0.22996651E+00 0.33452395E+03</pdfrwt>
<pdfrwt beam="2">  1       -2 0.13606457E-01 0.33452395E+03</pdfrwt>
<totfact> 0.25370318E+02</totfact>
</mgrwt>
</event>
<event>
12    3  0.2422421E-007  0.5756066E+03  0.7818608E-02  0.9957348E-01
          1   -1    0    0  501    0  0.00000000000E+00  0.00000000000E+00  0.50820981872E+03  0.50820981872E+03  0.00000000000E+00 0. -1.
         -2   -1    0    0    0  501 -0.00000000000E+00 -0.00000000000E+00 -0.85515403074E+03  0.85515403074E+03  0.00000000000E+00 0.  1.
        -24    2    1    2    0    0 -0.19037701167E+03 -0.47981980818E+03 -0.19473311106E+03  0.55740157446E+03  0.79404507277E+02 0.  0.
    5000000    2    1    2    0    0  0.19037701167E+03  0.47981980818E+03 -0.15221110096E+03  0.80596227500E+03  0.59994709314E+03 0.  0.
        -24    2    4    4    0    0  0.15461855758E+03  0.12857867989E+02 -0.26555209038E+03  0.31775099106E+03  0.79847081930E+02 0.  0.
         24    2    4    4    0    0  0.35758454091E+02  0.46696194019E+03  0.11334098942E+03  0.48821128394E+03  0.78561805345E+02 0.  0.
         11    1    5    5    0    0  0.42782332001E+02 -0.14205527217E+02 -0.14169860436E+03  0.14869640013E+03  0.00000000000E+00 0. -1.
        -12    1    5    5    0    0  0.11183622558E+03  0.27063395206E+02 -0.12385348602E+03  0.16905459092E+03  0.00000000000E+00 0.  1.
         11    1    3    3    0    0 -0.52352859931E+02 -0.13706659677E+03 -0.18045822510E+02  0.14783005650E+03  0.00000000000E+00 0. -1.
        -12    1    3    3    0    0 -0.13802415174E+03 -0.34275321141E+03 -0.17668728855E+03  0.40957151797E+03  0.00000000000E+00 0.  1.
          2    1    6    6  502    0 -0.15171339130E+02  0.29771736689E+03  0.73692143083E+02  0.30707707833E+03  0.00000000000E+00 0. -1.
         -1    1    6    6    0  502  0.50929793220E+02  0.16924457330E+03  0.39648846337E+02  0.18113420562E+03  0.00000000000E+00 0.  1.
<mgrwt>
<rscale>  0 0.57560661E+03</rscale>
<asrwt>0</asrwt>
<pdfrwt beam="1">  1        1 0.78186127E-01 0.57560661E+03</pdfrwt>
<pdfrwt beam="2">  1       -2 0.13156216E+00 0.57560661E+03</pdfrwt>
<totfact> 0.16568062E+01</totfact>
</mgrwt>
</event>
<event>
12    3  0.2422421E-007  0.3903310E+03  0.7818608E-02  0.1047180E+00
         -2   -1    0    0    0  501 -0.00000000000E+00  0.00000000000E+00  0.11928612218E+03  0.11928612218E+03  0.00000000000E+00 0.  1.
          1   -1    0    0  501    0  0.00000000000E+00 -0.00000000000E+00 -0.13703860756E+04  0.13703860756E+04  0.00000000000E+00 0. -1.
        -24    2    1    2    0    0  0.96144463243E+02 -0.13238095309E+03 -0.35293925063E+03  0.39724847755E+03  0.80447272953E+02 0.  0.
    5000000    2    1    2    0    0 -0.96144463243E+02  0.13238095309E+03 -0.89816070285E+03  0.10924237203E+04  0.59994038199E+03 0.  0.
        -24    2    4    4    0    0  0.75407049899E+01  0.34997814901E+03 -0.43136648640E+03  0.56126590038E+03  0.80004989369E+02 0.  0.
         24    2    4    4    0    0 -0.10368516823E+03 -0.21759719592E+03 -0.46679421645E+03  0.53115781990E+03  0.78311144467E+02 0.  0.
         11    1    3    3    0    0  0.70145730782E+02 -0.44903382282E+02 -0.22640427135E+03  0.24123770720E+03  0.00000000000E+00 0. -1.
        -12    1    3    3    0    0  0.25998732460E+02 -0.87477570813E+02 -0.12653497927E+03  0.15601077035E+03  0.00000000000E+00 0.  1.
         11    1    5    5    0    0  0.38498893935E+02  0.18125217618E+03 -0.19256905600E+03  0.26724026181E+03  0.00000000000E+00 0. -1.
        -12    1    5    5    0    0 -0.30958188945E+02  0.16872597283E+03 -0.23879743040E+03  0.29402563857E+03  0.00000000000E+00 0.  1.
          2    1    6    6  502    0 -0.43827043171E+02 -0.16114361663E+03 -0.35531225279E+03  0.39260014248E+03  0.00000000000E+00 0. -1.
         -1    1    6    6    0  502 -0.59858125062E+02 -0.56453579284E+02 -0.11148196366E+03  0.13855767742E+03  0.00000000000E+00 0.  1.
<mgrwt>
<rscale>  0 0.39033099E+03</rscale>
<asrwt>0</asrwt>
<pdfrwt beam="1">  1        1 0.21082863E+00 0.39033099E+03</pdfrwt>
<pdfrwt beam="2">  1       -2 0.18351711E-01 0.39033099E+03</pdfrwt>
<totfact> 0.18491978E+02</totfact>
</mgrwt>
</event>
<event>
12    3  0.2422421E-007  0.6766243E+03  0.7818608E-02  0.9758064E-01
          1   -1    0    0  501    0  0.00000000000E+00  0.00000000000E+00  0.11572797837E+04  0.11572797837E+04  0.00000000000E+00 0. -1.
         -2   -1    0    0    0  501 -0.00000000000E+00 -0.00000000000E+00 -0.54716857097E+03  0.54716857097E+03  0.00000000000E+00 0.  1.
        -24    2    1    2    0    0 -0.50266078111E+03  0.21422324405E+03  0.69579459905E+03  0.88837855025E+03  0.80789017265E+02 0.  0.
    5000000    2    1    2    0    0  0.50266078111E+03 -0.21422324405E+03 -0.85683386299E+02  0.81606980445E+03  0.60005735049E+03 0.  0.
        -24    2    4    4    0    0  0.47690636255E+03 -0.38714408090E+03 -0.78865239714E+02  0.62434393834E+03  0.79154338435E+02 0.  0.
         24    2    4    4    0    0  0.25754418564E+02  0.17292083685E+03 -0.68181465847E+01  0.19172586610E+03  0.78405450810E+02 0.  0.
         11    1    5    5    0    0  0.22400474398E+03 -0.21021227768E+03 -0.72487880235E+02  0.31562924421E+03  0.00000000000E+00 0. -1.
        -12    1    5    5    0    0  0.25290161856E+03 -0.17693180322E+03 -0.63773594795E+01  0.30871469414E+03  0.00000000000E+00 0.  1.
         11    1    3    3    0    0 -0.43991830660E+03  0.20664295794E+03  0.64302097159E+03  0.80604305000E+03  0.00000000000E+00 0. -1.
        -12    1    3    3    0    0 -0.62742474514E+02  0.75802861076E+01  0.52773627459E+02  0.82335500246E+02  0.00000000000E+00 0.  1.
          2    1    6    6  502    0 -0.21812258128E+02  0.27079839646E+02 -0.15517502535E+02  0.38077358165E+02  0.00000000000E+00 0. -1.
         -1    1    6    6    0  502  0.47566676691E+02  0.14584099721E+03  0.86993559500E+01  0.15364850794E+03  0.00000000000E+00 0.  1.
<mgrwt>
<rscale>  0 0.67662431E+03</rscale>
<asrwt>0</asrwt>
<pdfrwt beam="1">  1        1 0.17804304E+00 0.67662431E+03</pdfrwt>
<pdfrwt beam="2">  1       -2 0.84179780E-01 0.67662431E+03</pdfrwt>
<totfact> 0.12854286E+01</totfact>
</mgrwt>
</event>
<event>
12    3  0.2422421E-007  0.4627800E+03  0.7818608E-02  0.1023978E+00
          1   -1    0    0  501    0  0.00000000000E+00  0.00000000000E+00  0.75944847268E+03  0.75944847268E+03  0.00000000000E+00 0. -1.
         -2   -1    0    0    0  501 -0.00000000000E+00 -0.00000000000E+00 -0.46408413238E+03  0.46408413238E+03  0.00000000000E+00 0.  1.
        -24    2    1    2    0    0 -0.39517151849E+03 -0.18707026390E+03  0.12818263680E+03  0.46242856867E+03  0.79079580692E+02 0.  0.
    5000000    2    1    2    0    0  0.39517151849E+03  0.18707026390E+03  0.16718170350E+03  0.76110403640E+03  0.60014483217E+03 0.  0.
        -24    2    4    4    0    0  0.26816157165E+03  0.21299782579E+03  0.36812128920E+03  0.50927240343E+03  0.81033295823E+02 0.  0.
         24    2    4    4    0    0  0.12700994684E+03 -0.25927561895E+02 -0.20093958570E+03  0.25183163297E+03  0.78985373318E+02 0.  0.
         11    1    5    5    0    0  0.18481491000E+03  0.18289776409E+03  0.24255303411E+03  0.35558419175E+03  0.00000000000E+00 0. -1.
        -12    1    5    5    0    0  0.83346661647E+02  0.30100061702E+02  0.12556825510E+03  0.15368821168E+03  0.00000000000E+00 0.  1.
         13    1    3    3    0    0 -0.35494956168E+02 -0.18547681699E+01  0.29028426017E+02  0.45890975097E+02  0.00000000000E+00 0. -1.
        -14    1    3    3    0    0 -0.35967656232E+03 -0.18521549573E+03  0.99154210780E+02  0.41653759357E+03  0.00000000000E+00 0.  1.
          2    1    6    6  502    0 -0.17719576435E+01  0.42035873442E+01  0.51959039428E+01  0.69142894236E+01  0.00000000000E+00 0. -1.
         -1    1    6    6    0  502  0.12878190448E+03 -0.30131149240E+02 -0.20613548964E+03  0.24491734354E+03  0.00000000000E+00 0.  1.
<mgrwt>
<rscale>  0 0.46278000E+03</rscale>
<asrwt>0</asrwt>
<pdfrwt beam="1">  1        1 0.11683823E+00 0.46278000E+03</pdfrwt>
<pdfrwt beam="2">  1       -2 0.71397559E-01 0.46278000E+03</pdfrwt>
<totfact> 0.39369553E+01</totfact>
</mgrwt>
</event>
<event>
12    3  0.2529545E-007  0.1549628E+04  0.7818608E-02  0.8852106E-01
          1   -1    0    0  501    0  0.00000000000E+00  0.00000000000E+00  0.15782214013E+04  0.15782214013E+04  0.00000000000E+00 0. -1.
         -2   -1    0    0    0  501 -0.00000000000E+00 -0.00000000000E+00 -0.15268339231E+04  0.15268339231E+04  0.00000000000E+00 0.  1.
        -24    2    1    2    0    0  0.13188889191E+04 -0.70007151512E+03  0.35010246478E+02  0.14957569860E+04  0.80592409393E+02 0.  0.
    5000000    2    1    2    0    0 -0.13188889191E+04  0.70007151512E+03  0.16377231640E+02  0.16092983384E+04  0.60000401754E+03 0.  0.
        -24    2    4    4    0    0 -0.39166528456E+03  0.52393339862E+03  0.58578627025E+02  0.66118179945E+03  0.76302130128E+02 0.  0.
         24    2    4    4    0    0 -0.92722363457E+03  0.17613811651E+03 -0.42201395385E+02  0.94811653898E+03  0.79848037692E+02 0.  0.
         11    1    3    3    0    0  0.48384874859E+03 -0.29237688315E+03 -0.10030336812E+02  0.56541529955E+03  0.00000000000E+00 0. -1.
        -12    1    3    3    0    0  0.83504017054E+03 -0.40769463197E+03  0.45040583290E+02  0.93034168642E+03  0.00000000000E+00 0.  1.
         13    1    5    5    0    0 -0.14449756700E+03  0.24824106861E+03  0.68249504991E+01  0.28731473155E+03  0.00000000000E+00 0. -1.
        -14    1    5    5    0    0 -0.24716771756E+03  0.27569233000E+03  0.51753676526E+02  0.37386706790E+03  0.00000000000E+00 0.  1.
          4    1    6    6  502    0 -0.31401131322E+03  0.21385237191E+02 -0.13728813438E+02  0.31503795568E+03  0.00000000000E+00 0. -1.
         -3    1    6    6    0  502 -0.61321232134E+03  0.15475287932E+03 -0.28472581947E+02  0.63307858330E+03  0.00000000000E+00 0.  1.
<mgrwt>
<rscale>  0 0.15496275E+04</rscale>
<asrwt>0</asrwt>
<pdfrwt beam="1">  1        1 0.24280329E+00 0.15496275E+04</pdfrwt>
<pdfrwt beam="2">  1       -2 0.23489753E+00 0.15496275E+04</pdfrwt>
<totfact> 0.37830446E-01</totfact>
</mgrwt>
</event>
<event>
12    3  0.2422421E-007  0.1903056E+04  0.7818608E-02  0.8653336E-01
         -2   -1    0    0    0  501 -0.00000000000E+00  0.00000000000E+00  0.22562218501E+04  0.22562218501E+04  0.00000000000E+00 0.  1.
          1   -1    0    0  501    0  0.00000000000E+00 -0.00000000000E+00 -0.17025640822E+04  0.17025640822E+04  0.00000000000E+00 0. -1.
        -24    2    1    2    0    0  0.62869217544E+03  0.17885371845E+04  0.53012899742E+03  0.19701665141E+04  0.80001420860E+02 0.  0.
    5000000    2    1    2    0    0 -0.62869217544E+03 -0.17885371845E+04  0.23528770529E+02  0.19886194182E+04  0.59994539374E+03 0.  0.
        -24    2    4    4    0    0 -0.60172970272E+03 -0.14826764833E+04  0.21937688582E+03  0.16170220610E+04  0.78904615889E+02 0.  0.
         24    2    4    4    0    0 -0.26962472724E+02 -0.30586070125E+03 -0.19584811529E+03  0.37159735723E+03  0.73826608575E+02 0.  0.
         13    1    5    5    0    0 -0.29369924754E+03 -0.65327537291E+03  0.12738247862E+03  0.72749863005E+03  0.00000000000E+00 0. -1.
        -14    1    5    5    0    0 -0.30803045518E+03 -0.82940111037E+03  0.91994407197E+02  0.88952343092E+03  0.00000000000E+00 0.  1.
         13    1    3    3    0    0  0.60916610126E+02  0.25471724480E+03  0.78977573624E+02  0.27354920092E+03  0.00000000000E+00 0. -1.
        -14    1    3    3    0    0  0.56777556532E+03  0.15338199397E+04  0.45115142380E+03  0.16966173132E+04  0.00000000000E+00 0.  1.
          2    1    6    6  502    0  0.31049270486E+01 -0.36312818445E+02 -0.55018110271E+02  0.65994346827E+02  0.00000000000E+00 0. -1.
         -3    1    6    6    0  502 -0.30067399772E+02 -0.26954788281E+03 -0.14083000502E+03  0.30560301040E+03  0.00000000000E+00 0.  1.
<mgrwt>
<rscale>  0 0.19030564E+04</rscale>
<asrwt>0</asrwt>
<pdfrwt beam="1">  1        1 0.26193294E+00 0.19030564E+04</pdfrwt>
<pdfrwt beam="2">  1       -2 0.34711105E+00 0.19030564E+04</pdfrwt>
<totfact> 0.60843400E-02</totfact>
</mgrwt>
</event>
<event>
12    3  0.2422421E-007  0.3172752E+03  0.7818608E-02  0.1076910E+00
          1   -1    0    0  501    0  0.00000000000E+00  0.00000000000E+00  0.64601876500E+03  0.64601876500E+03  0.00000000000E+00 0. -1.
         -4   -1    0    0    0  501 -0.00000000000E+00 -0.00000000000E+00 -0.30910750985E+03  0.30910750985E+03  0.00000000000E+00 0.  1.
        -24    2    1    2    0    0 -0.37964338798E+02 -0.23298441768E+03  0.97096153760E+02  0.26718483494E+03  0.78974952005E+02 0.  0.
    5000000    2    1    2    0    0  0.37964338798E+02  0.23298441768E+03  0.23981510138E+03  0.68794143991E+03  0.60002425951E+03 0.  0.
        -24    2    4    4    0    0  0.12258082350E+03  0.24584991625E+03 -0.11934751404E+03  0.31001456101E+03  0.79980993500E+02 0.  0.
         24    2    4    4    0    0 -0.84616484699E+02 -0.12865498570E+02  0.35916261542E+03  0.37792687890E+03  0.80656499714E+02 0.  0.
         11    1    3    3    0    0 -0.54185515875E+02 -0.11135369974E+03  0.30364924756E+02  0.12750586352E+03  0.00000000000E+00 0. -1.
        -12    1    3    3    0    0  0.16221177077E+02 -0.12163071794E+03  0.66731229004E+02  0.13967897142E+03  0.00000000000E+00 0.  1.
         13    1    5    5    0    0  0.93649773483E+02  0.22827007408E+03 -0.12348448229E+03  0.27590926799E+03  0.00000000000E+00 0. -1.
        -14    1    5    5    0    0  0.28931050014E+02  0.17579842165E+02  0.41369682564E+01  0.34105293017E+02  0.00000000000E+00 0.  1.
          2    1    6    6  502    0 -0.20171190202E+02 -0.34053412231E+02  0.65492511800E+02  0.76523074302E+02  0.00000000000E+00 0. -1.
         -1    1    6    6    0  502 -0.64445294496E+02  0.21187913661E+02  0.29367010362E+03  0.30140380460E+03  0.00000000000E+00 0.  1.
<mgrwt>
<rscale>  0 0.31727517E+03</rscale>
<asrwt>0</asrwt>
<pdfrwt beam="1">  1        1 0.99387502E-01 0.31727517E+03</pdfrwt>
<pdfrwt beam="2">  1       -4 0.47555002E-01 0.31727517E+03</pdfrwt>
<totfact> 0.64120543E+01</totfact>
</mgrwt>
</event>
<event>
12    3  0.2422421E-007  0.9614168E+03  0.7818608E-02  0.9351905E-01
         -2   -1    0    0    0  501 -0.00000000000E+00  0.00000000000E+00  0.18450967576E+04  0.18450967576E+04  0.00000000000E+00 0.  1.
          1   -1    0    0  501    0  0.00000000000E+00 -0.00000000000E+00 -0.72910866236E+03  0.72910866236E+03  0.00000000000E+00 0. -1.
        -24    2    1    2    0    0  0.88879271793E+03  0.29660619652E+03  0.11186489403E+04  0.14616357775E+04  0.84118743436E+02 0.  0.
    5000000    2    1    2    0    0 -0.88879271793E+03 -0.29660619652E+03 -0.26608450682E+01  0.11125696425E+04  0.59989698958E+03 0.  0.
        -24    2    4    4    0    0 -0.33132269246E+03  0.38683928479E+02 -0.23459418700E+03  0.41724023959E+03  0.88225915111E+02 0.  0.
         24    2    4    4    0    0 -0.55747002547E+03 -0.33529012499E+03  0.23193334193E+03  0.69532940293E+03  0.80607730843E+02 0.  0.
         11    1    5    5    0    0 -0.14404906261E+03  0.15485375792E+02 -0.15578013377E+03  0.21273781841E+03  0.00000000000E+00 0. -1.
        -12    1    5    5    0    0 -0.18727362984E+03  0.23198552687E+02 -0.78814053225E+02  0.20450242118E+03  0.00000000000E+00 0.  1.
         13    1    3    3    0    0  0.49255725477E+03  0.19340438591E+03  0.67902727302E+03  0.86086929508E+03  0.00000000000E+00 0. -1.
        -14    1    3    3    0    0  0.39623546316E+03  0.10320181061E+03  0.43962166730E+03  0.60076648237E+03  0.00000000000E+00 0.  1.
          2    1    6    6  502    0 -0.31974771952E+03 -0.18587176211E+03  0.17355544590E+03  0.40854425573E+03  0.00000000000E+00 0. -1.
         -1    1    6    6    0  502 -0.23772230595E+03 -0.14941836288E+03  0.58377896030E+02  0.28678514721E+03  0.00000000000E+00 0.  1.
<mgrwt>
<rscale>  0 0.96141684E+03</rscale>
<asrwt>0</asrwt>
<pdfrwt beam="1">  1        1 0.11217056E+00 0.96141684E+03</pdfrwt>
<pdfrwt beam="2">  1       -2 0.28386104E+00 0.96141684E+03</pdfrwt>
<totfact> 0.90500597E-01</totfact>
</mgrwt>
</event>
<event>
12    3  0.2422421E-007  0.6727239E+03  0.7818608E-02  0.9765049E-01
         -2   -1    0    0    0  501 -0.00000000000E+00  0.00000000000E+00  0.21045501260E+03  0.21045501260E+03  0.00000000000E+00 0.  1.
          1   -1    0    0  501    0  0.00000000000E+00 -0.00000000000E+00 -0.25053918530E+04  0.25053918530E+04  0.00000000000E+00 0. -1.
        -24    2    1    2    0    0  0.11582982388E+03  0.56393472239E+03 -0.12649967953E+04  0.13921252332E+04  0.79729879782E+02 0.  0.
    5000000    2    1    2    0    0 -0.11582982388E+03 -0.56393472239E+03 -0.10299400451E+04  0.13237216324E+04  0.60001961987E+03 0.  0.
        -24    2    4    4    0    0 -0.16287817068E+03  0.23518067998E+02 -0.74772155994E+02  0.19867010148E+03  0.82441105656E+02 0.  0.
         24    2    4    4    0    0  0.47048346802E+02 -0.58745279039E+03 -0.95516788914E+03  0.11250515309E+04  0.77980272261E+02 0.  0.
         13    1    5    5    0    0 -0.89601089035E+02  0.46930297557E+02 -0.67059497335E+02  0.12135808242E+03  0.00000000000E+00 0. -1.
        -14    1    5    5    0    0 -0.73277081645E+02 -0.23412229559E+02 -0.77126586586E+01  0.77312019059E+02  0.00000000000E+00 0.  1.
         13    1    3    3    0    0  0.45633561792E+02  0.22054060047E+03 -0.40420832059E+03  0.46271475539E+03  0.00000000000E+00 0. -1.
        -14    1    3    3    0    0  0.70196262085E+02  0.34339412192E+03 -0.86078847469E+03  0.92941047785E+03  0.00000000000E+00 0.  1.
          4    1    6    6  502    0  0.56037163674E+01 -0.38371511572E+03 -0.67031969010E+03  0.77239703430E+03  0.00000000000E+00 0. -1.
         -3    1    6    6    0  502  0.41444630435E+02 -0.20373767466E+03 -0.28484819905E+03  0.35265449660E+03  0.00000000000E+00 0.  1.
<mgrwt>
<rscale>  0 0.67272393E+03</rscale>
<asrwt>0</asrwt>
<pdfrwt beam="1">  1        1 0.38544489E+00 0.67272393E+03</pdfrwt>
<pdfrwt beam="2">  1       -2 0.32377695E-01 0.67272393E+03</pdfrwt>
<totfact> 0.11144143E+01</totfact>
</mgrwt>
</event>
<event>
12    3  0.2422421E-007  0.5761039E+03  0.7818608E-02  0.9956262E-01
          1   -1    0    0  501    0  0.00000000000E+00  0.00000000000E+00  0.21304350503E+04  0.21304350503E+04  0.00000000000E+00 0. -1.
         -2   -1    0    0    0  501 -0.00000000000E+00 -0.00000000000E+00 -0.26118853066E+03  0.26118853066E+03  0.00000000000E+00 0.  1.
        -24    2    1    2    0    0  0.44045364924E+03 -0.20430198736E+03  0.14104264076E+04  0.14936746535E+04  0.77605412416E+02 0.  0.
    5000000    2    1    2    0    0 -0.44045364924E+03  0.20430198736E+03  0.45882011206E+03  0.89794892749E+03  0.60004804972E+03 0.  0.
        -24    2    4    4    0    0 -0.64992300479E+02 -0.12670599539E+03  0.33888437104E+03  0.37661115245E+03  0.81944705890E+02 0.  0.
         24    2    4    4    0    0 -0.37546134876E+03  0.33100798275E+03  0.11993574102E+03  0.52133777504E+03  0.82891402749E+02 0.  0.
         11    1    5    5    0    0  0.18958343951E+02 -0.25469229483E+02  0.83918083420E+02  0.89723715820E+02  0.00000000000E+00 0. -1.
        -12    1    5    5    0    0 -0.83950644430E+02 -0.10123676591E+03  0.25496628762E+03  0.28688743663E+03  0.00000000000E+00 0.  1.
         13    1    3    3    0    0  0.34226136622E+03 -0.13371034359E+03  0.98159487196E+03  0.10481172604E+04  0.00000000000E+00 0. -1.
        -14    1    3    3    0    0  0.98192283019E+02 -0.70591643770E+02  0.42883153564E+03  0.44555739313E+03  0.00000000000E+00 0.  1.
          4    1    6    6  502    0 -0.21888826087E+03  0.19021462044E+03  0.27220542002E+02  0.29126385029E+03  0.00000000000E+00 0. -1.
         -3    1    6    6    0  502 -0.15657308789E+03  0.14079336231E+03  0.92715199018E+02  0.23007392475E+03  0.00000000000E+00 0.  1.
<mgrwt>
<rscale>  0 0.57610390E+03</rscale>
<asrwt>0</asrwt>
<pdfrwt beam="1">  1        1 0.32775923E+00 0.57610390E+03</pdfrwt>
<pdfrwt beam="2">  1       -2 0.40182852E-01 0.57610390E+03</pdfrwt>
<totfact> 0.13418156E+01</totfact>
</mgrwt>
</event>
<event>
12    3  0.2422421E-007  0.1197366E+04  0.7818608E-02  0.9115166E-01
          1   -1    0    0  501    0  0.00000000000E+00  0.00000000000E+00  0.17674872348E+04  0.17674872348E+04  0.00000000000E+00 0. -1.
         -2   -1    0    0    0  501 -0.00000000000E+00 -0.00000000000E+00 -0.10771855757E+04  0.10771855757E+04  0.00000000000E+00 0.  1.
        -24    2    1    2    0    0 -0.11204723673E+04 -0.32265593336E+03  0.95246044236E+03  0.15074358892E+04  0.74945903903E+02 0.  0.
    5000000    2    1    2    0    0  0.11204723673E+04  0.32265593336E+03 -0.26215878326E+03  0.13372369212E+04  0.59992514425E+03 0.  0.
        -24    2    4    4    0    0  0.19889135235E+03  0.20540197989E+03 -0.27725586908E+03  0.40461986917E+03  0.71405029288E+02 0.  0.
         24    2    4    4    0    0  0.92158101494E+03  0.11725395347E+03  0.15097085819E+02  0.93261705207E+03  0.80539351311E+02 0.  0.
         11    1    5    5    0    0  0.63964444019E+02  0.11713939332E+03 -0.12538527244E+03  0.18312442248E+03  0.00000000000E+00 0. -1.
        -12    1    5    5    0    0  0.13492690833E+03  0.88262586575E+02 -0.15187059664E+03  0.22149544669E+03  0.00000000000E+00 0.  1.
         13    1    3    3    0    0 -0.22462678028E+03 -0.91543380634E+02  0.21886137819E+03  0.32670733665E+03  0.00000000000E+00 0. -1.
        -14    1    3    3    0    0 -0.89584558701E+03 -0.23111255273E+03  0.73359906417E+03  0.11807285525E+04  0.00000000000E+00 0.  1.
          2    1    6    6  502    0  0.11994914281E+03  0.42196612233E+02 -0.46016885718E+01  0.12723807010E+03  0.00000000000E+00 0. -1.
         -1    1    6    6    0  502  0.80163187213E+03  0.75057341235E+02  0.19698774391E+02  0.80537898197E+03  0.00000000000E+00 0.  1.
<mgrwt>
<rscale>  0 0.11973655E+04</rscale>
<asrwt>0</asrwt>
<pdfrwt beam="1">  1        1 0.27192111E+00 0.11973655E+04</pdfrwt>
<pdfrwt beam="2">  1       -2 0.16572086E+00 0.11973655E+04</pdfrwt>
<totfact> 0.83927321E-01</totfact>
</mgrwt>
</event>
<event>
12    3  0.2422421E-007  0.1589009E+04  0.7818608E-02  0.8827329E-01
         -2   -1    0    0    0  501 -0.00000000000E+00  0.00000000000E+00  0.10622571154E+04  0.10622571154E+04  0.00000000000E+00 0.  1.
          1   -1    0    0  501    0  0.00000000000E+00 -0.00000000000E+00 -0.30660666623E+04  0.30660666623E+04  0.00000000000E+00 0. -1.
        -24    2    1    2    0    0  0.12647986056E+04 -0.86599084546E+03 -0.19493452981E+04  0.24811485019E+04  0.80592434541E+02 0.  0.
    5000000    2    1    2    0    0 -0.12647986056E+04  0.86599084546E+03 -0.54464248813E+02  0.16471752758E+04  0.60047013046E+03 0.  0.
        -24    2    4    4    0    0 -0.71597179037E+03  0.14186458863E+03 -0.30221680180E+02  0.73471216501E+03  0.78405671628E+02 0.  0.
         24    2    4    4    0    0 -0.54882681520E+03  0.72412625684E+03 -0.24242568633E+02  0.91246311075E+03  0.80196741919E+02 0.  0.
         11    1    5    5    0    0 -0.37744963524E+03  0.37457291976E+02 -0.16838670031E+01  0.37930740998E+03  0.00000000000E+00 0. -1.
        -12    1    5    5    0    0 -0.33852215514E+03  0.10440729665E+03 -0.28537813177E+02  0.35540475502E+03  0.00000000000E+00 0.  1.
         11    1    3    3    0    0  0.22304060245E+03 -0.12454557634E+03 -0.29460821070E+03  0.38993936546E+03  0.00000000000E+00 0. -1.
        -12    1    3    3    0    0  0.10417580031E+04 -0.74144526912E+03 -0.16547370874E+04  0.20912091365E+04  0.00000000000E+00 0.  1.
          4    1    6    6  502    0 -0.41081270016E+03  0.50007679904E+03  0.88645094996E+01  0.64724219506E+03  0.00000000000E+00 0. -1.
         -3    1    6    6    0  502 -0.13801411505E+03  0.22404945780E+03 -0.33107078133E+02  0.26522091569E+03  0.00000000000E+00 0.  1.
<mgrwt>
<rscale>  0 0.15890091E+04</rscale>
<asrwt>0</asrwt>
<pdfrwt beam="1">  1        1 0.47170256E+00 0.15890091E+04</pdfrwt>
<pdfrwt beam="2">  1       -2 0.16342417E+00 0.15890091E+04</pdfrwt>
<totfact> 0.10453227E-01</totfact>
</mgrwt>
</event>
<event>
12    3  0.2422421E-007  0.4319360E+03  0.7818608E-02  0.1033250E+00
          1   -1    0    0  501    0  0.00000000000E+00  0.00000000000E+00  0.11268954395E+04  0.11268954395E+04  0.00000000000E+00 0. -1.
         -2   -1    0    0    0  501 -0.00000000000E+00 -0.00000000000E+00 -0.22144568561E+03  0.22144568561E+03  0.00000000000E+00 0.  1.
        -24    2    1    2    0    0 -0.22490219033E+03  0.53102381741E+02  0.57539212732E+03  0.62563214019E+03  0.83298358240E+02 0.  0.
    5000000    2    1    2    0    0  0.22490219033E+03 -0.53102381741E+02  0.33005762660E+03  0.72270898495E+03  0.59997448437E+03 0.  0.
        -24    2    4    4    0    0 -0.19479536285E+03 -0.15950533308E+02  0.13857447831E+03  0.25302957761E+03  0.81372158674E+02 0.  0.
         24    2    4    4    0    0  0.41969755318E+03 -0.37151848433E+02  0.19148314829E+03  0.46967940734E+03  0.80041574279E+02 0.  0.
         13    1    5    5    0    0 -0.15675372201E+03 -0.11085712979E+02  0.14537958545E+03  0.21407906545E+03  0.00000000000E+00 0. -1.
        -14    1    5    5    0    0 -0.38041640840E+02 -0.48648203284E+01 -0.68051071446E+01  0.38950512164E+02  0.00000000000E+00 0.  1.
         13    1    3    3    0    0 -0.15860487933E+02  0.31771971983E+02  0.84282634659E+02  0.91458054791E+02  0.00000000000E+00 0. -1.
        -14    1    3    3    0    0 -0.20904170240E+03  0.21330409757E+02  0.49110949266E+03  0.53417408539E+03  0.00000000000E+00 0.  1.
          2    1    6    6  502    0  0.13429074189E+03  0.41661562291E+01  0.24905053621E+02  0.13664414334E+03  0.00000000000E+00 0. -1.
         -1    1    6    6    0  502  0.28540681129E+03 -0.41318004662E+02  0.16657809467E+03  0.33303526400E+03  0.00000000000E+00 0.  1.
<mgrwt>
<rscale>  0 0.43193600E+03</rscale>
<asrwt>0</asrwt>
<pdfrwt beam="1">  1        1 0.17336853E+00 0.43193600E+03</pdfrwt>
<pdfrwt beam="2">  1       -2 0.34068568E-01 0.43193600E+03</pdfrwt>
<totfact> 0.90202479E+01</totfact>
</mgrwt>
</event>
<event>
12    3  0.2422421E-007  0.1883173E+04  0.7818608E-02  0.8663278E-01
          1   -1    0    0  501    0  0.00000000000E+00  0.00000000000E+00  0.22237187967E+04  0.22237187967E+04  0.00000000000E+00 0. -1.
         -2   -1    0    0    0  501 -0.00000000000E+00 -0.00000000000E+00 -0.23090842338E+04  0.23090842338E+04  0.00000000000E+00 0.  1.
        -24    2    1    2    0    0  0.18490339547E+04  0.10873329528E+03  0.11922393050E+04  0.22040226941E+04  0.74377285807E+02 0.  0.
    5000000    2    1    2    0    0 -0.18490339547E+04 -0.10873329528E+03 -0.12776047420E+04  0.23287803364E+04  0.60016204739E+03 0.  0.
        -24    2    4    4    0    0 -0.16619302804E+04 -0.22399168969E+03 -0.12497250205E+04  0.20929267941E+04  0.79658048379E+02 0.  0.
         24    2    4    4    0    0 -0.18710367431E+03  0.11525839440E+03 -0.27879721560E+02  0.23585354230E+03  0.80977355599E+02 0.  0.
         11    1    5    5    0    0 -0.64285079259E+03 -0.12550764654E+03 -0.49394536579E+03  0.82036049104E+03  0.00000000000E+00 0. -1.
        -12    1    5    5    0    0 -0.10190794878E+04 -0.98484043142E+02 -0.75577965468E+03  0.12725663031E+04  0.00000000000E+00 0.  1.
         13    1    3    3    0    0  0.10458734272E+04  0.27936757896E+02  0.69128679693E+03  0.12539972583E+04  0.00000000000E+00 0. -1.
        -14    1    3    3    0    0  0.80316052753E+03  0.80796537386E+02  0.50095250806E+03  0.95002543585E+03  0.00000000000E+00 0.  1.
          4    1    6    6  502    0 -0.82912877747E+01  0.38665543378E+02 -0.76599889584E+01  0.40279586995E+02  0.00000000000E+00 0. -1.
         -3    1    6    6    0  502 -0.17881238653E+03  0.76592851027E+02 -0.20219732602E+02  0.19557395530E+03  0.00000000000E+00 0.  1.
<mgrwt>
<rscale>  0 0.18831732E+04</rscale>
<asrwt>0</asrwt>
<pdfrwt beam="1">  1        1 0.34211059E+00 0.18831732E+04</pdfrwt>
<pdfrwt beam="2">  1       -2 0.35524373E+00 0.18831732E+04</pdfrwt>
<totfact> 0.23807847E-02</totfact>
</mgrwt>
</event>
<event>
12    3  0.2422421E-007  0.5185903E+03  0.7818608E-02  0.1009037E+00
          1   -1    0    0  501    0  0.00000000000E+00  0.00000000000E+00  0.10137790646E+04  0.10137790646E+04  0.00000000000E+00 0. -1.
         -2   -1    0    0    0  501 -0.00000000000E+00 -0.00000000000E+00 -0.38353395869E+03  0.38353395869E+03  0.00000000000E+00 0.  1.
        -24    2    1    2    0    0  0.13199222524E+03 -0.38395914936E+03 -0.32868308038E+02  0.41517863879E+03  0.80289479617E+02 0.  0.
    5000000    2    1    2    0    0 -0.13199222524E+03  0.38395914936E+03  0.66311341399E+03  0.98213438453E+03  0.60001831102E+03 0.  0.
        -24    2    4    4    0    0  0.17569430182E+03  0.10831837733E+03  0.32108456923E+02  0.22370133619E+03  0.80062327265E+02 0.  0.
         24    2    4    4    0    0 -0.30768652706E+03  0.27564077203E+03  0.63100495707E+03  0.75843304834E+03  0.80028737551E+02 0.  0.
         11    1    3    3    0    0  0.75237805109E+02 -0.22000695269E+03  0.21124683551E+02  0.23347385036E+03  0.00000000000E+00 0. -1.
        -12    1    3    3    0    0  0.56754420132E+02 -0.16395219667E+03 -0.53992991589E+02  0.18170478843E+03  0.00000000000E+00 0.  1.
         11    1    5    5    0    0  0.98126652451E+02  0.21203215752E+02  0.36902689086E+02  0.10695898626E+03  0.00000000000E+00 0. -1.
        -12    1    5    5    0    0  0.77567649370E+02  0.87115161577E+02 -0.47942321633E+01  0.11674234993E+03  0.00000000000E+00 0.  1.
          4    1    6    6  502    0 -0.13176265482E+03  0.98814763166E+02  0.31872714744E+03  0.35876559080E+03  0.00000000000E+00 0. -1.
         -3    1    6    6    0  502 -0.17592387224E+03  0.17682600886E+03  0.31227780963E+03  0.39966745755E+03  0.00000000000E+00 0.  1.
<mgrwt>
<rscale>  0 0.51859027E+03</rscale>
<asrwt>0</asrwt>
<pdfrwt beam="1">  1        1 0.15596601E+00 0.51859027E+03</pdfrwt>
<pdfrwt beam="2">  1       -2 0.59005225E-01 0.51859027E+03</pdfrwt>
<totfact> 0.36448874E+01</totfact>
</mgrwt>
</event>
<event>
12    3  0.2422421E-007  0.5688809E+03  0.7818608E-02  0.9972158E-01
         -2   -1    0    0    0  501 -0.00000000000E+00  0.00000000000E+00  0.34638276355E+03  0.34638276355E+03  0.00000000000E+00 0.  1.
          1   -1    0    0  501    0  0.00000000000E+00 -0.00000000000E+00 -0.11951096385E+04  0.11951096385E+04  0.00000000000E+00 0. -1.
        -24    2    1    2    0    0  0.33597884812E+03 -0.36954019196E+03 -0.33541038988E+03  0.60717235578E+03  0.81953646187E+02 0.  0.
    5000000    2    1    2    0    0 -0.33597884812E+03  0.36954019196E+03 -0.51331648507E+03  0.93432004629E+03  0.60001532913E+03 0.  0.
        -24    2    4    4    0    0  0.80271028918E+00  0.26736301316E+03 -0.50167375852E+03  0.57400685389E+03  0.79521589407E+02 0.  0.
         24    2    4    4    0    0 -0.33678155840E+03  0.10217717880E+03 -0.11642726555E+02  0.36031319239E+03  0.76341663461E+02 0.  0.
         11    1    3    3    0    0  0.88508327876E+02 -0.68210659068E+02 -0.10991021317E+03  0.15673759305E+03  0.00000000000E+00 0. -1.
        -12    1    3    3    0    0  0.24747052024E+03 -0.30132953290E+03 -0.22550017671E+03  0.45043476273E+03  0.00000000000E+00 0.  1.
         13    1    5    5    0    0 -0.32399085512E+02  0.80366827152E+02 -0.19341866837E+03  0.21194175833E+03  0.00000000000E+00 0. -1.
        -14    1    5    5    0    0  0.33201795801E+02  0.18699618601E+03 -0.30825509014E+03  0.36206509556E+03  0.00000000000E+00 0.  1.
          4    1    6    6  502    0 -0.26238432727E+03  0.11041503617E+03 -0.17677779677E+02  0.28521837126E+03  0.00000000000E+00 0. -1.
         -3    1    6    6    0  502 -0.74397231136E+02 -0.82378573692E+01  0.60350531217E+01  0.75094821133E+02  0.00000000000E+00 0.  1.
<mgrwt>
<rscale>  0 0.56888087E+03</rscale>
<asrwt>0</asrwt>
<pdfrwt beam="1">  1        1 0.18386302E+00 0.56888087E+03</pdfrwt>
<pdfrwt beam="2">  1       -2 0.53289656E-01 0.56888087E+03</pdfrwt>
<totfact> 0.32843041E+01</totfact>
</mgrwt>
</event>
<event>
12    3  0.2422421E-007  0.6453043E+03  0.7818608E-02  0.9815630E-01
         -2   -1    0    0    0  501 -0.00000000000E+00  0.00000000000E+00  0.28429988393E+03  0.28429988393E+03  0.00000000000E+00 0.  1.
          1   -1    0    0  501    0  0.00000000000E+00 -0.00000000000E+00 -0.18433695972E+04  0.18433695972E+04  0.00000000000E+00 0. -1.
        -24    2    1    2    0    0 -0.56300319667E+03  0.19597521370E+03 -0.61725223062E+03  0.86175283903E+03  0.78985793213E+02 0.  0.
    5000000    2    1    2    0    0  0.56300319667E+03 -0.19597521370E+03 -0.94181748262E+03  0.12659166421E+04  0.60012156289E+03 0.  0.
        -24    2    4    4    0    0  0.32006426136E+03 -0.28443148348E+03 -0.88890677468E+03  0.98980798099E+03  0.78880827694E+02 0.  0.
         24    2    4    4    0    0  0.24293893531E+03  0.88456269782E+02 -0.52910707946E+02  0.27610866107E+03  0.81194899787E+02 0.  0.
         11    1    3    3    0    0 -0.23670712606E+03  0.42988702031E+02 -0.26232845291E+03  0.35594172169E+03  0.00000000000E+00 0. -1.
        -12    1    3    3    0    0 -0.32629607061E+03  0.15298651167E+03 -0.35492377771E+03  0.50581111734E+03  0.00000000000E+00 0.  1.
         13    1    5    5    0    0  0.20972906167E+03 -0.17439435871E+03 -0.64588559667E+03  0.70111901675E+03  0.00000000000E+00 0. -1.
        -14    1    5    5    0    0  0.11033519969E+03 -0.11003712477E+03 -0.24302117801E+03  0.28868896425E+03  0.00000000000E+00 0.  1.
          2    1    6    6  502    0  0.22835715875E+03  0.91767675604E+02 -0.67523226566E+02  0.25520126246E+03  0.00000000000E+00 0. -1.
         -1    1    6    6    0  502  0.14581776563E+02 -0.33114058218E+01  0.14612518620E+02  0.20907398611E+02  0.00000000000E+00 0.  1.
<mgrwt>
<rscale>  0 0.64530434E+03</rscale>
<asrwt>0</asrwt>
<pdfrwt beam="1">  1        1 0.28359533E+00 0.64530434E+03</pdfrwt>
<pdfrwt beam="2">  1       -2 0.43738442E-01 0.64530434E+03</pdfrwt>
<totfact> 0.17428662E+01</totfact>
</mgrwt>
</event>
<event>
12    3  0.2422421E-007  0.4423415E+03  0.7818608E-02  0.1030031E+00
         -4   -1    0    0    0  501 -0.00000000000E+00  0.00000000000E+00  0.45017329431E+03  0.45017329431E+03  0.00000000000E+00 0.  1.
          1   -1    0    0  501    0  0.00000000000E+00 -0.00000000000E+00 -0.66869471406E+03  0.66869471406E+03  0.00000000000E+00 0. -1.
        -24    2    1    2    0    0  0.69671070851E+02  0.34225267782E+03 -0.22822999886E+03  0.42461104166E+03  0.78833056117E+02 0.  0.
    5000000    2    1    2    0    0 -0.69671070851E+02 -0.34225267782E+03  0.97085791010E+01  0.69425696671E+03  0.59992293316E+03 0.  0.
        -24    2    4    4    0    0  0.14682533598E+03 -0.75878946268E+02 -0.20921125156E+03  0.27776736646E+03  0.77910643166E+02 0.  0.
         24    2    4    4    0    0 -0.21649640683E+03 -0.26637373155E+03  0.21891983066E+03  0.41648960025E+03  0.87818197581E+02 0.  0.
         11    1    3    3    0    0  0.59296161622E+00  0.19824492649E+03 -0.13121992363E+03  0.23773950206E+03  0.00000000000E+00 0. -1.
        -12    1    3    3    0    0  0.69078109234E+02  0.14400775133E+03 -0.97010075231E+02  0.18687153961E+03  0.00000000000E+00 0.  1.
         11    1    5    5    0    0  0.19579819027E+02  0.80816655661E+01 -0.31071367983E+01  0.21408804977E+02  0.00000000000E+00 0. -1.
        -12    1    5    5    0    0  0.12724551695E+03 -0.83960611835E+02 -0.20610411476E+03  0.25635856148E+03  0.00000000000E+00 0.  1.
          4    1    6    6  502    0 -0.67294652482E+02 -0.30265072417E+02  0.60288240706E+02  0.95284924456E+02  0.00000000000E+00 0. -1.
         -3    1    6    6    0  502 -0.14920175435E+03 -0.23610865913E+03  0.15863158996E+03  0.32120467579E+03  0.00000000000E+00 0.  1.
<mgrwt>
<rscale>  0 0.44234148E+03</rscale>
<asrwt>0</asrwt>
<pdfrwt beam="1">  1        1 0.10287611E+00 0.44234148E+03</pdfrwt>
<pdfrwt beam="2">  1       -4 0.69257430E-01 0.44234148E+03</pdfrwt>
<totfact> 0.27406031E+01</totfact>
</mgrwt>
</event>
<event>
12    3  0.2422421E-007  0.5797339E+03  0.7818608E-02  0.9948367E-01
         -2   -1    0    0    0  501 -0.00000000000E+00  0.00000000000E+00  0.18991965249E+03  0.18991965249E+03  0.00000000000E+00 0.  1.
          1   -1    0    0  501    0  0.00000000000E+00 -0.00000000000E+00 -0.21781455909E+04  0.21781455909E+04  0.00000000000E+00 0. -1.
        -24    2    1    2    0    0 -0.35440146020E+03  0.23687710316E+03 -0.12608125540E+04  0.13332433376E+04  0.78602441735E+02 0.  0.
    5000000    2    1    2    0    0  0.35440146020E+03 -0.23687710316E+03 -0.72741338441E+03  0.10348219058E+04  0.60001248984E+03 0.  0.
        -24    2    4    4    0    0 -0.11403147109E+03  0.80384606280E+02 -0.20585195011E+03  0.26110446113E+03  0.79596814846E+02 0.  0.
         24    2    4    4    0    0  0.46843293128E+03 -0.31726170944E+03 -0.52156143430E+03  0.77371744470E+03  0.80795736808E+02 0.  0.
         11    1    3    3    0    0 -0.50379334035E+02  0.60383887963E+02 -0.30015077065E+03  0.31028176928E+03  0.00000000000E+00 0. -1.
        -12    1    3    3    0    0 -0.30402212616E+03  0.17649321520E+03 -0.96066178333E+03  0.10229615683E+04  0.00000000000E+00 0.  1.
         13    1    5    5    0    0 -0.28822690172E+02 -0.14148299131E+02 -0.55519457771E+02  0.64135263531E+02  0.00000000000E+00 0. -1.
        -14    1    5    5    0    0 -0.85208780915E+02  0.94532905411E+02 -0.15033249234E+03  0.19696919760E+03  0.00000000000E+00 0.  1.
          4    1    6    6  502    0  0.25034585345E+03 -0.21056695612E+03 -0.27066777442E+03  0.42458513099E+03  0.00000000000E+00 0. -1.
         -3    1    6    6    0  502  0.21808707784E+03 -0.10669475333E+03 -0.25089365988E+03  0.34913231371E+03  0.00000000000E+00 0.  1.
<mgrwt>
<rscale>  0 0.57973387E+03</rscale>
<asrwt>0</asrwt>
<pdfrwt beam="1">  1        1 0.33509929E+00 0.57973387E+03</pdfrwt>
<pdfrwt beam="2">  1       -2 0.29218411E-01 0.57973387E+03</pdfrwt>
<totfact> 0.22762949E+01</totfact>
</mgrwt>
</event>
<event>
12    3  0.2422421E-007  0.8062541E+03  0.7818608E-02  0.9551008E-01
         -2   -1    0    0    0  501 -0.00000000000E+00  0.00000000000E+00  0.44228091813E+03  0.44228091813E+03  0.00000000000E+00 0.  1.
          1   -1    0    0  501    0  0.00000000000E+00 -0.00000000000E+00 -0.18423140634E+04  0.18423140634E+04  0.00000000000E+00 0. -1.
        -24    2    1    2    0    0  0.34032783021E+03 -0.71926249473E+03 -0.51042650064E+03  0.94871324335E+03  0.79749841437E+02 0.  0.
    5000000    2    1    2    0    0 -0.34032783021E+03  0.71926249473E+03 -0.88960664465E+03  0.13358817382E+04  0.60001538974E+03 0.  0.
        -24    2    4    4    0    0 -0.26643514403E+03  0.43810967382E+03 -0.89489369547E+03  0.10344595609E+04  0.79649762737E+02 0.  0.
         24    2    4    4    0    0 -0.73892686181E+02  0.28115282091E+03  0.52870508197E+01  0.30142217729E+03  0.79500555230E+02 0.  0.
         11    1    3    3    0    0  0.24117760534E+03 -0.42895453043E+03 -0.29338309506E+03  0.57292431172E+03  0.00000000000E+00 0. -1.
        -12    1    3    3    0    0  0.99150224863E+02 -0.29030796430E+03 -0.21704340558E+03  0.37578893162E+03  0.00000000000E+00 0.  1.
         13    1    5    5    0    0 -0.17735344214E+03  0.25297507625E+03 -0.46922638488E+03  0.56180426566E+03  0.00000000000E+00 0. -1.
        -14    1    5    5    0    0 -0.89081701882E+02  0.18513459758E+03 -0.42566731058E+03  0.47265529525E+03  0.00000000000E+00 0.  1.
          4    1    6    6  502    0 -0.50761235787E+02  0.68179211089E+02 -0.14712655650E+02  0.86264535700E+02  0.00000000000E+00 0. -1.
         -3    1    6    6    0  502 -0.23131450394E+02  0.21297360982E+03  0.19999706470E+02  0.21515764159E+03  0.00000000000E+00 0.  1.
<mgrwt>
<rscale>  0 0.80625411E+03</rscale>
<asrwt>0</asrwt>
<pdfrwt beam="1">  1        1 0.28343293E+00 0.80625411E+03</pdfrwt>
<pdfrwt beam="2">  1       -2 0.68043219E-01 0.80625411E+03</pdfrwt>
<totfact> 0.68242670E+00</totfact>
</mgrwt>
</event>
<event>
12    3  0.2422421E-007  0.1217687E+04  0.7818608E-02  0.9097515E-01
         -2   -1    0    0    0  501 -0.00000000000E+00  0.00000000000E+00  0.81931663076E+03  0.81931663076E+03  0.00000000000E+00 0.  1.
          1   -1    0    0  501    0  0.00000000000E+00 -0.00000000000E+00 -0.25914268240E+04  0.25914268240E+04  0.00000000000E+00 0. -1.
        -24    2    1    2    0    0  0.50617285387E+03  0.10778675061E+04 -0.65216815222E+00  0.11935070531E+04  0.80307793271E+02 0.  0.
    5000000    2    1    2    0    0 -0.50617285387E+03 -0.10778675061E+04 -0.17714580251E+04  0.22172364017E+04  0.60005367063E+03 0.  0.
        -24    2    4    4    0    0 -0.48683737808E+03 -0.10628186221E+04 -0.13496661928E+04  0.17873424433E+04  0.80000759728E+02 0.  0.
         24    2    4    4    0    0 -0.19335475785E+02 -0.15048884063E+02 -0.42179183236E+03  0.42989395845E+03  0.79373396886E+02 0.  0.
         11    1    3    3    0    0  0.18438904914E+03  0.34159399985E+03 -0.30967597255E+02  0.38941593991E+03  0.00000000000E+00 0. -1.
        -12    1    3    3    0    0  0.32178380473E+03  0.73627350626E+03  0.30315429103E+02  0.80409111315E+03  0.00000000000E+00 0.  1.
         13    1    5    5    0    0 -0.22933088656E+03 -0.41344032004E+03 -0.56752919125E+03  0.73865752327E+03  0.00000000000E+00 0. -1.
        -14    1    5    5    0    0 -0.25750649152E+03 -0.64937830202E+03 -0.78213700151E+03  0.10486849200E+04  0.00000000000E+00 0.  1.
          4    1    6    6  502    0 -0.31439063005E+02 -0.36199541246E+02 -0.36442898001E+03  0.36756945322E+03  0.00000000000E+00 0. -1.
         -3    1    6    6    0  502  0.12103587220E+02  0.21150657183E+02 -0.57362852354E+02  0.62324505237E+02  0.00000000000E+00 0.  1.
<mgrwt>
<rscale>  0 0.12176866E+04</rscale>
<asrwt>0</asrwt>
<pdfrwt beam="1">  1        1 0.39868105E+00 0.12176866E+04</pdfrwt>
<pdfrwt beam="2">  1       -2 0.12604871E+00 0.12176866E+04</pdfrwt>
<totfact> 0.47337114E-01</totfact>
</mgrwt>
</event>
<event>
12    3  0.2422421E-007  0.9846170E+03  0.7818608E-02  0.9325579E-01
          1   -1    0    0  501    0  0.00000000000E+00  0.00000000000E+00  0.22445337924E+04  0.22445337924E+04  0.00000000000E+00 0. -1.
         -2   -1    0    0    0  501 -0.00000000000E+00 -0.00000000000E+00 -0.66818839709E+03  0.66818839709E+03  0.00000000000E+00 0.  1.
        -24    2    1    2    0    0  0.89402969767E+03  0.29427658876E+02 -0.11685578822E+03  0.90599781925E+03  0.83795500084E+02 0.  0.
    5000000    2    1    2    0    0 -0.89402969767E+03 -0.29427658876E+02  0.16932011836E+04  0.20067243703E+04  0.59988112389E+03 0.  0.
        -24    2    4    4    0    0 -0.87816188495E+02 -0.21455266651E+03  0.38666607167E+03  0.45827625177E+03  0.82231029977E+02 0.  0.
         24    2    4    4    0    0 -0.80621350917E+03  0.18512500764E+03  0.13065351119E+04  0.15484481185E+04  0.80038029937E+02 0.  0.
         11    1    3    3    0    0  0.14619164022E+03  0.19289351085E+02  0.82970323774E+01  0.14769196147E+03  0.00000000000E+00 0. -1.
        -12    1    3    3    0    0  0.74783805745E+03  0.10138307791E+02 -0.12515282060E+03  0.75830585779E+03  0.00000000000E+00 0.  1.
         11    1    5    5    0    0 -0.87743789904E+02 -0.12206189560E+03  0.20260315281E+03  0.25228181970E+03  0.00000000000E+00 0. -1.
        -12    1    5    5    0    0 -0.72398591381E-01 -0.92490770912E+02  0.18406291886E+03  0.20599443207E+03  0.00000000000E+00 0.  1.
          4    1    6    6  502    0 -0.43329686479E+03  0.14032605134E+03  0.71921770044E+03  0.85129999081E+03  0.00000000000E+00 0. -1.
         -3    1    6    6    0  502 -0.37291664438E+03  0.44798956295E+02  0.58731741148E+03  0.69714812771E+03  0.00000000000E+00 0.  1.
<mgrwt>
<rscale>  0 0.98461695E+03</rscale>
<asrwt>0</asrwt>
<pdfrwt beam="1">  1        1 0.34531289E+00 0.98461695E+03</pdfrwt>
<pdfrwt beam="2">  1       -2 0.10279822E+00 0.98461695E+03</pdfrwt>
<totfact> 0.13944726E+00</totfact>
</mgrwt>
</event>
<event>
12    3  0.2422421E-007  0.6347883E+03  0.7818608E-02  0.9835749E-01
          1   -1    0    0  501    0  0.00000000000E+00  0.00000000000E+00  0.12435292659E+04  0.12435292659E+04  0.00000000000E+00 0. -1.
         -2   -1    0    0    0  501 -0.00000000000E+00 -0.00000000000E+00 -0.40936264479E+03  0.40936264479E+03  0.00000000000E+00 0.  1.
        -24    2    1    2    0    0 -0.47416685130E+03 -0.19053763492E+03  0.16554489813E+02  0.51720191254E+03  0.78006243413E+02 0.  0.
    5000000    2    1    2    0    0  0.47416685130E+03  0.19053763492E+03  0.81761213135E+03  0.11356899982E+04  0.60013613581E+03 0.  0.
        -24    2    4    4    0    0  0.58562151644E+03  0.21787805999E+03  0.74645684718E+03  0.97679082502E+03  0.80616881612E+02 0.  0.
         24    2    4    4    0    0 -0.11145466514E+03 -0.27340425071E+02  0.71155284171E+02  0.15889917319E+03  0.83762948546E+02 0.  0.
         13    1    3    3    0    0 -0.37466314263E+03 -0.18323015137E+03  0.17315352337E+02  0.41742733529E+03  0.00000000000E+00 0. -1.
        -14    1    3    3    0    0 -0.99503708661E+02 -0.73074835452E+01 -0.76086252379E+00  0.99774577247E+02  0.00000000000E+00 0.  1.
         13    1    5    5    0    0  0.26499435418E+03  0.64026728073E+02  0.28793355965E+03  0.39651880716E+03  0.00000000000E+00 0. -1.
        -14    1    5    5    0    0  0.32062716226E+03  0.15385133191E+03  0.45852328752E+03  0.58027201786E+03  0.00000000000E+00 0.  1.
          4    1    6    6  502    0 -0.36168256647E+02  0.13779657773E+02 -0.10878904094E+02  0.40204133016E+02  0.00000000000E+00 0. -1.
         -3    1    6    6    0  502 -0.75286408496E+02 -0.41120082843E+02  0.82034188265E+02  0.11869504017E+03  0.00000000000E+00 0.  1.
<mgrwt>
<rscale>  0 0.63478834E+03</rscale>
<asrwt>0</asrwt>
<pdfrwt beam="1">  1        1 0.19131219E+00 0.63478834E+03</pdfrwt>
<pdfrwt beam="2">  1       -2 0.62978869E-01 0.63478834E+03</pdfrwt>
<totfact> 0.21196763E+01</totfact>
</mgrwt>
</event>
<event>
12    3  0.2422421E-007  0.8151559E+03  0.7818608E-02  0.9538335E-01
          1   -1    0    0  501    0  0.00000000000E+00  0.00000000000E+00  0.12123673000E+04  0.12123673000E+04  0.00000000000E+00 0. -1.
         -2   -1    0    0    0  501 -0.00000000000E+00 -0.00000000000E+00 -0.65624628926E+03  0.65624628926E+03  0.00000000000E+00 0.  1.
        -24    2    1    2    0    0  0.77151036049E+03  0.14813784711E+03  0.17185123659E+03  0.80798561658E+03  0.78325289671E+02 0.  0.
    5000000    2    1    2    0    0 -0.77151036049E+03 -0.14813784711E+03  0.38426977417E+03  0.10606279727E+04  0.60007947726E+03 0.  0.
        -24    2    4    4    0    0 -0.28924432586E+03 -0.19600512171E+03  0.43875207247E+03  0.56626848903E+03  0.77950835727E+02 0.  0.
         24    2    4    4    0    0 -0.48226603463E+03  0.47867274604E+02 -0.54482298295E+02  0.49435948367E+03  0.80939323739E+02 0.  0.
         13    1    5    5    0    0 -0.22786130475E+03 -0.11905999192E+03  0.28618004714E+03  0.38470128055E+03  0.00000000000E+00 0. -1.
        -14    1    5    5    0    0 -0.61383021102E+02 -0.76945129798E+02  0.15257202533E+03  0.18156720847E+03  0.00000000000E+00 0.  1.
         13    1    3    3    0    0  0.10951597199E+03  0.49338864815E+02  0.22723560269E+02  0.12224742081E+03  0.00000000000E+00 0. -1.
        -14    1    3    3    0    0  0.66199438850E+03  0.98798982295E+02  0.14912767632E+03  0.68573819578E+03  0.00000000000E+00 0.  1.
          4    1    6    6  502    0 -0.20802115930E+03  0.33731585127E+02  0.14443287346E+02  0.21123264687E+03  0.00000000000E+00 0. -1.
         -3    1    6    6    0  502 -0.27424487533E+03  0.14135689477E+02 -0.68925585641E+02  0.28312683680E+03  0.00000000000E+00 0.  1.
<mgrwt>
<rscale>  0 0.81515593E+03</rscale>
<asrwt>0</asrwt>
<pdfrwt beam="1">  1        1 0.18651805E+00 0.81515593E+03</pdfrwt>
<pdfrwt beam="2">  1       -2 0.10096097E+00 0.81515593E+03</pdfrwt>
<totfact> 0.75537623E+00</totfact>
</mgrwt>
</event>
<event>
12    3  0.2422421E-007  0.1195187E+04  0.7818608E-02  0.9117080E-01
          1   -1    0    0  501    0  0.00000000000E+00  0.00000000000E+00  0.25904692945E+04  0.25904692945E+04  0.00000000000E+00 0. -1.
         -2   -1    0    0    0  501 -0.00000000000E+00 -0.00000000000E+00 -0.59900836663E+03  0.59900836663E+03  0.00000000000E+00 0.  1.
        -24    2    1    2    0    0  0.74113529127E+03  0.85219807225E+03  0.13398867075E+04  0.17541704546E+04  0.79338015997E+02 0.  0.
    5000000    2    1    2    0    0 -0.74113529127E+03 -0.85219807225E+03  0.65157422043E+03  0.14353072065E+04  0.60002894764E+03 0.  0.
        -24    2    4    4    0    0 -0.60570528323E+03 -0.27261927824E+03  0.25732081047E+03  0.71669998601E+03  0.79023474026E+02 0.  0.
         24    2    4    4    0    0 -0.13543000804E+03 -0.57957879401E+03  0.39425340996E+03  0.71860722049E+03  0.81900674843E+02 0.  0.
         11    1    5    5    0    0 -0.44717228895E+03 -0.19000448468E+03  0.22330769763E+03  0.53472524536E+03  0.00000000000E+00 0. -1.
        -12    1    5    5    0    0 -0.15853299428E+03 -0.82614793562E+02  0.34013112839E+02  0.18197474066E+03  0.00000000000E+00 0.  1.
         13    1    3    3    0    0  0.41257896723E+03  0.48110195936E+03  0.69086467685E+03  0.93753639994E+03  0.00000000000E+00 0. -1.
        -14    1    3    3    0    0  0.32855632404E+03  0.37109611289E+03  0.64902203061E+03  0.81663405470E+03  0.00000000000E+00 0.  1.
          4    1    6    6  502    0 -0.47436574975E+02 -0.28340776468E+03  0.14630236184E+03  0.32245088123E+03  0.00000000000E+00 0. -1.
         -3    1    6    6    0  502 -0.87993433066E+02 -0.29617102933E+03  0.24795104811E+03  0.39615633926E+03  0.00000000000E+00 0.  1.
<mgrwt>
<rscale>  0 0.11951873E+04</rscale>
<asrwt>0</asrwt>
<pdfrwt beam="1">  1        1 0.39853373E+00 0.11951873E+04</pdfrwt>
<pdfrwt beam="2">  1       -2 0.92155134E-01 0.11951873E+04</pdfrwt>
<totfact> 0.10177597E+00</totfact>
</mgrwt>
</event>
<event>
12    3  0.2422421E-007  0.8774641E+03  0.7818608E-02  0.9454199E-01
         -2   -1    0    0    0  501 -0.00000000000E+00  0.00000000000E+00  0.26829151792E+03  0.26829151792E+03  0.00000000000E+00 0.  1.
          1   -1    0    0  501    0  0.00000000000E+00 -0.00000000000E+00 -0.30950956277E+04  0.30950956277E+04  0.00000000000E+00 0. -1.
        -24    2    1    2    0    0 -0.55455060662E+03 -0.57732131857E+03 -0.10326065061E+04  0.13091364431E+04  0.82071614203E+02 0.  0.
    5000000    2    1    2    0    0  0.55455060662E+03  0.57732131857E+03 -0.17941976036E+04  0.20542507026E+04  0.59997885620E+03 0.  0.
        -24    2    4    4    0    0  0.40337059641E+03  0.65099848295E+03 -0.11536275659E+04  0.13871180129E+04  0.82054604659E+02 0.  0.
         24    2    4    4    0    0  0.15118001021E+03 -0.73677164382E+02 -0.64057003774E+03  0.66713268963E+03  0.80326410844E+02 0.  0.
         11    1    5    5    0    0  0.26602721980E+03  0.43264160173E+03 -0.69310111965E+03  0.85926619814E+03  0.00000000000E+00 0. -1.
        -12    1    5    5    0    0  0.13734337662E+03  0.21835688123E+03 -0.46052644625E+03  0.52785181479E+03  0.00000000000E+00 0.  1.
         11    1    3    3    0    0 -0.36034282724E+03 -0.42410727044E+03 -0.68710370894E+03  0.88420893279E+03  0.00000000000E+00 0. -1.
        -12    1    3    3    0    0 -0.19420777938E+03 -0.15321404813E+03 -0.34550279720E+03  0.42492751028E+03  0.00000000000E+00 0.  1.
          4    1    6    6  502    0  0.74071844000E+02 -0.78506347460E+02 -0.40966577484E+03  0.42364599814E+03  0.00000000000E+00 0. -1.
         -3    1    6    6    0  502  0.77108166207E+02  0.48291830777E+01 -0.23090426290E+03  0.24348669149E+03  0.00000000000E+00 0.  1.
<mgrwt>
<rscale>  0 0.87746406E+03</rscale>
<asrwt>0</asrwt>
<pdfrwt beam="1">  1        1 0.47616857E+00 0.87746406E+03</pdfrwt>
<pdfrwt beam="2">  1       -2 0.41275617E-01 0.87746406E+03</pdfrwt>
<totfact> 0.26016152E+00</totfact>
</mgrwt>
</event>
<event>
12    3  0.2422421E-007  0.1220627E+04  0.7818608E-02  0.9094991E-01
         -2   -1    0    0    0  501 -0.00000000000E+00  0.00000000000E+00  0.17839141918E+04  0.17839141918E+04  0.00000000000E+00 0.  1.
          1   -1    0    0  501    0  0.00000000000E+00 -0.00000000000E+00 -0.11004720098E+04  0.11004720098E+04  0.00000000000E+00 0. -1.
        -24    2    1    2    0    0 -0.70197488044E+03  0.99344333936E+03  0.89397096956E+03  0.15117203664E+04  0.80099753683E+02 0.  0.
    5000000    2    1    2    0    0  0.70197488044E+03 -0.99344333936E+03 -0.21052878760E+03  0.13726658352E+04  0.60015891506E+03 0.  0.
        -24    2    4    4    0    0  0.25030040076E+03 -0.35404564975E+03  0.20117728709E+03  0.48450297722E+03  0.79197357065E+02 0.  0.
         24    2    4    4    0    0  0.45167447968E+03 -0.63939768961E+03 -0.41170607470E+03  0.88816285794E+03  0.80573750143E+02 0.  0.
         11    1    5    5    0    0  0.10798711665E+03 -0.11414129461E+03  0.39199898716E+02  0.16194469598E+03  0.00000000000E+00 0. -1.
        -12    1    5    5    0    0  0.14231328411E+03 -0.23990435514E+03  0.16197738838E+03  0.32255828124E+03  0.00000000000E+00 0.  1.
         13    1    3    3    0    0 -0.23178133827E+03  0.38319930939E+03  0.30171136455E+03  0.53999448792E+03  0.00000000000E+00 0. -1.
        -14    1    3    3    0    0 -0.47019354217E+03  0.61024402997E+03  0.59225960502E+03  0.97172587850E+03  0.00000000000E+00 0.  1.
          2    1    6    6  502    0  0.40035305554E+03 -0.51435815987E+03 -0.34278421876E+03  0.73644273799E+03  0.00000000000E+00 0. -1.
         -3    1    6    6    0  502  0.51321424145E+02 -0.12503952973E+03 -0.68921855939E+02  0.15172011995E+03  0.00000000000E+00 0.  1.
<mgrwt>
<rscale>  0 0.12206267E+04</rscale>
<asrwt>0</asrwt>
<pdfrwt beam="1">  1        1 0.16930339E+00 0.12206267E+04</pdfrwt>
<pdfrwt beam="2">  1       -2 0.27444834E+00 0.12206267E+04</pdfrwt>
<totfact> 0.49344996E-01</totfact>
</mgrwt>
</event>
<event>
12    3  0.2422421E-007  0.9806415E+03  0.7818608E-02  0.9330035E-01
          1   -1    0    0  501    0  0.00000000000E+00  0.00000000000E+00  0.26092746263E+04  0.26092746263E+04  0.00000000000E+00 0. -1.
         -2   -1    0    0    0  501 -0.00000000000E+00 -0.00000000000E+00 -0.12203658598E+04  0.12203658598E+04  0.00000000000E+00 0.  1.
        -24    2    1    2    0    0  0.70958194850E+03 -0.64745124883E+03  0.22232716920E+04  0.24230955761E+04  0.75864967798E+02 0.  0.
    5000000    2    1    2    0    0 -0.70958194850E+03  0.64745124883E+03 -0.83436292550E+03  0.14065449100E+04  0.59958938549E+03 0.  0.
        -24    2    4    4    0    0 -0.53780962488E+03  0.61235220971E+03 -0.36033252834E+03  0.89474843082E+03  0.80751483740E+02 0.  0.
         24    2    4    4    0    0 -0.17177232362E+03  0.35099039121E+02 -0.47403039716E+03  0.51179647920E+03  0.80580053225E+02 0.  0.
         11    1    5    5    0    0 -0.13126693357E+03  0.17468654960E+03 -0.62534466636E+02  0.22728167101E+03  0.00000000000E+00 0. -1.
        -12    1    5    5    0    0 -0.40654269131E+03  0.43766566011E+03 -0.29779806170E+03  0.66746675981E+03  0.00000000000E+00 0.  1.
         13    1    3    3    0    0  0.39315242924E+03 -0.30937445888E+03  0.11806453895E+04  0.12822655436E+04  0.00000000000E+00 0. -1.
        -14    1    3    3    0    0  0.31642951925E+03 -0.33807678995E+03  0.10426263025E+04  0.11408300325E+04  0.00000000000E+00 0.  1.
          4    1    6    6  502    0 -0.40948325419E+02 -0.12585552034E+02 -0.19862037387E+03  0.20318763346E+03  0.00000000000E+00 0. -1.
         -3    1    6    6    0  502 -0.13082399820E+03  0.47684591155E+02 -0.27541002329E+03  0.30860884573E+03  0.00000000000E+00 0.  1.
<mgrwt>
<rscale>  0 0.98064146E+03</rscale>
<asrwt>0</asrwt>
<pdfrwt beam="1">  1        1 0.40142686E+00 0.98064146E+03</pdfrwt>
<pdfrwt beam="2">  1       -2 0.18774859E+00 0.98064146E+03</pdfrwt>
<totfact> 0.16276083E-01</totfact>
</mgrwt>
</event>
<event>
12    3  0.2422421E-007  0.1546807E+04  0.7818608E-02  0.8853910E-01
         -2   -1    0    0    0  501 -0.00000000000E+00  0.00000000000E+00  0.25462163314E+04  0.25462163314E+04  0.00000000000E+00 0.  1.
          1   -1    0    0  501    0  0.00000000000E+00 -0.00000000000E+00 -0.10223013862E+04  0.10223013862E+04  0.00000000000E+00 0. -1.
        -24    2    1    2    0    0 -0.33064989670E+03 -0.14531330023E+04  0.12329529175E+04  0.19358280500E+04  0.79576790992E+02 0.  0.
    5000000    2    1    2    0    0  0.33064989670E+03  0.14531330023E+04  0.29096202765E+03  0.16326896676E+04  0.60007647221E+03 0.  0.
        -24    2    4    4    0    0  0.57530865802E+02  0.12563239962E+04  0.20906167939E+03  0.12774316144E+04  0.80404973073E+02 0.  0.
         24    2    4    4    0    0  0.27311903090E+03  0.19680900613E+03  0.81900348256E+02  0.35525805322E+03  0.78567343063E+02 0.  0.
         11    1    3    3    0    0 -0.13278944441E+03 -0.45737094101E+03  0.36241045474E+03  0.59846683444E+03  0.00000000000E+00 0. -1.
        -12    1    3    3    0    0 -0.19786045229E+03 -0.99576206134E+03  0.87054246273E+03  0.13373612155E+04  0.00000000000E+00 0.  1.
         11    1    5    5    0    0  0.48499309722E+02  0.12288202356E+04  0.21341459872E+03  0.12481575002E+04  0.00000000000E+00 0. -1.
        -12    1    5    5    0    0  0.90315560803E+01  0.27503760637E+02 -0.43529193263E+01  0.29274114181E+02  0.00000000000E+00 0.  1.
          2    1    6    6  502    0  0.11756784617E+03  0.12649968274E+03  0.61588026793E+02  0.18335062921E+03  0.00000000000E+00 0. -1.
         -1    1    6    6    0  502  0.15555118473E+03  0.70309323397E+02  0.20312321463E+02  0.17190742401E+03  0.00000000000E+00 0.  1.
<mgrwt>
<rscale>  0 0.15468065E+04</rscale>
<asrwt>0</asrwt>
<pdfrwt beam="1">  1        1 0.15727714E+00 0.15468065E+04</pdfrwt>
<pdfrwt beam="2">  1       -2 0.39172559E+00 0.15468065E+04</pdfrwt>
<totfact> 0.10126097E-01</totfact>
</mgrwt>
</event>
<event>
12    3  0.3450591E-007  0.8952016E+03  0.7818608E-02  0.9431600E-01
          1   -1    0    0  501    0  0.00000000000E+00  0.00000000000E+00  0.20176078739E+04  0.20176078739E+04  0.00000000000E+00 0. -1.
         -2   -1    0    0    0  501 -0.00000000000E+00 -0.00000000000E+00 -0.41552805369E+03  0.41552805369E+03  0.00000000000E+00 0.  1.
        -24    2    1    2    0    0 -0.60766910906E+03 -0.54486070940E+03  0.70898009031E+03  0.10826477829E+04  0.57779881173E+02 0.  0.
    5000000    2    1    2    0    0  0.60766910906E+03  0.54486070940E+03  0.89309972989E+03  0.13504881447E+04  0.60004680031E+03 0.  0.
        -24    2    4    4    0    0 -0.67022844223E+02 -0.41430305289E+02  0.14029416578E+03  0.17886438460E+03  0.78111991918E+02 0.  0.
         24    2    4    4    0    0  0.67469195329E+03  0.58629101469E+03  0.75280556411E+03  0.11716237601E+04  0.83902515069E+02 0.  0.
         11    1    3    3    0    0 -0.21851044825E+03 -0.16426126046E+03  0.25525906507E+03  0.37401305857E+03  0.00000000000E+00 0. -1.
        -12    1    3    3    0    0 -0.38915866081E+03 -0.38059944894E+03  0.45372102524E+03  0.70863472435E+03  0.00000000000E+00 0.  1.
         11    1    5    5    0    0 -0.60401033719E+02 -0.37875403971E+02  0.47279050832E+02  0.85546126434E+02  0.00000000000E+00 0. -1.
        -12    1    5    5    0    0 -0.66218105043E+01 -0.35549013183E+01  0.93015114950E+02  0.93318258165E+02  0.00000000000E+00 0.  1.
          4    1    6    6  502    0  0.40068406530E+03  0.35464887720E+03  0.39669336651E+03  0.66609997247E+03  0.00000000000E+00 0. -1.
         -3    1    6    6    0  502  0.27400788799E+03  0.23164213748E+03  0.35611219760E+03  0.50552378759E+03  0.00000000000E+00 0.  1.
<mgrwt>
<rscale>  0 0.89520161E+03</rscale>
<asrwt>0</asrwt>
<pdfrwt beam="1">  1        1 0.31040121E+00 0.89520161E+03</pdfrwt>
<pdfrwt beam="2">  1       -2 0.63927394E-01 0.89520161E+03</pdfrwt>
<totfact> 0.58851133E+00</totfact>
</mgrwt>
</event>
<event>
12    3  0.2422421E-007  0.5496744E+03  0.7818608E-02  0.1001569E+00
         -2   -1    0    0    0  501 -0.00000000000E+00  0.00000000000E+00  0.21458298225E+03  0.21458298225E+03  0.00000000000E+00 0.  1.
          1   -1    0    0  501    0  0.00000000000E+00 -0.00000000000E+00 -0.15984990950E+04  0.15984990950E+04  0.00000000000E+00 0. -1.
        -24    2    1    2    0    0 -0.14381336588E+03  0.36174652101E+03 -0.24100462635E+03  0.46473260288E+03  0.79688974068E+02 0.  0.
    5000000    2    1    2    0    0  0.14381336588E+03 -0.36174652101E+03 -0.11429114864E+04  0.13483494744E+04  0.60021396985E+03 0.  0.
        -24    2    4    4    0    0 -0.14811318352E+03 -0.37125183107E+03 -0.73331631649E+03  0.83894487143E+03  0.79437019425E+02 0.  0.
         24    2    4    4    0    0  0.29192654940E+03  0.95053100557E+01 -0.40959516993E+03  0.50940460296E+03  0.80083613319E+02 0.  0.
         11    1    5    5    0    0 -0.60786790601E+01 -0.82255088338E+02 -0.11143628541E+03  0.13863944461E+03  0.00000000000E+00 0. -1.
        -12    1    5    5    0    0 -0.14203450446E+03 -0.28899674273E+03 -0.62188003108E+03  0.70030542682E+03  0.00000000000E+00 0.  1.
         13    1    3    3    0    0 -0.94796634704E+02  0.31189011901E+03 -0.21310318531E+03  0.38945451067E+03  0.00000000000E+00 0. -1.
        -14    1    3    3    0    0 -0.49016731174E+02  0.49856402001E+02 -0.27901441043E+02  0.75278092216E+02  0.00000000000E+00 0.  1.
          4    1    6    6  502    0  0.75956916572E+02 -0.25603613102E+02 -0.76025111709E+02  0.11047540808E+03  0.00000000000E+00 0. -1.
         -3    1    6    6    0  502  0.21596963282E+03  0.35108923158E+02 -0.33357005823E+03  0.39892919489E+03  0.00000000000E+00 0.  1.
<mgrwt>
<rscale>  0 0.54967438E+03</rscale>
<asrwt>0</asrwt>
<pdfrwt beam="1">  1        1 0.24592294E+00 0.54967438E+03</pdfrwt>
<pdfrwt beam="2">  1       -2 0.33012766E-01 0.54967438E+03</pdfrwt>
<totfact> 0.44318798E+01</totfact>
</mgrwt>
</event>
<event>
12    3  0.2422421E-007  0.4278820E+03  0.7818608E-02  0.1034531E+00
         -2   -1    0    0    0  501 -0.00000000000E+00  0.00000000000E+00  0.35502533575E+03  0.35502533575E+03  0.00000000000E+00 0.  1.
          1   -1    0    0  501    0  0.00000000000E+00 -0.00000000000E+00 -0.15746658171E+04  0.15746658171E+04  0.00000000000E+00 0. -1.
        -24    2    1    2    0    0  0.28123550138E+03 -0.30639425840E+03 -0.11141038431E+04  0.11920083417E+04  0.81765914040E+02 0.  0.
    5000000    2    1    2    0    0 -0.28123550138E+03  0.30639425840E+03 -0.10553663829E+03  0.73768281117E+03  0.60005591328E+03 0.  0.
        -24    2    4    4    0    0 -0.45307349458E+02  0.20451612307E+02 -0.29769694539E+03  0.31369705503E+03  0.85506413087E+02 0.  0.
         24    2    4    4    0    0 -0.23592815192E+03  0.28594264609E+03  0.19216030709E+03  0.42398575615E+03  0.73573419585E+02 0.  0.
         11    1    5    5    0    0 -0.48159809079E+02  0.32936962341E+01 -0.29113057083E+03  0.29510544712E+03  0.00000000000E+00 0. -1.
        -12    1    5    5    0    0  0.28524596212E+01  0.17157916073E+02 -0.65663745545E+01  0.18591607909E+02  0.00000000000E+00 0.  1.
         13    1    3    3    0    0  0.52662126159E+02 -0.87325503574E+02 -0.35937474526E+03  0.37356291389E+03  0.00000000000E+00 0. -1.
        -14    1    3    3    0    0  0.22857337522E+03 -0.21906875483E+03 -0.75472909784E+03  0.81844542783E+03  0.00000000000E+00 0.  1.
          4    1    6    6  502    0 -0.21390880120E+03  0.24671375317E+03  0.14048554207E+03  0.35547269764E+03  0.00000000000E+00 0. -1.
         -3    1    6    6    0  502 -0.22019350719E+02  0.39228892922E+02  0.51674765024E+02  0.68513058509E+02  0.00000000000E+00 0.  1.
<mgrwt>
<rscale>  0 0.42788202E+03</rscale>
<asrwt>0</asrwt>
<pdfrwt beam="1">  1        1 0.24225628E+00 0.42788202E+03</pdfrwt>
<pdfrwt beam="2">  1       -2 0.54619282E-01 0.42788202E+03</pdfrwt>
<totfact> 0.17518947E+01</totfact>
</mgrwt>
</event>
<event>
12    3  0.2422421E-007  0.7330378E+03  0.7818608E-02  0.9662344E-01
          1   -1    0    0  501    0  0.00000000000E+00  0.00000000000E+00  0.26085690160E+04  0.26085690160E+04  0.00000000000E+00 0. -1.
         -2   -1    0    0    0  501 -0.00000000000E+00 -0.00000000000E+00 -0.47131698497E+03  0.47131698497E+03  0.00000000000E+00 0.  1.
        -24    2    1    2    0    0 -0.60598430973E+03 -0.38819271850E+03 -0.23813623062E+02  0.72443238687E+03  0.79527505768E+02 0.  0.
    5000000    2    1    2    0    0  0.60598430973E+03  0.38819271850E+03  0.21610656540E+04  0.23554536140E+04  0.60003866251E+03 0.  0.
        -24    2    4    4    0    0  0.68363382476E+02  0.12126166610E+03  0.63002939699E+02  0.17177068661E+03  0.78471999076E+02 0.  0.
         24    2    4    4    0    0  0.53762092725E+03  0.26693105241E+03  0.20980627143E+04  0.21836829274E+04  0.79470284415E+02 0.  0.
         11    1    5    5    0    0  0.28169077417E+02  0.66319513047E+02 -0.90795621676E+01  0.72623778354E+02  0.00000000000E+00 0. -1.
        -12    1    5    5    0    0  0.40194305058E+02  0.54942153051E+02  0.72082501867E+02  0.99146908254E+02  0.00000000000E+00 0.  1.
         13    1    3    3    0    0 -0.39124311717E+03 -0.28214186008E+03  0.10546925782E+02  0.48247947478E+03  0.00000000000E+00 0. -1.
        -14    1    3    3    0    0 -0.21474119255E+03 -0.10605085843E+03 -0.34360548844E+02  0.24195291209E+03  0.00000000000E+00 0.  1.
          4    1    6    6  502    0  0.38846463870E+03  0.15792520195E+03  0.15228747809E+04  0.15795546028E+04  0.00000000000E+00 0. -1.
         -3    1    6    6    0  502  0.14915628855E+03  0.10900585046E+03  0.57518793348E+03  0.60412832467E+03  0.00000000000E+00 0.  1.
<mgrwt>
<rscale>  0 0.73303780E+03</rscale>
<asrwt>0</asrwt>
<pdfrwt beam="1">  1        1 0.40131830E+00 0.73303780E+03</pdfrwt>
<pdfrwt beam="2">  1       -2 0.72510307E-01 0.73303780E+03</pdfrwt>
<totfact> 0.18280782E+00</totfact>
</mgrwt>
</event>
<event>
12    3  0.2422421E-007  0.6843675E+03  0.7818608E-02  0.9744346E-01
         -2   -1    0    0    0  501 -0.00000000000E+00  0.00000000000E+00  0.81752395117E+03  0.81752395117E+03  0.00000000000E+00 0.  1.
          1   -1    0    0  501    0  0.00000000000E+00 -0.00000000000E+00 -0.77884096434E+03  0.77884096434E+03  0.00000000000E+00 0. -1.
        -24    2    1    2    0    0  0.76812143053E+02  0.66762895119E+03 -0.10160677634E+03  0.68472129806E+03  0.83010826002E+02 0.  0.
    5000000    2    1    2    0    0 -0.76812143053E+02 -0.66762895119E+03  0.14028976317E+03  0.91164361746E+03  0.59982026127E+03 0.  0.
        -24    2    4    4    0    0  0.60785556124E+01 -0.41484888552E+03  0.36204126492E+03  0.55636260024E+03  0.79554501955E+02 0.  0.
         24    2    4    4    0    0 -0.82890698666E+02 -0.25278006567E+03 -0.22175150176E+03  0.35528101722E+03  0.79260602730E+02 0.  0.
         11    1    5    5    0    0 -0.34266763733E+02 -0.20023090744E+03  0.19296869423E+03  0.28018483960E+03  0.00000000000E+00 0. -1.
        -12    1    5    5    0    0  0.40345319345E+02 -0.21461797808E+03  0.16907257069E+03  0.27617776064E+03  0.00000000000E+00 0.  1.
         11    1    3    3    0    0  0.84536070489E+02  0.44683087610E+03 -0.89325292936E+02  0.46344707034E+03  0.00000000000E+00 0. -1.
        -12    1    3    3    0    0 -0.77239274358E+01  0.22079807508E+03 -0.12281483400E+02  0.22127422771E+03  0.00000000000E+00 0.  1.
          2    1    6    6  502    0 -0.42065823751E+02 -0.53245249675E+02 -0.25628821764E+02  0.72535692220E+02  0.00000000000E+00 0. -1.
         -1    1    6    6    0  502 -0.40824874915E+02 -0.19953481599E+03 -0.19612267999E+03  0.28274532500E+03  0.00000000000E+00 0.  1.
<mgrwt>
<rscale>  0 0.68436753E+03</rscale>
<asrwt>0</asrwt>
<pdfrwt beam="1">  1        1 0.11982169E+00 0.68436753E+03</pdfrwt>
<pdfrwt beam="2">  1       -2 0.12577292E+00 0.68436753E+03</pdfrwt>
<totfact> 0.98268932E+00</totfact>
</mgrwt>
</event>
<event>
12    3  0.2422421E-007  0.1094918E+04  0.7818608E-02  0.9210160E-01
         -2   -1    0    0    0  501 -0.00000000000E+00  0.00000000000E+00  0.19548117476E+04  0.19548117476E+04  0.00000000000E+00 0.  1.
          1   -1    0    0  501    0  0.00000000000E+00 -0.00000000000E+00 -0.10330536234E+04  0.10330536234E+04  0.00000000000E+00 0. -1.
        -24    2    1    2    0    0  0.58185868944E+03 -0.84765312044E+03  0.13709440162E+04  0.17155598966E+04  0.81135171784E+02 0.  0.
    5000000    2    1    2    0    0 -0.58185868944E+03  0.84765312044E+03 -0.44918589203E+03  0.12723054745E+04  0.59993158589E+03 0.  0.
        -24    2    4    4    0    0 -0.59974651306E+03  0.42287603592E+03 -0.17086703302E+03  0.75762755971E+03  0.79271398228E+02 0.  0.
         24    2    4    4    0    0  0.17887823620E+02  0.42477708452E+03 -0.27831885901E+03  0.51467791478E+03  0.81709380817E+02 0.  0.
         11    1    3    3    0    0  0.35324858994E+03 -0.57589926077E+03  0.87036753982E+03  0.11018095022E+04  0.00000000000E+00 0. -1.
        -12    1    3    3    0    0  0.22861009950E+03 -0.27175385967E+03  0.50057647637E+03  0.61375039433E+03  0.00000000000E+00 0.  1.
         13    1    5    5    0    0 -0.26609006962E+03  0.18445397757E+03 -0.35182706648E+02  0.32567624697E+03  0.00000000000E+00 0. -1.
        -14    1    5    5    0    0 -0.33365644343E+03  0.23842205835E+03 -0.13568432638E+03  0.43195131274E+03  0.00000000000E+00 0.  1.
          2    1    6    6  502    0  0.45929727165E+01  0.44186214759E+02 -0.25598877154E+01  0.44497977462E+02  0.00000000000E+00 0. -1.
         -1    1    6    6    0  502  0.13294850904E+02  0.38059086976E+03 -0.27575897129E+03  0.47017993732E+03  0.00000000000E+00 0.  1.
<mgrwt>
<rscale>  0 0.10949177E+04</rscale>
<asrwt>0</asrwt>
<pdfrwt beam="1">  1        1 0.15893133E+00 0.10949177E+04</pdfrwt>
<pdfrwt beam="2">  1       -2 0.30074027E+00 0.10949177E+04</pdfrwt>
<totfact> 0.39121585E-01</totfact>
</mgrwt>
</event>
<event>
12    3  0.2422421E-007  0.8908527E+03  0.7818608E-02  0.9437089E-01
          1   -1    0    0  501    0  0.00000000000E+00  0.00000000000E+00  0.49260611058E+03  0.49260611058E+03  0.00000000000E+00 0. -1.
         -2   -1    0    0    0  501 -0.00000000000E+00 -0.00000000000E+00 -0.20737933539E+04  0.20737933539E+04  0.00000000000E+00 0.  1.
        -24    2    1    2    0    0 -0.29276274864E+03 -0.74268005413E+03 -0.14227276075E+03  0.81488885879E+03  0.80737995580E+02 0.  0.
    5000000    2    1    2    0    0  0.29276274864E+03  0.74268005413E+03 -0.14389144826E+04  0.17515106057E+04  0.60002568602E+03 0.  0.
        -24    2    4    4    0    0  0.12791939727E+03  0.78550119797E+03 -0.10528290733E+04  0.13220557840E+04  0.77504415061E+02 0.  0.
         24    2    4    4    0    0  0.16484335138E+03 -0.42821143838E+02 -0.38608540931E+03  0.42945482166E+03  0.79765404256E+02 0.  0.
         13    1    5    5    0    0  0.96285395801E+02  0.68683867362E+03 -0.94850526956E+03  0.11750236114E+04  0.00000000000E+00 0. -1.
        -14    1    5    5    0    0  0.31634001465E+02  0.98662524346E+02 -0.10432380370E+03  0.14703217259E+03  0.00000000000E+00 0.  1.
         13    1    3    3    0    0 -0.12847835654E+03 -0.28580694726E+03 -0.93090496324E+02  0.32689163297E+03  0.00000000000E+00 0. -1.
        -14    1    3    3    0    0 -0.16428439210E+03 -0.45687310687E+03 -0.49182264424E+02  0.48799722582E+03  0.00000000000E+00 0.  1.
          4    1    6    6  502    0  0.35792659366E+02 -0.43867429382E+02 -0.15116643277E+03  0.16142105260E+03  0.00000000000E+00 0. -1.
         -3    1    6    6    0  502  0.12905069201E+03  0.10462855440E+01 -0.23491897653E+03  0.26803376906E+03  0.00000000000E+00 0.  1.
<mgrwt>
<rscale>  0 0.89085272E+03</rscale>
<asrwt>0</asrwt>
<pdfrwt beam="1">  1        1 0.75785555E-01 0.89085272E+03</pdfrwt>
<pdfrwt beam="2">  1       -2 0.31904513E+00 0.89085272E+03</pdfrwt>
<totfact> 0.98869346E-01</totfact>
</mgrwt>
</event>
<event>
12    3  0.2422421E-007  0.6154388E+03  0.7818608E-02  0.9873883E-01
         -2   -1    0    0    0  501 -0.00000000000E+00  0.00000000000E+00  0.50823086288E+03  0.50823086288E+03  0.00000000000E+00 0.  1.
          1   -1    0    0  501    0  0.00000000000E+00 -0.00000000000E+00 -0.12265967212E+04  0.12265967212E+04  0.00000000000E+00 0. -1.
        -24    2    1    2    0    0  0.45354717390E+03  0.15638009297E+03 -0.82658261081E+03  0.95895708121E+03  0.78740705387E+02 0.  0.
    5000000    2    1    2    0    0 -0.45354717390E+03 -0.15638009297E+03  0.10821675252E+03  0.77587050285E+03  0.60008699306E+03 0.  0.
        -24    2    4    4    0    0 -0.15739585276E+03  0.21892189415E+03  0.89768505115E+01  0.28094093305E+03  0.78402639060E+02 0.  0.
         24    2    4    4    0    0 -0.29615132114E+03 -0.37530198712E+03  0.99239902004E+02  0.49492956981E+03  0.80929193577E+02 0.  0.
         11    1    5    5    0    0 -0.44833437036E+02  0.65630792549E+02  0.38782586686E+02  0.88439397539E+02  0.00000000000E+00 0. -1.
        -12    1    5    5    0    0 -0.11256241573E+03  0.15329110160E+03 -0.29805736174E+02  0.19250153551E+03  0.00000000000E+00 0.  1.
         13    1    3    3    0    0  0.20592968466E+03  0.49206520558E+02 -0.42989213454E+03  0.47920305094E+03  0.00000000000E+00 0. -1.
        -14    1    3    3    0    0  0.24761748924E+03  0.10717357241E+03 -0.39669047627E+03  0.47975403027E+03  0.00000000000E+00 0.  1.
          2    1    6    6  502    0 -0.12210863826E+03 -0.18621700152E+03  0.82220818599E+02  0.23737639774E+03  0.00000000000E+00 0. -1.
         -1    1    6    6    0  502 -0.17404268288E+03 -0.18908498560E+03  0.17019083405E+02  0.25755317206E+03  0.00000000000E+00 0.  1.
<mgrwt>
<rscale>  0 0.61543876E+03</rscale>
<asrwt>0</asrwt>
<pdfrwt beam="1">  1        1 0.18870718E+00 0.61543876E+03</pdfrwt>
<pdfrwt beam="2">  1       -2 0.78189365E-01 0.61543876E+03</pdfrwt>
<totfact> 0.13640342E+01</totfact>
</mgrwt>
</event>
<event>
12    3  0.2422421E-007  0.6717074E+03  0.7818608E-02  0.9766878E-01
         -2   -1    0    0    0  501 -0.00000000000E+00  0.00000000000E+00  0.68372006230E+03  0.68372006230E+03  0.00000000000E+00 0.  1.
          1   -1    0    0  501    0  0.00000000000E+00 -0.00000000000E+00 -0.68502066526E+03  0.68502066526E+03  0.00000000000E+00 0. -1.
        -24    2    1    2    0    0  0.53187164487E+03  0.11596747166E+03  0.71899909837E+02  0.55528305950E+03  0.82666668263E+02 0.  0.
    5000000    2    1    2    0    0 -0.53187164487E+03 -0.11596747166E+03 -0.73200512795E+02  0.81345766806E+03  0.60001596775E+03 0.  0.
        -24    2    4    4    0    0 -0.24044331184E+03  0.23608774130E+03 -0.40450111024E+02  0.34843731994E+03  0.78879316954E+02 0.  0.
         24    2    4    4    0    0 -0.29142833302E+03 -0.35205521296E+03 -0.32750401771E+02  0.46502034812E+03  0.79359870743E+02 0.  0.
         11    1    5    5    0    0 -0.58847268991E+02  0.72270932477E+02  0.22545332528E+02  0.95887333718E+02  0.00000000000E+00 0. -1.
        -12    1    5    5    0    0 -0.18159604285E+03  0.16381680883E+03 -0.62995443552E+02  0.25254998623E+03  0.00000000000E+00 0.  1.
         13    1    3    3    0    0  0.41488126570E+03  0.91366167608E+02  0.20976617376E+02  0.42534016938E+03  0.00000000000E+00 0. -1.
        -14    1    3    3    0    0  0.11699037917E+03  0.24601304049E+02  0.50923292461E+02  0.12994289012E+03  0.00000000000E+00 0.  1.
          2    1    6    6  502    0 -0.13175237208E+03 -0.20803372056E+03  0.70036680984E+01  0.24634481485E+03  0.00000000000E+00 0. -1.
         -1    1    6    6    0  502 -0.15967596094E+03 -0.14402149241E+03 -0.39754069870E+02  0.21867553327E+03  0.00000000000E+00 0.  1.
<mgrwt>
<rscale>  0 0.67170740E+03</rscale>
<asrwt>0</asrwt>
<pdfrwt beam="1">  1        1 0.10538779E+00 0.67170740E+03</pdfrwt>
<pdfrwt beam="2">  1       -2 0.10518770E+00 0.67170740E+03</pdfrwt>
<totfact> 0.18550798E+01</totfact>
</mgrwt>
</event>
<event>
12    3  0.2422421E-007  0.7780861E+03  0.7818608E-02  0.9592290E-01
         -2   -1    0    0    0  501 -0.00000000000E+00  0.00000000000E+00  0.18730890578E+04  0.18730890578E+04  0.00000000000E+00 0.  1.
          1   -1    0    0  501    0  0.00000000000E+00 -0.00000000000E+00 -0.38894556660E+03  0.38894556660E+03  0.00000000000E+00 0. -1.
        -24    2    1    2    0    0 -0.66802688233E+03 -0.53536012509E+01  0.21317450656E+03  0.70584340678E+03  0.80516880823E+02 0.  0.
    5000000    2    1    2    0    0  0.66802688233E+03  0.53536012509E+01  0.12709689846E+04  0.15561912176E+04  0.60006697068E+03 0.  0.
        -24    2    4    4    0    0  0.92918484409E+02 -0.23604818716E+03  0.32145012059E+03  0.41732763890E+03  0.80495880403E+02 0.  0.
         24    2    4    4    0    0  0.57510839792E+03  0.24140178841E+03  0.94951886404E+03  0.11388635787E+04  0.79998030718E+02 0.  0.
         11    1    3    3    0    0 -0.42237000676E+02 -0.13648755613E+02  0.30594677692E+02  0.53909990345E+02  0.00000000000E+00 0. -1.
        -12    1    3    3    0    0 -0.62578988165E+03  0.82951543618E+01  0.18257982887E+03  0.65193341644E+03  0.00000000000E+00 0.  1.
         13    1    5    5    0    0  0.35411616787E+02 -0.36955249524E+02  0.10966184684E+03  0.12101815452E+03  0.00000000000E+00 0. -1.
        -14    1    5    5    0    0  0.57506867622E+02 -0.19909293763E+03  0.21178827375E+03  0.29630948439E+03  0.00000000000E+00 0.  1.
          2    1    6    6  502    0  0.15459176992E+03  0.98895244343E+02  0.31183911856E+03  0.36183217180E+03  0.00000000000E+00 0. -1.
         -1    1    6    6    0  502  0.42051662799E+03  0.14250654407E+03  0.63767974548E+03  0.77703140690E+03  0.00000000000E+00 0.  1.
<mgrwt>
<rscale>  0 0.77808610E+03</rscale>
<asrwt>0</asrwt>
<pdfrwt beam="1">  1        1 0.59837781E-01 0.77808610E+03</pdfrwt>
<pdfrwt beam="2">  1       -2 0.28816754E+00 0.77808610E+03</pdfrwt>
<totfact> 0.21234171E+00</totfact>
</mgrwt>
</event>
<event>
12    3  0.2422421E-007  0.5194826E+03  0.7818608E-02  0.1008815E+00
         -2   -1    0    0    0  501 -0.00000000000E+00  0.00000000000E+00  0.12050439783E+03  0.12050439783E+03  0.00000000000E+00 0.  1.
          1   -1    0    0  501    0  0.00000000000E+00 -0.00000000000E+00 -0.25184931929E+04  0.25184931929E+04  0.00000000000E+00 0. -1.
        -24    2    1    2    0    0  0.10306589393E+03 -0.33909410452E+03 -0.50674214366E+03  0.62344182151E+03  0.79276190771E+02 0.  0.
    5000000    2    1    2    0    0 -0.10306589393E+03  0.33909410452E+03 -0.18912466514E+04  0.20155557692E+04  0.60003647571E+03 0.  0.
        -24    2    4    4    0    0  0.23023324564E+03  0.68316707986E+02 -0.56082153251E+03  0.61527969536E+03  0.79836033270E+02 0.  0.
         24    2    4    4    0    0 -0.33329913958E+03  0.27077739654E+03 -0.13304251189E+04  0.14002760738E+04  0.79582480002E+02 0.  0.
         13    1    3    3    0    0  0.42674105535E+02 -0.41769479158E+02 -0.79205904350E+02  0.99193467306E+02  0.00000000000E+00 0. -1.
        -14    1    3    3    0    0  0.60391788398E+02 -0.29732462537E+03 -0.42753623931E+03  0.52424835420E+03  0.00000000000E+00 0.  1.
         13    1    5    5    0    0  0.34647275770E+02  0.37966551027E+01 -0.16974996479E+03  0.17329136982E+03  0.00000000000E+00 0. -1.
        -14    1    5    5    0    0  0.19558596987E+03  0.64520052884E+02 -0.39107156772E+03  0.44198832554E+03  0.00000000000E+00 0.  1.
          2    1    6    6  502    0 -0.23784403536E+02  0.48402696893E+02 -0.20959270610E+03  0.21642001148E+03  0.00000000000E+00 0. -1.
         -1    1    6    6    0  502 -0.30951473604E+03  0.22237469965E+03 -0.11208324128E+04  0.11838560624E+04  0.00000000000E+00 0.  1.
<mgrwt>
<rscale>  0 0.51948258E+03</rscale>
<asrwt>0</asrwt>
<pdfrwt beam="1">  1        1 0.38746047E+00 0.51948258E+03</pdfrwt>
<pdfrwt beam="2">  1       -2 0.18539139E-01 0.51948258E+03</pdfrwt>
<totfact> 0.30542841E+01</totfact>
</mgrwt>
</event>
<event>
12    3  0.2422421E-007  0.1652824E+04  0.7818608E-02  0.8788738E-01
          1   -1    0    0  501    0  0.00000000000E+00  0.00000000000E+00  0.11222410974E+04  0.11222410974E+04  0.00000000000E+00 0. -1.
         -2   -1    0    0    0  501 -0.00000000000E+00 -0.00000000000E+00 -0.25074115829E+04  0.25074115829E+04  0.00000000000E+00 0.  1.
        -24    2    1    2    0    0 -0.40363692215E+03  0.15685043128E+04 -0.78243199600E+03  0.18003348326E+04  0.76662486750E+02 0.  0.
    5000000    2    1    2    0    0  0.40363692215E+03 -0.15685043128E+04 -0.60273848950E+03  0.18293178477E+04  0.59998463077E+03 0.  0.
        -24    2    4    4    0    0  0.44492841108E+03 -0.15712508961E+04 -0.55529792315E+03  0.17266549672E+04  0.78682417929E+02 0.  0.
         24    2    4    4    0    0 -0.41291488937E+02  0.27465832841E+01 -0.47440566345E+02  0.10266288054E+03  0.81095800918E+02 0.  0.
         11    1    3    3    0    0 -0.31639093759E+03  0.12173358510E+04 -0.64246129310E+03  0.14123619624E+04  0.00000000000E+00 0. -1.
        -12    1    3    3    0    0 -0.87245984555E+02  0.35116846175E+03 -0.13997070290E+03  0.38797287021E+03  0.00000000000E+00 0.  1.
         13    1    5    5    0    0  0.36633095943E+03 -0.11882064137E+04 -0.44066207735E+03  0.13191724375E+04  0.00000000000E+00 0. -1.
        -14    1    5    5    0    0  0.78597451658E+02 -0.38304448235E+03 -0.11463584580E+03  0.40748252970E+03  0.00000000000E+00 0.  1.
          4    1    6    6  502    0 -0.14469739466E+02 -0.13876618014E+02 -0.63971703705E+02  0.67039635758E+02  0.00000000000E+00 0. -1.
         -3    1    6    6    0  502 -0.26821749471E+02  0.16623201299E+02  0.16531137360E+02  0.35623244778E+02  0.00000000000E+00 0.  1.
<mgrwt>
<rscale>  0 0.16528241E+04</rscale>
<asrwt>0</asrwt>
<pdfrwt beam="1">  1        1 0.17265248E+00 0.16528241E+04</pdfrwt>
<pdfrwt beam="2">  1       -2 0.38575563E+00 0.16528241E+04</pdfrwt>
<totfact> 0.91687461E-02</totfact>
</mgrwt>
</event>
<event>
12    3  0.2422421E-007  0.4613181E+03  0.7818608E-02  0.1024400E+00
          1   -1    0    0  501    0  0.00000000000E+00  0.00000000000E+00  0.89153324399E+03  0.89153324399E+03  0.00000000000E+00 0. -1.
         -2   -1    0    0    0  501 -0.00000000000E+00 -0.00000000000E+00 -0.48213399848E+03  0.48213399848E+03  0.00000000000E+00 0.  1.
        -24    2    1    2    0    0 -0.90948024115E+02 -0.42939250094E+03  0.44440249353E+03  0.62953853630E+03  0.78585809637E+02 0.  0.
    5000000    2    1    2    0    0  0.90948024115E+02  0.42939250094E+03 -0.35003248015E+02  0.74412870617E+03  0.59987735498E+03 0.  0.
        -24    2    4    4    0    0  0.10329460766E+03  0.35919009874E+03 -0.28213370456E+03  0.47488253237E+03  0.78909373981E+02 0.  0.
         24    2    4    4    0    0 -0.12346583549E+02  0.70202402206E+02  0.24713045654E+03  0.26924617380E+03  0.79619244865E+02 0.  0.
         11    1    5    5    0    0  0.42239453291E+02  0.67951504909E+02 -0.91211669745E+02  0.12133073449E+03  0.00000000000E+00 0. -1.
        -12    1    5    5    0    0  0.61055154373E+02  0.29123859383E+03 -0.19092203481E+03  0.35355179789E+03  0.00000000000E+00 0.  1.
         13    1    3    3    0    0 -0.84438483709E+02 -0.24809182340E+03  0.23000969774E+03  0.34868878878E+03  0.00000000000E+00 0. -1.
        -14    1    3    3    0    0 -0.65095404065E+01 -0.18130067754E+03  0.21439279579E+03  0.28084974752E+03  0.00000000000E+00 0.  1.
          4    1    6    6  502    0  0.28424297358E+02  0.12824053535E+02  0.41553526623E+02  0.51952792073E+02  0.00000000000E+00 0. -1.
         -3    1    6    6    0  502 -0.40770880907E+02  0.57378348671E+02  0.20557692992E+03  0.21729338172E+03  0.00000000000E+00 0.  1.
<mgrwt>
<rscale>  0 0.46131814E+03</rscale>
<asrwt>0</asrwt>
<pdfrwt beam="1">  1        1 0.13715896E+00 0.46131814E+03</pdfrwt>
<pdfrwt beam="2">  1       -2 0.74174461E-01 0.46131814E+03</pdfrwt>
<totfact> 0.28057999E+01</totfact>
</mgrwt>
</event>
<event>
12    3  0.2422421E-007  0.5275266E+03  0.7818608E-02  0.1006834E+00
         -2   -1    0    0    0  501 -0.00000000000E+00  0.00000000000E+00  0.79583477696E+03  0.79583477696E+03  0.00000000000E+00 0.  1.
          1   -1    0    0  501    0  0.00000000000E+00 -0.00000000000E+00 -0.35636530307E+03  0.35636530307E+03  0.00000000000E+00 0. -1.
        -24    2    1    2    0    0 -0.33014571720E+03  0.12544630586E+03  0.93709789704E+02  0.37485746438E+03  0.83687655425E+02 0.  0.
    5000000    2    1    2    0    0  0.33014571720E+03 -0.12544630586E+03  0.34575968419E+03  0.77734261565E+03  0.59998234362E+03 0.  0.
        -24    2    4    4    0    0  0.41216584942E+03 -0.28105219404E+03  0.26021790160E+03  0.56827355963E+03  0.79689767535E+02 0.  0.
         24    2    4    4    0    0 -0.82020132221E+02  0.15560588818E+03  0.85541782584E+02  0.20906905603E+03  0.73837518201E+02 0.  0.
         11    1    5    5    0    0  0.18117634838E+03 -0.77778450721E+02  0.11173340360E+03  0.22662460168E+03  0.00000000000E+00 0. -1.
        -12    1    5    5    0    0  0.23098950105E+03 -0.20327374332E+03  0.14848449800E+03  0.34164895794E+03  0.00000000000E+00 0.  1.
         13    1    3    3    0    0 -0.13440834504E+03  0.94765012966E+02  0.50951424365E+02  0.17216869211E+03  0.00000000000E+00 0. -1.
        -14    1    3    3    0    0 -0.19573737216E+03  0.30681292891E+02  0.42758365339E+02  0.20268877226E+03  0.00000000000E+00 0.  1.
          4    1    6    6  502    0 -0.55841041927E+02  0.39030512454E+02  0.49697647687E+02  0.84329467279E+02  0.00000000000E+00 0. -1.
         -3    1    6    6    0  502 -0.26179090294E+02  0.11657537573E+03  0.35844134898E+02  0.12473958875E+03  0.00000000000E+00 0.  1.
<mgrwt>
<rscale>  0 0.52752659E+03</rscale>
<asrwt>0</asrwt>
<pdfrwt beam="1">  1        1 0.54825431E-01 0.52752659E+03</pdfrwt>
<pdfrwt beam="2">  1       -2 0.12243612E+00 0.52752659E+03</pdfrwt>
<totfact> 0.31953684E+01</totfact>
</mgrwt>
</event>
<event>
12    3  0.2422421E-007  0.8847995E+03  0.7818608E-02  0.9444785E-01
         -2   -1    0    0    0  501 -0.00000000000E+00  0.00000000000E+00  0.52964176314E+03  0.52964176314E+03  0.00000000000E+00 0.  1.
          1   -1    0    0  501    0  0.00000000000E+00 -0.00000000000E+00 -0.18009180382E+04  0.18009180382E+04  0.00000000000E+00 0. -1.
        -24    2    1    2    0    0 -0.87984139394E+02  0.87608094709E+03 -0.50469645412E+03  0.10179480358E+04  0.78997836795E+02 0.  0.
    5000000    2    1    2    0    0  0.87984139394E+02 -0.87608094709E+03 -0.76657982093E+03  0.13126117655E+04  0.60003832411E+03 0.  0.
        -24    2    4    4    0    0  0.61294898242E+02 -0.48052605997E+03 -0.55115978595E+02  0.49402870428E+03  0.79776128577E+02 0.  0.
         24    2    4    4    0    0  0.26689241152E+02 -0.39555488712E+03 -0.71146384233E+03  0.81858306121E+03  0.81984418250E+02 0.  0.
         11    1    5    5    0    0  0.27831919212E+02 -0.14111542352E+03  0.18792119348E+02  0.14505627264E+03  0.00000000000E+00 0. -1.
        -12    1    5    5    0    0  0.33462979030E+02 -0.33941063645E+03 -0.73908097943E+02  0.34897243163E+03  0.00000000000E+00 0.  1.
         13    1    3    3    0    0 -0.78449817421E+02  0.78676690772E+03 -0.42389394254E+03  0.89713021098E+03  0.00000000000E+00 0. -1.
        -14    1    3    3    0    0 -0.95343219729E+01  0.89314039370E+02 -0.80802511580E+02  0.12081782485E+03  0.00000000000E+00 0.  1.
          4    1    6    6  502    0  0.45666379690E+02 -0.36763424379E+03 -0.63852459601E+03  0.73821000748E+03  0.00000000000E+00 0. -1.
         -3    1    6    6    0  502 -0.18977138539E+02 -0.27920643332E+02 -0.72939246320E+02  0.80373053724E+02  0.00000000000E+00 0.  1.
<mgrwt>
<rscale>  0 0.88479950E+03</rscale>
<asrwt>0</asrwt>
<pdfrwt beam="1">  1        1 0.27706432E+00 0.88479950E+03</pdfrwt>
<pdfrwt beam="2">  1       -2 0.81483347E-01 0.88479950E+03</pdfrwt>
<totfact> 0.48269790E+00</totfact>
</mgrwt>
</event>
<event>
12    3  0.2422421E-007  0.7623310E+03  0.7818608E-02  0.9616201E-01
         -2   -1    0    0    0  501 -0.00000000000E+00  0.00000000000E+00  0.57725912422E+03  0.57725912422E+03  0.00000000000E+00 0.  1.
          1   -1    0    0  501    0  0.00000000000E+00 -0.00000000000E+00 -0.17258854984E+04  0.17258854984E+04  0.00000000000E+00 0. -1.
        -24    2    1    2    0    0 -0.66907131095E+03 -0.17047263121E+03 -0.12003075035E+04  0.13869204769E+04  0.78057473453E+02 0.  0.
    5000000    2    1    2    0    0  0.66907131095E+03  0.17047263121E+03  0.51681129346E+02  0.91622414569E+03  0.60006533718E+03 0.  0.
        -24    2    4    4    0    0  0.54947315661E+03 -0.79932972432E+02  0.19530226073E+03  0.59404128518E+03  0.80200034556E+02 0.  0.
         24    2    4    4    0    0  0.11959815434E+03  0.25040560364E+03 -0.14362113139E+03  0.32218286051E+03  0.78537133672E+02 0.  0.
         11    1    3    3    0    0 -0.96252289507E+02 -0.29122245413E+02 -0.12545223621E+03  0.16078206363E+03  0.00000000000E+00 0. -1.
        -12    1    3    3    0    0 -0.57281902145E+03 -0.14135038580E+03 -0.10748552673E+04  0.12261384133E+04  0.00000000000E+00 0.  1.
         13    1    5    5    0    0  0.28150331685E+03 -0.29840113521E+02  0.14028143281E+03  0.31593263548E+03  0.00000000000E+00 0. -1.
        -14    1    5    5    0    0  0.26796983976E+03 -0.50092858911E+02  0.55020827924E+02  0.27810864970E+03  0.00000000000E+00 0.  1.
          2    1    6    6  502    0  0.11813896778E+03  0.25048384529E+03 -0.12558860045E+03  0.30409121826E+03  0.00000000000E+00 0. -1.
         -1    1    6    6    0  502  0.14591865669E+01 -0.78241649747E-01 -0.18032530937E+02  0.18091642247E+02  0.00000000000E+00 0.  1.
<mgrwt>
<rscale>  0 0.76233101E+03</rscale>
<asrwt>0</asrwt>
<pdfrwt beam="1">  1        1 0.26552084E+00 0.76233101E+03</pdfrwt>
<pdfrwt beam="2">  1       -2 0.88809096E-01 0.76233101E+03</pdfrwt>
<totfact> 0.45331163E+00</totfact>
</mgrwt>
</event>
<event>
12    3  0.2422421E-007  0.4342149E+03  0.7818608E-02  0.1032537E+00
          1   -1    0    0  501    0  0.00000000000E+00  0.00000000000E+00  0.75832632352E+03  0.75832632352E+03  0.00000000000E+00 0. -1.
         -2   -1    0    0    0  501 -0.00000000000E+00 -0.00000000000E+00 -0.38037332639E+03  0.38037332639E+03  0.00000000000E+00 0.  1.
        -24    2    1    2    0    0  0.12593221111E+03  0.20441664244E+03  0.42060544103E+03  0.49095815310E+03  0.80534995898E+02 0.  0.
    5000000    2    1    2    0    0 -0.12593221111E+03 -0.20441664244E+03 -0.42652443898E+02  0.64774149681E+03  0.60008726884E+03 0.  0.
        -24    2    4    4    0    0  0.22755014985E+03 -0.73839714090E+02 -0.68797982624E+02  0.26138436258E+03  0.79732355501E+02 0.  0.
         24    2    4    4    0    0 -0.35348236097E+03 -0.13057692835E+03  0.26145538727E+02  0.38635713423E+03  0.81167310181E+02 0.  0.
         11    1    5    5    0    0  0.17830945630E+03 -0.82376301242E+02 -0.76556772518E+02  0.21081047562E+03  0.00000000000E+00 0. -1.
        -12    1    5    5    0    0  0.49240693558E+02  0.85365871520E+01  0.77587898939E+01  0.50573886966E+02  0.00000000000E+00 0.  1.
         11    1    3    3    0    0  0.56736335959E+02  0.61573093422E+02  0.82958340598E+02  0.11786578777E+03  0.00000000000E+00 0. -1.
        -12    1    3    3    0    0  0.69195875154E+02  0.14284354902E+03  0.33764710043E+03  0.37309236533E+03  0.00000000000E+00 0.  1.
          2    1    6    6  502    0 -0.11863163692E+03 -0.67172064172E+02  0.41804614502E+02  0.14259445038E+03  0.00000000000E+00 0. -1.
         -1    1    6    6    0  502 -0.23485072404E+03 -0.63404864175E+02 -0.15659075775E+02  0.24376268385E+03  0.00000000000E+00 0.  1.
<mgrwt>
<rscale>  0 0.43421485E+03</rscale>
<asrwt>0</asrwt>
<pdfrwt beam="1">  1        1 0.11666559E+00 0.43421485E+03</pdfrwt>
<pdfrwt beam="2">  1       -2 0.58518973E-01 0.43421485E+03</pdfrwt>
<totfact> 0.60498572E+01</totfact>
</mgrwt>
</event>
<event>
12    3  0.2422421E-007  0.1503392E+04  0.7818608E-02  0.8882201E-01
          1   -1    0    0  501    0  0.00000000000E+00  0.00000000000E+00  0.20921134419E+04  0.20921134419E+04  0.00000000000E+00 0. -1.
         -2   -1    0    0    0  501 -0.00000000000E+00 -0.00000000000E+00 -0.11233176234E+04  0.11233176234E+04  0.00000000000E+00 0.  1.
        -24    2    1    2    0    0  0.95391718952E+03  0.11143223179E+04  0.60776345366E+03  0.15899290316E+04  0.82617657064E+02 0.  0.
    5000000    2    1    2    0    0 -0.95391718952E+03 -0.11143223179E+04  0.36103236479E+03  0.16255020337E+04  0.60020018375E+03 0.  0.
        -24    2    4    4    0    0 -0.90108688085E+02  0.90621997377E+01  0.14653550472E+03  0.18998749359E+03  0.80130483873E+02 0.  0.
         24    2    4    4    0    0 -0.86380850143E+03 -0.11233845176E+04  0.21449686007E+03  0.14355145401E+04  0.80840524044E+02 0.  0.
         13    1    5    5    0    0 -0.61289209605E+02 -0.33086017436E+02  0.90110263092E+02  0.11388990859E+03  0.00000000000E+00 0. -1.
        -14    1    5    5    0    0 -0.28819478480E+02  0.42148217174E+02  0.56425241626E+02  0.76097585003E+02  0.00000000000E+00 0.  1.
         13    1    3    3    0    0  0.46971439906E+03  0.59446746849E+03  0.28267545549E+03  0.80865851934E+03  0.00000000000E+00 0. -1.
        -14    1    3    3    0    0  0.48420279046E+03  0.51985484939E+03  0.32508799818E+03  0.78127051223E+03  0.00000000000E+00 0.  1.
          4    1    6    6  502    0 -0.19331004846E+03 -0.28725377401E+03  0.79783802274E+02  0.35531529748E+03  0.00000000000E+00 0. -1.
         -3    1    6    6    0  502 -0.67049845297E+03 -0.83613074361E+03  0.13471305780E+03  0.10801992426E+04  0.00000000000E+00 0.  1.
<mgrwt>
<rscale>  0 0.15033917E+04</rscale>
<asrwt>0</asrwt>
<pdfrwt beam="1">  1        1 0.32186361E+00 0.15033917E+04</pdfrwt>
<pdfrwt beam="2">  1       -2 0.17281810E+00 0.15033917E+04</pdfrwt>
<totfact> 0.43463553E-01</totfact>
</mgrwt>
</event>
<event>
12    3  0.2422421E-007  0.8751367E+03  0.7818608E-02  0.9457207E-01
          1   -1    0    0  501    0  0.00000000000E+00  0.00000000000E+00  0.16236523558E+04  0.16236523558E+04  0.00000000000E+00 0. -1.
         -2   -1    0    0    0  501 -0.00000000000E+00 -0.00000000000E+00 -0.58123695564E+03  0.58123695564E+03  0.00000000000E+00 0.  1.
        -24    2    1    2    0    0 -0.76684875792E+03 -0.34289657575E+03  0.18725226234E+03  0.86431831547E+03  0.79672212923E+02 0.  0.
    5000000    2    1    2    0    0  0.76684875792E+03  0.34289657575E+03  0.85516313782E+03  0.13405709960E+04  0.60015958189E+03 0.  0.
        -24    2    4    4    0    0  0.31199364761E+03  0.31387361427E+03  0.10924043702E+03  0.46280392959E+03  0.79983262509E+02 0.  0.
         24    2    4    4    0    0  0.45485511031E+03  0.29022961485E+02  0.74592270080E+03  0.87776706637E+03  0.79616854773E+02 0.  0.
         11    1    5    5    0    0  0.23787977290E+03  0.18923860376E+03  0.61397640542E+02  0.31010918363E+03  0.00000000000E+00 0. -1.
        -12    1    5    5    0    0  0.74113874708E+02  0.12463501051E+03  0.47842796478E+02  0.15269474596E+03  0.00000000000E+00 0.  1.
         11    1    3    3    0    0 -0.65136641561E+03 -0.32046882551E+03  0.16790939483E+03  0.74509867829E+03  0.00000000000E+00 0. -1.
        -12    1    3    3    0    0 -0.11548234231E+03 -0.22427750244E+02  0.19342867508E+02  0.11921963718E+03  0.00000000000E+00 0.  1.
          2    1    6    6  502    0  0.32023523668E+03  0.39673710237E+02  0.46402685095E+03  0.56519512427E+03  0.00000000000E+00 0. -1.
         -1    1    6    6    0  502  0.13461987363E+03 -0.10650748752E+02  0.28189584985E+03  0.31257194210E+03  0.00000000000E+00 0.  1.
<mgrwt>
<rscale>  0 0.87513667E+03</rscale>
<asrwt>0</asrwt>
<pdfrwt beam="1">  1        1 0.24979267E+00 0.87513667E+03</pdfrwt>
<pdfrwt beam="2">  1       -2 0.89421071E-01 0.87513667E+03</pdfrwt>
<totfact> 0.51491712E+00</totfact>
</mgrwt>
</event>
<event>
12    3  0.2422421E-007  0.1473106E+04  0.7818608E-02  0.8902537E-01
         -2   -1    0    0    0  501 -0.00000000000E+00  0.00000000000E+00  0.12990287408E+04  0.12990287408E+04  0.00000000000E+00 0.  1.
          1   -1    0    0  501    0  0.00000000000E+00 -0.00000000000E+00 -0.17291159266E+04  0.17291159266E+04  0.00000000000E+00 0. -1.
        -24    2    1    2    0    0 -0.90093047720E+03 -0.11078882043E+04 -0.37367736131E+03  0.14781648208E+04  0.79021953748E+02 0.  0.
    5000000    2    1    2    0    0  0.90093047720E+03  0.11078882043E+04 -0.56409824497E+02  0.15499798466E+04  0.60013620006E+03 0.  0.
        -24    2    4    4    0    0  0.62195952743E+03  0.36557419057E+03  0.11512139257E+03  0.73489153131E+03  0.79589479137E+02 0.  0.
         24    2    4    4    0    0  0.27897094977E+03  0.74231401370E+03 -0.17153121707E+03  0.81508831528E+03  0.78045611828E+02 0.  0.
         11    1    3    3    0    0 -0.18602531247E+03 -0.18083066281E+03 -0.64358039323E+02  0.26729590853E+03  0.00000000000E+00 0. -1.
        -12    1    3    3    0    0 -0.71490516473E+03 -0.92705754146E+03 -0.30931932199E+03  0.12108689123E+04  0.00000000000E+00 0.  1.
         11    1    5    5    0    0  0.38657361867E+03  0.21634884058E+03  0.10859728680E+03  0.45611331287E+03  0.00000000000E+00 0. -1.
        -12    1    5    5    0    0  0.23538590876E+03  0.14922534999E+03  0.65241057701E+01  0.27877821844E+03  0.00000000000E+00 0.  1.
          4    1    6    6  502    0  0.17364945979E+03  0.52341062741E+03 -0.14830560693E+03  0.57105811685E+03  0.00000000000E+00 0. -1.
         -3    1    6    6    0  502  0.10532148997E+03  0.21890338628E+03 -0.23225610141E+02  0.24403019842E+03  0.00000000000E+00 0.  1.
<mgrwt>
<rscale>  0 0.14731059E+04</rscale>
<asrwt>0</asrwt>
<pdfrwt beam="1">  1        1 0.26601784E+00 0.14731059E+04</pdfrwt>
<pdfrwt beam="2">  1       -2 0.19985057E+00 0.14731059E+04</pdfrwt>
<totfact> 0.50308462E-01</totfact>
</mgrwt>
</event>
<event>
12    3  0.2422421E-007  0.1486409E+04  0.7818608E-02  0.8893541E-01
          1   -1    0    0  501    0  0.00000000000E+00  0.00000000000E+00  0.41024821768E+04  0.41024821768E+04  0.00000000000E+00 0. -1.
         -2   -1    0    0    0  501 -0.00000000000E+00 -0.00000000000E+00 -0.75774537626E+03  0.75774537626E+03  0.00000000000E+00 0.  1.
        -24    2    1    2    0    0  0.12195535989E+04  0.77165538901E+03  0.35757915415E+03  0.14888836430E+04  0.78413207386E+02 0.  0.
    5000000    2    1    2    0    0 -0.12195535989E+04 -0.77165538901E+03  0.29871576464E+04  0.33713439100E+04  0.60007160862E+03 0.  0.
        -24    2    4    4    0    0 -0.82255884519E+02  0.53393221001E+02  0.47904157696E+03  0.49540005019E+03  0.79520504815E+02 0.  0.
         24    2    4    4    0    0 -0.11372977143E+04 -0.82504861001E+03  0.25081160694E+04  0.28759438598E+04  0.79092144479E+02 0.  0.
         11    1    5    5    0    0  0.81738621107E+01  0.29141015779E+02  0.16283858896E+03  0.16562734339E+03  0.00000000000E+00 0. -1.
        -12    1    5    5    0    0 -0.90429746630E+02  0.24252205222E+02  0.31620298800E+03  0.32977270680E+03  0.00000000000E+00 0.  1.
         13    1    3    3    0    0  0.10117907356E+04  0.65818587382E+03  0.27319255965E+03  0.12375634577E+04  0.00000000000E+00 0. -1.
        -14    1    3    3    0    0  0.20776286323E+03  0.11346951519E+03  0.84386594502E+02  0.25132018532E+03  0.00000000000E+00 0.  1.
          2    1    6    6  502    0 -0.89066036295E+03 -0.63672132137E+03  0.20173915239E+04  0.22953340681E+04  0.00000000000E+00 0. -1.
         -1    1    6    6    0  502 -0.24663735139E+03 -0.18832728864E+03  0.49072454548E+03  0.58060979176E+03  0.00000000000E+00 0.  1.
<mgrwt>
<rscale>  0 0.14864091E+04</rscale>
<asrwt>0</asrwt>
<pdfrwt beam="1">  1        1 0.63115109E+00 0.14864091E+04</pdfrwt>
<pdfrwt beam="2">  1       -2 0.11657621E+00 0.14864091E+04</pdfrwt>
<totfact> 0.37649551E-02</totfact>
</mgrwt>
</event>
<event>
12    3  0.2422421E-007  0.3493652E+03  0.7818608E-02  0.1062876E+00
          1   -1    0    0  501    0  0.00000000000E+00  0.00000000000E+00  0.34924978431E+03  0.34924978431E+03  0.00000000000E+00 0. -1.
         -2   -1    0    0    0  501 -0.00000000000E+00 -0.00000000000E+00 -0.51650480618E+03  0.51650480618E+03  0.00000000000E+00 0.  1.
        -24    2    1    2    0    0 -0.13513899546E+03 -0.12819667589E+03 -0.11830722817E+03  0.23559963508E+03  0.82544848471E+02 0.  0.
    5000000    2    1    2    0    0  0.13513899546E+03  0.12819667589E+03 -0.48947793701E+02  0.63015495541E+03  0.60000203793E+03 0.  0.
        -24    2    4    4    0    0  0.30372812866E+03  0.72332655680E+02 -0.20430038061E+03  0.38069840577E+03  0.75563492665E+02 0.  0.
         24    2    4    4    0    0 -0.16858913319E+03  0.55864020215E+02  0.15535258691E+03  0.24945654964E+03  0.80938614487E+02 0.  0.
         13    1    5    5    0    0  0.18377664704E+03  0.15197255022E+02 -0.14777758453E+03  0.23631129268E+03  0.00000000000E+00 0. -1.
        -14    1    5    5    0    0  0.11995148162E+03  0.57135400658E+02 -0.56522796078E+02  0.14438711309E+03  0.00000000000E+00 0.  1.
         13    1    3    3    0    0 -0.73720949150E+02 -0.34337715161E+02 -0.87113744358E+02  0.11917491969E+03  0.00000000000E+00 0. -1.
        -14    1    3    3    0    0 -0.61418046314E+02 -0.93858960734E+02 -0.31193483807E+02  0.11642471540E+03  0.00000000000E+00 0.  1.
          2    1    6    6  502    0 -0.10273305541E+02 -0.11933963693E+02 -0.23713487896E+01  0.15924308187E+02  0.00000000000E+00 0. -1.
         -1    1    6    6    0  502 -0.15831582765E+03  0.67797983908E+02  0.15772393570E+03  0.23353224146E+03  0.00000000000E+00 0.  1.
<mgrwt>
<rscale>  0 0.34936522E+03</rscale>
<asrwt>0</asrwt>
<pdfrwt beam="1">  1        1 0.53730736E-01 0.34936522E+03</pdfrwt>
<pdfrwt beam="2">  1       -2 0.79462277E-01 0.34936522E+03</pdfrwt>
<totfact> 0.91850699E+01</totfact>
</mgrwt>
</event>
<event>
12    3  0.2422421E-007  0.3453410E+03  0.7818608E-02  0.1064544E+00
         -2   -1    0    0    0  501 -0.00000000000E+00  0.00000000000E+00  0.11477955664E+03  0.11477955664E+03  0.00000000000E+00 0.  1.
          1   -1    0    0  501    0  0.00000000000E+00 -0.00000000000E+00 -0.15439310438E+04  0.15439310438E+04  0.00000000000E+00 0. -1.
        -24    2    1    2    0    0 -0.54387033672E+02 -0.10529579824E+03 -0.51598745329E+02  0.15147787925E+03  0.78980775029E+02 0.  0.
    5000000    2    1    2    0    0  0.54387033672E+02  0.10529579824E+03 -0.13775527418E+04  0.15072327211E+04  0.60004480226E+03 0.  0.
        -24    2    4    4    0    0  0.27851791752E+03  0.16037331015E+03 -0.10369250525E+04  0.10881731356E+04  0.74935836220E+02 0.  0.
         24    2    4    4    0    0 -0.22413088385E+03 -0.55077511917E+02 -0.34062768931E+03  0.41905958557E+03  0.79470297071E+02 0.  0.
         11    1    5    5    0    0  0.15214175979E+03  0.60269552064E+02 -0.42649732108E+03  0.45681451255E+03  0.00000000000E+00 0. -1.
        -12    1    5    5    0    0  0.12637615772E+03  0.10010375809E+03 -0.61042773139E+03  0.63135862303E+03  0.00000000000E+00 0.  1.
         11    1    3    3    0    0 -0.25320779508E+02 -0.13886404042E+02 -0.47353451569E+02  0.55464614554E+02  0.00000000000E+00 0. -1.
        -12    1    3    3    0    0 -0.29066254165E+02 -0.91409394194E+02 -0.42452937601E+01  0.96013264694E+02  0.00000000000E+00 0.  1.
          4    1    6    6  502    0 -0.19413162025E+03 -0.20451089487E+02 -0.29946482778E+03  0.35746960168E+03  0.00000000000E+00 0. -1.
         -3    1    6    6    0  502 -0.29999263593E+02 -0.34626422430E+02 -0.41162861530E+02  0.61589983892E+02  0.00000000000E+00 0.  1.
<mgrwt>
<rscale>  0 0.34534101E+03</rscale>
<asrwt>0</asrwt>
<pdfrwt beam="1">  1        1 0.23752784E+00 0.34534101E+03</pdfrwt>
<pdfrwt beam="2">  1       -2 0.17658394E-01 0.34534101E+03</pdfrwt>
<totfact> 0.15183644E+02</totfact>
</mgrwt>
</event>
<event>
12    3  0.2422421E-007  0.4823259E+03  0.7818608E-02  0.1018498E+00
         -4   -1    0    0    0  501 -0.00000000000E+00  0.00000000000E+00  0.42378586741E+03  0.42378586741E+03  0.00000000000E+00 0.  1.
          3   -1    0    0  501    0  0.00000000000E+00 -0.00000000000E+00 -0.62951397956E+03  0.62951397956E+03  0.00000000000E+00 0. -1.
        -24    2    1    2    0    0  0.60727888105E+02 -0.30323836517E+03  0.65074358494E+02  0.32603351537E+03  0.80136124863E+02 0.  0.
    5000000    2    1    2    0    0 -0.60727888105E+02  0.30323836517E+03 -0.27080247064E+03  0.72726633160E+03  0.59995079504E+03 0.  0.
        -24    2    4    4    0    0 -0.30244713918E+03  0.10264237222E+03 -0.22586352748E+03  0.39959732446E+03  0.81571809464E+02 0.  0.
         24    2    4    4    0    0  0.24171925108E+03  0.20059599295E+03 -0.44938943160E+02  0.32766900713E+03  0.81734453527E+02 0.  0.
         11    1    3    3    0    0  0.27488977959E+02 -0.26143684660E+03  0.71006665416E+02  0.27229912817E+03  0.00000000000E+00 0. -1.
        -12    1    3    3    0    0  0.33238910145E+02 -0.41801518569E+02 -0.59323069227E+01  0.53734387200E+02  0.00000000000E+00 0.  1.
         13    1    5    5    0    0 -0.10579557358E+03 -0.40805509019E+01 -0.70350443584E+02  0.12711624285E+03  0.00000000000E+00 0. -1.
        -14    1    5    5    0    0 -0.19665156560E+03  0.10672292312E+03 -0.15551308390E+03  0.27248108161E+03  0.00000000000E+00 0.  1.
          4    1    6    6  502    0  0.17534177902E+03  0.17464625318E+03 -0.85024317425E+01  0.24762541179E+03  0.00000000000E+00 0. -1.
         -3    1    6    6    0  502  0.66377472059E+02  0.25949739775E+02 -0.36436511417E+02  0.80043595344E+02  0.00000000000E+00 0.  1.
<mgrwt>
<rscale>  0 0.48232588E+03</rscale>
<asrwt>0</asrwt>
<pdfrwt beam="1">  1        3 0.96848304E-01 0.48232588E+03</pdfrwt>
<pdfrwt beam="2">  1       -4 0.65197826E-01 0.48232588E+03</pdfrwt>
<totfact> 0.46526924E+00</totfact>
</mgrwt>
</event>
<event>
12    3  0.2422421E-007  0.8880716E+03  0.7818608E-02  0.9440617E-01
         -2   -1    0    0    0  501 -0.00000000000E+00  0.00000000000E+00  0.44612060968E+03  0.44612060968E+03  0.00000000000E+00 0.  1.
          1   -1    0    0  501    0  0.00000000000E+00 -0.00000000000E+00 -0.27472876559E+04  0.27472876559E+04  0.00000000000E+00 0. -1.
        -24    2    1    2    0    0 -0.41356983201E+03  0.75825951018E+03 -0.18609629632E+04  0.20533409277E+04  0.83835101446E+02 0.  0.
    5000000    2    1    2    0    0  0.41356983201E+03 -0.75825951018E+03 -0.44020408296E+03  0.11400673378E+04  0.59998034085E+03 0.  0.
        -24    2    4    4    0    0  0.36588463944E+03 -0.40698827133E+03  0.20922416190E+02  0.55312522009E+03  0.77451528270E+02 0.  0.
         24    2    4    4    0    0  0.47685192577E+02 -0.35127123885E+03 -0.46112649915E+03  0.58694211774E+03  0.78727635025E+02 0.  0.
         13    1    3    3    0    0 -0.14756790871E+03  0.25977104127E+03 -0.73989879377E+03  0.79793953817E+03  0.00000000000E+00 0. -1.
        -14    1    3    3    0    0 -0.26600192330E+03  0.49848846891E+03 -0.11210641694E+04  0.12554013895E+04  0.00000000000E+00 0.  1.
         13    1    5    5    0    0  0.11547202942E+03 -0.17445933721E+03 -0.13639439444E+02  0.20965658641E+03  0.00000000000E+00 0. -1.
        -14    1    5    5    0    0  0.25041261002E+03 -0.23252893412E+03  0.34561855634E+02  0.34346863368E+03  0.00000000000E+00 0.  1.
          4    1    6    6  502    0  0.28412828383E+01 -0.25716868848E+03 -0.30145875650E+03  0.39625899244E+03  0.00000000000E+00 0. -1.
         -3    1    6    6    0  502  0.44843909738E+02 -0.94102550370E+02 -0.15966774265E+03  0.19068312529E+03  0.00000000000E+00 0.  1.
<mgrwt>
<rscale>  0 0.88807162E+03</rscale>
<asrwt>0</asrwt>
<pdfrwt beam="1">  1        1 0.42265964E+00 0.88807162E+03</pdfrwt>
<pdfrwt beam="2">  1       -2 0.68633940E-01 0.88807162E+03</pdfrwt>
<totfact> 0.16064622E+00</totfact>
</mgrwt>
</event>
<event>
12    3  0.2422421E-007  0.4889754E+03  0.7818608E-02  0.1016697E+00
         -2   -1    0    0    0  501 -0.00000000000E+00  0.00000000000E+00  0.38537300529E+03  0.38537300529E+03  0.00000000000E+00 0.  1.
          1   -1    0    0  501    0  0.00000000000E+00 -0.00000000000E+00 -0.10244520522E+04  0.10244520522E+04  0.00000000000E+00 0. -1.
        -24    2    1    2    0    0 -0.33012807237E+03 -0.70005671811E+02 -0.62916952759E+03  0.72133560116E+03  0.10288545474E+03 0.  0.
    5000000    2    1    2    0    0  0.33012807237E+03  0.70005671811E+02 -0.99095193208E+01  0.68848945633E+03  0.60002849487E+03 0.  0.
        -24    2    4    4    0    0  0.10442969922E+03 -0.22996001665E+03  0.10919576285E+03  0.28635706051E+03  0.79306242757E+02 0.  0.
         24    2    4    4    0    0  0.22569837316E+03  0.29996568847E+03 -0.11910528218E+03  0.40213239582E+03  0.81272539193E+02 0.  0.
         13    1    3    3    0    0 -0.29110819963E+03 -0.81224745715E+02 -0.48414002336E+03  0.57073023875E+03  0.00000000000E+00 0. -1.
        -14    1    3    3    0    0 -0.39019872742E+02  0.11219073904E+02 -0.14502950423E+03  0.15060536241E+03  0.00000000000E+00 0.  1.
         13    1    5    5    0    0  0.59033287505E+02 -0.11180822941E+03  0.96686710628E+02  0.15916761357E+03  0.00000000000E+00 0. -1.
        -14    1    5    5    0    0  0.45396411711E+02 -0.11815178724E+03  0.12509052226E+02  0.12718944694E+03  0.00000000000E+00 0.  1.
          2    1    6    6  502    0  0.67669641897E+02  0.14862704947E+03 -0.71142583350E+02  0.17813042254E+03  0.00000000000E+00 0. -1.
         -1    1    6    6    0  502  0.15802873126E+03  0.15133863900E+03 -0.47962698825E+02  0.22400197329E+03  0.00000000000E+00 0.  1.
<mgrwt>
<rscale>  0 0.48897536E+03</rscale>
<asrwt>0</asrwt>
<pdfrwt beam="1">  1        1 0.15760801E+00 0.48897536E+03</pdfrwt>
<pdfrwt beam="2">  1       -2 0.59288155E-01 0.48897536E+03</pdfrwt>
<totfact> 0.35567154E+01</totfact>
</mgrwt>
</event>
<event>
12    3  0.2422421E-007  0.4363419E+03  0.7818608E-02  0.1031875E+00
          1   -1    0    0  501    0  0.00000000000E+00  0.00000000000E+00  0.81714389793E+03  0.81714389793E+03  0.00000000000E+00 0. -1.
         -2   -1    0    0    0  501 -0.00000000000E+00 -0.00000000000E+00 -0.36396319164E+03  0.36396319164E+03  0.00000000000E+00 0.  1.
        -24    2    1    2    0    0 -0.12849257287E+03  0.33994589694E+03  0.60591511131E+02  0.37683607098E+03  0.79123568215E+02 0.  0.
    5000000    2    1    2    0    0  0.12849257287E+03 -0.33994589694E+03  0.39258919515E+03  0.80427101859E+03  0.60054312173E+03 0.  0.
        -24    2    4    4    0    0 -0.10148031563E+03 -0.20726697545E+03  0.45807049177E+03  0.51878240587E+03  0.77773746474E+02 0.  0.
         24    2    4    4    0    0  0.22997288850E+03 -0.13267892149E+03 -0.65481296614E+02  0.28548861272E+03  0.82004403120E+02 0.  0.
         13    1    5    5    0    0 -0.27538578016E+02 -0.14193769745E+03  0.28432460207E+03  0.31897517549E+03  0.00000000000E+00 0. -1.
        -14    1    5    5    0    0 -0.73941737616E+02 -0.65329277992E+02  0.17374588970E+03  0.19980723038E+03  0.00000000000E+00 0.  1.
         13    1    3    3    0    0 -0.91786036754E+02  0.24279850472E+03  0.62882045575E+01  0.25964462628E+03  0.00000000000E+00 0. -1.
        -14    1    3    3    0    0 -0.36706536117E+02  0.97147392216E+02  0.54303306573E+02  0.11719144471E+03  0.00000000000E+00 0.  1.
          2    1    6    6  502    0  0.18862659162E+03 -0.11591940195E+03 -0.20842434421E+02  0.22237739518E+03  0.00000000000E+00 0. -1.
         -1    1    6    6    0  502  0.41346296888E+02 -0.16759519536E+02 -0.44638862193E+02  0.63111217540E+02  0.00000000000E+00 0.  1.
<mgrwt>
<rscale>  0 0.43634188E+03</rscale>
<asrwt>0</asrwt>
<pdfrwt beam="1">  1        1 0.12571444E+00 0.43634188E+03</pdfrwt>
<pdfrwt beam="2">  1       -2 0.55994338E-01 0.43634188E+03</pdfrwt>
<totfact> 0.58991247E+01</totfact>
</mgrwt>
</event>
<event>
12    3  0.2422421E-007  0.4244066E+03  0.7818608E-02  0.1035642E+00
         -2   -1    0    0    0  501 -0.00000000000E+00  0.00000000000E+00  0.16438802988E+04  0.16438802988E+04  0.00000000000E+00 0.  1.
          1   -1    0    0  501    0  0.00000000000E+00 -0.00000000000E+00 -0.19345669747E+03  0.19345669747E+03  0.00000000000E+00 0. -1.
        -24    2    1    2    0    0  0.30809013886E+03 -0.25114199248E+03  0.46192739784E+03  0.61465714616E+03  0.80216285166E+02 0.  0.
    5000000    2    1    2    0    0 -0.30809013886E+03  0.25114199248E+03  0.98849620352E+03  0.12226798501E+04  0.59985784772E+03 0.  0.
        -24    2    4    4    0    0 -0.20819168124E+03  0.69501961824E+02  0.97219929156E+03  0.10001732538E+04  0.83670641490E+02 0.  0.
         24    2    4    4    0    0 -0.99898457628E+02  0.18164003066E+03  0.16296911958E+02  0.22250659633E+03  0.79188341938E+02 0.  0.
         11    1    3    3    0    0  0.23496483966E+03 -0.20176788585E+03  0.40422330726E+03  0.50923004406E+03  0.00000000000E+00 0. -1.
        -12    1    3    3    0    0  0.73125299208E+02 -0.49374106629E+02  0.57704090572E+02  0.10542710211E+03  0.00000000000E+00 0.  1.
         13    1    5    5    0    0 -0.12656163118E+03  0.83664817676E+02  0.65369182671E+03  0.67106680183E+03  0.00000000000E+00 0. -1.
        -14    1    5    5    0    0 -0.81630050053E+02 -0.14162855851E+02  0.31850746485E+03  0.32910645196E+03  0.00000000000E+00 0.  1.
          4    1    6    6  502    0 -0.91184130213E+02  0.18555849463E+03  0.38150339569E+01  0.20678746339E+03  0.00000000000E+00 0. -1.
         -3    1    6    6    0  502 -0.87143274148E+01 -0.39184639672E+01  0.12481878001E+02  0.15719132946E+02  0.00000000000E+00 0.  1.
<mgrwt>
<rscale>  0 0.42440656E+03</rscale>
<asrwt>0</asrwt>
<pdfrwt beam="1">  1        1 0.29762570E-01 0.42440656E+03</pdfrwt>
<pdfrwt beam="2">  1       -2 0.25290465E+00 0.42440656E+03</pdfrwt>
<totfact> 0.90061073E+00</totfact>
</mgrwt>
</event>
<event>
12    3  0.2422421E-007  0.7045603E+03  0.7818608E-02  0.9709465E-01
         -2   -1    0    0    0  501 -0.00000000000E+00  0.00000000000E+00  0.27761000610E+03  0.27761000610E+03  0.00000000000E+00 0.  1.
          1   -1    0    0  501    0  0.00000000000E+00 -0.00000000000E+00 -0.20429846988E+04  0.20429846988E+04  0.00000000000E+00 0. -1.
        -24    2    1    2    0    0  0.59796015939E+03 -0.83964389157E+02 -0.45648374100E+03  0.75921221705E+03  0.58475754447E+02 0.  0.
    5000000    2    1    2    0    0 -0.59796015939E+03  0.83964389157E+02 -0.13088909517E+04  0.15613824879E+04  0.60009447512E+03 0.  0.
        -24    2    4    4    0    0 -0.18796197486E+03 -0.21974223648E+03 -0.70604718494E+03  0.76720204313E+03  0.80498404476E+02 0.  0.
         24    2    4    4    0    0 -0.40999818452E+03  0.30370662564E+03 -0.60284376677E+03  0.79418044474E+03  0.83461044217E+02 0.  0.
         11    1    3    3    0    0  0.57799828177E+03 -0.71367658303E+02 -0.43135596156E+03  0.72473672596E+03  0.00000000000E+00 0. -1.
        -12    1    3    3    0    0  0.19961877612E+02 -0.12596730854E+02 -0.25127779440E+02  0.34475491086E+02  0.00000000000E+00 0.  1.
         11    1    5    5    0    0 -0.13778344821E+02 -0.29110885064E+02 -0.32071748510E+02  0.45451990800E+02  0.00000000000E+00 0. -1.
        -12    1    5    5    0    0 -0.17418363004E+03 -0.19063135142E+03 -0.67397543643E+03  0.72175005233E+03  0.00000000000E+00 0.  1.
          4    1    6    6  502    0 -0.30459181864E+03  0.19723405388E+03 -0.37794413210E+03  0.52394581302E+03  0.00000000000E+00 0. -1.
         -3    1    6    6    0  502 -0.10540636589E+03  0.10647257176E+03 -0.22489963467E+03  0.27023463172E+03  0.00000000000E+00 0.  1.
<mgrwt>
<rscale>  0 0.70456034E+03</rscale>
<asrwt>0</asrwt>
<pdfrwt beam="1">  1        1 0.31430534E+00 0.70456034E+03</pdfrwt>
<pdfrwt beam="2">  1       -2 0.42709232E-01 0.70456034E+03</pdfrwt>
<totfact> 0.13324131E+01</totfact>
</mgrwt>
</event>
<event>
12    3  0.2422421E-007  0.6578177E+03  0.7818608E-02  0.9792219E-01
          1   -1    0    0  501    0  0.00000000000E+00  0.00000000000E+00  0.18513070727E+04  0.18513070727E+04  0.00000000000E+00 0. -1.
         -2   -1    0    0    0  501 -0.00000000000E+00 -0.00000000000E+00 -0.45525697617E+03  0.45525697617E+03  0.00000000000E+00 0.  1.
        -24    2    1    2    0    0 -0.47407342735E+03  0.22997282885E+03  0.14106335463E+04  0.15078944350E+04  0.78901893512E+02 0.  0.
    5000000    2    1    2    0    0  0.47407342735E+03 -0.22997282885E+03 -0.14583449751E+02  0.79866961384E+03  0.60002279835E+03 0.  0.
        -24    2    4    4    0    0  0.10412326959E+03  0.18687357695E+03  0.39914690556E+02  0.23200003863E+03  0.80420435030E+02 0.  0.
         24    2    4    4    0    0  0.36995015776E+03 -0.41684640580E+03 -0.54498140307E+02  0.56666957521E+03  0.86719749336E+02 0.  0.
         11    1    3    3    0    0 -0.20576976534E+03  0.57275283281E+02  0.55049619851E+03  0.59048092178E+03  0.00000000000E+00 0. -1.
        -12    1    3    3    0    0 -0.26830366200E+03  0.17269754557E+03  0.86013734775E+03  0.91741351324E+03  0.00000000000E+00 0.  1.
         13    1    5    5    0    0  0.10871524624E+03  0.16928088100E+03  0.54786589278E+02  0.20851041173E+03  0.00000000000E+00 0. -1.
        -14    1    5    5    0    0 -0.45919766428E+01  0.17592695949E+02 -0.14871898722E+02  0.23489626899E+02  0.00000000000E+00 0.  1.
          4    1    6    6  502    0  0.29735914123E+03 -0.27874057427E+03 -0.49461163369E+02  0.41056689260E+03  0.00000000000E+00 0. -1.
         -3    1    6    6    0  502  0.72591016525E+02 -0.13810583153E+03 -0.50369769376E+01  0.15610268261E+03  0.00000000000E+00 0.  1.
<mgrwt>
<rscale>  0 0.65781767E+03</rscale>
<asrwt>0</asrwt>
<pdfrwt beam="1">  1        1 0.28481647E+00 0.65781767E+03</pdfrwt>
<pdfrwt beam="2">  1       -2 0.70039536E-01 0.65781767E+03</pdfrwt>
<totfact> 0.64681917E+00</totfact>
</mgrwt>
</event>
<event>
12    3  0.2422421E-007  0.1048826E+04  0.7818608E-02  0.9256557E-01
          1   -1    0    0  501    0  0.00000000000E+00  0.00000000000E+00  0.17973672690E+04  0.17973672690E+04  0.00000000000E+00 0. -1.
         -2   -1    0    0    0  501 -0.00000000000E+00 -0.00000000000E+00 -0.70061738226E+03  0.70061738226E+03  0.00000000000E+00 0.  1.
        -24    2    1    2    0    0  0.17667862090E+03  0.10243915365E+04  0.55285162371E+03  0.11803424186E+04  0.83486239433E+02 0.  0.
    5000000    2    1    2    0    0 -0.17667862090E+03 -0.10243915365E+04  0.54389826301E+03  0.13176422326E+04  0.59980194867E+03 0.  0.
        -24    2    4    4    0    0 -0.94437772503E+02 -0.81540534440E+03  0.12305655048E+03  0.83387557854E+03  0.80007482840E+02 0.  0.
         24    2    4    4    0    0 -0.82240848396E+02 -0.20898619209E+03  0.42084171253E+03  0.48376665411E+03  0.80521071727E+02 0.  0.
         13    1    5    5    0    0 -0.66977245796E+02 -0.26124785956E+03  0.31403037876E+02  0.27151896134E+03  0.00000000000E+00 0. -1.
        -14    1    5    5    0    0 -0.27460526706E+02 -0.55415748484E+03  0.91653512603E+02  0.56235661720E+03  0.00000000000E+00 0.  1.
         13    1    3    3    0    0  0.11213591772E+03  0.47082689288E+03  0.22491338185E+03  0.53370259174E+03  0.00000000000E+00 0. -1.
        -14    1    3    3    0    0  0.64542703180E+02  0.55356464361E+03  0.32793824186E+03  0.64663982685E+03  0.00000000000E+00 0.  1.
          2    1    6    6  502    0 -0.59195856908E+01 -0.91594035188E+02  0.11302312724E+03  0.14559785736E+03  0.00000000000E+00 0. -1.
         -1    1    6    6    0  502 -0.76321262705E+02 -0.11739215690E+03  0.30781858529E+03  0.33816879675E+03  0.00000000000E+00 0.  1.
<mgrwt>
<rscale>  0 0.10488256E+04</rscale>
<asrwt>0</asrwt>
<pdfrwt beam="1">  1        1 0.27651804E+00 0.10488256E+04</pdfrwt>
<pdfrwt beam="2">  1       -2 0.10778729E+00 0.10488256E+04</pdfrwt>
<totfact> 0.24702762E+00</totfact>
</mgrwt>
</event>
<event>
12    3  0.2422421E-007  0.8927776E+03  0.7818608E-02  0.9434655E-01
         -2   -1    0    0    0  501 -0.00000000000E+00  0.00000000000E+00  0.97043240655E+03  0.97043240655E+03  0.00000000000E+00 0.  1.
          1   -1    0    0  501    0  0.00000000000E+00 -0.00000000000E+00 -0.85744805476E+03  0.85744805476E+03  0.00000000000E+00 0. -1.
        -24    2    1    2    0    0  0.53681877737E+03  0.59384437183E+03 -0.83415713771E+02  0.80837498124E+03  0.75408164692E+02 0.  0.
    5000000    2    1    2    0    0 -0.53681877737E+03 -0.59384437183E+03  0.19640006557E+03  0.10195054801E+04  0.59999408367E+03 0.  0.
        -24    2    4    4    0    0 -0.59761802233E+03 -0.27795369150E+03  0.89276830398E+02  0.66970342917E+03  0.78273720821E+02 0.  0.
         24    2    4    4    0    0  0.60799244954E+02 -0.31589068033E+03  0.10712323517E+03  0.34980205090E+03  0.86038463455E+02 0.  0.
         11    1    5    5    0    0 -0.11848389729E+03 -0.66537486463E+02 -0.11560936220E+02  0.13637934693E+03  0.00000000000E+00 0. -1.
        -12    1    5    5    0    0 -0.47913412504E+03 -0.21141620504E+03  0.10083776662E+03  0.53332408224E+03  0.00000000000E+00 0.  1.
         13    1    3    3    0    0  0.34320618212E+03  0.42566655614E+03 -0.73676035750E+02  0.55173422833E+03  0.00000000000E+00 0. -1.
        -14    1    3    3    0    0  0.19361259525E+03  0.16817781569E+03 -0.97396780210E+01  0.25664075292E+03  0.00000000000E+00 0.  1.
          4    1    6    6  502    0  0.96998327581E+01 -0.11563821461E+03 -0.20642010642E+01  0.11606267427E+03  0.00000000000E+00 0. -1.
         -3    1    6    6    0  502  0.51099412196E+02 -0.20025246572E+03  0.10918743623E+03  0.23373937662E+03  0.00000000000E+00 0.  1.
<mgrwt>
<rscale>  0 0.89277764E+03</rscale>
<asrwt>0</asrwt>
<pdfrwt beam="1">  1        1 0.13191509E+00 0.89277764E+03</pdfrwt>
<pdfrwt beam="2">  1       -2 0.14929729E+00 0.89277764E+03</pdfrwt>
<totfact> 0.52844688E+00</totfact>
</mgrwt>
</event>
<event>
12    3  0.2422421E-007  0.2391606E+03  0.7818608E-02  0.1120353E+00
         -2   -1    0    0    0  501 -0.00000000000E+00  0.00000000000E+00  0.91944189277E+03  0.91944189277E+03  0.00000000000E+00 0.  1.
          1   -1    0    0  501    0  0.00000000000E+00 -0.00000000000E+00 -0.17533810249E+03  0.17533810249E+03  0.00000000000E+00 0. -1.
        -24    2    1    2    0    0  0.11884473394E+03 -0.10758087104E+03  0.21301194601E+03  0.27785702585E+03  0.78311704566E+02 0.  0.
    5000000    2    1    2    0    0 -0.11884473394E+03  0.10758087104E+03  0.53109184427E+03  0.81692296941E+03  0.59967230742E+03 0.  0.
        -24    2    4    4    0    0  0.99622919183E+01 -0.51161681311E+02 -0.10787203320E+03  0.14363570934E+03  0.79234314255E+02 0.  0.
         24    2    4    4    0    0 -0.12880702586E+03  0.15874255235E+03  0.63896387747E+03  0.67328726007E+03  0.57012718017E+02 0.  0.
         11    1    3    3    0    0  0.10574036727E+03 -0.45785944589E+02  0.13925997548E+03  0.18075043226E+03  0.00000000000E+00 0. -1.
        -12    1    3    3    0    0  0.13104366669E+02 -0.61794926454E+02  0.73751970537E+02  0.97106593593E+02  0.00000000000E+00 0.  1.
         13    1    5    5    0    0 -0.11024276979E+02  0.14826268884E+02 -0.41703766671E+01  0.18940564233E+02  0.00000000000E+00 0. -1.
        -14    1    5    5    0    0  0.20986568897E+02 -0.65987950195E+02 -0.10370165653E+03  0.12469514510E+03  0.00000000000E+00 0.  1.
          2    1    6    6  502    0  0.10879016845E+01  0.27596751170E+02  0.86653107243E+02  0.90947925760E+02  0.00000000000E+00 0. -1.
         -1    1    6    6    0  502 -0.12989492754E+03  0.13114580118E+03  0.55231077023E+03  0.58233933431E+03  0.00000000000E+00 0.  1.
<mgrwt>
<rscale>  0 0.23916058E+03</rscale>
<asrwt>0</asrwt>
<pdfrwt beam="1">  1        1 0.26975093E-01 0.23916058E+03</pdfrwt>
<pdfrwt beam="2">  1       -2 0.14145260E+00 0.23916058E+03</pdfrwt>
<totfact> 0.56811569E+01</totfact>
</mgrwt>
</event>
<event>
12    3  0.2422421E-007  0.8684733E+03  0.7818608E-02  0.9465873E-01
         -4   -1    0    0    0  501 -0.00000000000E+00  0.00000000000E+00  0.73620316136E+03  0.73620316136E+03  0.00000000000E+00 0.  1.
          1   -1    0    0  501    0  0.00000000000E+00 -0.00000000000E+00 -0.10506360977E+04  0.10506360977E+04  0.00000000000E+00 0. -1.
        -24    2    1    2    0    0  0.27755891629E+03  0.71542724914E+03 -0.24737454228E+03  0.81051635325E+03  0.82870343924E+02 0.  0.
    5000000    2    1    2    0    0 -0.27755891629E+03 -0.71542724914E+03 -0.67058394081E+02  0.97632290584E+03  0.59986205700E+03 0.  0.
        -24    2    4    4    0    0 -0.80616700282E+01 -0.68668673354E+03 -0.50318775778E+02  0.69359498483E+03  0.83296838138E+02 0.  0.
         24    2    4    4    0    0 -0.26949724626E+03 -0.28740515594E+02 -0.16739618303E+02  0.28272792100E+03  0.78740583665E+02 0.  0.
         11    1    5    5    0    0 -0.78447113959E+01 -0.90508207150E+02  0.20774316352E+02  0.93192528018E+02  0.00000000000E+00 0. -1.
        -12    1    5    5    0    0 -0.21695863227E+00 -0.59617852639E+03 -0.71093092130E+02  0.60040245681E+03  0.00000000000E+00 0.  1.
         13    1    3    3    0    0  0.19692356849E+03  0.40289808598E+03 -0.15998366416E+03  0.47613079328E+03  0.00000000000E+00 0. -1.
        -14    1    3    3    0    0  0.80635347799E+02  0.31252916316E+03 -0.87390878123E+02  0.33438555997E+03  0.00000000000E+00 0.  1.
          2    1    6    6  502    0 -0.41119666041E+02 -0.29023418653E+02  0.14121839597E+02  0.52274392576E+02  0.00000000000E+00 0. -1.
         -1    1    6    6    0  502 -0.22837758022E+03  0.28290305873E+00 -0.30861457901E+02  0.23045352843E+03  0.00000000000E+00 0.  1.
<mgrwt>
<rscale>  0 0.86847335E+03</rscale>
<asrwt>0</asrwt>
<pdfrwt beam="1">  1        1 0.16163632E+00 0.86847335E+03</pdfrwt>
<pdfrwt beam="2">  1       -4 0.11326202E+00 0.86847335E+03</pdfrwt>
<totfact> 0.40642404E+00</totfact>
</mgrwt>
</event>
<event>
12    3  0.2422421E-007  0.8438222E+03  0.7818608E-02  0.9498666E-01
          1   -1    0    0  501    0  0.00000000000E+00  0.00000000000E+00  0.81310621504E+03  0.81310621504E+03  0.00000000000E+00 0. -1.
         -2   -1    0    0    0  501 -0.00000000000E+00 -0.00000000000E+00 -0.14143719665E+04  0.14143719665E+04  0.00000000000E+00 0.  1.
        -24    2    1    2    0    0  0.39413748269E+03  0.72955666347E+03  0.27747739963E+03  0.87850918810E+03  0.84778569197E+02 0.  0.
    5000000    2    1    2    0    0 -0.39413748269E+03 -0.72955666347E+03 -0.87874315105E+03  0.13489689934E+04  0.59994211317E+03 0.  0.
        -24    2    4    4    0    0 -0.91715879970E+02 -0.31313070734E+03 -0.10400891149E+02  0.33614933708E+03  0.80159564389E+02 0.  0.
         24    2    4    4    0    0 -0.30242160272E+03 -0.41642595613E+03 -0.86834225990E+03  0.10128196563E+04  0.83162330219E+02 0.  0.
         11    1    5    5    0    0  0.11033948793E+01 -0.13071623493E+03 -0.13818349143E+02  0.13144922338E+03  0.00000000000E+00 0. -1.
        -12    1    5    5    0    0 -0.92819274849E+02 -0.18241447242E+03  0.34174579947E+01  0.20470011370E+03  0.00000000000E+00 0.  1.
         13    1    3    3    0    0  0.30961112812E+03  0.50724341433E+03  0.22120376213E+03  0.63410254409E+03  0.00000000000E+00 0. -1.
        -14    1    3    3    0    0  0.84526354576E+02  0.22231324914E+03  0.56273637496E+02  0.24440664402E+03  0.00000000000E+00 0.  1.
          2    1    6    6  502    0 -0.37920621757E+02 -0.10451926961E+03 -0.21477938954E+03  0.24185209828E+03  0.00000000000E+00 0. -1.
         -1    1    6    6    0  502 -0.26450098096E+03 -0.31190668652E+03 -0.65356287037E+03  0.77096755804E+03  0.00000000000E+00 0.  1.
<mgrwt>
<rscale>  0 0.84382223E+03</rscale>
<asrwt>0</asrwt>
<pdfrwt beam="1">  1        1 0.12509326E+00 0.84382223E+03</pdfrwt>
<pdfrwt beam="2">  1       -2 0.21759569E+00 0.84382223E+03</pdfrwt>
<totfact> 0.19668774E+00</totfact>
</mgrwt>
</event>
<event>
12    3  0.2422421E-007  0.9934532E+03  0.7818608E-02  0.9315755E-01
         -2   -1    0    0    0  501 -0.00000000000E+00  0.00000000000E+00  0.10309051829E+04  0.10309051829E+04  0.00000000000E+00 0.  1.
          1   -1    0    0  501    0  0.00000000000E+00 -0.00000000000E+00 -0.99540589414E+03  0.99540589414E+03  0.00000000000E+00 0. -1.
        -24    2    1    2    0    0  0.19413081036E+03  0.90057785086E+03 -0.26209997863E+02  0.92509557253E+03  0.79922570874E+02 0.  0.
    5000000    2    1    2    0    0 -0.19413081036E+03 -0.90057785086E+03  0.61709286600E+02  0.11012155045E+04  0.60011691715E+03 0.  0.
        -24    2    4    4    0    0 -0.72256892684E+02  0.47801212671E+02  0.79890991164E+02  0.14214921934E+03  0.79484687940E+02 0.  0.
         24    2    4    4    0    0 -0.12187391767E+03 -0.94837906354E+03 -0.18181704564E+02  0.95906628514E+03  0.72121182345E+02 0.  0.
         11    1    3    3    0    0  0.61142828320E+02  0.18645650990E+03  0.19917007576E+02  0.19723377685E+03  0.00000000000E+00 0. -1.
        -12    1    3    3    0    0  0.13298798204E+03  0.71412134097E+03 -0.46127005439E+02  0.72786179569E+03  0.00000000000E+00 0.  1.
         13    1    5    5    0    0 -0.64317503097E+02  0.49840837874E+01  0.18926914349E+02  0.67229535047E+02  0.00000000000E+00 0. -1.
        -14    1    5    5    0    0 -0.79393895871E+01  0.42817128883E+02  0.60964076815E+02  0.74919684294E+02  0.00000000000E+00 0.  1.
          2    1    6    6  502    0 -0.69130194767E+02 -0.50086510938E+03 -0.45306885173E+02  0.50763919812E+03  0.00000000000E+00 0. -1.
         -1    1    6    6    0  502 -0.52743722907E+02 -0.44751395415E+03  0.27125180609E+02  0.45142708701E+03  0.00000000000E+00 0.  1.
<mgrwt>
<rscale>  0 0.99345317E+03</rscale>
<asrwt>0</asrwt>
<pdfrwt beam="1">  1        1 0.15313937E+00 0.99345317E+03</pdfrwt>
<pdfrwt beam="2">  1       -2 0.15860080E+00 0.99345317E+03</pdfrwt>
<totfact> 0.34385715E+00</totfact>
</mgrwt>
</event>
<event>
12    3  0.2422421E-007  0.6994159E+03  0.7818608E-02  0.9718232E-01
          1   -1    0    0  501    0  0.00000000000E+00  0.00000000000E+00  0.73480572245E+03  0.73480572245E+03  0.00000000000E+00 0. -1.
         -2   -1    0    0    0  501 -0.00000000000E+00 -0.00000000000E+00 -0.83235675241E+03  0.83235675241E+03  0.00000000000E+00 0.  1.
        -24    2    1    2    0    0 -0.31412741400E+03  0.58510461985E+03 -0.19337940953E+02  0.66902228864E+03  0.78698274020E+02 0.  0.
    5000000    2    1    2    0    0  0.31412741400E+03 -0.58510461985E+03 -0.78213089014E+02  0.89814018622E+03  0.59959574583E+03 0.  0.
        -24    2    4    4    0    0 -0.32196280245E+02 -0.20251250012E+03  0.20846835882E+03  0.30261827485E+03  0.77915662593E+02 0.  0.
         24    2    4    4    0    0  0.34632369424E+03 -0.38259211974E+03 -0.28668144784E+03  0.59552191137E+03  0.78378971107E+02 0.  0.
         11    1    3    3    0    0 -0.17289769481E+02  0.82848360732E+02  0.76820501956E+01  0.84981179680E+02  0.00000000000E+00 0. -1.
        -12    1    3    3    0    0 -0.29683764452E+03  0.50225625912E+03 -0.27019991149E+02  0.58404110896E+03  0.00000000000E+00 0.  1.
         13    1    5    5    0    0  0.16628699919E+02 -0.91328123672E+02  0.58804980312E+02  0.10988796815E+03  0.00000000000E+00 0. -1.
        -14    1    5    5    0    0 -0.48824980164E+02 -0.11118437644E+03  0.14966337851E+03  0.19273030670E+03  0.00000000000E+00 0.  1.
          4    1    6    6  502    0  0.27045394368E+03 -0.31180641188E+03 -0.19269792672E+03  0.45552284806E+03  0.00000000000E+00 0. -1.
         -3    1    6    6    0  502  0.75869750566E+02 -0.70785707859E+02 -0.93983521116E+02  0.13999906332E+03  0.00000000000E+00 0.  1.
<mgrwt>
<rscale>  0 0.69941587E+03</rscale>
<asrwt>0</asrwt>
<pdfrwt beam="1">  1        1 0.11304703E+00 0.69941587E+03</pdfrwt>
<pdfrwt beam="2">  1       -2 0.12805488E+00 0.69941587E+03</pdfrwt>
<totfact> 0.10263357E+01</totfact>
</mgrwt>
</event>
<event>
12    3  0.2422421E-007  0.1006226E+04  0.7818608E-02  0.9301743E-01
          3   -1    0    0  501    0  0.00000000000E+00  0.00000000000E+00  0.68302080340E+03  0.68302080340E+03  0.00000000000E+00 0. -1.
         -4   -1    0    0    0  501 -0.00000000000E+00 -0.00000000000E+00 -0.16872613692E+04  0.16872613692E+04  0.00000000000E+00 0.  1.
        -24    2    1    2    0    0  0.72598297247E+03  0.62847520381E+03 -0.72045915794E+03  0.12031412345E+04  0.80343473741E+02 0.  0.
    5000000    2    1    2    0    0 -0.72598297247E+03 -0.62847520381E+03 -0.28378140791E+03  0.11671409381E+04  0.59971136715E+03 0.  0.
        -24    2    4    4    0    0 -0.76357000693E+03 -0.60144705974E+03 -0.12202238164E+03  0.98421055448E+03  0.94885366537E+02 0.  0.
         24    2    4    4    0    0  0.37587034468E+02 -0.27028144074E+02 -0.16175902627E+03  0.18293038366E+03  0.71793014655E+02 0.  0.
         11    1    3    3    0    0  0.17783122824E+03  0.18605401528E+03 -0.16094935186E+03  0.30355351456E+03  0.00000000000E+00 0. -1.
        -12    1    3    3    0    0  0.54815174422E+03  0.44242118853E+03 -0.55950980608E+03  0.89958771993E+03  0.00000000000E+00 0.  1.
         13    1    5    5    0    0 -0.52706245937E+03 -0.38536880779E+03 -0.11997961651E+03  0.66385168710E+03  0.00000000000E+00 0. -1.
        -14    1    5    5    0    0 -0.23650754756E+03 -0.21607825195E+03 -0.20427651302E+01  0.32035886738E+03  0.00000000000E+00 0.  1.
          2    1    6    6  502    0 -0.14590271321E+02  0.58464215410E+01 -0.74117409136E+02  0.75765737633E+02  0.00000000000E+00 0. -1.
         -1    1    6    6    0  502  0.52177305789E+02 -0.32874565615E+02 -0.87641617132E+02  0.10716464602E+03  0.00000000000E+00 0.  1.
<mgrwt>
<rscale>  0 0.10062255E+04</rscale>
<asrwt>0</asrwt>
<pdfrwt beam="1">  1        3 0.10508012E+00 0.10062255E+04</pdfrwt>
<pdfrwt beam="2">  1       -4 0.25957867E+00 0.10062255E+04</pdfrwt>
<totfact> 0.95542126E-02</totfact>
</mgrwt>
</event>
<event>
12    3  0.2422421E-007  0.5638333E+03  0.7818608E-02  0.9983418E-01
          1   -1    0    0  501    0  0.00000000000E+00  0.00000000000E+00  0.13584863130E+04  0.13584863130E+04  0.00000000000E+00 0. -1.
         -2   -1    0    0    0  501 -0.00000000000E+00 -0.00000000000E+00 -0.39110511709E+03  0.39110511709E+03  0.00000000000E+00 0.  1.
        -24    2    1    2    0    0 -0.19980636020E+03 -0.37952595417E+03 -0.10458233979E+03  0.44857720046E+03  0.79507908490E+02 0.  0.
    5000000    2    1    2    0    0  0.19980636020E+03  0.37952595417E+03  0.10719635357E+04  0.13010142297E+04  0.59964128643E+03 0.  0.
        -24    2    4    4    0    0  0.35816306783E+03  0.12034009342E+03  0.38326988594E+03  0.54397663658E+03  0.79071198488E+02 0.  0.
         24    2    4    4    0    0 -0.15835670763E+03  0.25918586075E+03  0.68869364979E+03  0.75703759309E+03  0.80949470812E+02 0.  0.
         11    1    3    3    0    0 -0.16003752757E+03 -0.25509629389E+03 -0.10191531184E+03  0.31791958130E+03  0.00000000000E+00 0. -1.
        -12    1    3    3    0    0 -0.39768832623E+02 -0.12442966029E+03 -0.26670279515E+01  0.13065761916E+03  0.00000000000E+00 0.  1.
         13    1    5    5    0    0  0.18432339792E+03  0.21876031457E+02  0.19999637620E+03  0.27285935254E+03  0.00000000000E+00 0. -1.
        -14    1    5    5    0    0  0.17383966991E+03  0.98464061966E+02  0.18327350974E+03  0.27111728404E+03  0.00000000000E+00 0.  1.
          2    1    6    6  502    0 -0.11870918997E+03  0.13324230514E+03  0.45295770730E+03  0.48684296058E+03  0.00000000000E+00 0. -1.
         -1    1    6    6    0  502 -0.39647517668E+02  0.12594355561E+03  0.23573594249E+03  0.27019463251E+03  0.00000000000E+00 0.  1.
<mgrwt>
<rscale>  0 0.56383334E+03</rscale>
<asrwt>0</asrwt>
<pdfrwt beam="1">  1        1 0.20899789E+00 0.56383334E+03</pdfrwt>
<pdfrwt beam="2">  1       -2 0.60170019E-01 0.56383334E+03</pdfrwt>
<totfact> 0.19584615E+01</totfact>
</mgrwt>
</event>
<event>
12    3  0.2422421E-007  0.6712202E+03  0.7818608E-02  0.9767756E-01
         -2   -1    0    0    0  501 -0.00000000000E+00  0.00000000000E+00  0.66232263409E+03  0.66232263409E+03  0.00000000000E+00 0.  1.
          1   -1    0    0  501    0  0.00000000000E+00 -0.00000000000E+00 -0.77152358710E+03  0.77152358710E+03  0.00000000000E+00 0. -1.
        -24    2    1    2    0    0 -0.57926217597E+03  0.41538787570E+02  0.31523093963E+02  0.58703734935E+03  0.79680641907E+02 0.  0.
    5000000    2    1    2    0    0  0.57926217597E+03 -0.41538787570E+02 -0.14072404698E+03  0.84680887184E+03  0.60000989045E+03 0.  0.
        -24    2    4    4    0    0  0.11303100652E+03  0.19260567621E+03 -0.20744984477E+03  0.31499502486E+03  0.79457363709E+02 0.  0.
         24    2    4    4    0    0  0.46623116946E+03 -0.23414446378E+03  0.66725797790E+02  0.53181384698E+03  0.78603450652E+02 0.  0.
         11    1    3    3    0    0 -0.22539982677E+03  0.50158905205E+02 -0.67122268033E+01  0.23101093408E+03  0.00000000000E+00 0. -1.
        -12    1    3    3    0    0 -0.35386234921E+03 -0.86201176350E+01  0.38235320766E+02  0.35602641527E+03  0.00000000000E+00 0.  1.
         13    1    5    5    0    0  0.72953648827E+02  0.17206463860E+03 -0.13840200002E+03  0.23255878471E+03  0.00000000000E+00 0. -1.
        -14    1    5    5    0    0  0.40077357689E+02  0.20541037606E+02 -0.69047844753E+02  0.82436240151E+02  0.00000000000E+00 0.  1.
          4    1    6    6  502    0  0.19421796905E+03 -0.62651668693E+02  0.48386963738E+02  0.20973113587E+03  0.00000000000E+00 0. -1.
         -3    1    6    6    0  502  0.27201320041E+03 -0.17149279509E+03  0.18338834052E+02  0.32208271111E+03  0.00000000000E+00 0.  1.
<mgrwt>
<rscale>  0 0.67122022E+03</rscale>
<asrwt>0</asrwt>
<pdfrwt beam="1">  1        1 0.11869594E+00 0.67122022E+03</pdfrwt>
<pdfrwt beam="2">  1       -2 0.10189579E+00 0.67122022E+03</pdfrwt>
<totfact> 0.16688135E+01</totfact>
</mgrwt>
</event>
<event>
12    3  0.2422421E-007  0.8460582E+03  0.7818608E-02  0.9495643E-01
          1   -1    0    0  501    0  0.00000000000E+00  0.00000000000E+00  0.20579712177E+04  0.20579712177E+04  0.00000000000E+00 0. -1.
         -2   -1    0    0    0  501 -0.00000000000E+00 -0.00000000000E+00 -0.45844414685E+03  0.45844414685E+03  0.00000000000E+00 0.  1.
        -24    2    1    2    0    0 -0.72421247399E+03 -0.35978116917E+03  0.28598551269E+03  0.86134884238E+03  0.78790339713E+02 0.  0.
    5000000    2    1    2    0    0  0.72421247399E+03  0.35978116917E+03  0.13135415581E+04  0.16550665221E+04  0.59993963915E+03 0.  0.
        -24    2    4    4    0    0  0.34819376362E+02 -0.35363885682E+02  0.51843114694E+03  0.52708340448E+03  0.81136106516E+02 0.  0.
         24    2    4    4    0    0  0.68939309762E+03  0.39514505485E+03  0.79511041119E+03  0.11279831177E+04  0.93503424177E+02 0.  0.
         11    1    5    5    0    0  0.54267432286E+02 -0.20220048272E+02  0.21532931640E+03  0.22298098363E+03  0.00000000000E+00 0. -1.
        -12    1    5    5    0    0 -0.19448055925E+02 -0.15143837410E+02  0.30310183054E+03  0.30410242085E+03  0.00000000000E+00 0.  1.
         11    1    3    3    0    0 -0.34030035625E+03 -0.13013404517E+03  0.10941661808E+03  0.38040925132E+03  0.00000000000E+00 0. -1.
        -12    1    3    3    0    0 -0.38391211773E+03 -0.22964712399E+03  0.17656889461E+03  0.48093959106E+03  0.00000000000E+00 0.  1.
          2    1    6    6  502    0  0.63882702681E+03  0.34241302739E+03  0.69612670953E+03  0.10049572365E+04  0.00000000000E+00 0. -1.
         -1    1    6    6    0  502  0.50566070814E+02  0.52732027463E+02  0.98983701668E+02  0.12302588115E+03  0.00000000000E+00 0.  1.
<mgrwt>
<rscale>  0 0.84605820E+03</rscale>
<asrwt>0</asrwt>
<pdfrwt beam="1">  1        1 0.31661095E+00 0.84605820E+03</pdfrwt>
<pdfrwt beam="2">  1       -2 0.70529870E-01 0.84605820E+03</pdfrwt>
<totfact> 0.44983023E+00</totfact>
</mgrwt>
</event>
<event>
12    3  0.2422421E-007  0.1966073E+03  0.7818608E-02  0.1152633E+00
         -2   -1    0    0    0  501 -0.00000000000E+00  0.00000000000E+00  0.70829233865E+02  0.70829233865E+02  0.00000000000E+00 0.  1.
          1   -1    0    0  501    0  0.00000000000E+00 -0.00000000000E+00 -0.21354276473E+04  0.21354276473E+04  0.00000000000E+00 0. -1.
        -24    2    1    2    0    0 -0.11598550956E+02  0.98793586023E+02 -0.14755450014E+03  0.19503646235E+03  0.79826011487E+02 0.  0.
    5000000    2    1    2    0    0  0.11598550956E+02 -0.98793586023E+02 -0.19170439133E+04  0.20112204188E+04  0.60004625533E+03 0.  0.
        -24    2    4    4    0    0  0.12404602686E+03 -0.28619724168E+02 -0.18282185920E+04  0.18345754791E+04  0.84127659144E+02 0.  0.
         24    2    4    4    0    0 -0.11244747590E+03 -0.70173861856E+02 -0.88825321273E+02  0.17664493968E+03  0.75793741772E+02 0.  0.
         11    1    5    5    0    0  0.83745995872E+02 -0.16568286139E+02 -0.16145794688E+04  0.16168347971E+04  0.00000000000E+00 0. -1.
        -12    1    5    5    0    0  0.40300030988E+02 -0.12051438028E+02 -0.21363912315E+03  0.21774068200E+03  0.00000000000E+00 0.  1.
         13    1    3    3    0    0 -0.27073543780E+02  0.95607546550E+02 -0.14908272303E+03  0.17916316037E+03  0.00000000000E+00 0. -1.
        -14    1    3    3    0    0  0.15474992823E+02  0.31860394734E+01  0.15282228849E+01  0.15873301975E+02  0.00000000000E+00 0.  1.
          4    1    6    6  502    0 -0.10549626118E+03 -0.29767253620E+02 -0.51145914900E+02  0.12096055193E+03  0.00000000000E+00 0. -1.
         -3    1    6    6    0  502 -0.69512147210E+01 -0.40406608235E+02 -0.37679406374E+02  0.55684387757E+02  0.00000000000E+00 0.  1.
<mgrwt>
<rscale>  0 0.19660734E+03</rscale>
<asrwt>0</asrwt>
<pdfrwt beam="1">  1        1 0.32852735E+00 0.19660734E+03</pdfrwt>
<pdfrwt beam="2">  1       -2 0.10896805E-01 0.19660734E+03</pdfrwt>
<totfact> 0.14337912E+02</totfact>
</mgrwt>
</event>
<event>
12    3  0.2422421E-007  0.7670264E+03  0.7818608E-02  0.9609011E-01
          1   -1    0    0  501    0  0.00000000000E+00  0.00000000000E+00  0.70134882502E+03  0.70134882502E+03  0.00000000000E+00 0. -1.
         -2   -1    0    0    0  501 -0.00000000000E+00 -0.00000000000E+00 -0.10985013750E+04  0.10985013750E+04  0.00000000000E+00 0.  1.
        -24    2    1    2    0    0  0.62053250495E+03 -0.37103714879E+03 -0.45598243593E+03  0.85841385105E+03  0.78899951310E+02 0.  0.
    5000000    2    1    2    0    0 -0.62053250495E+03  0.37103714879E+03  0.58829885921E+02  0.94143634900E+03  0.60009356626E+03 0.  0.
        -24    2    4    4    0    0  0.37397838036E+02  0.38254401814E+02 -0.14506761425E+03  0.17262241557E+03  0.76758635381E+02 0.  0.
         24    2    4    4    0    0 -0.65793034299E+03  0.33278274697E+03  0.20389750017E+03  0.76881393343E+03  0.76707110201E+02 0.  0.
         11    1    3    3    0    0  0.28686528794E+03 -0.21686134170E+03 -0.21783699235E+03  0.42044439607E+03  0.00000000000E+00 0. -1.
        -12    1    3    3    0    0  0.33366721701E+03 -0.15417580708E+03 -0.23814544358E+03  0.43796945498E+03  0.00000000000E+00 0.  1.
         11    1    5    5    0    0  0.21126698948E+02 -0.60237865174E+01 -0.20948142290E+01  0.22068340651E+02  0.00000000000E+00 0. -1.
        -12    1    5    5    0    0  0.16271139088E+02  0.44278188331E+02 -0.14297280002E+03  0.15055407492E+03  0.00000000000E+00 0.  1.
          2    1    6    6  502    0 -0.17960048550E+03  0.78369996805E+02  0.21384507833E+02  0.19711795445E+03  0.00000000000E+00 0. -1.
         -1    1    6    6    0  502 -0.47832985749E+03  0.25441275017E+03  0.18251299234E+03  0.57169597899E+03  0.00000000000E+00 0.  1.
<mgrwt>
<rscale>  0 0.76702638E+03</rscale>
<asrwt>0</asrwt>
<pdfrwt beam="1">  1        1 0.10789982E+00 0.76702638E+03</pdfrwt>
<pdfrwt beam="2">  1       -2 0.16900021E+00 0.76702638E+03</pdfrwt>
<totfact> 0.52654586E+00</totfact>
</mgrwt>
</event>
<event>
12    3  0.2422421E-007  0.4986896E+03  0.7818608E-02  0.1014122E+00
         -2   -1    0    0    0  501 -0.00000000000E+00  0.00000000000E+00  0.42192287871E+03  0.42192287871E+03  0.00000000000E+00 0.  1.
          1   -1    0    0  501    0  0.00000000000E+00 -0.00000000000E+00 -0.83388824652E+03  0.83388824652E+03  0.00000000000E+00 0. -1.
        -24    2    1    2    0    0  0.30504764213E+03  0.26610210389E+03 -0.32768028567E+03  0.52710333325E+03  0.81235218048E+02 0.  0.
    5000000    2    1    2    0    0 -0.30504764213E+03 -0.26610210389E+03 -0.84285082140E+02  0.72870779198E+03  0.60003889653E+03 0.  0.
        -24    2    4    4    0    0 -0.38856251450E+03 -0.27155590328E+03  0.11871010287E+03  0.49511163441E+03  0.79498463624E+02 0.  0.
         24    2    4    4    0    0  0.83514872376E+02  0.54537993951E+01 -0.20299518501E+03  0.23359615757E+03  0.79722279568E+02 0.  0.
         11    1    3    3    0    0  0.85841973571E+02  0.70292492615E+02 -0.13890862777E+03  0.17777931773E+03  0.00000000000E+00 0. -1.
        -12    1    3    3    0    0  0.21920566855E+03  0.19580961127E+03 -0.18877165789E+03  0.34932401552E+03  0.00000000000E+00 0.  1.
         13    1    5    5    0    0 -0.27080162427E+03 -0.15902854517E+03  0.10715468695E+03  0.33182182692E+03  0.00000000000E+00 0. -1.
        -14    1    5    5    0    0 -0.11776089023E+03 -0.11252735811E+03  0.11555415919E+02  0.16328980749E+03  0.00000000000E+00 0.  1.
          4    1    6    6  502    0  0.51574146661E+01 -0.29378850282E+02 -0.51265031491E+02  0.59311206561E+02  0.00000000000E+00 0. -1.
         -3    1    6    6    0  502  0.78357457709E+02  0.34832649677E+02 -0.15173015351E+03  0.17428495101E+03  0.00000000000E+00 0.  1.
<mgrwt>
<rscale>  0 0.49868963E+03</rscale>
<asrwt>0</asrwt>
<pdfrwt beam="1">  1        1 0.12829050E+00 0.49868963E+03</pdfrwt>
<pdfrwt beam="2">  1       -2 0.64911212E-01 0.49868963E+03</pdfrwt>
<totfact> 0.41539619E+01</totfact>
</mgrwt>
</event>
<event>
12    3  0.2422421E-007  0.3113811E+03  0.7818608E-02  0.1079686E+00
          1   -1    0    0  501    0  0.00000000000E+00  0.00000000000E+00  0.55806234720E+03  0.55806234720E+03  0.00000000000E+00 0. -1.
         -2   -1    0    0    0  501 -0.00000000000E+00 -0.00000000000E+00 -0.43639835303E+03  0.43639835303E+03  0.00000000000E+00 0.  1.
        -24    2    1    2    0    0 -0.23943898471E+03 -0.16511625222E+03  0.12896343289E+03  0.32772180174E+03  0.78585037813E+02 0.  0.
    5000000    2    1    2    0    0  0.23943898471E+03  0.16511625222E+03 -0.72994387203E+01  0.66673889849E+03  0.59991088739E+03 0.  0.
        -24    2    4    4    0    0  0.22097551623E+03  0.11561462240E+03  0.26840258320E+03  0.37550504826E+03  0.82262840400E+02 0.  0.
         24    2    4    4    0    0  0.18463468474E+02  0.49501629824E+02 -0.27570202192E+03  0.29123385023E+03  0.77551528688E+02 0.  0.
         11    1    5    5    0    0  0.10153612659E+03  0.92360176605E+02  0.17327099031E+03  0.22104936848E+03  0.00000000000E+00 0. -1.
        -12    1    5    5    0    0  0.11943938964E+03  0.23254445792E+02  0.95131592897E+02  0.15445567977E+03  0.00000000000E+00 0.  1.
         13    1    3    3    0    0 -0.13825926217E+03 -0.12181423635E+03  0.46065830907E+02  0.18993786492E+03  0.00000000000E+00 0. -1.
        -14    1    3    3    0    0 -0.10117972254E+03 -0.43302015871E+02  0.82897601982E+02  0.13778393682E+03  0.00000000000E+00 0.  1.
          2    1    6    6  502    0 -0.14872068330E+02  0.10576994528E+02 -0.19354347325E+03  0.19440197341E+03  0.00000000000E+00 0. -1.
         -1    1    6    6    0  502  0.33335536804E+02  0.38924635296E+02 -0.82158548675E+02  0.96831876814E+02  0.00000000000E+00 0.  1.
<mgrwt>
<rscale>  0 0.31138114E+03</rscale>
<asrwt>0</asrwt>
<pdfrwt beam="1">  1        1 0.85855746E-01 0.31138114E+03</pdfrwt>
<pdfrwt beam="2">  1       -2 0.67138208E-01 0.31138114E+03</pdfrwt>
<totfact> 0.71763917E+01</totfact>
</mgrwt>
</event>
<event>
12    3  0.2422421E-007  0.4372124E+03  0.7818608E-02  0.1031606E+00
          1   -1    0    0  501    0  0.00000000000E+00  0.00000000000E+00  0.14017993528E+04  0.14017993528E+04  0.00000000000E+00 0. -1.
         -2   -1    0    0    0  501 -0.00000000000E+00 -0.00000000000E+00 -0.22362227726E+03  0.22362227726E+03  0.00000000000E+00 0.  1.
        -24    2    1    2    0    0  0.62917464179E+02 -0.24239649381E+03 -0.18541775650E+02  0.26346989960E+03  0.79736585334E+02 0.  0.
    5000000    2    1    2    0    0 -0.62917464179E+02  0.24239649381E+03  0.11967188512E+04  0.13619517305E+04  0.60005153097E+03 0.  0.
        -24    2    4    4    0    0  0.38186973987E+02  0.40344182210E+03  0.97147549453E+03  0.10556301878E+04  0.79792907927E+02 0.  0.
         24    2    4    4    0    0 -0.10110443817E+03 -0.16104532829E+03  0.22524335670E+03  0.30632154269E+03  0.83310339045E+02 0.  0.
         11    1    3    3    0    0  0.24600141048E+00 -0.96819541629E+02  0.23221904615E+02  0.99565762247E+02  0.00000000000E+00 0. -1.
        -12    1    3    3    0    0  0.62671462769E+02 -0.14557695218E+03 -0.41763680266E+02  0.16390413735E+03  0.00000000000E+00 0.  1.
         13    1    5    5    0    0 -0.12438448423E+02  0.26520053452E+03  0.60499804144E+03  0.66068802672E+03  0.00000000000E+00 0. -1.
        -14    1    5    5    0    0  0.50625422409E+02  0.13824128758E+03  0.36647745309E+03  0.39494216110E+03  0.00000000000E+00 0.  1.
          2    1    6    6  502    0 -0.89084684249E+02 -0.66690613056E+02  0.13774770889E+03  0.17708232589E+03  0.00000000000E+00 0. -1.
         -1    1    6    6    0  502 -0.12019753917E+02 -0.94354715238E+02  0.87495647811E+02  0.12923921679E+03  0.00000000000E+00 0.  1.
<mgrwt>
<rscale>  0 0.43721243E+03</rscale>
<asrwt>0</asrwt>
<pdfrwt beam="1">  1        1 0.21566143E+00 0.43721243E+03</pdfrwt>
<pdfrwt beam="2">  1       -2 0.34403428E-01 0.43721243E+03</pdfrwt>
<totfact> 0.56724436E+01</totfact>
</mgrwt>
</event>
<event>
12    3  0.2422421E-007  0.8475099E+03  0.7818608E-02  0.9493685E-01
         -2   -1    0    0    0  501 -0.00000000000E+00  0.00000000000E+00  0.40798361904E+03  0.40798361904E+03  0.00000000000E+00 0.  1.
          1   -1    0    0  501    0  0.00000000000E+00 -0.00000000000E+00 -0.23716448369E+04  0.23716448369E+04  0.00000000000E+00 0. -1.
        -24    2    1    2    0    0 -0.14075778767E+03 -0.82813530486E+03 -0.47645530492E+03  0.96907340285E+03  0.80453493210E+02 0.  0.
    5000000    2    1    2    0    0  0.14075778767E+03  0.82813530486E+03 -0.14872059129E+04  0.18105550531E+04  0.60058915642E+03 0.  0.
        -24    2    4    4    0    0  0.89526204645E+02  0.69080579031E+03 -0.64479894713E+03  0.95172794487E+03  0.69230178205E+02 0.  0.
         24    2    4    4    0    0  0.51231583030E+02  0.13732951455E+03 -0.84240696578E+03  0.85882710820E+03  0.80314600824E+02 0.  0.
         13    1    5    5    0    0  0.96194777452E+02  0.67436082036E+03 -0.61904652921E+03  0.92045345161E+03  0.00000000000E+00 0. -1.
        -14    1    5    5    0    0 -0.66685728071E+01  0.16444969950E+02 -0.25752417920E+02  0.31274493260E+02  0.00000000000E+00 0.  1.
         13    1    3    3    0    0 -0.11956187760E+03 -0.60899246725E+03 -0.31450319465E+03  0.69575795158E+03  0.00000000000E+00 0. -1.
        -14    1    3    3    0    0 -0.21195910071E+02 -0.21914283762E+03 -0.16195211026E+03  0.27331545127E+03  0.00000000000E+00 0.  1.
          4    1    6    6  502    0  0.25309188875E+02  0.12321492289E+03 -0.77637019201E+03  0.78649421315E+03  0.00000000000E+00 0. -1.
         -3    1    6    6    0  502  0.25922394155E+02  0.14114591662E+02 -0.66036773772E+02  0.72332895052E+02  0.00000000000E+00 0.  1.
<mgrwt>
<rscale>  0 0.84750990E+03</rscale>
<asrwt>0</asrwt>
<pdfrwt beam="1">  1        1 0.36486843E+00 0.84750990E+03</pdfrwt>
<pdfrwt beam="2">  1       -2 0.62766711E-01 0.84750990E+03</pdfrwt>
<totfact> 0.35565638E+00</totfact>
</mgrwt>
</event>
<event>
12    3  0.2422421E-007  0.2177853E+04  0.7818608E-02  0.8527703E-01
          1   -1    0    0  501    0  0.00000000000E+00  0.00000000000E+00  0.32931444253E+04  0.32931444253E+04  0.00000000000E+00 0. -1.
         -2   -1    0    0    0  501 -0.00000000000E+00 -0.00000000000E+00 -0.16339725886E+04  0.16339725886E+04  0.00000000000E+00 0.  1.
        -24    2    1    2    0    0 -0.57970115488E+03 -0.20590212670E+04  0.16543852656E+04  0.27054260583E+04  0.81960619861E+02 0.  0.
    5000000    2    1    2    0    0  0.57970115488E+03  0.20590212670E+04  0.47865710650E+01  0.22216909556E+04  0.60022144597E+03 0.  0.
        -24    2    4    4    0    0  0.64035614896E+03  0.12668912394E+04 -0.51359518242E+02  0.14222707980E+04  0.71742684943E+02 0.  0.
         24    2    4    4    0    0 -0.60654994081E+02  0.79213002759E+03  0.56146089307E+02  0.79942015760E+03  0.69073845413E+02 0.  0.
         11    1    3    3    0    0 -0.32731428053E+03 -0.10945556644E+04  0.83726411597E+03  0.14164031702E+04  0.00000000000E+00 0. -1.
        -12    1    3    3    0    0 -0.25238687435E+03 -0.96446560256E+03  0.81712114963E+03  0.12890228881E+04  0.00000000000E+00 0.  1.
         13    1    5    5    0    0  0.55090029974E+03  0.10359548151E+04 -0.30248773157E+02  0.11737156842E+04  0.00000000000E+00 0. -1.
        -14    1    5    5    0    0  0.89455849220E+02  0.23093642430E+03 -0.21110745085E+02  0.24855511378E+03  0.00000000000E+00 0.  1.
          2    1    6    6  502    0  0.47324234469E+01  0.10297614316E+03  0.26980175383E+02  0.10655708215E+03  0.00000000000E+00 0. -1.
         -1    1    6    6    0  502 -0.65387417528E+02  0.68915388443E+03  0.29165913924E+02  0.69286307545E+03  0.00000000000E+00 0.  1.
<mgrwt>
<rscale>  0 0.21778531E+04</rscale>
<asrwt>0</asrwt>
<pdfrwt beam="1">  1        1 0.50663760E+00 0.21778531E+04</pdfrwt>
<pdfrwt beam="2">  1       -2 0.25138040E+00 0.21778531E+04</pdfrwt>
<totfact> 0.17405114E-02</totfact>
</mgrwt>
</event>
<event>
12    3  0.2422421E-007  0.7235181E+03  0.7818608E-02  0.9677837E-01
          1   -1    0    0  501    0  0.00000000000E+00  0.00000000000E+00  0.17508241898E+04  0.17508241898E+04  0.00000000000E+00 0. -1.
         -2   -1    0    0    0  501 -0.00000000000E+00 -0.00000000000E+00 -0.40604371228E+03  0.40604371228E+03  0.00000000000E+00 0.  1.
        -24    2    1    2    0    0 -0.49373136395E+03 -0.49493648993E+03  0.30195248435E+03  0.76539607949E+03  0.76961463554E+02 0.  0.
    5000000    2    1    2    0    0  0.49373136395E+03  0.49493648993E+03  0.10428279932E+04  0.13914718226E+04  0.59997568359E+03 0.  0.
        -24    2    4    4    0    0  0.14052125829E+03  0.28778672042E+03  0.88563885493E+03  0.94514044495E+03  0.79792598955E+02 0.  0.
         24    2    4    4    0    0  0.35321010566E+03  0.20714976952E+03  0.15718913825E+03  0.44633137764E+03  0.82673258864E+02 0.  0.
         11    1    5    5    0    0  0.83350792748E+02  0.24451499066E+03  0.69757305867E+03  0.74387035664E+03  0.00000000000E+00 0. -1.
        -12    1    5    5    0    0  0.57170465543E+02  0.43271729760E+02  0.18806579625E+03  0.20127008831E+03  0.00000000000E+00 0.  1.
         13    1    3    3    0    0 -0.42200983439E+03 -0.40803313034E+03  0.22360877054E+03  0.62815938904E+03  0.00000000000E+00 0. -1.
        -14    1    3    3    0    0 -0.71721529564E+02 -0.86903359592E+02  0.78343713812E+02  0.13723669045E+03  0.00000000000E+00 0.  1.
          2    1    6    6  502    0  0.23139080787E+03  0.17832410023E+03  0.11914920233E+03  0.31549599539E+03  0.00000000000E+00 0. -1.
         -1    1    6    6    0  502  0.12181929779E+03  0.28825669282E+02  0.38039935921E+02  0.13083538225E+03  0.00000000000E+00 0.  1.
<mgrwt>
<rscale>  0 0.72351806E+03</rscale>
<asrwt>0</asrwt>
<pdfrwt beam="1">  1        1 0.26935756E+00 0.72351806E+03</pdfrwt>
<pdfrwt beam="2">  1       -2 0.62468264E-01 0.72351806E+03</pdfrwt>
<totfact> 0.95579277E+00</totfact>
</mgrwt>
</event>
<event>
12    3  0.2422421E-007  0.5734742E+03  0.7818608E-02  0.9962020E-01
          1   -1    0    0  501    0  0.00000000000E+00  0.00000000000E+00  0.16002502583E+04  0.16002502583E+04  0.00000000000E+00 0. -1.
         -2   -1    0    0    0  501 -0.00000000000E+00 -0.00000000000E+00 -0.22385099411E+03  0.22385099411E+03  0.00000000000E+00 0.  1.
        -24    2    1    2    0    0 -0.32621008762E+03 -0.28409908503E+03  0.66914455914E+03  0.80070684725E+03  0.79067710371E+02 0.  0.
    5000000    2    1    2    0    0  0.32621008762E+03  0.28409908503E+03  0.70725470501E+03  0.10233944051E+04  0.60000131610E+03 0.  0.
        -24    2    4    4    0    0 -0.96669308469E+02  0.26226081494E+03  0.17446868106E+03  0.33813684560E+03  0.75970490500E+02 0.  0.
         24    2    4    4    0    0  0.42287939609E+03  0.21838270087E+02  0.53278602395E+03  0.68525755953E+03  0.80081720167E+02 0.  0.
         11    1    5    5    0    0 -0.46515433221E+02  0.18681309462E+03  0.15066756204E+03  0.24446580968E+03  0.00000000000E+00 0. -1.
        -12    1    5    5    0    0 -0.50153875248E+02  0.75447720325E+02  0.23801119018E+02  0.93671035924E+02  0.00000000000E+00 0.  1.
         13    1    3    3    0    0 -0.21356336732E+03 -0.14230918661E+03  0.35400651698E+03  0.43724344537E+03  0.00000000000E+00 0. -1.
        -14    1    3    3    0    0 -0.11264672030E+03 -0.14178989842E+03  0.31513804216E+03  0.36346340188E+03  0.00000000000E+00 0.  1.
          2    1    6    6  502    0  0.17759466114E+03  0.32721626306E+02  0.17608345617E+03  0.25222202923E+03  0.00000000000E+00 0. -1.
         -1    1    6    6    0  502  0.24528473495E+03 -0.10883356219E+02  0.35670256779E+03  0.43303553030E+03  0.00000000000E+00 0.  1.
<mgrwt>
<rscale>  0 0.57347421E+03</rscale>
<asrwt>0</asrwt>
<pdfrwt beam="1">  1        1 0.24619234E+00 0.57347421E+03</pdfrwt>
<pdfrwt beam="2">  1       -2 0.34438616E-01 0.57347421E+03</pdfrwt>
<totfact> 0.40673068E+01</totfact>
</mgrwt>
</event>
<event>
12    3  0.2422421E-007  0.5751504E+03  0.7818608E-02  0.9958346E-01
          1   -1    0    0  501    0  0.00000000000E+00  0.00000000000E+00  0.23342166050E+04  0.23342166050E+04  0.00000000000E+00 0. -1.
         -2   -1    0    0    0  501 -0.00000000000E+00 -0.00000000000E+00 -0.18812729507E+03  0.18812729507E+03  0.00000000000E+00 0.  1.
        -24    2    1    2    0    0 -0.12724667257E+03 -0.50699855207E+03  0.81340802952E+03  0.97013377154E+03  0.79294796306E+02 0.  0.
    5000000    2    1    2    0    0  0.12724667257E+03  0.50699855207E+03  0.13326812804E+04  0.15522101286E+04  0.60006469694E+03 0.  0.
        -24    2    4    4    0    0  0.18204760019E+02 -0.22138550822E+02 -0.27466628707E+02  0.86488762564E+02  0.76839844075E+02 0.  0.
         24    2    4    4    0    0  0.10904191255E+03  0.52913710289E+03  0.13601479091E+04  0.14657213660E+04  0.80377706203E+02 0.  0.
         11    1    5    5    0    0  0.46722941997E+02 -0.86705535673E+01 -0.50349287873E+01  0.47786633234E+02  0.00000000000E+00 0. -1.
        -12    1    5    5    0    0 -0.28518181978E+02 -0.13467997255E+02 -0.22431699919E+02  0.38702129329E+02  0.00000000000E+00 0.  1.
         13    1    3    3    0    0 -0.10472010952E+03 -0.31935065138E+03  0.57354664190E+03  0.66476077675E+03  0.00000000000E+00 0. -1.
        -14    1    3    3    0    0 -0.22526563053E+02 -0.18764790069E+03  0.23986138761E+03  0.30537299479E+03  0.00000000000E+00 0.  1.
          2    1    6    6  502    0  0.10556561357E+03  0.31929580811E+03  0.82909919284E+03  0.89470631127E+03  0.00000000000E+00 0. -1.
         -1    1    6    6    0  502  0.34762989816E+01  0.20984129478E+03  0.53104871630E+03  0.57101505474E+03  0.00000000000E+00 0.  1.
<mgrwt>
<rscale>  0 0.57515040E+03</rscale>
<asrwt>0</asrwt>
<pdfrwt beam="1">  1        1 0.35911023E+00 0.57515040E+03</pdfrwt>
<pdfrwt beam="2">  1       -2 0.28942662E-01 0.57515040E+03</pdfrwt>
<totfact> 0.18230928E+01</totfact>
</mgrwt>
</event>
<event>
12    3  0.2422421E-007  0.8340899E+03  0.7818608E-02  0.9511943E-01
          1   -1    0    0  501    0  0.00000000000E+00  0.00000000000E+00  0.23147751676E+04  0.23147751676E+04  0.00000000000E+00 0. -1.
         -2   -1    0    0    0  501 -0.00000000000E+00 -0.00000000000E+00 -0.39027990978E+03  0.39027990978E+03  0.00000000000E+00 0.  1.
        -24    2    1    2    0    0 -0.74293013390E+03 -0.10614936220E+03  0.28908091876E+03  0.80822667435E+03  0.80310077690E+02 0.  0.
    5000000    2    1    2    0    0  0.74293013390E+03  0.10614936220E+03  0.16354143390E+04  0.18968284030E+04  0.60013753353E+03 0.  0.
        -24    2    4    4    0    0  0.59760246119E+03 -0.15242195201E+03  0.85028866710E+03  0.10535165621E+04  0.80902263367E+02 0.  0.
         24    2    4    4    0    0  0.14532767271E+03  0.25857131420E+03  0.78512567193E+03  0.84331184086E+03  0.82299958849E+02 0.  0.
         11    1    3    3    0    0 -0.21172513447E+03  0.35844081314E+01  0.95549736997E+02  0.23231472788E+03  0.00000000000E+00 0. -1.
        -12    1    3    3    0    0 -0.53120499943E+03 -0.10973377033E+03  0.19353118176E+03  0.57591194647E+03  0.00000000000E+00 0.  1.
         13    1    5    5    0    0  0.39794846423E+03 -0.99578656243E+02  0.62784251173E+03  0.74997673864E+03  0.00000000000E+00 0. -1.
        -14    1    5    5    0    0  0.19965399696E+03 -0.52843295763E+02  0.22244615537E+03  0.30353982350E+03  0.00000000000E+00 0.  1.
          2    1    6    6  502    0  0.11555522096E+03  0.22031456505E+03  0.55609332731E+03  0.60920547054E+03  0.00000000000E+00 0. -1.
         -1    1    6    6    0  502  0.29772451748E+02  0.38256749151E+02  0.22903234463E+03  0.23410637032E+03  0.00000000000E+00 0.  1.
<mgrwt>
<rscale>  0 0.83408985E+03</rscale>
<asrwt>0</asrwt>
<pdfrwt beam="1">  1        1 0.35611925E+00 0.83408985E+03</pdfrwt>
<pdfrwt beam="2">  1       -2 0.60043064E-01 0.83408985E+03</pdfrwt>
<totfact> 0.42797938E+00</totfact>
</mgrwt>
</event>
<event>
12    3  0.2422421E-007  0.6131828E+03  0.7818608E-02  0.9878427E-01
          1   -1    0    0  501    0  0.00000000000E+00  0.00000000000E+00  0.11878039554E+04  0.11878039554E+04  0.00000000000E+00 0. -1.
         -2   -1    0    0    0  501 -0.00000000000E+00 -0.00000000000E+00 -0.50893879015E+03  0.50893879015E+03  0.00000000000E+00 0.  1.
        -24    2    1    2    0    0 -0.28705279197E+02  0.48746826775E+03  0.77262628077E+03  0.91754510134E+03  0.80550221175E+02 0.  0.
    5000000    2    1    2    0    0  0.28705279197E+02 -0.48746826775E+03 -0.93761115496E+02  0.77919764423E+03  0.59992375922E+03 0.  0.
        -24    2    4    4    0    0  0.18088603733E+03 -0.54031216109E+03 -0.14020832790E+03  0.59240846455E+03  0.81439693831E+02 0.  0.
         24    2    4    4    0    0 -0.15218075813E+03  0.52843893338E+02  0.46447212407E+02  0.18678917968E+03  0.82349219162E+02 0.  0.
         13    1    3    3    0    0 -0.12355493923E+01  0.32301385642E+03  0.56974123612E+03  0.65493858808E+03  0.00000000000E+00 0. -1.
        -14    1    3    3    0    0 -0.27469729804E+02  0.16445441133E+03  0.20288504465E+03  0.26260651326E+03  0.00000000000E+00 0.  1.
         13    1    5    5    0    0  0.97537616606E+02 -0.17154465074E+03 -0.54991774224E+02  0.20485421422E+03  0.00000000000E+00 0. -1.
        -14    1    5    5    0    0  0.83348420722E+02 -0.36876751035E+03 -0.85216553679E+02  0.38755425033E+03  0.00000000000E+00 0.  1.
          2    1    6    6  502    0 -0.90351749805E+02  0.28167961198E+02  0.68311896241E+02  0.11671926961E+03  0.00000000000E+00 0. -1.
         -1    1    6    6    0  502 -0.61829008327E+02  0.24675932140E+02 -0.21864683834E+02  0.70069910068E+02  0.00000000000E+00 0.  1.
<mgrwt>
<rscale>  0 0.61318276E+03</rscale>
<asrwt>0</asrwt>
<pdfrwt beam="1">  1        1 0.18273907E+00 0.61318276E+03</pdfrwt>
<pdfrwt beam="2">  1       -2 0.78298276E-01 0.61318276E+03</pdfrwt>
<totfact> 0.14504144E+01</totfact>
</mgrwt>
</event>
<event>
12    3  0.2422421E-007  0.9518618E+03  0.7818608E-02  0.9362977E-01
          1   -1    0    0  501    0  0.00000000000E+00  0.00000000000E+00  0.26389142067E+04  0.26389142067E+04  0.00000000000E+00 0. -1.
         -2   -1    0    0    0  501 -0.00000000000E+00 -0.00000000000E+00 -0.48121482013E+03  0.48121482013E+03  0.00000000000E+00 0.  1.
        -24    2    1    2    0    0  0.52793577198E+03  0.78583295246E+03  0.38981246322E+03  0.10268180924E+04  0.78434876527E+02 0.  0.
    5000000    2    1    2    0    0 -0.52793577198E+03 -0.78583295246E+03  0.17678869234E+04  0.20933109345E+04  0.60023069404E+03 0.  0.
        -24    2    4    4    0    0 -0.17367637052E+03 -0.33074293954E+03  0.22312560043E+03  0.44255940442E+03  0.80742920059E+02 0.  0.
         24    2    4    4    0    0 -0.35425940146E+03 -0.45509001292E+03  0.15447613229E+04  0.16507515301E+04  0.78015548234E+02 0.  0.
         13    1    3    3    0    0  0.27980252805E+03  0.34759377541E+03  0.19124880534E+03  0.48547604776E+03  0.00000000000E+00 0. -1.
        -14    1    3    3    0    0  0.24813324393E+03  0.43823917704E+03  0.19856365788E+03  0.54134204462E+03  0.00000000000E+00 0.  1.
         13    1    5    5    0    0 -0.41677574888E+02 -0.11522346965E+03  0.11370449232E+03  0.16715914506E+03  0.00000000000E+00 0. -1.
        -14    1    5    5    0    0 -0.13199879563E+03 -0.21551946989E+03  0.10942110812E+03  0.27540025935E+03  0.00000000000E+00 0.  1.
          4    1    6    6  502    0 -0.11771218026E+03 -0.18844931774E+03  0.50933341560E+03  0.55568860973E+03  0.00000000000E+00 0. -1.
         -3    1    6    6    0  502 -0.23654722120E+03 -0.26664069518E+03  0.10354279073E+04  0.10950629203E+04  0.00000000000E+00 0.  1.
<mgrwt>
<rscale>  0 0.95186183E+03</rscale>
<asrwt>0</asrwt>
<pdfrwt beam="1">  1        1 0.40598679E+00 0.95186183E+03</pdfrwt>
<pdfrwt beam="2">  1       -2 0.74033051E-01 0.95186183E+03</pdfrwt>
<totfact> 0.16024019E+00</totfact>
</mgrwt>
</event>
<event>
12    3  0.2422421E-007  0.8849054E+03  0.7818608E-02  0.9444650E-01
          1   -1    0    0  501    0  0.00000000000E+00  0.00000000000E+00  0.14195701986E+04  0.14195701986E+04  0.00000000000E+00 0. -1.
         -2   -1    0    0    0  501 -0.00000000000E+00 -0.00000000000E+00 -0.77707440086E+03  0.77707440086E+03  0.00000000000E+00 0.  1.
        -24    2    1    2    0    0 -0.82334643754E+03 -0.13093589104E+03  0.79953872611E+03  0.11579156212E+04  0.80391836752E+02 0.  0.
    5000000    2    1    2    0    0  0.82334643754E+03  0.13093589104E+03 -0.15704292835E+03  0.10387289783E+04  0.59937621347E+03 0.  0.
        -24    2    4    4    0    0  0.58739017404E+03 -0.96029149098E+02  0.10697058457E+03  0.61030859965E+03  0.82371516993E+02 0.  0.
         24    2    4    4    0    0  0.23595626349E+03  0.22696504014E+03 -0.26401351292E+03  0.42842037866E+03  0.81562234605E+02 0.  0.
         13    1    5    5    0    0  0.84765727591E+02  0.14106409749E+02  0.22960640709E+02  0.88946109481E+02  0.00000000000E+00 0. -1.
        -14    1    5    5    0    0  0.50262444645E+03 -0.11013555885E+03  0.84009943865E+02  0.52136249017E+03  0.00000000000E+00 0.  1.
         13    1    3    3    0    0 -0.27178755458E+03 -0.39808681775E+02  0.21260924833E+03  0.34735557926E+03  0.00000000000E+00 0. -1.
        -14    1    3    3    0    0 -0.55155888295E+03 -0.91127209268E+02  0.58692947778E+03  0.81056004190E+03  0.00000000000E+00 0.  1.
          2    1    6    6  502    0  0.63138222057E+01  0.37116639988E+02 -0.16659302752E+02  0.41170883923E+02  0.00000000000E+00 0. -1.
         -1    1    6    6    0  502  0.22964244129E+03  0.18984840015E+03 -0.24735421017E+03  0.38724949473E+03  0.00000000000E+00 0.  1.
<mgrwt>
<rscale>  0 0.88490543E+03</rscale>
<asrwt>0</asrwt>
<pdfrwt beam="1">  1        1 0.21839541E+00 0.88490543E+03</pdfrwt>
<pdfrwt beam="2">  1       -2 0.11954991E+00 0.88490543E+03</pdfrwt>
<totfact> 0.35446123E+00</totfact>
</mgrwt>
</event>
<event>
12    3  0.2422421E-007  0.1215930E+04  0.7818608E-02  0.9099026E-01
         -2   -1    0    0    0  501 -0.00000000000E+00  0.00000000000E+00  0.68996529796E+03  0.68996529796E+03  0.00000000000E+00 0.  1.
          1   -1    0    0  501    0  0.00000000000E+00 -0.00000000000E+00 -0.28268934029E+04  0.28268934029E+04  0.00000000000E+00 0. -1.
        -24    2    1    2    0    0  0.14074730365E+03  0.11776490027E+04 -0.25977493757E+03  0.12169109816E+04  0.81989889533E+02 0.  0.
    5000000    2    1    2    0    0 -0.14074730365E+03 -0.11776490027E+04 -0.18771531674E+04  0.22999477192E+04  0.59949021700E+03 0.  0.
        -24    2    4    4    0    0 -0.73521236664E+01 -0.10741197749E+04 -0.17998700255E+04  0.20973254759E+04  0.73855931513E+02 0.  0.
         24    2    4    4    0    0 -0.13339517999E+03 -0.10352922783E+03 -0.77283141832E+02  0.20262224329E+03  0.81058709622E+02 0.  0.
         13    1    5    5    0    0 -0.36049003515E+02 -0.82015155730E+03 -0.13573616264E+04  0.15863097719E+04  0.00000000000E+00 0. -1.
        -14    1    5    5    0    0  0.28696879848E+02 -0.25396821758E+03 -0.44250839912E+03  0.51101570401E+03  0.00000000000E+00 0.  1.
         13    1    3    3    0    0  0.30007350245E+02  0.23336943703E+03 -0.85349707513E+02  0.25029244452E+03  0.00000000000E+00 0. -1.
        -14    1    3    3    0    0  0.11073995341E+03  0.94427956568E+03 -0.17442523006E+03  0.96661853713E+03  0.00000000000E+00 0.  1.
          4    1    6    6  502    0 -0.83563239800E+02 -0.72158198470E+02 -0.89927261589E+02  0.14239569175E+03  0.00000000000E+00 0. -1.
         -3    1    6    6    0  502 -0.49831940186E+02 -0.31371029360E+02  0.12644119757E+02  0.60226551539E+02  0.00000000000E+00 0.  1.
<mgrwt>
<rscale>  0 0.12159302E+04</rscale>
<asrwt>0</asrwt>
<pdfrwt beam="1">  1        1 0.43490667E+00 0.12159302E+04</pdfrwt>
<pdfrwt beam="2">  1       -2 0.10614851E+00 0.12159302E+04</pdfrwt>
<totfact> 0.49475658E-01</totfact>
</mgrwt>
</event>
<event>
12    3  0.2422421E-007  0.5671587E+03  0.7818608E-02  0.9975986E-01
          1   -1    0    0  501    0  0.00000000000E+00  0.00000000000E+00  0.14384962029E+04  0.14384962029E+04  0.00000000000E+00 0. -1.
         -2   -1    0    0    0  501 -0.00000000000E+00 -0.00000000000E+00 -0.27865072023E+03  0.27865072023E+03  0.00000000000E+00 0.  1.
        -24    2    1    2    0    0 -0.39669882085E+03 -0.16609156497E+03  0.14303500077E+03  0.46059414264E+03  0.82046269677E+02 0.  0.
    5000000    2    1    2    0    0  0.39669882085E+03  0.16609156497E+03  0.10168104819E+04  0.12565527805E+04  0.60005414062E+03 0.  0.
        -24    2    4    4    0    0 -0.86387106318E+02  0.16643429855E+03  0.50541869079E+03  0.54830491904E+03  0.10013552503E+03 0.  0.
         24    2    4    4    0    0  0.48308592717E+03 -0.34273358116E+00  0.51139179112E+03  0.70824786147E+03  0.81983771303E+02 0.  0.
         13    1    5    5    0    0 -0.19521445112E+02  0.13631475921E+03  0.36005125031E+03  0.38548632044E+03  0.00000000000E+00 0. -1.
        -14    1    5    5    0    0 -0.66865661207E+02  0.30119539343E+02  0.14536744048E+03  0.16281859860E+03  0.00000000000E+00 0.  1.
         13    1    3    3    0    0 -0.31946175879E+02  0.47364783130E+01  0.25120841680E+02  0.40915144712E+02  0.00000000000E+00 0. -1.
        -14    1    3    3    0    0 -0.36475264497E+03 -0.17082804328E+03  0.11791415909E+03  0.41967899792E+03  0.00000000000E+00 0.  1.
          4    1    6    6  502    0  0.16557308625E+03 -0.33629001035E+02  0.14879256947E+03  0.22513237291E+03  0.00000000000E+00 0. -1.
         -3    1    6    6    0  502  0.31751284092E+03  0.33286267454E+02  0.36259922164E+03  0.48311548856E+03  0.00000000000E+00 0.  1.
<mgrwt>
<rscale>  0 0.56715872E+03</rscale>
<asrwt>0</asrwt>
<pdfrwt beam="1">  1        1 0.22130710E+00 0.56715872E+03</pdfrwt>
<pdfrwt beam="2">  1       -2 0.42869342E-01 0.56715872E+03</pdfrwt>
<totfact> 0.34359784E+01</totfact>
</mgrwt>
</event>
<event>
12    3  0.2422421E-007  0.1102026E+04  0.7818608E-02  0.9203219E-01
         -2   -1    0    0    0  501 -0.00000000000E+00  0.00000000000E+00  0.90952583830E+03  0.90952583830E+03  0.00000000000E+00 0.  1.
          1   -1    0    0  501    0  0.00000000000E+00 -0.00000000000E+00 -0.15099965988E+04  0.15099965988E+04  0.00000000000E+00 0. -1.
        -24    2    1    2    0    0 -0.10325756496E+04 -0.19411992171E+03  0.32139141295E+02  0.10542303967E+04  0.80459858738E+02 0.  0.
    5000000    2    1    2    0    0  0.10325756496E+04  0.19411992171E+03 -0.63260990180E+03  0.13652920404E+04  0.59994337370E+03 0.  0.
        -24    2    4    4    0    0  0.86860808229E+03 -0.21233239420E+02 -0.28751454518E+03  0.91872432455E+03  0.80367404821E+02 0.  0.
         24    2    4    4    0    0  0.16396756727E+03  0.21535316113E+03 -0.34509535662E+03  0.44656771584E+03  0.84080750163E+02 0.  0.
         13    1    3    3    0    0 -0.41006511515E+03 -0.10521823866E+03  0.41106378746E+02  0.42533987678E+03  0.00000000000E+00 0. -1.
        -14    1    3    3    0    0 -0.62251053441E+03 -0.88901683053E+02 -0.89672374514E+01  0.62889051992E+03  0.00000000000E+00 0.  1.
         13    1    5    5    0    0  0.82629422437E+03 -0.12517892886E+02 -0.25560686015E+03  0.86501659511E+03  0.00000000000E+00 0. -1.
        -14    1    5    5    0    0  0.42313857923E+02 -0.87153465347E+01 -0.31907685030E+02  0.53707729440E+02  0.00000000000E+00 0.  1.
          4    1    6    6  502    0  0.15268918519E+03  0.14344991704E+03 -0.23790170598E+03  0.31700013829E+03  0.00000000000E+00 0. -1.
         -3    1    6    6    0  502  0.11278382077E+02  0.71903244094E+02 -0.10719365065E+03  0.12956757755E+03  0.00000000000E+00 0.  1.
<mgrwt>
<rscale>  0 0.11020264E+04</rscale>
<asrwt>0</asrwt>
<pdfrwt beam="1">  1        1 0.23230717E+00 0.11020264E+04</pdfrwt>
<pdfrwt beam="2">  1       -2 0.13992705E+00 0.11020264E+04</pdfrwt>
<totfact> 0.20042957E+00</totfact>
</mgrwt>
</event>
<event>
12    3  0.2422421E-007  0.4710980E+03  0.7818608E-02  0.1021611E+00
          1   -1    0    0  501    0  0.00000000000E+00  0.00000000000E+00  0.64422209126E+03  0.64422209126E+03  0.00000000000E+00 0. -1.
         -2   -1    0    0    0  501 -0.00000000000E+00 -0.00000000000E+00 -0.66371057316E+03  0.66371057316E+03  0.00000000000E+00 0.  1.
        -24    2    1    2    0    0  0.26332955116E+03 -0.10010652102E+03 -0.43595081935E+03  0.52503090521E+03  0.78997256090E+02 0.  0.
    5000000    2    1    2    0    0 -0.26332955116E+03  0.10010652102E+03  0.41646233746E+03  0.78290175920E+03  0.60010875512E+03 0.  0.
        -24    2    4    4    0    0 -0.24918621117E+03  0.32898471759E+03  0.23029984442E+03  0.47690357109E+03  0.63830130335E+02 0.  0.
         24    2    4    4    0    0 -0.14143339994E+02 -0.22887819657E+03  0.18616249304E+03  0.30599818811E+03  0.79957203405E+02 0.  0.
         11    1    3    3    0    0  0.53583859843E+02 -0.57392413378E+02 -0.11920893402E+03  0.14274413858E+03  0.00000000000E+00 0. -1.
        -12    1    3    3    0    0  0.20974569132E+03 -0.42714107640E+02 -0.31674188533E+03  0.38228676663E+03  0.00000000000E+00 0.  1.
         13    1    5    5    0    0 -0.15882122472E+03  0.25087219384E+03  0.14728068916E+03  0.33144025172E+03  0.00000000000E+00 0. -1.
        -14    1    5    5    0    0 -0.90364986446E+02  0.78112523754E+02  0.83019155258E+02  0.14546331937E+03  0.00000000000E+00 0.  1.
          2    1    6    6  502    0  0.10154406600E+02 -0.15815893123E+03  0.83928969273E+02  0.17933608501E+03  0.00000000000E+00 0. -1.
         -3    1    6    6    0  502 -0.24297746594E+02 -0.70719265342E+02  0.10223352377E+03  0.12666210310E+03  0.00000000000E+00 0.  1.
<mgrwt>
<rscale>  0 0.47109804E+03</rscale>
<asrwt>0</asrwt>
<pdfrwt beam="1">  1        1 0.99111091E-01 0.47109804E+03</pdfrwt>
<pdfrwt beam="2">  1       -2 0.10210932E+00 0.47109804E+03</pdfrwt>
<totfact> 0.22340157E+01</totfact>
</mgrwt>
</event>
<event>
12    3  0.2422421E-007  0.3538399E+03  0.7818608E-02  0.1061050E+00
         -2   -1    0    0    0  501 -0.00000000000E+00  0.00000000000E+00  0.14852921822E+03  0.14852921822E+03  0.00000000000E+00 0.  1.
          1   -1    0    0  501    0  0.00000000000E+00 -0.00000000000E+00 -0.12085535393E+04  0.12085535393E+04  0.00000000000E+00 0. -1.
        -24    2    1    2    0    0  0.82220718359E+02  0.16884172114E+03 -0.16187994359E+03  0.26072232702E+03  0.80642683152E+02 0.  0.
    5000000    2    1    2    0    0 -0.82220718359E+02 -0.16884172114E+03 -0.89814437754E+03  0.10963604305E+04  0.60006257793E+03 0.  0.
        -24    2    4    4    0    0 -0.24130290313E+03  0.32781293869E+02 -0.13922108500E+03  0.29122812916E+03  0.78291815781E+02 0.  0.
         24    2    4    4    0    0  0.15908218477E+03 -0.20162301500E+03 -0.75892329254E+03  0.80513230139E+03  0.79463684071E+02 0.  0.
         11    1    3    3    0    0  0.77748853734E+02  0.68449389191E+02 -0.75092033655E+02  0.12794145792E+03  0.00000000000E+00 0. -1.
        -12    1    3    3    0    0  0.44718646253E+01  0.10039233194E+03 -0.86787909931E+02  0.13278086909E+03  0.00000000000E+00 0.  1.
         13    1    5    5    0    0 -0.91544390116E+02  0.22175743715E+02 -0.97140756094E+02  0.13530877823E+03  0.00000000000E+00 0. -1.
        -14    1    5    5    0    0 -0.14975851301E+03  0.10605550153E+02 -0.42080328909E+02  0.15591935093E+03  0.00000000000E+00 0.  1.
          4    1    6    6  502    0  0.77858576912E+02 -0.70502411840E+02 -0.41709211188E+03  0.43011437766E+03  0.00000000000E+00 0. -1.
         -3    1    6    6    0  502  0.81223607859E+02 -0.13112060316E+03 -0.34183118066E+03  0.37501792373E+03  0.00000000000E+00 0.  1.
<mgrwt>
<rscale>  0 0.35383991E+03</rscale>
<asrwt>0</asrwt>
<pdfrwt beam="1">  1        1 0.18593131E+00 0.35383991E+03</pdfrwt>
<pdfrwt beam="2">  1       -2 0.22850650E-01 0.35383991E+03</pdfrwt>
<totfact> 0.16459328E+02</totfact>
</mgrwt>
</event>
<event>
12    3  0.2422421E-007  0.1269541E+04  0.7818608E-02  0.9054074E-01
          1   -1    0    0  501    0  0.00000000000E+00  0.00000000000E+00  0.17501002927E+04  0.17501002927E+04  0.00000000000E+00 0. -1.
         -2   -1    0    0    0  501 -0.00000000000E+00 -0.00000000000E+00 -0.12371914970E+04  0.12371914970E+04  0.00000000000E+00 0.  1.
        -24    2    1    2    0    0 -0.77992168150E+03 -0.97763958216E+03 -0.41260479227E+03  0.13197760982E+04  0.86655945439E+02 0.  0.
    5000000    2    1    2    0    0  0.77992168150E+03  0.97763958216E+03  0.92551358799E+03  0.16675156915E+04  0.59998016452E+03 0.  0.
        -24    2    4    4    0    0  0.68967640121E+03  0.68956459557E+03  0.93711348419E+03  0.13548170513E+04  0.78706355490E+02 0.  0.
         24    2    4    4    0    0  0.90245280293E+02  0.28807498660E+03 -0.11599896197E+02  0.31269864016E+03  0.80712288094E+02 0.  0.
         11    1    5    5    0    0  0.58891530042E+03  0.61055547311E+03  0.84279109647E+03  0.11957826095E+04  0.00000000000E+00 0. -1.
        -12    1    5    5    0    0  0.10076110079E+03  0.79009122462E+02  0.94322387722E+02  0.15903444184E+03  0.00000000000E+00 0.  1.
         13    1    3    3    0    0 -0.76001993546E+02 -0.94332051571E+02 -0.67855993263E+02  0.13884982823E+03  0.00000000000E+00 0. -1.
        -14    1    3    3    0    0 -0.70391968796E+03 -0.88330753059E+03 -0.34474879901E+03  0.11809262700E+04  0.00000000000E+00 0.  1.
          2    1    6    6  502    0  0.46381902515E+02  0.24930061960E+03 -0.35500247695E+01  0.25360339606E+03  0.00000000000E+00 0. -1.
         -1    1    6    6    0  502  0.43863377778E+02  0.38774366993E+02 -0.80498714275E+01  0.59095244105E+02  0.00000000000E+00 0.  1.
<mgrwt>
<rscale>  0 0.12695415E+04</rscale>
<asrwt>0</asrwt>
<pdfrwt beam="1">  1        1 0.26924620E+00 0.12695415E+04</pdfrwt>
<pdfrwt beam="2">  1       -2 0.19033715E+00 0.12695415E+04</pdfrwt>
<totfact> 0.57580292E-01</totfact>
</mgrwt>
</event>
<event>
12    3  0.2422421E-007  0.5792673E+03  0.7818608E-02  0.9949379E-01
          1   -1    0    0  501    0  0.00000000000E+00  0.00000000000E+00  0.70703184277E+03  0.70703184277E+03  0.00000000000E+00 0. -1.
         -2   -1    0    0    0  501 -0.00000000000E+00 -0.00000000000E+00 -0.11096555870E+04  0.11096555870E+04  0.00000000000E+00 0.  1.
        -24    2    1    2    0    0 -0.70965558416E+02  0.42727885478E+03 -0.84615207313E+03  0.95395863557E+03  0.80376721021E+02 0.  0.
    5000000    2    1    2    0    0  0.70965558416E+02 -0.42727885478E+03  0.44352832886E+03  0.86272879424E+03  0.59998355285E+03 0.  0.
        -24    2    4    4    0    0 -0.14180166336E+03 -0.47429218872E+03  0.30409515854E+03  0.58639257333E+03  0.79508443562E+02 0.  0.
         24    2    4    4    0    0  0.21276722178E+03  0.47013333933E+02  0.13943317032E+03  0.27633622091E+03  0.97159424509E+02 0.  0.
         11    1    5    5    0    0 -0.56155391084E+02 -0.23204717069E+03  0.10255369214E+03  0.25983952191E+03  0.00000000000E+00 0. -1.
        -12    1    5    5    0    0 -0.85646272279E+02 -0.24224501802E+03  0.20154146640E+03  0.32655305142E+03  0.00000000000E+00 0.  1.
         13    1    3    3    0    0 -0.78342536951E+02  0.40436630798E+03 -0.75915827077E+03  0.86369609481E+03  0.00000000000E+00 0. -1.
        -14    1    3    3    0    0  0.73769785351E+01  0.22912546807E+02 -0.86993802362E+02  0.90262540751E+02  0.00000000000E+00 0.  1.
          2    1    6    6  502    0  0.11393422800E+03  0.57290942141E+02  0.35129015818E+02  0.13227739079E+03  0.00000000000E+00 0. -1.
         -1    1    6    6    0  502  0.98832993776E+02 -0.10277608208E+02  0.10430415450E+03  0.14405883012E+03  0.00000000000E+00 0.  1.
<mgrwt>
<rscale>  0 0.57926730E+03</rscale>
<asrwt>0</asrwt>
<pdfrwt beam="1">  1        1 0.10877413E+00 0.57926730E+03</pdfrwt>
<pdfrwt beam="2">  1       -2 0.17071624E+00 0.57926730E+03</pdfrwt>
<totfact> 0.51939964E+00</totfact>
</mgrwt>
</event>
<event>
12    3  0.2422421E-007  0.5045085E+03  0.7818608E-02  0.1012609E+00
          1   -1    0    0  501    0  0.00000000000E+00  0.00000000000E+00  0.29464658095E+04  0.29464658095E+04  0.00000000000E+00 0. -1.
         -2   -1    0    0    0  501 -0.00000000000E+00 -0.00000000000E+00 -0.10484059385E+03  0.10484059385E+03  0.00000000000E+00 0.  1.
        -24    2    1    2    0    0  0.31854308660E+03  0.21390762553E+03  0.11843213123E+04  0.12474004151E+04  0.78515314100E+02 0.  0.
    5000000    2    1    2    0    0 -0.31854308660E+03 -0.21390762553E+03  0.16573039034E+04  0.18039059883E+04  0.60016199155E+03 0.  0.
        -24    2    4    4    0    0 -0.18614465055E+03  0.13147757810E+03  0.25272240231E+03  0.34938542139E+03  0.79154125472E+02 0.  0.
         24    2    4    4    0    0 -0.13239843606E+03 -0.34538520364E+03  0.14045815010E+04  0.14545205669E+04  0.77204932445E+02 0.  0.
         11    1    3    3    0    0  0.76477905329E+02  0.14171646527E+02  0.22815215946E+03  0.24104587413E+03  0.00000000000E+00 0. -1.
        -12    1    3    3    0    0  0.24206518128E+03  0.19973597901E+03  0.95616915289E+03  0.10063545410E+04  0.00000000000E+00 0.  1.
         11    1    5    5    0    0  0.68520719880E+01  0.74268115917E+00  0.14659374228E+02  0.16198756699E+02  0.00000000000E+00 0. -1.
        -12    1    5    5    0    0 -0.19299672253E+03  0.13073489695E+03  0.23806302809E+03  0.33318666469E+03  0.00000000000E+00 0.  1.
          4    1    6    6  502    0 -0.73324406992E+01  0.24808060333E+01  0.20154865669E+02  0.21590222216E+02  0.00000000000E+00 0. -1.
         -3    1    6    6    0  502 -0.12506599536E+03 -0.34786600967E+03  0.13844266354E+04  0.14329303446E+04  0.00000000000E+00 0.  1.
<mgrwt>
<rscale>  0 0.50450854E+03</rscale>
<asrwt>0</asrwt>
<pdfrwt beam="1">  1        1 0.45330237E+00 0.50450854E+03</pdfrwt>
<pdfrwt beam="2">  1       -2 0.16129324E-01 0.50450854E+03</pdfrwt>
<totfact> 0.19672966E+01</totfact>
</mgrwt>
</event>
<event>
12    3  0.2422421E-007  0.9848381E+03  0.7818608E-02  0.9325332E-01
          1   -1    0    0  501    0  0.00000000000E+00  0.00000000000E+00  0.88607241360E+03  0.88607241360E+03  0.00000000000E+00 0. -1.
         -2   -1    0    0    0  501 -0.00000000000E+00 -0.00000000000E+00 -0.11540170171E+04  0.11540170171E+04  0.00000000000E+00 0.  1.
        -24    2    1    2    0    0 -0.44038456613E+03 -0.78402789091E+03  0.74974433602E+02  0.90589177542E+03  0.79877676895E+02 0.  0.
    5000000    2    1    2    0    0  0.44038456613E+03  0.78402789091E+03 -0.34291903713E+03  0.11341976553E+04  0.60014377897E+03 0.  0.
        -24    2    4    4    0    0 -0.41113278981E+02 -0.57298630805E+02 -0.18355926500E+02  0.10881672325E+03  0.80812773865E+02 0.  0.
         24    2    4    4    0    0  0.48149784512E+03  0.84132652172E+03 -0.32456311063E+03  0.10253809320E+04  0.79964692418E+02 0.  0.
         13    1    3    3    0    0 -0.28133895927E+03 -0.45148321996E+03  0.75305952900E+02  0.53727059705E+03  0.00000000000E+00 0. -1.
        -14    1    3    3    0    0 -0.15904560686E+03 -0.33254467096E+03 -0.33151929855E+00  0.36862117838E+03  0.00000000000E+00 0.  1.
         13    1    5    5    0    0 -0.46878586738E+01 -0.60435240040E+02  0.11398154637E+02  0.61679106566E+02  0.00000000000E+00 0. -1.
        -14    1    5    5    0    0 -0.36425420307E+02  0.31366092347E+01 -0.29754081137E+02  0.47137616681E+02  0.00000000000E+00 0.  1.
          4    1    6    6  502    0  0.12284950155E+03  0.15754781838E+03 -0.50616749346E+02  0.20609553712E+03  0.00000000000E+00 0. -1.
         -3    1    6    6    0  502  0.35864834356E+03  0.68377870334E+03 -0.27394636128E+03  0.81928539493E+03  0.00000000000E+00 0.  1.
<mgrwt>
<rscale>  0 0.98483811E+03</rscale>
<asrwt>0</asrwt>
<pdfrwt beam="1">  1        1 0.13631883E+00 0.98483811E+03</pdfrwt>
<pdfrwt beam="2">  1       -2 0.17754108E+00 0.98483811E+03</pdfrwt>
<totfact> 0.30810096E+00</totfact>
</mgrwt>
</event>
<event>
12    3  0.2422421E-007  0.1446408E+04  0.7818608E-02  0.8920895E-01
          1   -1    0    0  501    0  0.00000000000E+00  0.00000000000E+00  0.66109706503E+03  0.66109706503E+03  0.00000000000E+00 0. -1.
         -2   -1    0    0    0  501 -0.00000000000E+00 -0.00000000000E+00 -0.42321507747E+04  0.42321507747E+04  0.00000000000E+00 0.  1.
        -24    2    1    2    0    0  0.85558814322E+03 -0.11578947761E+04 -0.28085834342E+04  0.31570960761E+04  0.79770568400E+02 0.  0.
    5000000    2    1    2    0    0 -0.85558814322E+03  0.11578947761E+04 -0.76247027545E+03  0.17361517636E+04  0.60009219468E+03 0.  0.
        -24    2    4    4    0    0 -0.29529188252E+03  0.34215752260E+03  0.38131201015E+02  0.46082482376E+03  0.81464492574E+02 0.  0.
         24    2    4    4    0    0 -0.56029626070E+03  0.81573725347E+03 -0.80060147646E+03  0.12753269399E+04  0.78338451385E+02 0.  0.
         13    1    5    5    0    0 -0.25287136636E+03  0.24259823951E+03  0.19109217302E+02  0.35094585896E+03  0.00000000000E+00 0. -1.
        -14    1    5    5    0    0 -0.42420516161E+02  0.99559283090E+02  0.19021983713E+02  0.10987896480E+03  0.00000000000E+00 0.  1.
         13    1    3    3    0    0  0.35101101698E+03 -0.41383874795E+03 -0.10859098218E+04  0.12139486746E+04  0.00000000000E+00 0. -1.
        -14    1    3    3    0    0  0.50457712625E+03 -0.74405602811E+03 -0.17226736123E+04  0.19431474015E+04  0.00000000000E+00 0.  1.
          4    1    6    6  502    0 -0.43581257616E+03  0.57506391053E+03 -0.57018829168E+03  0.91964438273E+03  0.00000000000E+00 0. -1.
         -3    1    6    6    0  502 -0.12448368454E+03  0.24067334294E+03 -0.23041318479E+03  0.35568255712E+03  0.00000000000E+00 0.  1.
<mgrwt>
<rscale>  0 0.14464075E+04</rscale>
<asrwt>0</asrwt>
<pdfrwt beam="1">  1        1 0.10170724E+00 0.14464075E+04</pdfrwt>
<pdfrwt beam="2">  1       -2 0.65110012E+00 0.14464075E+04</pdfrwt>
<totfact> 0.80991103E-03</totfact>
</mgrwt>
</event>
<event>
12    3  0.2422421E-007  0.7971398E+03  0.7818608E-02  0.9564166E-01
          1   -1    0    0  501    0  0.00000000000E+00  0.00000000000E+00  0.12018463938E+04  0.12018463938E+04  0.00000000000E+00 0. -1.
         -2   -1    0    0    0  501 -0.00000000000E+00 -0.00000000000E+00 -0.66233488411E+03  0.66233488411E+03  0.00000000000E+00 0.  1.
        -24    2    1    2    0    0  0.44703577783E+02 -0.68886108915E+03 -0.15888087166E+03  0.71343734727E+03  0.84980627709E+02 0.  0.
    5000000    2    1    2    0    0 -0.44703577783E+02  0.68886108915E+03  0.69839238138E+03  0.11507439307E+04  0.59994305196E+03 0.  0.
        -24    2    4    4    0    0  0.24794635191E+03  0.16852159715E+03  0.20344584764E+03  0.37119916927E+03  0.80756970053E+02 0.  0.
         24    2    4    4    0    0 -0.29264992970E+03  0.52033949200E+03  0.49494653374E+03  0.77954476140E+03  0.79503430614E+02 0.  0.
         11    1    3    3    0    0  0.16411032174E+02 -0.45184106359E+03 -0.14297130746E+03  0.47420508588E+03  0.00000000000E+00 0. -1.
        -12    1    3    3    0    0  0.28292545608E+02 -0.23702002556E+03 -0.15909564206E+02  0.23923226139E+03  0.00000000000E+00 0.  1.
         11    1    5    5    0    0  0.16886596367E+02  0.34716846227E+01 -0.61112247383E+01  0.18290893876E+02  0.00000000000E+00 0. -1.
        -12    1    5    5    0    0  0.23105975555E+03  0.16504991253E+03  0.20955707237E+03  0.35290827539E+03  0.00000000000E+00 0.  1.
          4    1    6    6  502    0 -0.22302845644E+03  0.31921186858E+03  0.31723673283E+03  0.50227189258E+03  0.00000000000E+00 0. -1.
         -3    1    6    6    0  502 -0.69621473253E+02  0.20112762342E+03  0.17770980092E+03  0.27727286882E+03  0.00000000000E+00 0.  1.
<mgrwt>
<rscale>  0 0.79713982E+03</rscale>
<asrwt>0</asrwt>
<pdfrwt beam="1">  1        1 0.18489945E+00 0.79713982E+03</pdfrwt>
<pdfrwt beam="2">  1       -2 0.10189767E+00 0.79713982E+03</pdfrwt>
<totfact> 0.75364786E+00</totfact>
</mgrwt>
</event>
<event>
12    3  0.2422421E-007  0.3099425E+03  0.7818608E-02  0.1080373E+00
          1   -1    0    0  501    0  0.00000000000E+00  0.00000000000E+00  0.57294984026E+03  0.57294984026E+03  0.00000000000E+00 0. -1.
         -2   -1    0    0    0  501 -0.00000000000E+00 -0.00000000000E+00 -0.66393669693E+03  0.66393669693E+03  0.00000000000E+00 0.  1.
        -24    2    1    2    0    0  0.11253140153E+03  0.18071087636E+03  0.38134993733E+03  0.44422033635E+03  0.81143054898E+02 0.  0.
    5000000    2    1    2    0    0 -0.11253140153E+03 -0.18071087636E+03 -0.47233679401E+03  0.79266620083E+03  0.59991492880E+03 0.  0.
        -24    2    4    4    0    0  0.61515465113E+02  0.43416728829E+02 -0.48636842606E+03  0.49791243212E+03  0.75454485639E+02 0.  0.
         24    2    4    4    0    0 -0.17404686665E+03 -0.22412760519E+03  0.14031632053E+02  0.29475376871E+03  0.78469116686E+02 0.  0.
         11    1    5    5    0    0 -0.11930808821E+02  0.28164439693E+02 -0.17362186666E+03  0.17629558260E+03  0.00000000000E+00 0. -1.
        -12    1    5    5    0    0  0.73446273934E+02  0.15252289136E+02 -0.31274655940E+03  0.32161684952E+03  0.00000000000E+00 0.  1.
         11    1    3    3    0    0  0.93786097987E+02  0.18254227236E+03  0.32097402188E+03  0.38097484969E+03  0.00000000000E+00 0. -1.
        -12    1    3    3    0    0  0.18745303546E+02 -0.18313959981E+01  0.60375915458E+02  0.63245486667E+02  0.00000000000E+00 0.  1.
          4    1    6    6  502    0 -0.28178734478E+02 -0.76690556683E+01  0.16853322091E+02  0.33717798818E+02  0.00000000000E+00 0. -1.
         -3    1    6    6    0  502 -0.14586813217E+03 -0.21645854952E+03 -0.28216900377E+01  0.26103596989E+03  0.00000000000E+00 0.  1.
<mgrwt>
<rscale>  0 0.30994249E+03</rscale>
<asrwt>0</asrwt>
<pdfrwt beam="1">  1        1 0.88146130E-01 0.30994249E+03</pdfrwt>
<pdfrwt beam="2">  1       -2 0.10214411E+00 0.30994249E+03</pdfrwt>
<totfact> 0.27075777E+01</totfact>
</mgrwt>
</event>
<event>
12    3  0.2422421E-007  0.3809203E+03  0.7818608E-02  0.1050594E+00
         -2   -1    0    0    0  501 -0.00000000000E+00  0.00000000000E+00  0.88589482855E+02  0.88589482855E+02  0.00000000000E+00 0.  1.
          1   -1    0    0  501    0  0.00000000000E+00 -0.00000000000E+00 -0.22107588039E+04  0.22107588039E+04  0.00000000000E+00 0. -1.
        -24    2    1    2    0    0 -0.11465717968E+03 -0.84967725568E+02 -0.11428264986E+03  0.19888787012E+03  0.78294811955E+02 0.  0.
    5000000    2    1    2    0    0  0.11465717968E+03  0.84967725568E+02 -0.20078866712E+04  0.21004604167E+04  0.59996607763E+03 0.  0.
        -24    2    4    4    0    0 -0.99774429737E+02  0.28308348124E+03 -0.11246567286E+04  0.11668077830E+04  0.80600565411E+02 0.  0.
         24    2    4    4    0    0  0.21443160942E+03 -0.19811575567E+03 -0.88322994258E+03  0.93365263362E+03  0.79883296309E+02 0.  0.
         11    1    3    3    0    0 -0.10966042884E+03 -0.38911550522E+02 -0.78734005162E+02  0.14049399271E+03  0.00000000000E+00 0. -1.
        -12    1    3    3    0    0 -0.49967508399E+01 -0.46056175046E+02 -0.35548644700E+02  0.58393877408E+02  0.00000000000E+00 0.  1.
         11    1    5    5    0    0 -0.10294372198E+03  0.22425351045E+03 -0.98059841619E+03  0.10111677906E+04  0.00000000000E+00 0. -1.
        -12    1    5    5    0    0  0.31692922385E+01  0.58829970785E+02 -0.14405831243E+03  0.15563999247E+03  0.00000000000E+00 0.  1.
          4    1    6    6  502    0  0.27961470599E+02 -0.13366805009E+02 -0.40561140689E+02  0.51046267721E+02  0.00000000000E+00 0. -1.
         -3    1    6    6    0  502  0.18647013882E+03 -0.18474895066E+03 -0.84266880190E+03  0.88260636590E+03  0.00000000000E+00 0.  1.
<mgrwt>
<rscale>  0 0.38092035E+03</rscale>
<asrwt>0</asrwt>
<pdfrwt beam="1">  1        1 0.34011677E+00 0.38092035E+03</pdfrwt>
<pdfrwt beam="2">  1       -2 0.13629150E-01 0.38092035E+03</pdfrwt>
<totfact> 0.84750214E+01</totfact>
</mgrwt>
</event>
<event>
12    3  0.2422421E-007  0.1015342E+04  0.7818608E-02  0.9291876E-01
          1   -1    0    0  501    0  0.00000000000E+00  0.00000000000E+00  0.16914120682E+04  0.16914120682E+04  0.00000000000E+00 0. -1.
         -2   -1    0    0    0  501 -0.00000000000E+00 -0.00000000000E+00 -0.66798278110E+03  0.66798278110E+03  0.00000000000E+00 0.  1.
        -24    2    1    2    0    0 -0.49705798516E+03 -0.83847590029E+03  0.40454056551E+03  0.10581947763E+04  0.77554107175E+02 0.  0.
    5000000    2    1    2    0    0  0.49705798516E+03  0.83847590029E+03  0.61888872154E+03  0.13012000729E+04  0.59999158673E+03 0.  0.
        -24    2    4    4    0    0  0.12598911545E+03  0.56800630130E+03  0.86724634070E+02  0.59396474184E+03  0.82271118082E+02 0.  0.
         24    2    4    4    0    0  0.37106886971E+03  0.27046959899E+03  0.53216408747E+03  0.70723533108E+03  0.78340841751E+02 0.  0.
         11    1    3    3    0    0 -0.23896174100E+03 -0.47702328156E+03  0.21170684517E+03  0.57399800792E+03  0.00000000000E+00 0. -1.
        -12    1    3    3    0    0 -0.25809624416E+03 -0.36145261873E+03  0.19283372033E+03  0.48419676841E+03  0.00000000000E+00 0.  1.
         13    1    5    5    0    0  0.74972453836E+02  0.16423294848E+03  0.22145373882E+02  0.18188938338E+03  0.00000000000E+00 0. -1.
        -14    1    5    5    0    0  0.51016661614E+02  0.40377335282E+03  0.64579260188E+02  0.41207535847E+03  0.00000000000E+00 0.  1.
          4    1    6    6  502    0  0.12545429506E+03  0.13774310775E+03  0.22592469785E+03  0.29283769051E+03  0.00000000000E+00 0. -1.
         -3    1    6    6    0  502  0.24561457465E+03  0.13272649124E+03  0.30623938962E+03  0.41439764057E+03  0.00000000000E+00 0.  1.
<mgrwt>
<rscale>  0 0.10153424E+04</rscale>
<asrwt>0</asrwt>
<pdfrwt beam="1">  1        1 0.26021724E+00 0.10153424E+04</pdfrwt>
<pdfrwt beam="2">  1       -2 0.10276658E+00 0.10153424E+04</pdfrwt>
<totfact> 0.32825573E+00</totfact>
</mgrwt>
</event>
<event>
12    3  0.2422421E-007  0.1046342E+04  0.7818608E-02  0.9259129E-01
         -2   -1    0    0    0  501 -0.00000000000E+00  0.00000000000E+00  0.81183671998E+03  0.81183671998E+03  0.00000000000E+00 0.  1.
          1   -1    0    0  501    0  0.00000000000E+00 -0.00000000000E+00 -0.18519275340E+04  0.18519275340E+04  0.00000000000E+00 0. -1.
        -24    2    1    2    0    0 -0.18927041999E+03 -0.10204665561E+04 -0.10321001899E+04  0.14648870703E+04  0.59059654652E+02 0.  0.
    5000000    2    1    2    0    0  0.18927041999E+03  0.10204665561E+04 -0.79906240410E+01  0.11988771836E+04  0.60005613678E+03 0.  0.
        -24    2    4    4    0    0  0.95140924579E+02  0.83436245674E+03 -0.24597419004E+03  0.87866491464E+03  0.79600410214E+02 0.  0.
         24    2    4    4    0    0  0.94129495409E+02  0.18610409936E+03  0.23798356600E+03  0.32021226896E+03  0.49036943240E+02 0.  0.
         13    1    3    3    0    0 -0.35495179054E+02 -0.33109466110E+03 -0.34555005066E+03  0.47988375661E+03  0.00000000000E+00 0. -1.
        -14    1    3    3    0    0 -0.15377524093E+03 -0.68937189499E+03 -0.68655013927E+03  0.98500331373E+03  0.00000000000E+00 0.  1.
         13    1    5    5    0    0  0.29878583203E+02  0.11836209800E+03 -0.60051511723E+02  0.13604594826E+03  0.00000000000E+00 0. -1.
        -14    1    5    5    0    0  0.65262341376E+02  0.71600035874E+03 -0.18592267832E+03  0.74261896638E+03  0.00000000000E+00 0.  1.
          4    1    6    6  502    0  0.32815936976E+02  0.10894172545E+03  0.14864064512E+03  0.18718767761E+03  0.00000000000E+00 0. -1.
         -3    1    6    6    0  502  0.61313558433E+02  0.77162373902E+02  0.89342920875E+02  0.13302459135E+03  0.00000000000E+00 0.  1.
<mgrwt>
<rscale>  0 0.10463417E+04</rscale>
<asrwt>0</asrwt>
<pdfrwt beam="1">  1        1 0.28491192E+00 0.10463417E+04</pdfrwt>
<pdfrwt beam="2">  1       -2 0.12489796E+00 0.10463417E+04</pdfrwt>
<totfact> 0.15781210E+00</totfact>
</mgrwt>
</event>
<event>
12    3  0.2422421E-007  0.1003963E+04  0.7818608E-02  0.9304209E-01
         -2   -1    0    0    0  501 -0.00000000000E+00  0.00000000000E+00  0.54593751633E+03  0.54593751633E+03  0.00000000000E+00 0.  1.
          1   -1    0    0  501    0  0.00000000000E+00 -0.00000000000E+00 -0.19574320085E+04  0.19574320085E+04  0.00000000000E+00 0. -1.
        -24    2    1    2    0    0  0.64251828169E+03 -0.65274256995E+03 -0.36600581253E+03  0.98945429363E+03  0.78466167651E+02 0.  0.
    5000000    2    1    2    0    0 -0.64251828169E+03  0.65274256995E+03 -0.10454886797E+04  0.15139152312E+04  0.59999178585E+03 0.  0.
        -24    2    4    4    0    0 -0.47667412768E+03  0.76867368543E+02 -0.49948872408E+03  0.69930816864E+03  0.80100642276E+02 0.  0.
         24    2    4    4    0    0 -0.16584415400E+03  0.57587520140E+03 -0.54599995562E+03  0.81460706260E+03  0.79575020586E+02 0.  0.
         11    1    5    5    0    0 -0.20614801140E+03  0.54411690713E+02 -0.17197609100E+03  0.27392227103E+03  0.00000000000E+00 0. -1.
        -12    1    5    5    0    0 -0.27052611628E+03  0.22455677830E+02 -0.32751263308E+03  0.42538589761E+03  0.00000000000E+00 0.  1.
         11    1    3    3    0    0  0.42074739220E+02 -0.75095088527E+02 -0.34026483518E+02  0.92560021510E+02  0.00000000000E+00 0. -1.
        -12    1    3    3    0    0  0.60044354247E+03 -0.57764748142E+03 -0.33197932901E+03  0.89689427212E+03  0.00000000000E+00 0.  1.
          4    1    6    6  502    0 -0.11113744786E+03  0.25048560095E+03 -0.26506210275E+03  0.38125121234E+03  0.00000000000E+00 0. -1.
         -3    1    6    6    0  502 -0.54706706144E+02  0.32538960045E+03 -0.28093785287E+03  0.43335585026E+03  0.00000000000E+00 0.  1.
<mgrwt>
<rscale>  0 0.10039628E+04</rscale>
<asrwt>0</asrwt>
<pdfrwt beam="1">  1        1 0.30114338E+00 0.10039628E+04</pdfrwt>
<pdfrwt beam="2">  1       -2 0.83990388E-01 0.10039628E+04</pdfrwt>
<totfact> 0.34828217E+00</totfact>
</mgrwt>
</event>
<event>
12    3  0.2422421E-007  0.7290688E+03  0.7818608E-02  0.9668773E-01
         -2   -1    0    0    0  501 -0.00000000000E+00  0.00000000000E+00  0.14272705073E+04  0.14272705073E+04  0.00000000000E+00 0.  1.
          1   -1    0    0  501    0  0.00000000000E+00 -0.00000000000E+00 -0.39682766746E+03  0.39682766746E+03  0.00000000000E+00 0. -1.
        -24    2    1    2    0    0 -0.61926131952E+03 -0.70604657522E+02  0.32274548353E+03  0.70638938509E+03  0.79697658078E+02 0.  0.
    5000000    2    1    2    0    0  0.61926131952E+03  0.70604657522E+02  0.70769735630E+03  0.11177087897E+04  0.59997315844E+03 0.  0.
        -24    2    4    4    0    0  0.44592973128E+02  0.21186303078E+03  0.34825720169E+03  0.42052918384E+03  0.93205358599E+02 0.  0.
         24    2    4    4    0    0  0.57466834639E+03 -0.14125837326E+03  0.35944015461E+03  0.69717960582E+03  0.81636644075E+02 0.  0.
         11    1    3    3    0    0 -0.60662963697E+03 -0.60944263628E+02  0.32401913096E+03  0.69043617876E+03  0.00000000000E+00 0. -1.
        -12    1    3    3    0    0 -0.12631682552E+02 -0.96603938948E+01 -0.12736474212E+01  0.15953206325E+02  0.00000000000E+00 0.  1.
         11    1    5    5    0    0  0.38845891142E+02  0.20864137780E+02  0.76864129494E+02  0.88613824581E+02  0.00000000000E+00 0. -1.
        -12    1    5    5    0    0  0.57470819859E+01  0.19099889300E+03  0.27139307219E+03  0.33191535926E+03  0.00000000000E+00 0.  1.
          4    1    6    6  502    0  0.36222667317E+03 -0.12923565201E+03  0.23303668532E+03  0.44968445961E+03  0.00000000000E+00 0. -1.
         -3    1    6    6    0  502  0.21244167322E+03 -0.12022721249E+02  0.12640346929E+03  0.24749514621E+03  0.00000000000E+00 0.  1.
<mgrwt>
<rscale>  0 0.72906881E+03</rscale>
<asrwt>0</asrwt>
<pdfrwt beam="1">  1        1 0.61050411E-01 0.72906881E+03</pdfrwt>
<pdfrwt beam="2">  1       -2 0.21958008E+00 0.72906881E+03</pdfrwt>
<totfact> 0.54297698E+00</totfact>
</mgrwt>
</event>
<event>
12    3  0.2422421E-007  0.6977448E+03  0.7818608E-02  0.9721097E-01
          1   -1    0    0  501    0  0.00000000000E+00  0.00000000000E+00  0.19986260224E+04  0.19986260224E+04  0.00000000000E+00 0. -1.
         -2   -1    0    0    0  501 -0.00000000000E+00 -0.00000000000E+00 -0.31122483401E+03  0.31122483401E+03  0.00000000000E+00 0.  1.
        -24    2    1    2    0    0  0.40556325128E+03 -0.41164041797E+03  0.12251603045E+04  0.13570860465E+04  0.82069370316E+02 0.  0.
    5000000    2    1    2    0    0 -0.40556325128E+03  0.41164041797E+03  0.46224088395E+03  0.95276480991E+03  0.60013728739E+03 0.  0.
        -24    2    4    4    0    0  0.12543925337E+02  0.38218117495E+03  0.31613996458E+03  0.50206879587E+03  0.76868706498E+02 0.  0.
         24    2    4    4    0    0 -0.41810717662E+03  0.29459243026E+02  0.14610091937E+03  0.45069601404E+03  0.78102242545E+02 0.  0.
         11    1    3    3    0    0  0.15309407236E+03 -0.21354008644E+03  0.54908944250E+03  0.60871699449E+03  0.00000000000E+00 0. -1.
        -12    1    3    3    0    0  0.25246917892E+03 -0.19810033153E+03  0.67607086198E+03  0.74836905206E+03  0.00000000000E+00 0.  1.
         11    1    5    5    0    0  0.27617066902E+02  0.13229840251E+03  0.14845794783E+03  0.20076187876E+03  0.00000000000E+00 0. -1.
        -12    1    5    5    0    0 -0.15073141565E+02  0.24988277243E+03  0.16768201676E+03  0.30130691711E+03  0.00000000000E+00 0.  1.
          2    1    6    6  502    0 -0.79594179265E+02 -0.25103874600E+02  0.27009087432E+02  0.87720742683E+02  0.00000000000E+00 0. -1.
         -3    1    6    6    0  502 -0.33851299735E+03  0.54563117626E+02  0.11909183193E+03  0.36297527136E+03  0.00000000000E+00 0.  1.
<mgrwt>
<rscale>  0 0.69774481E+03</rscale>
<asrwt>0</asrwt>
<pdfrwt beam="1">  1        1 0.30748092E+00 0.69774481E+03</pdfrwt>
<pdfrwt beam="2">  1       -2 0.47880745E-01 0.69774481E+03</pdfrwt>
<totfact> 0.11369128E+01</totfact>
</mgrwt>
</event>
<event>
12    3  0.2422421E-007  0.8394530E+03  0.7818608E-02  0.9504603E-01
         -2   -1    0    0    0  501 -0.00000000000E+00  0.00000000000E+00  0.27389060350E+03  0.27389060350E+03  0.00000000000E+00 0.  1.
          1   -1    0    0  501    0  0.00000000000E+00 -0.00000000000E+00 -0.33588494210E+04  0.33588494210E+04  0.00000000000E+00 0. -1.
        -24    2    1    2    0    0 -0.29618759798E+03  0.71704612426E+03 -0.67704609204E+03  0.10327707481E+04  0.79635230224E+02 0.  0.
    5000000    2    1    2    0    0  0.29618759798E+03 -0.71704612426E+03 -0.24079127255E+04  0.25999692764E+04  0.59992858515E+03 0.  0.
        -24    2    4    4    0    0 -0.23701424383E+02 -0.51234560528E+03 -0.18407097433E+04  0.19123974573E+04  0.77407355829E+02 0.  0.
         24    2    4    4    0    0  0.31988902236E+03 -0.20470051898E+03 -0.56720298221E+03  0.68757181917E+03  0.82489359302E+02 0.  0.
         11    1    5    5    0    0 -0.25312043305E+02 -0.56601892423E+02 -0.18531541286E+03  0.19541309067E+03  0.00000000000E+00 0. -1.
        -12    1    5    5    0    0  0.16106189225E+01 -0.45574371286E+03 -0.16553943304E+04  0.17169843666E+04  0.00000000000E+00 0.  1.
         11    1    3    3    0    0 -0.15688431294E+03  0.43565171544E+03 -0.44635715625E+03  0.64314836216E+03  0.00000000000E+00 0. -1.
        -12    1    3    3    0    0 -0.13930328504E+03  0.28139440882E+03 -0.23068893578E+03  0.38962238595E+03  0.00000000000E+00 0.  1.
          4    1    6    6  502    0  0.21333349996E+03 -0.10326385572E+03 -0.29766732015E+03  0.38050024913E+03  0.00000000000E+00 0. -1.
         -3    1    6    6    0  502  0.10655552240E+03 -0.10143666325E+03 -0.26953566206E+03  0.30707157004E+03  0.00000000000E+00 0.  1.
<mgrwt>
<rscale>  0 0.83945301E+03</rscale>
<asrwt>0</asrwt>
<pdfrwt beam="1">  1        1 0.51674610E+00 0.83945301E+03</pdfrwt>
<pdfrwt beam="2">  1       -2 0.42137013E-01 0.83945301E+03</pdfrwt>
<totfact> 0.16023008E+00</totfact>
</mgrwt>
</event>
<event>
12    3  0.2422421E-007  0.3254797E+03  0.7818608E-02  0.1073155E+00
         -4   -1    0    0    0  501 -0.00000000000E+00  0.00000000000E+00  0.25499031735E+03  0.25499031735E+03  0.00000000000E+00 0.  1.
          3   -1    0    0  501    0  0.00000000000E+00 -0.00000000000E+00 -0.52056983532E+03  0.52056983532E+03  0.00000000000E+00 0. -1.
        -24    2    1    2    0    0 -0.82541360241E+02  0.87416343589E+00 -0.89758273037E+02  0.14487515399E+03  0.78220344884E+02 0.  0.
    5000000    2    1    2    0    0  0.82541360241E+02 -0.87416343589E+00 -0.17582124494E+03  0.63068499868E+03  0.60003051345E+03 0.  0.
        -24    2    4    4    0    0 -0.21816859660E+03 -0.99205833206E+02  0.94943086507E+01  0.25388008798E+03  0.83220329799E+02 0.  0.
         24    2    4    4    0    0  0.30070995684E+03  0.98331669770E+02 -0.18531555359E+03  0.37680491070E+03  0.86859028914E+02 0.  0.
         11    1    5    5    0    0 -0.30254713650E+02 -0.18421440445E+02 -0.28960632906E+02  0.45753856935E+02  0.00000000000E+00 0. -1.
        -12    1    5    5    0    0 -0.18791388295E+03 -0.80784392761E+02  0.38454941557E+02  0.20812623104E+03  0.00000000000E+00 0.  1.
         13    1    3    3    0    0 -0.32718486614E+02 -0.21834562564E+02 -0.80153453337E+02  0.89285069135E+02  0.00000000000E+00 0. -1.
        -14    1    3    3    0    0 -0.49822873627E+02  0.22708726000E+02 -0.96048197001E+01  0.55590084857E+02  0.00000000000E+00 0.  1.
          2    1    6    6  502    0  0.81876706092E+02  0.18297914683E+02 -0.95415958818E+02  0.12705437371E+03  0.00000000000E+00 0. -1.
         -1    1    6    6    0  502  0.21883325075E+03  0.80033755087E+02 -0.89899594771E+02  0.24975053699E+03  0.00000000000E+00 0.  1.
<mgrwt>
<rscale>  0 0.32547971E+03</rscale>
<asrwt>0</asrwt>
<pdfrwt beam="1">  1        3 0.80087667E-01 0.32547971E+03</pdfrwt>
<pdfrwt beam="2">  1       -4 0.39229280E-01 0.32547971E+03</pdfrwt>
<totfact> 0.20284831E+01</totfact>
</mgrwt>
</event>
<event>
12    3  0.3163215E-007  0.1489501E+04  0.7818608E-02  0.8891465E-01
         -2   -1    0    0    0  501 -0.00000000000E+00  0.00000000000E+00  0.12085203282E+04  0.12085203282E+04  0.00000000000E+00 0.  1.
          1   -1    0    0  501    0  0.00000000000E+00 -0.00000000000E+00 -0.19722597244E+04  0.19722597244E+04  0.00000000000E+00 0. -1.
        -24    2    1    2    0    0 -0.13480395205E+04 -0.49387018469E+03  0.20997932899E+02  0.14379968315E+04  0.79219100225E+02 0.  0.
    5000000    2    1    2    0    0  0.13480395205E+04  0.49387018469E+03 -0.78473732914E+03  0.17427832212E+04  0.60030190071E+03 0.  0.
        -24    2    4    4    0    0  0.11720753563E+04  0.60204271633E+03 -0.58381439398E+03  0.14434090805E+04  0.79840176568E+02 0.  0.
         24    2    4    4    0    0  0.17596416425E+03 -0.10817253164E+03 -0.20092293516E+03  0.29937414072E+03  0.81179840844E+02 0.  0.
         11    1    3    3    0    0 -0.56108379720E+03 -0.24465503403E+03 -0.47240148695E+01  0.61212207073E+03  0.00000000000E+00 0. -1.
        -12    1    3    3    0    0 -0.78695572335E+03 -0.24921515066E+03  0.25721947768E+02  0.82587476074E+03  0.00000000000E+00 0.  1.
         13    1    5    5    0    0  0.51920780610E+03  0.30882463991E+03 -0.25266108411E+03  0.65481831645E+03  0.00000000000E+00 0. -1.
        -14    1    5    5    0    0  0.65286755020E+03  0.29321807642E+03 -0.33115330986E+03  0.78859076400E+03  0.00000000000E+00 0.  1.
          2    1    6    6  502    0  0.18826041804E+02 -0.51074650723E+02 -0.56308063468E+02  0.78317544701E+02  0.00000000000E+00 0. -1.
         -1    1    6    6    0  502  0.15713812244E+03 -0.57097880915E+02 -0.14461487169E+03  0.22105659602E+03  0.00000000000E+00 0.  1.
<mgrwt>
<rscale>  0 0.14895014E+04</rscale>
<asrwt>0</asrwt>
<pdfrwt beam="1">  1        1 0.30342457E+00 0.14895014E+04</pdfrwt>
<pdfrwt beam="2">  1       -2 0.18592620E+00 0.14895014E+04</pdfrwt>
<totfact> 0.42542624E-01</totfact>
</mgrwt>
</event>
<event>
12    3  0.2422421E-007  0.4458137E+03  0.7818608E-02  0.1028978E+00
         -2   -1    0    0    0  501 -0.00000000000E+00  0.00000000000E+00  0.87855749439E+03  0.87855749439E+03  0.00000000000E+00 0.  1.
          1   -1    0    0  501    0  0.00000000000E+00 -0.00000000000E+00 -0.41485194286E+03  0.41485194286E+03  0.00000000000E+00 0. -1.
        -24    2    1    2    0    0  0.23721312438E+03  0.13233280988E+03  0.56036067517E+03  0.62787540806E+03  0.80258350456E+02 0.  0.
    5000000    2    1    2    0    0 -0.23721312438E+03 -0.13233280988E+03 -0.96655123637E+02  0.66553402919E+03  0.59984272283E+03 0.  0.
        -24    2    4    4    0    0  0.10217917362E+03  0.13289480114E+03 -0.12862991916E+03  0.22626819275E+03  0.80932238672E+02 0.  0.
         24    2    4    4    0    0 -0.33939229800E+03 -0.26522761102E+03  0.31974795523E+02  0.43926583643E+03  0.79995436881E+02 0.  0.
         13    1    5    5    0    0  0.42983195203E+02  0.10321551170E+03 -0.47331205794E+02  0.12141350818E+03  0.00000000000E+00 0. -1.
        -14    1    5    5    0    0  0.59195978417E+02  0.29679289437E+02 -0.81298713366E+02  0.10485468457E+03  0.00000000000E+00 0.  1.
         13    1    3    3    0    0  0.22754026566E+03  0.10093244084E+03  0.47223223572E+03  0.53382133206E+03  0.00000000000E+00 0. -1.
        -14    1    3    3    0    0  0.96728587203E+01  0.31400369043E+02  0.88128439446E+02  0.94054075994E+02  0.00000000000E+00 0.  1.
          4    1    6    6  502    0 -0.17661957511E+02 -0.23519334780E+02  0.22004716157E+02  0.36732974080E+02  0.00000000000E+00 0. -1.
         -3    1    6    6    0  502 -0.32173034048E+03 -0.24170827624E+03  0.99700793662E+01  0.40253286235E+03  0.00000000000E+00 0.  1.
<mgrwt>
<rscale>  0 0.44581370E+03</rscale>
<asrwt>0</asrwt>
<pdfrwt beam="1">  1        1 0.63823376E-01 0.44581370E+03</pdfrwt>
<pdfrwt beam="2">  1       -2 0.13516269E+00 0.44581370E+03</pdfrwt>
<totfact> 0.20649604E+01</totfact>
</mgrwt>
</event>
<event>
12    3  0.2422421E-007  0.3981795E+03  0.7818608E-02  0.1044412E+00
         -2   -1    0    0    0  501 -0.00000000000E+00  0.00000000000E+00  0.81136183973E+03  0.81136183973E+03  0.00000000000E+00 0.  1.
          1   -1    0    0  501    0  0.00000000000E+00 -0.00000000000E+00 -0.48757396647E+03  0.48757396647E+03  0.00000000000E+00 0. -1.
        -24    2    1    2    0    0 -0.35264509308E+03  0.15528103794E+03 -0.17320665790E+03  0.42973719685E+03  0.78757536807E+02 0.  0.
    5000000    2    1    2    0    0  0.35264509308E+03 -0.15528103794E+03  0.49699453116E+03  0.86919860935E+03  0.60002657948E+03 0.  0.
        -24    2    4    4    0    0  0.12002368333E+03 -0.38195331317E+02 -0.12253139473E+03  0.19230274253E+03  0.78114238108E+02 0.  0.
         24    2    4    4    0    0  0.23262140975E+03 -0.11708570662E+03  0.61952592589E+03  0.67689586682E+03  0.80955905903E+02 0.  0.
         11    1    5    5    0    0 -0.64666919904E+01 -0.36916534098E+01 -0.32288169563E+02  0.33135665134E+02  0.00000000000E+00 0. -1.
        -12    1    5    5    0    0  0.12649037532E+03 -0.34503677907E+02 -0.90243225168E+02  0.15916707739E+03  0.00000000000E+00 0.  1.
         13    1    3    3    0    0 -0.10448545978E+03  0.35961519321E+02 -0.88727345744E+02  0.14171444549E+03  0.00000000000E+00 0. -1.
        -14    1    3    3    0    0 -0.24815963330E+03  0.11931951862E+03 -0.84479312157E+02  0.28802275137E+03  0.00000000000E+00 0.  1.
          2    1    6    6  502    0  0.29686209864E+02 -0.50110058338E+02  0.11275548924E+03  0.12690976856E+03  0.00000000000E+00 0. -1.
         -1    1    6    6    0  502  0.20293519988E+03 -0.66975648284E+02  0.50677043666E+03  0.54998609826E+03  0.00000000000E+00 0.  1.
<mgrwt>
<rscale>  0 0.39817951E+03</rscale>
<asrwt>0</asrwt>
<pdfrwt beam="1">  1        1 0.75011379E-01 0.39817951E+03</pdfrwt>
<pdfrwt beam="2">  1       -2 0.12482490E+00 0.39817951E+03</pdfrwt>
<totfact> 0.20482006E+01</totfact>
</mgrwt>
</event>
<event>
12    3  0.2422421E-007  0.3767651E+03  0.7818608E-02  0.1052136E+00
         -4   -1    0    0    0  501 -0.00000000000E+00  0.00000000000E+00  0.94671338046E+03  0.94671338046E+03  0.00000000000E+00 0.  1.
          3   -1    0    0  501    0  0.00000000000E+00 -0.00000000000E+00 -0.36090086646E+03  0.36090086646E+03  0.00000000000E+00 0. -1.
        -24    2    1    2    0    0 -0.16515580404E+03  0.30963333187E+03 -0.53285648722E+02  0.36341827575E+03  0.78001557507E+02 0.  0.
    5000000    2    1    2    0    0  0.16515580404E+03 -0.30963333187E+03  0.63909816272E+03  0.94419597117E+03  0.59992527082E+03 0.  0.
        -24    2    4    4    0    0  0.23853012381E+02 -0.16522385019E+03 -0.73866897392E+02  0.19885324693E+03  0.78856885638E+02 0.  0.
         24    2    4    4    0    0  0.14130279166E+03 -0.14440948169E+03  0.71296506011E+03  0.74534272424E+03  0.79975135583E+02 0.  0.
         13    1    5    5    0    0  0.49307500610E+02 -0.13964071896E+03 -0.53798983375E+02  0.15755980014E+03  0.00000000000E+00 0. -1.
        -14    1    5    5    0    0 -0.25454488229E+02 -0.25583131224E+02 -0.20067914017E+02  0.41293446783E+02  0.00000000000E+00 0.  1.
         13    1    3    3    0    0 -0.75391807717E+02  0.78576018658E+02 -0.36974770542E+02  0.11500108276E+03  0.00000000000E+00 0. -1.
        -14    1    3    3    0    0 -0.89763996321E+02  0.23105731322E+03 -0.16310878180E+02  0.24841719299E+03  0.00000000000E+00 0.  1.
          2    1    6    6  502    0  0.11088351667E+03 -0.14451748970E+03  0.54471223177E+03  0.57436214581E+03  0.00000000000E+00 0. -1.
         -1    1    6    6    0  502  0.30419274982E+02  0.10800801781E+00  0.16825282834E+03  0.17098057843E+03  0.00000000000E+00 0.  1.
<mgrwt>
<rscale>  0 0.37676508E+03</rscale>
<asrwt>0</asrwt>
<pdfrwt beam="1">  1        3 0.55523211E-01 0.37676508E+03</pdfrwt>
<pdfrwt beam="2">  1       -4 0.14564821E+00 0.37676508E+03</pdfrwt>
<totfact> 0.23296769E+00</totfact>
</mgrwt>
</event>
<event>
12    3  0.2422421E-007  0.1125185E+04  0.7818608E-02  0.9180987E-01
         -2   -1    0    0    0  501 -0.00000000000E+00  0.00000000000E+00  0.12714131741E+04  0.12714131741E+04  0.00000000000E+00 0.  1.
          1   -1    0    0  501    0  0.00000000000E+00 -0.00000000000E+00 -0.30879001894E+04  0.30879001894E+04  0.00000000000E+00 0. -1.
        -24    2    1    2    0    0 -0.10491146928E+04 -0.72461235977E+02 -0.26748008170E+04  0.28751582761E+04  0.77996362277E+02 0.  0.
    5000000    2    1    2    0    0  0.10491146928E+04  0.72461235977E+02  0.85831380167E+03  0.14841550875E+04  0.60010121824E+03 0.  0.
        -24    2    4    4    0    0  0.67319625825E+03 -0.22469864714E+03  0.41364237882E+03  0.82543537071E+03  0.80999071027E+02 0.  0.
         24    2    4    4    0    0  0.37591843460E+03  0.29715988312E+03  0.44467142285E+03  0.65871971679E+03  0.80995835577E+02 0.  0.
         11    1    5    5    0    0  0.42173095367E+03 -0.18128062546E+03  0.27194601531E+03  0.53354877724E+03  0.00000000000E+00 0. -1.
        -12    1    5    5    0    0  0.25146530458E+03 -0.43418021690E+02  0.14169636351E+03  0.29188659347E+03  0.00000000000E+00 0.  1.
         13    1    3    3    0    0 -0.15708776860E+03 -0.21688652047E+02 -0.33722855254E+03  0.37265273556E+03  0.00000000000E+00 0. -1.
        -14    1    3    3    0    0 -0.89202692425E+03 -0.50772583930E+02 -0.23375722644E+04  0.25025055405E+04  0.00000000000E+00 0.  1.
          2    1    6    6  502    0  0.25510408023E+02  0.47250802240E+02  0.32335539564E+02  0.62681786419E+02  0.00000000000E+00 0. -1.
         -1    1    6    6    0  502  0.35040802658E+03  0.24990908088E+03  0.41233588328E+03  0.59603793037E+03  0.00000000000E+00 0.  1.
<mgrwt>
<rscale>  0 0.11251849E+04</rscale>
<asrwt>0</asrwt>
<pdfrwt beam="1">  1        1 0.47506156E+00 0.11251849E+04</pdfrwt>
<pdfrwt beam="2">  1       -2 0.19560203E+00 0.11251849E+04</pdfrwt>
<totfact> 0.64217418E-02</totfact>
</mgrwt>
</event>
<event>
12    3  0.2422421E-007  0.2351908E+03  0.7818608E-02  0.1123039E+00
          3   -1    0    0  501    0  0.00000000000E+00  0.00000000000E+00  0.70538761263E+03  0.70538761263E+03  0.00000000000E+00 0. -1.
         -4   -1    0    0    0  501 -0.00000000000E+00 -0.00000000000E+00 -0.21314421627E+03  0.21314421627E+03  0.00000000000E+00 0.  1.
        -24    2    1    2    0    0 -0.54078539931E+02 -0.10155077668E+03  0.19278073229E+03  0.23817755400E+03  0.79542993144E+02 0.  0.
    5000000    2    1    2    0    0  0.54078539931E+02  0.10155077668E+03  0.29946266406E+03  0.68035427490E+03  0.59997250227E+03 0.  0.
        -24    2    4    4    0    0  0.18333678069E+03  0.69396756261E+02  0.43069489076E+03  0.48005141910E+03  0.80765036494E+02 0.  0.
         24    2    4    4    0    0 -0.12925824076E+03  0.32154020421E+02 -0.13123222670E+03  0.20030285580E+03  0.71817566665E+02 0.  0.
         11    1    5    5    0    0  0.88142941233E+02  0.23931949964E+01  0.12524334196E+03  0.15316918808E+03  0.00000000000E+00 0. -1.
        -12    1    5    5    0    0  0.95193839459E+02  0.67003561265E+02  0.30545154881E+03  0.32688223103E+03  0.00000000000E+00 0.  1.
         11    1    3    3    0    0 -0.16852577209E+02 -0.85680819183E+02  0.17151033865E+03  0.19246040735E+03  0.00000000000E+00 0. -1.
        -12    1    3    3    0    0 -0.37225962723E+02 -0.15869957499E+02  0.21270393647E+02  0.45717146647E+02  0.00000000000E+00 0.  1.
          2    1    6    6  502    0 -0.44660309624E+02 -0.62563529731E+01 -0.77282047927E+01  0.45753801564E+02  0.00000000000E+00 0. -1.
         -1    1    6    6    0  502 -0.84597931137E+02  0.38410373394E+02 -0.12350402191E+03  0.15454905423E+03  0.00000000000E+00 0.  1.
<mgrwt>
<rscale>  0 0.23519080E+03</rscale>
<asrwt>0</asrwt>
<pdfrwt beam="1">  1        3 0.10852117E+00 0.23519080E+03</pdfrwt>
<pdfrwt beam="2">  1       -4 0.32791418E-01 0.23519080E+03</pdfrwt>
<totfact> 0.14185239E+01</totfact>
</mgrwt>
</event>
<event>
12    3  0.2422421E-007  0.1742281E+04  0.7818608E-02  0.8737611E-01
         -2   -1    0    0    0  501 -0.00000000000E+00  0.00000000000E+00  0.22631436015E+04  0.22631436015E+04  0.00000000000E+00 0.  1.
          1   -1    0    0  501    0  0.00000000000E+00 -0.00000000000E+00 -0.14055784634E+04  0.14055784634E+04  0.00000000000E+00 0. -1.
        -24    2    1    2    0    0 -0.99783189521E+03  0.13987214119E+04  0.19092328080E+03  0.17304998287E+04  0.78024858442E+02 0.  0.
    5000000    2    1    2    0    0  0.99783189521E+03 -0.13987214119E+04  0.66664185732E+03  0.19382222362E+04  0.60016996906E+03 0.  0.
        -24    2    4    4    0    0  0.44681099516E+03 -0.32769190188E+03  0.43514321373E+03  0.70912907457E+03  0.80575306317E+02 0.  0.
         24    2    4    4    0    0  0.55102090005E+03 -0.10710295101E+04  0.23149864359E+03  0.12290931617E+04  0.79687730228E+02 0.  0.
         13    1    5    5    0    0  0.41915504503E+03 -0.32802781555E+03  0.41260633307E+03  0.67345169511E+03  0.00000000000E+00 0. -1.
        -14    1    5    5    0    0  0.27655950129E+02  0.33591366830E+00  0.22536880661E+02  0.35677379464E+02  0.00000000000E+00 0.  1.
         13    1    3    3    0    0 -0.73595335183E+03  0.10787700973E+04  0.12583090149E+03  0.13119472835E+04  0.00000000000E+00 0. -1.
        -14    1    3    3    0    0 -0.26187854337E+03  0.31995131463E+03  0.65092379315E+02  0.41855254516E+03  0.00000000000E+00 0.  1.
          2    1    6    6  502    0  0.42481319467E+03 -0.86483025390E+03  0.21177747355E+03  0.98653297803E+03  0.00000000000E+00 0. -1.
         -1    1    6    6    0  502  0.12620770538E+03 -0.20619925615E+03  0.19721170034E+02  0.24256018362E+03  0.00000000000E+00 0.  1.
<mgrwt>
<rscale>  0 0.17422805E+04</rscale>
<asrwt>0</asrwt>
<pdfrwt beam="1">  1        1 0.21624284E+00 0.17422805E+04</pdfrwt>
<pdfrwt beam="2">  1       -2 0.34817594E+00 0.17422805E+04</pdfrwt>
<totfact> 0.98108072E-02</totfact>
</mgrwt>
</event>
<event>
12    3  0.2422421E-007  0.7789408E+03  0.7818608E-02  0.9591010E-01
          1   -1    0    0  501    0  0.00000000000E+00  0.00000000000E+00  0.25893095231E+04  0.25893095231E+04  0.00000000000E+00 0. -1.
         -2   -1    0    0    0  501 -0.00000000000E+00 -0.00000000000E+00 -0.29766221383E+03  0.29766221383E+03  0.00000000000E+00 0.  1.
        -24    2    1    2    0    0  0.39234132826E+03  0.66615071061E+03  0.10242804236E+04  0.12857643052E+04  0.79693005887E+02 0.  0.
    5000000    2    1    2    0    0 -0.39234132826E+03 -0.66615071061E+03  0.12673668857E+04  0.16012074317E+04  0.59996494020E+03 0.  0.
        -24    2    4    4    0    0 -0.17098174884E+03 -0.17577982585E+03  0.91635865565E+03  0.95412486432E+03  0.10250739149E+03 0.  0.
         24    2    4    4    0    0 -0.22135957942E+03 -0.49037088476E+03  0.35100823002E+03  0.64708256743E+03  0.77752192943E+02 0.  0.
         11    1    5    5    0    0 -0.15857857890E+03 -0.15477420447E+03  0.89393730346E+03  0.92099192318E+03  0.00000000000E+00 0. -1.
        -12    1    5    5    0    0 -0.12403169942E+02 -0.21005621378E+02  0.22421352195E+02  0.33132941136E+02  0.00000000000E+00 0.  1.
         11    1    3    3    0    0  0.10860570321E+03  0.16390690105E+03  0.20794097556E+03  0.28618197060E+03  0.00000000000E+00 0. -1.
        -12    1    3    3    0    0  0.28373562505E+03  0.50224380955E+03  0.81633944802E+03  0.99958233455E+03  0.00000000000E+00 0.  1.
          4    1    6    6  502    0 -0.11978958652E+03 -0.23993678763E+03  0.13027377862E+03  0.29814503936E+03  0.00000000000E+00 0. -1.
         -3    1    6    6    0  502 -0.10156999290E+03 -0.25043409713E+03  0.22073445140E+03  0.34893752807E+03  0.00000000000E+00 0.  1.
<mgrwt>
<rscale>  0 0.77894078E+03</rscale>
<asrwt>0</asrwt>
<pdfrwt beam="1">  1        1 0.39835530E+00 0.77894078E+03</pdfrwt>
<pdfrwt beam="2">  1       -2 0.45794189E-01 0.77894078E+03</pdfrwt>
<totfact> 0.48996094E+00</totfact>
</mgrwt>
</event>
<event>
12    3  0.2422421E-007  0.9161228E+03  0.7818608E-02  0.9405649E-01
          1   -1    0    0  501    0  0.00000000000E+00  0.00000000000E+00  0.15599346966E+04  0.15599346966E+04  0.00000000000E+00 0. -1.
         -2   -1    0    0    0  501 -0.00000000000E+00 -0.00000000000E+00 -0.79601658962E+03  0.79601658962E+03  0.00000000000E+00 0.  1.
        -24    2    1    2    0    0  0.74569446549E+03  0.48941352695E+03  0.90328854486E+03  0.12719791260E+04  0.80092855709E+02 0.  0.
    5000000    2    1    2    0    0 -0.74569446549E+03 -0.48941352695E+03 -0.13937043787E+03  0.10839721602E+04  0.59998807400E+03 0.  0.
        -24    2    4    4    0    0 -0.45896750416E+03 -0.14393758627E+03  0.18833172622E+03  0.52261784415E+03  0.79318177690E+02 0.  0.
         24    2    4    4    0    0 -0.28672696133E+03 -0.34547594068E+03 -0.32770216409E+03  0.56135431606E+03  0.78511042990E+02 0.  0.
         11    1    3    3    0    0  0.11582365070E+03  0.11178468314E+03  0.17224552601E+03  0.23575295263E+03  0.00000000000E+00 0. -1.
        -12    1    3    3    0    0  0.62987081479E+03  0.37762884381E+03  0.73104301885E+03  0.10362261734E+04  0.00000000000E+00 0.  1.
         13    1    5    5    0    0 -0.13321514055E+03 -0.80381024706E+02  0.57766633782E+02  0.16596495649E+03  0.00000000000E+00 0. -1.
        -14    1    5    5    0    0 -0.32575236361E+03 -0.63556561563E+02  0.13056509244E+03  0.35665288767E+03  0.00000000000E+00 0.  1.
          2    1    6    6  502    0 -0.10868914684E+03 -0.14616988020E+03 -0.17965301769E+03  0.25584012837E+03  0.00000000000E+00 0. -1.
         -1    1    6    6    0  502 -0.17803781449E+03 -0.19930606048E+03 -0.14804914640E+03  0.30551418770E+03  0.00000000000E+00 0.  1.
<mgrwt>
<rscale>  0 0.91612283E+03</rscale>
<asrwt>0</asrwt>
<pdfrwt beam="1">  1        1 0.23998995E+00 0.91612283E+03</pdfrwt>
<pdfrwt beam="2">  1       -2 0.12246409E+00 0.91612283E+03</pdfrwt>
<totfact> 0.26604647E+00</totfact>
</mgrwt>
</event>
<event>
12    3  0.2422421E-007  0.2156530E+04  0.7818608E-02  0.8536742E-01
          1   -1    0    0  501    0  0.00000000000E+00  0.00000000000E+00  0.30312650969E+04  0.30312650969E+04  0.00000000000E+00 0. -1.
         -2   -1    0    0    0  501 -0.00000000000E+00 -0.00000000000E+00 -0.15507801547E+04  0.15507801547E+04  0.00000000000E+00 0.  1.
        -24    2    1    2    0    0 -0.13244245934E+04  0.16505212682E+04  0.51220286007E+03  0.21787409186E+04  0.78988988833E+02 0.  0.
    5000000    2    1    2    0    0  0.13244245934E+04 -0.16505212682E+04  0.96828208210E+03  0.24033043330E+04  0.59998380500E+03 0.  0.
        -24    2    4    4    0    0  0.15008211281E+03 -0.58967388800E+03  0.30826446586E+03  0.68668117483E+03  0.79146194996E+02 0.  0.
         24    2    4    4    0    0  0.11743424806E+04 -0.10608473802E+04  0.66001761624E+03  0.17166231582E+04  0.81819238091E+02 0.  0.
         11    1    5    5    0    0  0.10794586167E+03 -0.28201616986E+03  0.17253543944E+03  0.34778428225E+03  0.00000000000E+00 0. -1.
        -12    1    5    5    0    0  0.42136251137E+02 -0.30765771814E+03  0.13572902642E+03  0.33889689258E+03  0.00000000000E+00 0.  1.
         13    1    3    3    0    0 -0.10600207128E+04  0.12981371865E+04  0.37589188023E+03  0.17175851572E+04  0.00000000000E+00 0. -1.
        -14    1    3    3    0    0 -0.26440388054E+03  0.35238408167E+03  0.13631097984E+03  0.46115576141E+03  0.00000000000E+00 0.  1.
          4    1    6    6  502    0  0.11565222270E+04 -0.10312940541E+04  0.65235281941E+03  0.16812719258E+04  0.00000000000E+00 0. -1.
         -3    1    6    6    0  502  0.17820253611E+02 -0.29553326021E+02  0.76647968306E+01  0.35351232342E+02  0.00000000000E+00 0.  1.
<mgrwt>
<rscale>  0 0.21565298E+04</rscale>
<asrwt>0</asrwt>
<pdfrwt beam="1">  1        1 0.46634848E+00 0.21565298E+04</pdfrwt>
<pdfrwt beam="2">  1       -2 0.23858156E+00 0.21565298E+04</pdfrwt>
<totfact> 0.32914351E-02</totfact>
</mgrwt>
</event>
<event>
12    3  0.2422421E-007  0.1314865E+04  0.7818608E-02  0.9017860E-01
          1   -1    0    0  501    0  0.00000000000E+00  0.00000000000E+00  0.24594144646E+04  0.24594144646E+04  0.00000000000E+00 0. -1.
         -2   -1    0    0    0  501 -0.00000000000E+00 -0.00000000000E+00 -0.74589437948E+03  0.74589437948E+03  0.00000000000E+00 0.  1.
        -24    2    1    2    0    0  0.28163801950E+03 -0.12197259312E+04  0.46306969863E+03  0.13371487506E+04  0.80510335289E+02 0.  0.
    5000000    2    1    2    0    0 -0.28163801950E+03  0.12197259312E+04  0.12504503865E+04  0.18681600935E+04  0.59945362175E+03 0.  0.
        -24    2    4    4    0    0  0.16465256344E+03  0.26577030612E+03  0.38929054579E+03  0.50586323131E+03  0.81278271916E+02 0.  0.
         24    2    4    4    0    0 -0.44629058294E+03  0.95395562507E+03  0.86115984067E+03  0.13622968622E+04  0.71062299927E+02 0.  0.
         13    1    3    3    0    0  0.21156289999E+03 -0.10403157367E+04  0.38361132875E+03  0.11287928704E+04  0.00000000000E+00 0. -1.
        -14    1    3    3    0    0  0.70075119512E+02 -0.17941019451E+03  0.79458369875E+02  0.20835588019E+03  0.00000000000E+00 0.  1.
         13    1    5    5    0    0  0.23068303410E+02  0.98811129831E+02  0.15461136284E+03  0.18493366248E+03  0.00000000000E+00 0. -1.
        -14    1    5    5    0    0  0.14158426003E+03  0.16695917629E+03  0.23467918296E+03  0.32092956883E+03  0.00000000000E+00 0.  1.
          2    1    6    6  502    0 -0.24272635217E+03  0.59259340982E+03  0.50310281572E+03  0.81436814438E+03  0.00000000000E+00 0. -1.
         -1    1    6    6    0  502 -0.20356423078E+03  0.36136221525E+03  0.35805702495E+03  0.54792871779E+03  0.00000000000E+00 0.  1.
<mgrwt>
<rscale>  0 0.13148646E+04</rscale>
<asrwt>0</asrwt>
<pdfrwt beam="1">  1        1 0.37837145E+00 0.13148646E+04</pdfrwt>
<pdfrwt beam="2">  1       -2 0.11475298E+00 0.13148646E+04</pdfrwt>
<totfact> 0.73006673E-01</totfact>
</mgrwt>
</event>
<event>
12    3  0.2422421E-007  0.1028203E+04  0.7818608E-02  0.9278142E-01
         -2   -1    0    0    0  501 -0.00000000000E+00  0.00000000000E+00  0.73689700720E+03  0.73689700720E+03  0.00000000000E+00 0.  1.
          1   -1    0    0  501    0  0.00000000000E+00 -0.00000000000E+00 -0.15954589163E+04  0.15954589163E+04  0.00000000000E+00 0. -1.
        -24    2    1    2    0    0 -0.81567290905E+03  0.53312132679E+03 -0.63631327359E+03  0.11666357112E+04  0.81262886909E+02 0.  0.
    5000000    2    1    2    0    0  0.81567290905E+03 -0.53312132679E+03 -0.22224863553E+03  0.11657202124E+04  0.59997376098E+03 0.  0.
        -24    2    4    4    0    0  0.18109658434E+03 -0.38396353482E+03 -0.26640607157E+03  0.50743137351E+03  0.79312262123E+02 0.  0.
         24    2    4    4    0    0  0.63457632471E+03 -0.14915779197E+03  0.44157436036E+02  0.65828883885E+03  0.80368883335E+02 0.  0.
         11    1    3    3    0    0 -0.45153062408E+03  0.32243432369E+03 -0.32218257240E+03  0.64159598466E+03  0.00000000000E+00 0. -1.
        -12    1    3    3    0    0 -0.36414228498E+03  0.21068700309E+03 -0.31413070120E+03  0.52503972651E+03  0.00000000000E+00 0.  1.
         11    1    5    5    0    0  0.70731774583E+02 -0.11985416322E+03 -0.12963462961E+03  0.19019238043E+03  0.00000000000E+00 0. -1.
        -12    1    5    5    0    0  0.11036480976E+03 -0.26410937159E+03 -0.13677144195E+03  0.31723899308E+03  0.00000000000E+00 0.  1.
          2    1    6    6  502    0  0.16900524018E+03 -0.89823442980E+01 -0.70062815171E+01  0.16938872955E+03  0.00000000000E+00 0. -1.
         -1    1    6    6    0  502  0.46557108453E+03 -0.14017544767E+03  0.51163717553E+02  0.48890010930E+03  0.00000000000E+00 0.  1.
<mgrwt>
<rscale>  0 0.10282033E+04</rscale>
<asrwt>0</asrwt>
<pdfrwt beam="1">  1        1 0.24545522E+00 0.10282033E+04</pdfrwt>
<pdfrwt beam="2">  1       -2 0.11336877E+00 0.10282033E+04</pdfrwt>
<totfact> 0.30030342E+00</totfact>
</mgrwt>
</event>
<event>
12    3  0.2422421E-007  0.2322064E+04  0.7818608E-02  0.8469272E-01
          1   -1    0    0  501    0  0.00000000000E+00  0.00000000000E+00  0.29657784226E+04  0.29657784226E+04  0.00000000000E+00 0. -1.
         -2   -1    0    0    0  501 -0.00000000000E+00 -0.00000000000E+00 -0.20604033477E+04  0.20604033477E+04  0.00000000000E+00 0.  1.
        -24    2    1    2    0    0 -0.12019759853E+04 -0.19489407964E+04 -0.39567576601E+03  0.23251304323E+04  0.80967389855E+02 0.  0.
    5000000    2    1    2    0    0  0.12019759853E+04  0.19489407964E+04  0.13010508409E+04  0.27010513381E+04  0.59985710216E+03 0.  0.
        -24    2    4    4    0    0  0.17982892129E+03  0.76398453697E+03  0.31404789799E+03  0.84920725810E+03  0.80722186067E+02 0.  0.
         24    2    4    4    0    0  0.10221470640E+04  0.11849562594E+04  0.98700294294E+03  0.18518440799E+04  0.79029930006E+02 0.  0.
         13    1    3    3    0    0 -0.50458203784E+03 -0.89458668924E+03 -0.18082198884E+03  0.10428734195E+04  0.00000000000E+00 0. -1.
        -14    1    3    3    0    0 -0.69739394749E+03 -0.10543541071E+04 -0.21485377717E+03  0.12822570128E+04  0.00000000000E+00 0.  1.
         13    1    5    5    0    0  0.13297743675E+03  0.63607607031E+03  0.28673708270E+03  0.71027735463E+03  0.00000000000E+00 0. -1.
        -14    1    5    5    0    0  0.46851484542E+02  0.12790846666E+03  0.27310815282E+02  0.13892990347E+03  0.00000000000E+00 0.  1.
          2    1    6    6  502    0  0.57857042148E+03  0.72988196728E+03  0.59089381710E+03  0.11030081241E+04  0.00000000000E+00 0. -1.
         -3    1    6    6    0  502  0.44357664256E+03  0.45507429213E+03  0.39610912583E+03  0.74883595583E+03  0.00000000000E+00 0.  1.
<mgrwt>
<rscale>  0 0.23220642E+04</rscale>
<asrwt>0</asrwt>
<pdfrwt beam="1">  1        1 0.45627361E+00 0.23220642E+04</pdfrwt>
<pdfrwt beam="2">  1       -2 0.31698513E+00 0.23220642E+04</pdfrwt>
<totfact> 0.11862177E-02</totfact>
</mgrwt>
</event>
<event>
12    3  0.2422421E-007  0.6873850E+03  0.7818608E-02  0.9739052E-01
          1   -1    0    0  501    0  0.00000000000E+00  0.00000000000E+00  0.14718086153E+04  0.14718086153E+04  0.00000000000E+00 0. -1.
         -2   -1    0    0    0  501 -0.00000000000E+00 -0.00000000000E+00 -0.81635231501E+03  0.81635231501E+03  0.00000000000E+00 0.  1.
        -24    2    1    2    0    0 -0.62487566400E+02  0.66886321392E+03 -0.48693185324E+03  0.83342269578E+03  0.78791276477E+02 0.  0.
    5000000    2    1    2    0    0  0.62487566400E+02 -0.66886321392E+03  0.11423881535E+04  0.14547382345E+04  0.59994161611E+03 0.  0.
        -24    2    4    4    0    0  0.12551872337E+03 -0.54448154732E+03  0.39179547626E+03  0.68741371894E+03  0.82576149579E+02 0.  0.
         24    2    4    4    0    0 -0.63031156972E+02 -0.12438166660E+03  0.75059267724E+03  0.76732451555E+03  0.77160995989E+02 0.  0.
         13    1    5    5    0    0  0.61710658371E+01 -0.10313610194E+03  0.10714219929E+03  0.14884417505E+03  0.00000000000E+00 0. -1.
        -14    1    5    5    0    0  0.11934765753E+03 -0.44134544538E+03  0.28465327696E+03  0.53856954389E+03  0.00000000000E+00 0.  1.
         13    1    3    3    0    0 -0.55132939595E+02  0.37825047964E+03 -0.31776192505E+03  0.49707716442E+03  0.00000000000E+00 0. -1.
        -14    1    3    3    0    0 -0.73546268048E+01  0.29061273428E+03 -0.16916992819E+03  0.33634553136E+03  0.00000000000E+00 0.  1.
          2    1    6    6  502    0 -0.14261343213E+02 -0.11459615766E+02  0.29043260373E+03  0.29100825764E+03  0.00000000000E+00 0. -1.
         -1    1    6    6    0  502 -0.48769813759E+02 -0.11292205084E+03  0.46016007350E+03  0.47631625791E+03  0.00000000000E+00 0.  1.
<mgrwt>
<rscale>  0 0.68738500E+03</rscale>
<asrwt>0</asrwt>
<pdfrwt beam="1">  1        1 0.22643209E+00 0.68738500E+03</pdfrwt>
<pdfrwt beam="2">  1       -2 0.12559266E+00 0.68738500E+03</pdfrwt>
<totfact> 0.29701872E+00</totfact>
</mgrwt>
</event>
<event>
12    3  0.2422421E-007  0.1034163E+04  0.7818608E-02  0.9271849E-01
         -2   -1    0    0    0  501 -0.00000000000E+00  0.00000000000E+00  0.15452304349E+04  0.15452304349E+04  0.00000000000E+00 0.  1.
          1   -1    0    0  501    0  0.00000000000E+00 -0.00000000000E+00 -0.74279499165E+03  0.74279499165E+03  0.00000000000E+00 0. -1.
        -24    2    1    2    0    0 -0.25905759397E+03  0.91768526677E+03  0.10405552896E+03  0.96259695039E+03  0.80673725246E+02 0.  0.
    5000000    2    1    2    0    0  0.25905759397E+03 -0.91768526677E+03  0.69837991429E+03  0.13254284762E+04  0.59980751486E+03 0.  0.
        -24    2    4    4    0    0 -0.68968176269E+01 -0.82917334497E+03  0.54784248983E+03  0.99701033550E+03  0.79512346998E+02 0.  0.
         24    2    4    4    0    0  0.26595441160E+03 -0.88511921799E+02  0.15053742446E+03  0.32841814065E+03  0.81430028862E+02 0.  0.
         13    1    3    3    0    0 -0.14117463082E+03  0.60885909472E+03  0.92637548744E+02  0.63183968619E+03  0.00000000000E+00 0. -1.
        -14    1    3    3    0    0 -0.11788296316E+03  0.30882617205E+03  0.11417980214E+02  0.33075726419E+03  0.00000000000E+00 0.  1.
         13    1    5    5    0    0 -0.39442963955E+02 -0.36009146541E+03  0.25641313101E+03  0.44381224028E+03  0.00000000000E+00 0. -1.
        -14    1    5    5    0    0  0.32546146328E+02 -0.46908187956E+03  0.29142935882E+03  0.55319809522E+03  0.00000000000E+00 0.  1.
          2    1    6    6  502    0  0.13978488936E+03 -0.45928432622E+02  0.12448344289E+03  0.19273132535E+03  0.00000000000E+00 0. -1.
         -1    1    6    6    0  502  0.12616952224E+03 -0.42583489177E+02  0.26053981563E+02  0.13568681531E+03  0.00000000000E+00 0.  1.
<mgrwt>
<rscale>  0 0.10341627E+04</rscale>
<asrwt>0</asrwt>
<pdfrwt beam="1">  1        1 0.11427615E+00 0.10341627E+04</pdfrwt>
<pdfrwt beam="2">  1       -2 0.23772776E+00 0.10341627E+04</pdfrwt>
<totfact> 0.16610752E+00</totfact>
</mgrwt>
</event>
<event>
12    3  0.2422421E-007  0.1569445E+04  0.7818608E-02  0.8839542E-01
         -2   -1    0    0    0  501 -0.00000000000E+00  0.00000000000E+00  0.89240117006E+03  0.89240117006E+03  0.00000000000E+00 0.  1.
          1   -1    0    0  501    0  0.00000000000E+00 -0.00000000000E+00 -0.29635244920E+04  0.29635244920E+04  0.00000000000E+00 0. -1.
        -24    2    1    2    0    0 -0.88958244236E+02  0.15647467191E+04 -0.11069636657E+04  0.19204839906E+04  0.80897074399E+02 0.  0.
    5000000    2    1    2    0    0  0.88958244236E+02 -0.15647467191E+04 -0.96415965625E+03  0.19354416715E+04  0.59998729708E+03 0.  0.
        -24    2    4    4    0    0  0.52762973081E+02 -0.23860814825E+03  0.51655662167E+02  0.26264424100E+03  0.81215208881E+02 0.  0.
         24    2    4    4    0    0  0.36195271155E+02 -0.13261385709E+04 -0.10158153184E+04  0.16727974305E+04  0.80105402009E+02 0.  0.
         11    1    5    5    0    0  0.38159385870E+02 -0.20122816880E+03  0.10383180502E+02  0.20507736366E+03  0.00000000000E+00 0. -1.
        -12    1    5    5    0    0  0.14603587211E+02 -0.37379979449E+02  0.41272481665E+02  0.57566877333E+02  0.00000000000E+00 0.  1.
         11    1    3    3    0    0 -0.42254459057E+02  0.83966438141E+03 -0.54477402505E+03  0.10017986081E+04  0.00000000000E+00 0. -1.
        -12    1    3    3    0    0 -0.46703785179E+02  0.72508233772E+03 -0.56218964062E+03  0.91868538251E+03  0.00000000000E+00 0.  1.
          2    1    6    6  502    0  0.30650060719E+02 -0.11165509268E+04 -0.81717754953E+03  0.13839814110E+04  0.00000000000E+00 0. -1.
         -1    1    6    6    0  502  0.55452104367E+01 -0.20958764403E+03 -0.19863776889E+03  0.28881601950E+03  0.00000000000E+00 0.  1.
<mgrwt>
<rscale>  0 0.15694450E+04</rscale>
<asrwt>0</asrwt>
<pdfrwt beam="1">  1        1 0.45592683E+00 0.15694450E+04</pdfrwt>
<pdfrwt beam="2">  1       -2 0.13729249E+00 0.15694450E+04</pdfrwt>
<totfact> 0.19865735E-01</totfact>
</mgrwt>
</event>
<event>
12    3  0.2422421E-007  0.7938845E+03  0.7818608E-02  0.9568911E-01
         -2   -1    0    0    0  501 -0.00000000000E+00  0.00000000000E+00  0.97903808993E+03  0.97903808993E+03  0.00000000000E+00 0.  1.
          1   -1    0    0  501    0  0.00000000000E+00 -0.00000000000E+00 -0.86584819561E+03  0.86584819561E+03  0.00000000000E+00 0. -1.
        -24    2    1    2    0    0 -0.40580068526E+03 -0.62847941550E+03  0.38873125797E+03  0.84703664868E+03  0.81844495361E+02 0.  0.
    5000000    2    1    2    0    0  0.40580068526E+03  0.62847941550E+03 -0.27554136366E+03  0.99784963686E+03  0.60010022733E+03 0.  0.
        -24    2    4    4    0    0  0.99567709337E+02  0.46181870476E+03 -0.39470580932E+03  0.62075787956E+03  0.79733457961E+02 0.  0.
         24    2    4    4    0    0  0.30623297592E+03  0.16666071074E+03  0.11916444566E+03  0.37709175731E+03  0.80272039163E+02 0.  0.
         11    1    5    5    0    0  0.97417721091E+02  0.28598642494E+03 -0.26991055131E+03  0.40512979814E+03  0.00000000000E+00 0. -1.
        -12    1    5    5    0    0  0.21499882462E+01  0.17583227981E+03 -0.12479525801E+03  0.21562808142E+03  0.00000000000E+00 0.  1.
         11    1    3    3    0    0 -0.27344084953E+03 -0.48566102035E+03  0.27443753322E+03  0.62125074206E+03  0.00000000000E+00 0. -1.
        -12    1    3    3    0    0 -0.13235983574E+03 -0.14281839515E+03  0.11429372475E+03  0.22578590661E+03  0.00000000000E+00 0.  1.
          4    1    6    6  502    0  0.17823036448E+03  0.14081673161E+03  0.73073655920E+02  0.23861092581E+03  0.00000000000E+00 0. -1.
         -3    1    6    6    0  502  0.12800261145E+03  0.25843979125E+02  0.46090789742E+02  0.13848083150E+03  0.00000000000E+00 0.  1.
<mgrwt>
<rscale>  0 0.79388453E+03</rscale>
<asrwt>0</asrwt>
<pdfrwt beam="1">  1        1 0.13320741E+00 0.79388453E+03</pdfrwt>
<pdfrwt beam="2">  1       -2 0.15062125E+00 0.79388453E+03</pdfrwt>
<totfact> 0.51374159E+00</totfact>
</mgrwt>
</event>
<event>
12    3  0.2422421E-007  0.7737299E+03  0.7818608E-02  0.9598840E-01
          1   -1    0    0  501    0  0.00000000000E+00  0.00000000000E+00  0.28765216121E+04  0.28765216121E+04  0.00000000000E+00 0. -1.
         -2   -1    0    0    0  501 -0.00000000000E+00 -0.00000000000E+00 -0.23971074669E+03  0.23971074669E+03  0.00000000000E+00 0.  1.
        -24    2    1    2    0    0 -0.66513168968E+03 -0.55211841133E+02  0.64709641679E+03  0.93344587469E+03  0.84492108128E+02 0.  0.
    5000000    2    1    2    0    0  0.66513168968E+03  0.55211841133E+02  0.19897144486E+04  0.21827864841E+04  0.60012060129E+03 0.  0.
        -24    2    4    4    0    0 -0.10242687207E+02  0.17266249922E+03  0.28946995540E+03  0.34758413051E+03  0.84288916372E+02 0.  0.
         24    2    4    4    0    0  0.67537437689E+03 -0.11745065809E+03  0.17002444932E+04  0.18352023536E+04  0.84918407082E+02 0.  0.
         11    1    5    5    0    0 -0.40642283975E+02  0.57779581950E+02  0.13829392516E+03  0.15529161301E+03  0.00000000000E+00 0. -1.
        -12    1    5    5    0    0  0.30399596769E+02  0.11488291727E+03  0.15117603025E+03  0.19229251750E+03  0.00000000000E+00 0.  1.
         13    1    3    3    0    0 -0.24145645183E+03  0.10749975740E+02  0.19706893341E+03  0.31185404378E+03  0.00000000000E+00 0. -1.
        -14    1    3    3    0    0 -0.42367523785E+03 -0.65961816873E+02  0.45002748338E+03  0.62159183091E+03  0.00000000000E+00 0.  1.
          2    1    6    6  502    0  0.33601265651E+03 -0.31876160329E+02  0.92367304580E+03  0.98340860809E+03  0.00000000000E+00 0. -1.
         -1    1    6    6    0  502  0.33936172038E+03 -0.85574497756E+02  0.77657144743E+03  0.85179374550E+03  0.00000000000E+00 0.  1.
<mgrwt>
<rscale>  0 0.77372990E+03</rscale>
<asrwt>0</asrwt>
<pdfrwt beam="1">  1        1 0.44254176E+00 0.77372990E+03</pdfrwt>
<pdfrwt beam="2">  1       -2 0.36878579E-01 0.77372990E+03</pdfrwt>
<totfact> 0.47290430E+00</totfact>
</mgrwt>
</event>
<event>
12    3  0.2422421E-007  0.1110573E+04  0.7818608E-02  0.9194948E-01
          1   -1    0    0  501    0  0.00000000000E+00  0.00000000000E+00  0.13329402931E+04  0.13329402931E+04  0.00000000000E+00 0. -1.
         -2   -1    0    0    0  501 -0.00000000000E+00 -0.00000000000E+00 -0.10121175657E+04  0.10121175657E+04  0.00000000000E+00 0.  1.
        -24    2    1    2    0    0 -0.74503847275E+03 -0.78493603615E+03  0.12883467369E+03  0.10928413507E+04  0.80603585702E+02 0.  0.
    5000000    2    1    2    0    0  0.74503847275E+03  0.78493603615E+03  0.19198805370E+03  0.12522165080E+04  0.59998321932E+03 0.  0.
        -24    2    4    4    0    0  0.61069076347E+03  0.79329837915E+03  0.60747718339E+00  0.10050068047E+04  0.88163379593E+02 0.  0.
         24    2    4    4    0    0  0.13434770929E+03 -0.83623429939E+01  0.19138057652E+03  0.24720970333E+03  0.79792710076E+02 0.  0.
         13    1    5    5    0    0  0.28613829868E+03  0.40068722286E+03  0.40671277072E+02  0.49404405604E+03  0.00000000000E+00 0. -1.
        -14    1    5    5    0    0  0.32455246478E+03  0.39261115629E+03 -0.40063799889E+02  0.51096274864E+03  0.00000000000E+00 0.  1.
         13    1    3    3    0    0 -0.54588600323E+03 -0.62106827818E+03  0.84855042433E+02  0.83121460100E+03  0.00000000000E+00 0. -1.
        -14    1    3    3    0    0 -0.19915246952E+03 -0.16386775797E+03  0.43979631253E+02  0.26162674975E+03  0.00000000000E+00 0.  1.
          4    1    6    6  502    0  0.65410052500E+02 -0.46945118680E+01  0.15687749055E+03  0.17003252763E+03  0.00000000000E+00 0. -1.
         -3    1    6    6    0  502  0.68937656787E+02 -0.36678311258E+01  0.34503085970E+02  0.77177175706E+02  0.00000000000E+00 0.  1.
<mgrwt>
<rscale>  0 0.11105730E+04</rscale>
<asrwt>0</asrwt>
<pdfrwt beam="1">  1        1 0.20506774E+00 0.11105730E+04</pdfrwt>
<pdfrwt beam="2">  1       -2 0.15571039E+00 0.11105730E+04</pdfrwt>
<totfact> 0.20064610E+00</totfact>
</mgrwt>
</event>
<event>
12    3  0.2422421E-007  0.1307672E+04  0.7818608E-02  0.9023503E-01
          1   -1    0    0  501    0  0.00000000000E+00  0.00000000000E+00  0.13207016700E+04  0.13207016700E+04  0.00000000000E+00 0. -1.
         -2   -1    0    0    0  501 -0.00000000000E+00 -0.00000000000E+00 -0.15860757763E+04  0.15860757763E+04  0.00000000000E+00 0.  1.
        -24    2    1    2    0    0 -0.11409663726E+04  0.62528556001E+03  0.34644654417E+03  0.13488433480E+04  0.81036253919E+02 0.  0.
    5000000    2    1    2    0    0  0.11409663726E+04 -0.62528556001E+03 -0.61182065052E+03  0.15579340983E+04  0.60003987466E+03 0.  0.
        -24    2    4    4    0    0  0.71388889666E+03 -0.32983328651E+03 -0.55140898450E+02  0.79242290154E+03  0.80412576953E+02 0.  0.
         24    2    4    4    0    0  0.42707747597E+03 -0.29545227350E+03 -0.55667975207E+03  0.76551119675E+03  0.80173746255E+02 0.  0.
         13    1    3    3    0    0 -0.65340844406E+03  0.34392912336E+03  0.23600688393E+03  0.77519615964E+03  0.00000000000E+00 0. -1.
        -14    1    3    3    0    0 -0.48755792857E+03  0.28135643665E+03  0.11043966024E+03  0.57364718836E+03  0.00000000000E+00 0.  1.
         13    1    5    5    0    0  0.69387612485E+03 -0.33073560057E+03 -0.62205400498E+02  0.77118067012E+03  0.00000000000E+00 0. -1.
        -14    1    5    5    0    0  0.20012771817E+02  0.90231405932E+00  0.70645020483E+01  0.21242231418E+02  0.00000000000E+00 0.  1.
          4    1    6    6  502    0  0.21005849633E+03 -0.19333156699E+03 -0.31118400288E+03  0.42229983462E+03  0.00000000000E+00 0. -1.
         -3    1    6    6    0  502  0.21701897965E+03 -0.10212070651E+03 -0.24549574919E+03  0.34321136213E+03  0.00000000000E+00 0.  1.
<mgrwt>
<rscale>  0 0.13076720E+04</rscale>
<asrwt>0</asrwt>
<pdfrwt beam="1">  1        1 0.20318487E+00 0.13076720E+04</pdfrwt>
<pdfrwt beam="2">  1       -2 0.24401166E+00 0.13076720E+04</pdfrwt>
<totfact> 0.51659385E-01</totfact>
</mgrwt>
</event>
<event>
12    3  0.2748462E-007  0.1003718E+04  0.7818608E-02  0.9304476E-01
          1   -1    0    0  501    0  0.00000000000E+00  0.00000000000E+00  0.30307341341E+04  0.30307341341E+04  0.00000000000E+00 0. -1.
         -2   -1    0    0    0  501 -0.00000000000E+00 -0.00000000000E+00 -0.39483860554E+03  0.39483860554E+03  0.00000000000E+00 0.  1.
        -24    2    1    2    0    0 -0.19039786820E+03 -0.98292593908E+03  0.14282785422E+04  0.17460805178E+04  0.80142565072E+02 0.  0.
    5000000    2    1    2    0    0  0.19039786820E+03  0.98292593908E+03  0.12076169864E+04  0.16794922219E+04  0.59996715535E+03 0.  0.
        -24    2    4    4    0    0  0.14019498695E+03  0.50276003508E+03  0.10331649097E+04  0.11599788104E+04  0.75490546976E+02 0.  0.
         24    2    4    4    0    0  0.50202881247E+02  0.48016590399E+03  0.17445207678E+03  0.51951341152E+03  0.79881368388E+02 0.  0.
         11    1    3    3    0    0 -0.12750238096E+03 -0.52639657217E+03  0.71740877274E+03  0.89890241715E+03  0.00000000000E+00 0. -1.
        -12    1    3    3    0    0 -0.62895487233E+02 -0.45652936691E+03  0.71086976941E+03  0.84717810065E+03  0.00000000000E+00 0.  1.
         13    1    5    5    0    0  0.31591558677E+02  0.10671020555E+03  0.29457151055E+03  0.31489279029E+03  0.00000000000E+00 0. -1.
        -14    1    5    5    0    0  0.10860342827E+03  0.39604982954E+03  0.73859339912E+03  0.84508602008E+03  0.00000000000E+00 0.  1.
          4    1    6    6  502    0  0.11781720993E+02  0.18298564039E+03  0.26316465977E+02  0.18524338024E+03  0.00000000000E+00 0. -1.
         -3    1    6    6    0  502  0.38421160254E+02  0.29718026360E+03  0.14813561080E+03  0.33427003129E+03  0.00000000000E+00 0.  1.
<mgrwt>
<rscale>  0 0.10037183E+04</rscale>
<asrwt>0</asrwt>
<pdfrwt beam="1">  1        1 0.46626677E+00 0.10037183E+04</pdfrwt>
<pdfrwt beam="2">  1       -2 0.60744403E-01 0.10037183E+04</pdfrwt>
<totfact> 0.12895213E+00</totfact>
</mgrwt>
</event>
<event>
12    3  0.2422421E-007  0.6343372E+03  0.7818608E-02  0.9836622E-01
          1   -1    0    0  501    0  0.00000000000E+00  0.00000000000E+00  0.16303871081E+04  0.16303871081E+04  0.00000000000E+00 0. -1.
         -2   -1    0    0    0  501 -0.00000000000E+00 -0.00000000000E+00 -0.25292164622E+03  0.25292164622E+03  0.00000000000E+00 0.  1.
        -24    2    1    2    0    0  0.23625496871E+03  0.43846333606E+03  0.61052222011E+03  0.78960692240E+03  0.51722367865E+02 0.  0.
    5000000    2    1    2    0    0 -0.23625496871E+03 -0.43846333606E+03  0.76694324180E+03  0.10937018320E+04  0.59992937400E+03 0.  0.
        -24    2    4    4    0    0 -0.50261556373E+02 -0.54418086559E+03  0.53826560632E+03  0.77118630621E+03  0.79620458503E+02 0.  0.
         24    2    4    4    0    0 -0.18599341234E+03  0.10571752953E+03  0.22867763548E+03  0.32251552575E+03  0.77156061996E+02 0.  0.
         11    1    3    3    0    0  0.16350970039E+03  0.26377186570E+03  0.40507227893E+03  0.51028871280E+03  0.00000000000E+00 0. -1.
        -12    1    3    3    0    0  0.72745268316E+02  0.17469147035E+03  0.20544994119E+03  0.27931820959E+03  0.00000000000E+00 0.  1.
         11    1    5    5    0    0 -0.31819552076E+02 -0.12044373859E+03  0.87404907172E+02  0.15218014278E+03  0.00000000000E+00 0. -1.
        -12    1    5    5    0    0 -0.18442004297E+02 -0.42373712700E+03  0.45086069915E+03  0.61900616342E+03  0.00000000000E+00 0.  1.
          4    1    6    6  502    0 -0.22206999640E+02  0.36177781941E+02  0.16356368937E+02  0.45491906357E+02  0.00000000000E+00 0. -1.
         -3    1    6    6    0  502 -0.16378641270E+03  0.69539747589E+02  0.21232126654E+03  0.27702361940E+03  0.00000000000E+00 0.  1.
<mgrwt>
<rscale>  0 0.63433717E+03</rscale>
<asrwt>0</asrwt>
<pdfrwt beam="1">  1        1 0.25082878E+00 0.63433717E+03</pdfrwt>
<pdfrwt beam="2">  1       -2 0.38911024E-01 0.63433717E+03</pdfrwt>
<totfact> 0.30469836E+01</totfact>
</mgrwt>
</event>
<event>
12    3  0.2422421E-007  0.3513310E+03  0.7818608E-02  0.1062070E+00
          1   -1    0    0  501    0  0.00000000000E+00  0.00000000000E+00  0.98615308438E+03  0.98615308438E+03  0.00000000000E+00 0. -1.
         -2   -1    0    0    0  501 -0.00000000000E+00 -0.00000000000E+00 -0.64840924608E+03  0.64840924608E+03  0.00000000000E+00 0.  1.
        -24    2    1    2    0    0  0.33983921707E+03  0.27188454215E+02 -0.46097073308E+03  0.57899376133E+03  0.80683662547E+02 0.  0.
    5000000    2    1    2    0    0 -0.33983921707E+03 -0.27188454215E+02  0.79871457138E+03  0.10555685691E+04  0.60004177530E+03 0.  0.
        -24    2    4    4    0    0 -0.24384859134E+03 -0.98891927784E+00  0.87241116634E+03  0.90935880145E+03  0.79806473145E+02 0.  0.
         24    2    4    4    0    0 -0.95990625726E+02 -0.26199534938E+02 -0.73696594958E+02  0.14620976769E+03  0.77752763296E+02 0.  0.
         11    1    3    3    0    0  0.28661754481E+03 -0.65291991234E+01 -0.36383985986E+03  0.46321883711E+03  0.00000000000E+00 0. -1.
        -12    1    3    3    0    0  0.53221672257E+02  0.33717653339E+02 -0.97130873218E+02  0.11577492421E+03  0.00000000000E+00 0.  1.
         13    1    5    5    0    0 -0.16433583101E+03  0.14854814904E+01  0.70648988135E+03  0.72535262077E+03  0.00000000000E+00 0. -1.
        -14    1    5    5    0    0 -0.79512760333E+02 -0.24744007682E+01  0.16592128499E+03  0.18400618068E+03  0.00000000000E+00 0.  1.
          2    1    6    6  502    0 -0.70407727986E+02  0.27219980986E+01 -0.80523122635E+02  0.10699827434E+03  0.00000000000E+00 0. -1.
         -1    1    6    6    0  502 -0.25582897740E+02 -0.28921533036E+02  0.68265276772E+01  0.39211493342E+02  0.00000000000E+00 0.  1.
<mgrwt>
<rscale>  0 0.35133105E+03</rscale>
<asrwt>0</asrwt>
<pdfrwt beam="1">  1        1 0.15171586E+00 0.35133105E+03</pdfrwt>
<pdfrwt beam="2">  1       -2 0.99755268E-01 0.35133105E+03</pdfrwt>
<totfact> 0.12361502E+01</totfact>
</mgrwt>
</event>
<event>
12    3  0.2422421E-007  0.5281571E+03  0.7818608E-02  0.1006680E+00
          1   -1    0    0  501    0  0.00000000000E+00  0.00000000000E+00  0.40608773746E+03  0.40608773746E+03  0.00000000000E+00 0. -1.
         -2   -1    0    0    0  501 -0.00000000000E+00 -0.00000000000E+00 -0.10132879316E+04  0.10132879316E+04  0.00000000000E+00 0.  1.
        -24    2    1    2    0    0  0.16360403149E+03 -0.38904948538E+03 -0.52928659279E+03  0.68169503495E+03  0.80237411298E+02 0.  0.
    5000000    2    1    2    0    0 -0.16360403149E+03  0.38904948538E+03 -0.77913601352E+02  0.73768063412E+03  0.59998033925E+03 0.  0.
        -24    2    4    4    0    0  0.15753249201E+03  0.18957158936E+03  0.13944641256E+03  0.29484520446E+03  0.82064115673E+02 0.  0.
         24    2    4    4    0    0 -0.32113652350E+03  0.19947789602E+03 -0.21736001391E+03  0.44283542967E+03  0.77056760853E+02 0.  0.
         11    1    5    5    0    0  0.39445750787E+02  0.69645724939E+02  0.63857548035E+01  0.80294907197E+02  0.00000000000E+00 0. -1.
        -12    1    5    5    0    0  0.11808674123E+03  0.11992586442E+03  0.13306065775E+03  0.21455029726E+03  0.00000000000E+00 0.  1.
         13    1    3    3    0    0  0.35500168313E+01 -0.83055006681E+02 -0.12332424083E+03  0.14872661205E+03  0.00000000000E+00 0. -1.
        -14    1    3    3    0    0  0.16005401466E+03 -0.30599447870E+03 -0.40596235196E+03  0.53296842290E+03  0.00000000000E+00 0.  1.
          2    1    6    6  502    0 -0.24250775514E+03  0.16695870251E+03 -0.20018118759E+03  0.35603051487E+03  0.00000000000E+00 0. -1.
         -1    1    6    6    0  502 -0.78628768358E+02  0.32519193507E+02 -0.17178826318E+02  0.86804914801E+02  0.00000000000E+00 0.  1.
<mgrwt>
<rscale>  0 0.52815709E+03</rscale>
<asrwt>0</asrwt>
<pdfrwt beam="1">  1        1 0.62475038E-01 0.52815709E+03</pdfrwt>
<pdfrwt beam="2">  1       -2 0.15589045E+00 0.52815709E+03</pdfrwt>
<totfact> 0.14500417E+01</totfact>
</mgrwt>
</event>
<event>
12    3  0.2422421E-007  0.5370886E+03  0.7818608E-02  0.1004527E+00
         -2   -1    0    0    0  501 -0.00000000000E+00  0.00000000000E+00  0.33041838256E+03  0.33041838256E+03  0.00000000000E+00 0.  1.
          1   -1    0    0  501    0  0.00000000000E+00 -0.00000000000E+00 -0.10752923161E+04  0.10752923161E+04  0.00000000000E+00 0. -1.
        -24    2    1    2    0    0 -0.40262099777E+03 -0.12873721609E+03 -0.42638898641E+03  0.60565342839E+03  0.79571156409E+02 0.  0.
    5000000    2    1    2    0    0  0.40262099777E+03  0.12873721609E+03 -0.31848494710E+03  0.80005727025E+03  0.59998502939E+03 0.  0.
        -24    2    4    4    0    0 -0.91121111563E+02 -0.56093291674E+02 -0.22092102035E+03  0.25770914600E+03  0.78475425188E+02 0.  0.
         24    2    4    4    0    0  0.49374210933E+03  0.18483050776E+03 -0.97563926754E+02  0.54234812424E+03  0.81726256108E+02 0.  0.
         11    1    5    5    0    0 -0.62523646868E+02 -0.14603540975E+02 -0.55783400962E+02  0.85054439329E+02  0.00000000000E+00 0. -1.
        -12    1    5    5    0    0 -0.28597464696E+02 -0.41489750700E+02 -0.16513761939E+03  0.17265470668E+03  0.00000000000E+00 0.  1.
         11    1    3    3    0    0 -0.21193459367E+03 -0.34473349933E+02 -0.24801464057E+03  0.32804869423E+03  0.00000000000E+00 0. -1.
        -12    1    3    3    0    0 -0.19068640410E+03 -0.94263866154E+02 -0.17837434584E+03  0.27760473416E+03  0.00000000000E+00 0.  1.
          4    1    6    6  502    0  0.13715014883E+03  0.17552322528E+02 -0.85228658993E+01  0.13853117553E+03  0.00000000000E+00 0. -1.
         -3    1    6    6    0  502  0.35659196051E+03  0.16727818523E+03 -0.89041060854E+02  0.40381694872E+03  0.00000000000E+00 0.  1.
<mgrwt>
<rscale>  0 0.53708857E+03</rscale>
<asrwt>0</asrwt>
<pdfrwt beam="1">  1        1 0.16542959E+00 0.53708857E+03</pdfrwt>
<pdfrwt beam="2">  1       -2 0.50833598E-01 0.53708857E+03</pdfrwt>
<totfact> 0.44440412E+01</totfact>
</mgrwt>
</event>
<event>
12    3  0.2422421E-007  0.6703235E+03  0.7818608E-02  0.9769374E-01
          1   -1    0    0  501    0  0.00000000000E+00  0.00000000000E+00  0.12060336885E+04  0.12060336885E+04  0.00000000000E+00 0. -1.
         -2   -1    0    0    0  501 -0.00000000000E+00 -0.00000000000E+00 -0.56025792413E+03  0.56025792413E+03  0.00000000000E+00 0.  1.
        -24    2    1    2    0    0  0.50756881210E+03 -0.41334028363E+03  0.57590377988E+03  0.87556240360E+03  0.80424311268E+02 0.  0.
    5000000    2    1    2    0    0 -0.50756881210E+03  0.41334028363E+03  0.69871984520E+02  0.89072920905E+03  0.60003344952E+03 0.  0.
        -24    2    4    4    0    0 -0.13467360241E+03  0.49873094607E+02 -0.23161952331E+03  0.28387678845E+03  0.79461454125E+02 0.  0.
         24    2    4    4    0    0 -0.37289520969E+03  0.36346718902E+03  0.30149150783E+03  0.60685242060E+03  0.78825733040E+02 0.  0.
         11    1    5    5    0    0 -0.71297416959E+02 -0.14125732164E+02 -0.12189112631E+03  0.14191654114E+03  0.00000000000E+00 0. -1.
        -12    1    5    5    0    0 -0.63376185447E+02  0.63998826771E+02 -0.10972839699E+03  0.14196024731E+03  0.00000000000E+00 0.  1.
         11    1    3    3    0    0  0.63653797939E+02 -0.45408437351E+02  0.37594604584E+02  0.86758783236E+02  0.00000000000E+00 0. -1.
        -12    1    3    3    0    0  0.44391501416E+03 -0.36793184628E+03  0.53830917529E+03  0.78880362037E+03  0.00000000000E+00 0.  1.
          2    1    6    6  502    0 -0.17777148632E+03  0.13863970889E+03  0.16493743310E+03  0.27933497286E+03  0.00000000000E+00 0. -1.
         -1    1    6    6    0  502 -0.19512372338E+03  0.22482748013E+03  0.13655407473E+03  0.32751744774E+03  0.00000000000E+00 0.  1.
<mgrwt>
<rscale>  0 0.67032348E+03</rscale>
<asrwt>0</asrwt>
<pdfrwt beam="1">  1        1 0.18554364E+00 0.67032348E+03</pdfrwt>
<pdfrwt beam="2">  1       -2 0.86193527E-01 0.67032348E+03</pdfrwt>
<totfact> 0.11238200E+01</totfact>
</mgrwt>
</event>
<event>
12    3  0.2422421E-007  0.2588606E+04  0.7818608E-02  0.8372082E-01
         -2   -1    0    0    0  501 -0.00000000000E+00  0.00000000000E+00  0.19676277947E+04  0.19676277947E+04  0.00000000000E+00 0.  1.
          1   -1    0    0  501    0  0.00000000000E+00 -0.00000000000E+00 -0.35321663659E+04  0.35321663659E+04  0.00000000000E+00 0. -1.
        -24    2    1    2    0    0 -0.13980882667E+04 -0.21404970771E+04 -0.27031288895E+03  0.25721446637E+04  0.80502015645E+02 0.  0.
    5000000    2    1    2    0    0  0.13980882667E+04  0.21404970771E+04 -0.12942256823E+04  0.29276494969E+04  0.59977739300E+03 0.  0.
        -24    2    4    4    0    0  0.11050387973E+04  0.11929530980E+04 -0.86815262366E+03  0.18451705517E+04  0.81960656405E+02 0.  0.
         24    2    4    4    0    0  0.29304946933E+03  0.94754397912E+03 -0.42607305865E+03  0.10824789452E+04  0.80652536182E+02 0.  0.
         11    1    3    3    0    0 -0.66863371558E+03 -0.10084069744E+04 -0.88397224662E+02  0.12131651746E+04  0.00000000000E+00 0. -1.
        -12    1    3    3    0    0 -0.72945455109E+03 -0.11320901027E+04 -0.18191566429E+03  0.13589794891E+04  0.00000000000E+00 0.  1.
         11    1    5    5    0    0  0.46674377430E+03  0.49507864441E+03 -0.31810464297E+03  0.75109465374E+03  0.00000000000E+00 0. -1.
        -12    1    5    5    0    0  0.63829502303E+03  0.69787445361E+03 -0.55004798069E+03  0.10940758980E+04  0.00000000000E+00 0.  1.
          2    1    6    6  502    0  0.46983258881E+02  0.81835068516E+02 -0.28474003482E+02  0.98565581865E+02  0.00000000000E+00 0. -1.
         -1    1    6    6    0  502  0.24606621045E+03  0.86570891060E+03 -0.39759905517E+03  0.98391336330E+03  0.00000000000E+00 0.  1.
<mgrwt>
<rscale>  0 0.25886060E+04</rscale>
<asrwt>0</asrwt>
<pdfrwt beam="1">  1        1 0.54341021E+00 0.25886060E+04</pdfrwt>
<pdfrwt beam="2">  1       -2 0.30271197E+00 0.25886060E+04</pdfrwt>
<totfact> 0.52595874E-03</totfact>
</mgrwt>
</event>
<event>
12    3  0.2422421E-007  0.7378597E+03  0.7818608E-02  0.9654591E-01
          1   -1    0    0  501    0  0.00000000000E+00  0.00000000000E+00  0.19746234989E+04  0.19746234989E+04  0.00000000000E+00 0. -1.
         -2   -1    0    0    0  501 -0.00000000000E+00 -0.00000000000E+00 -0.31218400835E+03  0.31218400835E+03  0.00000000000E+00 0.  1.
        -24    2    1    2    0    0  0.63034076694E+03  0.78035495120E+02  0.10106549575E+04  0.11967602146E+04  0.85979922748E+02 0.  0.
    5000000    2    1    2    0    0 -0.63034076694E+03 -0.78035495120E+02  0.65178453311E+03  0.10900472927E+04  0.59996750063E+03 0.  0.
        -24    2    4    4    0    0 -0.60066376120E+03 -0.25057700980E+03  0.38095449435E+03  0.75819284116E+03  0.78385367022E+02 0.  0.
         24    2    4    4    0    0 -0.29677005738E+02  0.17254151468E+03  0.27083003876E+03  0.33185445156E+03  0.78276229910E+02 0.  0.
         11    1    3    3    0    0  0.29150500957E+03  0.51929929151E+02  0.39659992124E+03  0.49493775939E+03  0.00000000000E+00 0. -1.
        -12    1    3    3    0    0  0.33883575737E+03  0.26105565969E+02  0.61405503625E+03  0.70182245518E+03  0.00000000000E+00 0.  1.
         13    1    5    5    0    0 -0.34839473055E+03 -0.10764339080E+03  0.19193217356E+03  0.41207274492E+03  0.00000000000E+00 0. -1.
        -14    1    5    5    0    0 -0.25226903065E+03 -0.14293361901E+03  0.18902232079E+03  0.34612009625E+03  0.00000000000E+00 0.  1.
          2    1    6    6  502    0  0.58617717256E+01  0.12834832660E+03  0.14437923849E+03  0.19326928834E+03  0.00000000000E+00 0. -1.
         -1    1    6    6    0  502 -0.35538777464E+02  0.44193188083E+02  0.12645080027E+03  0.13858516322E+03  0.00000000000E+00 0.  1.
<mgrwt>
<rscale>  0 0.73785966E+03</rscale>
<asrwt>0</asrwt>
<pdfrwt beam="1">  1        1 0.30378822E+00 0.73785966E+03</pdfrwt>
<pdfrwt beam="2">  1       -2 0.48028310E-01 0.73785966E+03</pdfrwt>
<totfact> 0.11652592E+01</totfact>
</mgrwt>
</event>
<event>
12    3  0.2422421E-007  0.6068906E+03  0.7818608E-02  0.9891212E-01
         -2   -1    0    0    0  501 -0.00000000000E+00  0.00000000000E+00  0.59967405652E+03  0.59967405652E+03  0.00000000000E+00 0.  1.
          1   -1    0    0  501    0  0.00000000000E+00 -0.00000000000E+00 -0.15316528965E+04  0.15316528965E+04  0.00000000000E+00 0. -1.
        -24    2    1    2    0    0 -0.42624107836E+03  0.25046098800E+03 -0.12070154793E+04  0.13067845248E+04  0.79920357832E+02 0.  0.
    5000000    2    1    2    0    0  0.42624107836E+03 -0.25046098800E+03  0.27503663933E+03  0.82454242821E+03  0.59984406270E+03 0.  0.
        -24    2    4    4    0    0 -0.73308948263E+02  0.67332224736E+02 -0.58784900927E+02  0.13991601239E+03  0.78822557444E+02 0.  0.
         24    2    4    4    0    0  0.49955002662E+03 -0.31779321274E+03  0.33382154026E+03  0.68462641582E+03  0.82059450043E+02 0.  0.
         11    1    5    5    0    0 -0.87246449626E+01  0.60760075363E+02 -0.21421469712E+02  0.65013733568E+02  0.00000000000E+00 0. -1.
        -12    1    5    5    0    0 -0.64584303300E+02  0.65721493729E+01 -0.37363431214E+02  0.74902278819E+02  0.00000000000E+00 0.  1.
         11    1    3    3    0    0 -0.12039581479E+03  0.54966238097E+02 -0.24317475130E+03  0.27685808498E+03  0.00000000000E+00 0. -1.
        -12    1    3    3    0    0 -0.30584526357E+03  0.19549474991E+03 -0.96384072800E+03  0.10299264398E+04  0.00000000000E+00 0.  1.
          4    1    6    6  502    0  0.33639593498E+03 -0.21928909597E+03  0.18160254083E+03  0.44071466451E+03  0.00000000000E+00 0. -1.
         -3    1    6    6    0  502  0.16315409164E+03 -0.98504116768E+02  0.15221899942E+03  0.24391175131E+03  0.00000000000E+00 0.  1.
<mgrwt>
<rscale>  0 0.60689063E+03</rscale>
<asrwt>0</asrwt>
<pdfrwt beam="1">  1        1 0.23563891E+00 0.60689063E+03</pdfrwt>
<pdfrwt beam="2">  1       -2 0.92257547E-01 0.60689063E+03</pdfrwt>
<totfact> 0.57616873E+00</totfact>
</mgrwt>
</event>
<event>
12    3  0.2422421E-007  0.6698618E+03  0.7818608E-02  0.9770208E-01
          1   -1    0    0  501    0  0.00000000000E+00  0.00000000000E+00  0.47025186992E+03  0.47025186992E+03  0.00000000000E+00 0. -1.
         -4   -1    0    0    0  501 -0.00000000000E+00 -0.00000000000E+00 -0.10100404281E+04  0.10100404281E+04  0.00000000000E+00 0.  1.
        -24    2    1    2    0    0 -0.22877185497E+02  0.54957760424E+03 -0.13811551205E+03  0.57273616302E+03  0.79949415648E+02 0.  0.
    5000000    2    1    2    0    0  0.22877185497E+02 -0.54957760424E+03 -0.40167304609E+03  0.90755613495E+03  0.59979829395E+03 0.  0.
        -24    2    4    4    0    0  0.28237447764E+03 -0.28267412008E+03 -0.32132701416E+03  0.51875767165E+03  0.78857263976E+02 0.  0.
         24    2    4    4    0    0 -0.25949729215E+03 -0.26690348417E+03 -0.80346031926E+02  0.38879846330E+03  0.78309933757E+02 0.  0.
         13    1    5    5    0    0  0.13585024759E+03 -0.81955518134E+02 -0.13054917873E+03  0.20546309836E+03  0.00000000000E+00 0. -1.
        -14    1    5    5    0    0  0.14652423005E+03 -0.20071860194E+03 -0.19077783544E+03  0.31329457329E+03  0.00000000000E+00 0.  1.
         13    1    3    3    0    0 -0.43793673329E+02  0.18518040070E+03 -0.59442345173E+02  0.19935661270E+03  0.00000000000E+00 0. -1.
        -14    1    3    3    0    0  0.20916487832E+02  0.36439720354E+03 -0.78673166877E+02  0.37337955032E+03  0.00000000000E+00 0.  1.
          4    1    6    6  502    0 -0.28982443840E+02 -0.63680429372E+02  0.41487360548E+01  0.70088452307E+02  0.00000000000E+00 0. -1.
         -1    1    6    6    0  502 -0.23051484831E+03 -0.20322305480E+03 -0.84494767980E+02  0.31871001099E+03  0.00000000000E+00 0.  1.
<mgrwt>
<rscale>  0 0.66986177E+03</rscale>
<asrwt>0</asrwt>
<pdfrwt beam="1">  1        1 0.72346441E-01 0.66986177E+03</pdfrwt>
<pdfrwt beam="2">  1       -4 0.15539084E+00 0.66986177E+03</pdfrwt>
<totfact> 0.63097871E+00</totfact>
</mgrwt>
</event>
<event>
12    3  0.2422421E-007  0.4652391E+03  0.7818608E-02  0.1023273E+00
         -2   -1    0    0    0  501 -0.00000000000E+00  0.00000000000E+00  0.32186094377E+03  0.32186094377E+03  0.00000000000E+00 0.  1.
          1   -1    0    0  501    0  0.00000000000E+00 -0.00000000000E+00 -0.17530132200E+04  0.17530132200E+04  0.00000000000E+00 0. -1.
        -24    2    1    2    0    0  0.30614315429E+03 -0.12252716509E+03  0.13466108081E+03  0.36593465256E+03  0.83892944605E+02 0.  0.
    5000000    2    1    2    0    0 -0.30614315429E+03  0.12252716509E+03 -0.15658133571E+04  0.17089395113E+04  0.59997187166E+03 0.  0.
        -24    2    4    4    0    0 -0.10497217335E+02 -0.16964668697E+03 -0.18171502413E+03  0.26171788390E+03  0.81152392364E+02 0.  0.
         24    2    4    4    0    0 -0.29564593696E+03  0.29217385206E+03 -0.13840983330E+04  0.14472216274E+04  0.77137303098E+02 0.  0.
         11    1    3    3    0    0  0.95994276167E+02 -0.24987762451E+02  0.25352291311E+01  0.99225584987E+02  0.00000000000E+00 0. -1.
        -12    1    3    3    0    0  0.21014887813E+03 -0.97539402643E+02  0.13212585168E+03  0.26670906757E+03  0.00000000000E+00 0.  1.
         13    1    5    5    0    0  0.50863730816E+01 -0.15749348129E+03 -0.18350307198E+03  0.24187485455E+03  0.00000000000E+00 0. -1.
        -14    1    5    5    0    0 -0.15583590416E+02 -0.12153205674E+02  0.17880478458E+01  0.19843029344E+02  0.00000000000E+00 0.  1.
          4    1    6    6  502    0  0.22391611353E+01  0.15671684176E+02 -0.66700050409E+02  0.68552988644E+02  0.00000000000E+00 0. -1.
         -3    1    6    6    0  502 -0.29788509809E+03  0.27650216788E+03 -0.13173982825E+04  0.13786686387E+04  0.00000000000E+00 0.  1.
<mgrwt>
<rscale>  0 0.46523913E+03</rscale>
<asrwt>0</asrwt>
<pdfrwt beam="1">  1        1 0.26969434E+00 0.46523913E+03</pdfrwt>
<pdfrwt beam="2">  1       -2 0.49517068E-01 0.46523913E+03</pdfrwt>
<totfact> 0.16143383E+01</totfact>
</mgrwt>
</event>
<event>
12    3  0.2422421E-007  0.1420423E+04  0.7818608E-02  0.8939167E-01
         -2   -1    0    0    0  501 -0.00000000000E+00  0.00000000000E+00  0.83357836744E+03  0.83357836744E+03  0.00000000000E+00 0.  1.
          1   -1    0    0  501    0  0.00000000000E+00 -0.00000000000E+00 -0.29906196145E+04  0.29906196145E+04  0.00000000000E+00 0. -1.
        -24    2    1    2    0    0  0.12377039296E+04  0.57762632749E+03 -0.23014949727E+03  0.13874036820E+04  0.79730760541E+02 0.  0.
    5000000    2    1    2    0    0 -0.12377039296E+04 -0.57762632749E+03 -0.19268917498E+04  0.24367942999E+04  0.59957606139E+03 0.  0.
        -24    2    4    4    0    0 -0.75657199011E+03 -0.49955210979E+02 -0.11395000306E+04  0.13708199245E+04  0.76093668595E+02 0.  0.
         24    2    4    4    0    0 -0.48113193946E+03 -0.52767111651E+03 -0.78739171916E+03  0.10659743754E+04  0.79943100106E+02 0.  0.
         11    1    5    5    0    0 -0.27536315084E+03  0.10499740677E+02 -0.45443028425E+03  0.53145271910E+03  0.00000000000E+00 0. -1.
        -12    1    5    5    0    0 -0.48120883927E+03 -0.60454951656E+02 -0.68506974637E+03  0.83936720544E+03  0.00000000000E+00 0.  1.
         13    1    3    3    0    0  0.69346953949E+02  0.25654947099E+02  0.45567169084E+01  0.74080631758E+02  0.00000000000E+00 0. -1.
        -14    1    3    3    0    0  0.11683569756E+04  0.55197138039E+03 -0.23470621418E+03  0.13133230502E+04  0.00000000000E+00 0.  1.
          2    1    6    6  502    0 -0.23741412641E+03 -0.26827889896E+03 -0.45372841688E+03  0.57810769873E+03  0.00000000000E+00 0. -1.
         -1    1    6    6    0  502 -0.24371781305E+03 -0.25939221755E+03 -0.33366330228E+03  0.48786667668E+03  0.00000000000E+00 0.  1.
<mgrwt>
<rscale>  0 0.14204226E+04</rscale>
<asrwt>0</asrwt>
<pdfrwt beam="1">  1        1 0.46009532E+00 0.14204226E+04</pdfrwt>
<pdfrwt beam="2">  1       -2 0.12824283E+00 0.14204226E+04</pdfrwt>
<totfact> 0.23015083E-01</totfact>
</mgrwt>
</event>
<event>
12    3  0.2422421E-007  0.5410016E+03  0.7818608E-02  0.1003598E+00
          1   -1    0    0  501    0  0.00000000000E+00  0.00000000000E+00  0.26952884909E+04  0.26952884909E+04  0.00000000000E+00 0. -1.
         -2   -1    0    0    0  501 -0.00000000000E+00 -0.00000000000E+00 -0.16746489726E+03  0.16746489726E+03  0.00000000000E+00 0.  1.
        -24    2    1    2    0    0  0.70027958215E+02 -0.43319705274E+03  0.16659408874E+04  0.17246364514E+04  0.80300981181E+02 0.  0.
    5000000    2    1    2    0    0 -0.70027958215E+02  0.43319705274E+03  0.86188270621E+03  0.11381169368E+04  0.59992062900E+03 0.  0.
        -24    2    4    4    0    0 -0.18412091128E+03 -0.10212456131E+01  0.49285930845E+02  0.20627297392E+03  0.78853559707E+02 0.  0.
         24    2    4    4    0    0  0.11409295307E+03  0.43421829835E+03  0.81259677536E+03  0.93184396286E+03  0.80354957698E+02 0.  0.
         11    1    5    5    0    0 -0.55969548520E+02 -0.86492656486E+01  0.53385461574E+02  0.77829349639E+02  0.00000000000E+00 0. -1.
        -12    1    5    5    0    0 -0.12815136276E+03  0.76280200355E+01 -0.40995307289E+01  0.12844362428E+03  0.00000000000E+00 0.  1.
         13    1    3    3    0    0  0.48246319603E+02 -0.92785780553E+02  0.42347429398E+03  0.43619649940E+03  0.00000000000E+00 0. -1.
        -14    1    3    3    0    0  0.21781638613E+02 -0.34041127219E+03  0.12424665935E+04  0.12884399520E+04  0.00000000000E+00 0.  1.
          4    1    6    6  502    0  0.40903131096E+02  0.82886700992E+02  0.22608278085E+03  0.24424720087E+03  0.00000000000E+00 0. -1.
         -3    1    6    6    0  502  0.73189821970E+02  0.35133159736E+03  0.58651399451E+03  0.68759676199E+03  0.00000000000E+00 0.  1.
<mgrwt>
<rscale>  0 0.54100157E+03</rscale>
<asrwt>0</asrwt>
<pdfrwt beam="1">  1        1 0.41465974E+00 0.54100157E+03</pdfrwt>
<pdfrwt beam="2">  1       -2 0.25763832E-01 0.54100157E+03</pdfrwt>
<totfact> 0.12900000E+01</totfact>
</mgrwt>
</event>
<event>
12    3  0.2422421E-007  0.1528079E+04  0.7818608E-02  0.8865992E-01
         -2   -1    0    0    0  501 -0.00000000000E+00  0.00000000000E+00  0.77556522724E+03  0.77556522724E+03  0.00000000000E+00 0.  1.
          1   -1    0    0  501    0  0.00000000000E+00 -0.00000000000E+00 -0.36406406088E+04  0.36406406088E+04  0.00000000000E+00 0. -1.
        -24    2    1    2    0    0 -0.72101529690E+03 -0.13082094521E+04 -0.54439406015E+03  0.15918895617E+04  0.80451569581E+02 0.  0.
    5000000    2    1    2    0    0  0.72101529690E+03  0.13082094521E+04 -0.23206813214E+04  0.28243162743E+04  0.59993799085E+03 0.  0.
        -24    2    4    4    0    0  0.16767867198E+03  0.57602103025E+02 -0.10907321965E+03  0.22319250094E+03  0.80521959254E+02 0.  0.
         24    2    4    4    0    0  0.55333662492E+03  0.12506073491E+04 -0.22116081018E+04  0.26011237734E+04  0.66590739413E+02 0.  0.
         11    1    5    5    0    0  0.11233602288E+03  0.75607673437E+02 -0.65079261998E+02  0.15023718801E+03  0.00000000000E+00 0. -1.
        -12    1    5    5    0    0  0.55342649092E+02 -0.18005570411E+02 -0.43993957648E+02  0.72955312924E+02  0.00000000000E+00 0.  1.
         13    1    3    3    0    0 -0.23163395530E+03 -0.40191568832E+03 -0.20781432917E+03  0.50830827770E+03  0.00000000000E+00 0. -1.
        -14    1    3    3    0    0 -0.48938134160E+03 -0.90629376378E+03 -0.33657973097E+03  0.10835812840E+04  0.00000000000E+00 0.  1.
          2    1    6    6  502    0  0.22386046499E+03  0.57431712258E+03 -0.96146525477E+03  0.11420897956E+04  0.00000000000E+00 0. -1.
         -1    1    6    6    0  502  0.32947615994E+03  0.67629022650E+03 -0.12501428470E+04  0.14590339778E+04  0.00000000000E+00 0.  1.
<mgrwt>
<rscale>  0 0.15280793E+04</rscale>
<asrwt>0</asrwt>
<pdfrwt beam="1">  1        1 0.56009857E+00 0.15280793E+04</pdfrwt>
<pdfrwt beam="2">  1       -2 0.11931772E+00 0.15280793E+04</pdfrwt>
<totfact> 0.87125820E-02</totfact>
</mgrwt>
</event>
<event>
12    3  0.2422421E-007  0.7944334E+03  0.7818608E-02  0.9568110E-01
         -2   -1    0    0    0  501 -0.00000000000E+00  0.00000000000E+00  0.11203031005E+04  0.11203031005E+04  0.00000000000E+00 0.  1.
          1   -1    0    0  501    0  0.00000000000E+00 -0.00000000000E+00 -0.76981076091E+03  0.76981076091E+03  0.00000000000E+00 0. -1.
        -24    2    1    2    0    0 -0.74194850326E+03 -0.20777931066E+03 -0.15631203666E+03  0.78986596289E+03  0.76124654943E+02 0.  0.
    5000000    2    1    2    0    0  0.74194850326E+03  0.20777931066E+03  0.50680437626E+03  0.11002478985E+04  0.60002911512E+03 0.  0.
        -24    2    4    4    0    0  0.54057361619E+02  0.18990543327E+02 -0.10347214732E+03  0.15815236091E+03  0.10498973717E+03 0.  0.
         24    2    4    4    0    0  0.68789114165E+03  0.18878876733E+03  0.61027652358E+03  0.94209553761E+03  0.79190563444E+02 0.  0.
         11    1    5    5    0    0  0.40661515627E+02  0.50142494746E+02 -0.19259587315E+02  0.67368838019E+02  0.00000000000E+00 0. -1.
        -12    1    5    5    0    0  0.13395845992E+02 -0.31151951420E+02 -0.84212560003E+02  0.90783522895E+02  0.00000000000E+00 0.  1.
         13    1    3    3    0    0 -0.54897809613E+03 -0.12688151693E+03 -0.91607158901E+02  0.57084826436E+03  0.00000000000E+00 0. -1.
        -14    1    3    3    0    0 -0.19297040714E+03 -0.80897793729E+02 -0.64704877754E+02  0.21901769852E+03  0.00000000000E+00 0.  1.
          4    1    6    6  502    0  0.42979113410E+03  0.15739967997E+03  0.38835937226E+03  0.60026500833E+03  0.00000000000E+00 0. -1.
         -3    1    6    6    0  502  0.25810000755E+03  0.31389087358E+02  0.22191715132E+03  0.34183052929E+03  0.00000000000E+00 0.  1.
<mgrwt>
<rscale>  0 0.79443340E+03</rscale>
<asrwt>0</asrwt>
<pdfrwt beam="1">  1        1 0.11843242E+00 0.79443340E+03</pdfrwt>
<pdfrwt beam="2">  1       -2 0.17235432E+00 0.79443340E+03</pdfrwt>
<totfact> 0.43044662E+00</totfact>
</mgrwt>
</event>
<event>
12    3  0.2422421E-007  0.7796382E+03  0.7818608E-02  0.9589967E-01
         -2   -1    0    0    0  501 -0.00000000000E+00  0.00000000000E+00  0.68022801482E+03  0.68022801482E+03  0.00000000000E+00 0.  1.
          1   -1    0    0  501    0  0.00000000000E+00 -0.00000000000E+00 -0.94166179910E+03  0.94166179910E+03  0.00000000000E+00 0. -1.
        -24    2    1    2    0    0  0.11099380653E+02 -0.68213761541E+03 -0.48088746444E+02  0.68854081251E+03  0.79630398406E+02 0.  0.
    5000000    2    1    2    0    0 -0.11099380653E+02  0.68213761541E+03 -0.21334503783E+03  0.93334900141E+03  0.60015775481E+03 0.  0.
        -24    2    4    4    0    0  0.64184431305E+02 -0.80080601049E+02 -0.81669194557E+02  0.15294762180E+03  0.78680199460E+02 0.  0.
         24    2    4    4    0    0 -0.75283811957E+02  0.76221821646E+03 -0.13167584327E+03  0.78040137961E+03  0.71017770713E+02 0.  0.
         11    1    3    3    0    0 -0.30326701594E+02 -0.40085658116E+03 -0.14687565048E+02  0.40227034697E+03  0.00000000000E+00 0. -1.
        -12    1    3    3    0    0  0.41426082247E+02 -0.28128103425E+03 -0.33401181396E+02  0.28627046554E+03  0.00000000000E+00 0.  1.
         13    1    5    5    0    0  0.20809167854E+02 -0.43733665515E+02  0.57896499682E+01  0.48776787644E+02  0.00000000000E+00 0. -1.
        -14    1    5    5    0    0  0.43375263451E+02 -0.36346935535E+02 -0.87458844526E+02  0.10417083415E+03  0.00000000000E+00 0.  1.
          4    1    6    6  502    0 -0.21429453840E+02  0.61027186868E+02  0.12532979862E+01  0.64692424477E+02  0.00000000000E+00 0. -1.
         -3    1    6    6    0  502 -0.53854358118E+02  0.70119102959E+03 -0.13292914126E+03  0.71570895514E+03  0.00000000000E+00 0.  1.
<mgrwt>
<rscale>  0 0.77963822E+03</rscale>
<asrwt>0</asrwt>
<pdfrwt beam="1">  1        1 0.14487105E+00 0.77963822E+03</pdfrwt>
<pdfrwt beam="2">  1       -2 0.10465046E+00 0.77963822E+03</pdfrwt>
<totfact> 0.11150031E+01</totfact>
</mgrwt>
</event>
<event>
12    3  0.2422421E-007  0.5269055E+03  0.7818608E-02  0.1006985E+00
         -2   -1    0    0    0  501 -0.00000000000E+00  0.00000000000E+00  0.33690853306E+03  0.33690853306E+03  0.00000000000E+00 0.  1.
          1   -1    0    0  501    0  0.00000000000E+00 -0.00000000000E+00 -0.18097990263E+04  0.18097990263E+04  0.00000000000E+00 0. -1.
        -24    2    1    2    0    0  0.14440032559E+03 -0.37944751689E+03  0.90696123267E+02  0.42352557241E+03  0.79474848891E+02 0.  0.
    5000000    2    1    2    0    0 -0.14440032559E+03  0.37944751689E+03 -0.15635866165E+04  0.17231819869E+04  0.59976760556E+03 0.  0.
        -24    2    4    4    0    0  0.11048172976E+03  0.35615693789E+03 -0.51396884079E+03  0.63992593279E+03  0.79292201017E+02 0.  0.
         24    2    4    4    0    0 -0.25488205535E+03  0.23290579006E+02 -0.10496177757E+04  0.10832560541E+04  0.78986647796E+02 0.  0.
         11    1    5    5    0    0  0.59085326470E+02  0.12706175433E+03 -0.13803438865E+03  0.19669585066E+03  0.00000000000E+00 0. -1.
        -12    1    5    5    0    0  0.51396403291E+02  0.22909518355E+03 -0.37593445214E+03  0.44323008213E+03  0.00000000000E+00 0.  1.
         13    1    3    3    0    0  0.54928214510E+02 -0.63905066713E+02  0.44070873347E+01  0.84382395792E+02  0.00000000000E+00 0. -1.
        -14    1    3    3    0    0  0.89472111075E+02 -0.31554245018E+03  0.86289035932E+02  0.33914317662E+03  0.00000000000E+00 0.  1.
          4    1    6    6  502    0 -0.25188577627E+03  0.90037347846E+01 -0.96413887635E+03  0.99653965522E+03  0.00000000000E+00 0. -1.
         -3    1    6    6    0  502 -0.29962790747E+01  0.14286844222E+02 -0.85478899350E+02  0.86716398911E+02  0.00000000000E+00 0.  1.
<mgrwt>
<rscale>  0 0.52690552E+03</rscale>
<asrwt>0</asrwt>
<pdfrwt beam="1">  1        1 0.27843062E+00 0.52690552E+03</pdfrwt>
<pdfrwt beam="2">  1       -2 0.51832082E-01 0.52690552E+03</pdfrwt>
<totfact> 0.13320630E+01</totfact>
</mgrwt>
</event>
<event>
12    3  0.2422421E-007  0.3781589E+03  0.7818608E-02  0.1051616E+00
         -2   -1    0    0    0  501 -0.00000000000E+00  0.00000000000E+00  0.14889449709E+03  0.14889449709E+03  0.00000000000E+00 0.  1.
          1   -1    0    0  501    0  0.00000000000E+00 -0.00000000000E+00 -0.16623619174E+04  0.16623619174E+04  0.00000000000E+00 0. -1.
        -24    2    1    2    0    0  0.16574849442E+03  0.24514600531E+03 -0.31814416154E+03  0.44149233490E+03  0.78298447835E+02 0.  0.
    5000000    2    1    2    0    0 -0.16574849442E+03 -0.24514600531E+03 -0.11953232587E+04  0.13697640795E+04  0.59990567045E+03 0.  0.
        -24    2    4    4    0    0 -0.35091661190E+02 -0.30277791934E+03 -0.22466806861E+03  0.38542607739E+03  0.71914024736E+02 0.  0.
         24    2    4    4    0    0 -0.13065683323E+03  0.57631914038E+02 -0.97065519012E+03  0.98433800215E+03  0.79731792861E+02 0.  0.
         11    1    5    5    0    0 -0.30970133157E+02 -0.27197306747E+03 -0.16908059802E+03  0.32174018587E+03  0.00000000000E+00 0. -1.
        -12    1    5    5    0    0 -0.41215280330E+01 -0.30804851871E+02 -0.55587470589E+02  0.63685891519E+02  0.00000000000E+00 0.  1.
         13    1    3    3    0    0  0.83538118402E+02  0.72290331655E+02 -0.15282308971E+03  0.18857201814E+03  0.00000000000E+00 0. -1.
        -14    1    3    3    0    0  0.82210376013E+02  0.17285567365E+03 -0.16532107183E+03  0.25292031675E+03  0.00000000000E+00 0.  1.
          2    1    6    6  502    0 -0.11961605153E+03  0.35306534388E+02 -0.59883005918E+03  0.61167964731E+03  0.00000000000E+00 0. -1.
         -1    1    6    6    0  502 -0.11040781692E+02  0.22325379650E+02 -0.37182513094E+03  0.37265835484E+03  0.00000000000E+00 0.  1.
<mgrwt>
<rscale>  0 0.37815890E+03</rscale>
<asrwt>0</asrwt>
<pdfrwt beam="1">  1        1 0.25574799E+00 0.37815890E+03</pdfrwt>
<pdfrwt beam="2">  1       -2 0.22906845E-01 0.37815890E+03</pdfrwt>
<totfact> 0.80319723E+01</totfact>
</mgrwt>
</event>
<event>
12    3  0.2422421E-007  0.9498158E+03  0.7818608E-02  0.9365366E-01
         -2   -1    0    0    0  501 -0.00000000000E+00  0.00000000000E+00  0.21436420614E+04  0.21436420614E+04  0.00000000000E+00 0.  1.
          1   -1    0    0  501    0  0.00000000000E+00 -0.00000000000E+00 -0.71803211978E+03  0.71803211978E+03  0.00000000000E+00 0. -1.
        -24    2    1    2    0    0 -0.72556875045E+03  0.56534333666E+03  0.15000398983E+04  0.17608535679E+04  0.66501811787E+02 0.  0.
    5000000    2    1    2    0    0  0.72556875045E+03 -0.56534333666E+03 -0.74429956703E+02  0.11008206133E+04  0.60016922972E+03 0.  0.
        -24    2    4    4    0    0  0.29212696148E+03 -0.42656979214E+03 -0.28203057676E+03  0.59441177919E+03  0.80524330615E+02 0.  0.
         24    2    4    4    0    0  0.43344178897E+03 -0.13877354452E+03  0.20760062006E+03  0.50640883412E+03  0.78879710572E+02 0.  0.
         13    1    5    5    0    0  0.14767791069E+03 -0.14787596476E+03 -0.10208755089E+03  0.23258962639E+03  0.00000000000E+00 0. -1.
        -14    1    5    5    0    0  0.14444905079E+03 -0.27869382738E+03 -0.17994302588E+03  0.36182215280E+03  0.00000000000E+00 0.  1.
         13    1    3    3    0    0 -0.63109898520E+03  0.50161851201E+03  0.13509050644E+04  0.15731660922E+04  0.00000000000E+00 0. -1.
        -14    1    3    3    0    0 -0.94469765250E+02  0.63724824650E+02  0.14913483394E+03  0.18768747566E+03  0.00000000000E+00 0.  1.
          4    1    6    6  502    0  0.35960320438E+03 -0.10015558075E+03  0.13849378960E+03  0.39815340601E+03  0.00000000000E+00 0. -1.
         -3    1    6    6    0  502  0.73838584590E+02 -0.38617963773E+02  0.69106830456E+02  0.10825542811E+03  0.00000000000E+00 0.  1.
<mgrwt>
<rscale>  0 0.94981584E+03</rscale>
<asrwt>0</asrwt>
<pdfrwt beam="1">  1        1 0.11046648E+00 0.94981584E+03</pdfrwt>
<pdfrwt beam="2">  1       -2 0.32979108E+00 0.94981584E+03</pdfrwt>
<totfact> 0.48818714E-01</totfact>
</mgrwt>
</event>
<event>
12    3  0.2422421E-007  0.1365920E+04  0.7818608E-02  0.8978863E-01
          1   -1    0    0  501    0  0.00000000000E+00  0.00000000000E+00  0.81538651203E+03  0.81538651203E+03  0.00000000000E+00 0. -1.
         -2   -1    0    0    0  501 -0.00000000000E+00 -0.00000000000E+00 -0.24491845441E+04  0.24491845441E+04  0.00000000000E+00 0.  1.
        -24    2    1    2    0    0  0.66149758013E+03 -0.11718844479E+04 -0.87653432595E+03  0.16079670344E+04  0.79707913273E+02 0.  0.
    5000000    2    1    2    0    0 -0.66149758013E+03  0.11718844479E+04 -0.75726370612E+03  0.16566040217E+04  0.59999696371E+03 0.  0.
        -24    2    4    4    0    0 -0.19797454589E+03  0.11764980777E+03  0.48811559760E+02  0.24856366794E+03  0.79786781904E+02 0.  0.
         24    2    4    4    0    0 -0.46352303425E+03  0.10542346401E+04 -0.80607526588E+03  0.14080403538E+04  0.80969277609E+02 0.  0.
         11    1    5    5    0    0 -0.99013731580E+02  0.44679588733E+02  0.61712844752E+02  0.12493382207E+03  0.00000000000E+00 0. -1.
        -12    1    5    5    0    0 -0.98960814307E+02  0.72970219034E+02 -0.12901284992E+02  0.12362984587E+03  0.00000000000E+00 0.  1.
         13    1    3    3    0    0  0.72852254871E+02 -0.11608986152E+03 -0.11820412450E+03  0.18098762951E+03  0.00000000000E+00 0. -1.
        -14    1    3    3    0    0  0.58864532526E+03 -0.10557945864E+04 -0.75833020145E+03  0.14269794049E+04  0.00000000000E+00 0.  1.
          4    1    6    6  502    0 -0.41011912059E+03  0.98493671778E+03 -0.74931737655E+03  0.13037540266E+04  0.00000000000E+00 0. -1.
         -3    1    6    6    0  502 -0.53403913654E+02  0.69297922350E+02 -0.56757889331E+02  0.10428632718E+03  0.00000000000E+00 0.  1.
<mgrwt>
<rscale>  0 0.13659202E+04</rscale>
<asrwt>0</asrwt>
<pdfrwt beam="1">  1        1 0.12544408E+00 0.13659202E+04</pdfrwt>
<pdfrwt beam="2">  1       -2 0.37679763E+00 0.13659202E+04</pdfrwt>
<totfact> 0.19116482E-01</totfact>
</mgrwt>
</event>
<event>
12    3  0.2422421E-007  0.4677703E+03  0.7818608E-02  0.1022551E+00
          1   -1    0    0  501    0  0.00000000000E+00  0.00000000000E+00  0.23393332724E+04  0.23393332724E+04  0.00000000000E+00 0. -1.
         -2   -1    0    0    0  501 -0.00000000000E+00 -0.00000000000E+00 -0.15685978611E+03  0.15685978611E+03  0.00000000000E+00 0.  1.
        -24    2    1    2    0    0 -0.39883105255E+03 -0.80670332250E+01  0.38652119486E+03  0.56110278328E+03  0.79412932300E+02 0.  0.
    5000000    2    1    2    0    0  0.39883105255E+03  0.80670332250E+01  0.17959522915E+04  0.19350902753E+04  0.59999871227E+03 0.  0.
        -24    2    4    4    0    0  0.74759031612E+02  0.14325007572E+03  0.11161998126E+03  0.21245412180E+03  0.81044658374E+02 0.  0.
         24    2    4    4    0    0  0.32407202094E+03 -0.13518304250E+03  0.16843323102E+04  0.17226361535E+04  0.84869643094E+02 0.  0.
         11    1    5    5    0    0  0.59730666839E+02  0.47333072897E+02  0.19609604941E+02  0.78693766950E+02  0.00000000000E+00 0. -1.
        -12    1    5    5    0    0  0.15028364772E+02  0.95917002826E+02  0.92010376321E+02  0.13376035485E+03  0.00000000000E+00 0.  1.
         13    1    3    3    0    0 -0.77921288014E+02  0.20027536091E+02  0.11174673076E+03  0.13769590104E+03  0.00000000000E+00 0. -1.
        -14    1    3    3    0    0 -0.32090976454E+03 -0.28094569316E+02  0.27477446410E+03  0.42340688223E+03  0.00000000000E+00 0.  1.
          2    1    6    6  502    0  0.14980179801E+03 -0.20905113409E+02  0.78941262824E+03  0.80377229368E+03  0.00000000000E+00 0. -1.
         -1    1    6    6    0  502  0.17427022293E+03 -0.11427792909E+03  0.89491968196E+03  0.91886385980E+03  0.00000000000E+00 0.  1.
<mgrwt>
<rscale>  0 0.46777035E+03</rscale>
<asrwt>0</asrwt>
<pdfrwt beam="1">  1        1 0.35989740E+00 0.46777035E+03</pdfrwt>
<pdfrwt beam="2">  1       -2 0.24132277E-01 0.46777035E+03</pdfrwt>
<totfact> 0.25679492E+01</totfact>
</mgrwt>
</event>
<event>
12    3  0.2422421E-007  0.5001737E+03  0.7818608E-02  0.1013734E+00
          1   -1    0    0  501    0  0.00000000000E+00  0.00000000000E+00  0.15058395355E+04  0.15058395355E+04  0.00000000000E+00 0. -1.
         -2   -1    0    0    0  501 -0.00000000000E+00 -0.00000000000E+00 -0.21501114311E+03  0.21501114311E+03  0.00000000000E+00 0.  1.
        -24    2    1    2    0    0 -0.36796150482E+03 -0.17090553251E+03  0.48037552781E+03  0.63386469829E+03  0.80121395058E+02 0.  0.
    5000000    2    1    2    0    0  0.36796150482E+03  0.17090553251E+03  0.81045286460E+03  0.10869859803E+04  0.60008358222E+03 0.  0.
        -24    2    4    4    0    0  0.21801471532E+03  0.30255747122E+03  0.77963688442E+03  0.86955743138E+03  0.96046943832E+02 0.  0.
         24    2    4    4    0    0  0.14994678950E+03 -0.13165193871E+03  0.30815980177E+02  0.21742854897E+03  0.80680088154E+02 0.  0.
         11    1    5    5    0    0  0.20059108989E+03  0.21125754061E+03  0.56578977780E+03  0.63638400866E+03  0.00000000000E+00 0. -1.
        -12    1    5    5    0    0  0.17423625434E+02  0.91299930610E+02  0.21384710662E+03  0.23317342272E+03  0.00000000000E+00 0.  1.
         13    1    3    3    0    0 -0.57027996269E+02 -0.48180537225E+02  0.54324546208E+02  0.92329371527E+02  0.00000000000E+00 0. -1.
        -14    1    3    3    0    0 -0.31093350855E+03 -0.12272499528E+03  0.42605098160E+03  0.54153532676E+03  0.00000000000E+00 0.  1.
          2    1    6    6  502    0  0.15468063030E+03 -0.12444916856E+03  0.14600849641E+02  0.19906500887E+03  0.00000000000E+00 0. -1.
         -1    1    6    6    0  502 -0.47338408047E+01 -0.72027701502E+01  0.16215130536E+02  0.18363540097E+02  0.00000000000E+00 0.  1.
<mgrwt>
<rscale>  0 0.50017368E+03</rscale>
<asrwt>0</asrwt>
<pdfrwt beam="1">  1        1 0.23166761E+00 0.50017368E+03</pdfrwt>
<pdfrwt beam="2">  1       -2 0.33078638E-01 0.50017368E+03</pdfrwt>
<totfact> 0.51364861E+01</totfact>
</mgrwt>
</event>
<event>
12    3  0.2422421E-007  0.7131342E+03  0.7818608E-02  0.9695031E-01
          1   -1    0    0  501    0  0.00000000000E+00  0.00000000000E+00  0.19438403133E+04  0.19438403133E+04  0.00000000000E+00 0. -1.
         -2   -1    0    0    0  501 -0.00000000000E+00 -0.00000000000E+00 -0.32772353553E+03  0.32772353553E+03  0.00000000000E+00 0.  1.
        -24    2    1    2    0    0 -0.58033721308E+03 -0.32069179294E+03  0.92851066818E+03  0.11435868956E+04  0.77617137089E+02 0.  0.
    5000000    2    1    2    0    0  0.58033721308E+03  0.32069179294E+03  0.68760610956E+03  0.11279769532E+04  0.59991277537E+03 0.  0.
        -24    2    4    4    0    0  0.58270360704E+03  0.20197596690E+03  0.74783193457E+03  0.97260555653E+03  0.79819680335E+02 0.  0.
         24    2    4    4    0    0 -0.23663939623E+01  0.11871582603E+03 -0.60225825018E+02  0.15537139664E+03  0.80087912466E+02 0.  0.
         11    1    5    5    0    0  0.21947602593E+03  0.10039429379E+03  0.24352037245E+03  0.34285698474E+03  0.00000000000E+00 0. -1.
        -12    1    5    5    0    0  0.36322758111E+03  0.10158167312E+03  0.50431156212E+03  0.62974857179E+03  0.00000000000E+00 0.  1.
         13    1    3    3    0    0 -0.14155774576E+03 -0.54388255268E+02  0.25664859578E+03  0.29810263235E+03  0.00000000000E+00 0. -1.
        -14    1    3    3    0    0 -0.43877946732E+03 -0.26630353767E+03  0.67186207240E+03  0.84548426327E+03  0.00000000000E+00 0.  1.
          4    1    6    6  502    0 -0.29619588258E+02  0.11046322240E+03 -0.43577681901E+02  0.12238651017E+03  0.00000000000E+00 0. -1.
         -3    1    6    6    0  502  0.27253194296E+02  0.82526036318E+01 -0.16648143117E+02  0.32984886468E+02  0.00000000000E+00 0.  1.
<mgrwt>
<rscale>  0 0.71313425E+03</rscale>
<asrwt>0</asrwt>
<pdfrwt beam="1">  1        1 0.29905235E+00 0.71313425E+03</pdfrwt>
<pdfrwt beam="2">  1       -2 0.50419006E-01 0.71313425E+03</pdfrwt>
<totfact> 0.11111742E+01</totfact>
</mgrwt>
</event>
<event>
12    3  0.2422421E-007  0.4696987E+03  0.7818608E-02  0.1022005E+00
         -2   -1    0    0    0  501 -0.00000000000E+00  0.00000000000E+00  0.15992000801E+03  0.15992000801E+03  0.00000000000E+00 0.  1.
          1   -1    0    0  501    0  0.00000000000E+00 -0.00000000000E+00 -0.22975328342E+04  0.22975328342E+04  0.00000000000E+00 0. -1.
        -24    2    1    2    0    0 -0.32326389464E+03 -0.31526641657E+03 -0.73063290459E+03  0.86263054935E+03  0.80090975817E+02 0.  0.
    5000000    2    1    2    0    0  0.32326389464E+03  0.31526641657E+03 -0.14069799217E+04  0.15948222929E+04  0.59997765545E+03 0.  0.
        -24    2    4    4    0    0  0.27063668165E+03  0.24777585159E+03 -0.14270654833E+04  0.14756581354E+04  0.80087156726E+02 0.  0.
         24    2    4    4    0    0  0.52627212994E+02  0.67490564979E+02  0.20085561669E+02  0.11916415756E+03  0.80449156303E+02 0.  0.
         11    1    5    5    0    0  0.68050613351E+02  0.83383479836E+02 -0.29794569752E+03  0.31678909286E+03  0.00000000000E+00 0. -1.
        -12    1    5    5    0    0  0.20258606829E+03  0.16439237175E+03 -0.11291197858E+04  0.11588690425E+04  0.00000000000E+00 0.  1.
         11    1    3    3    0    0 -0.15800135417E+03 -0.11678387300E+03 -0.37168340720E+03  0.42041819192E+03  0.00000000000E+00 0. -1.
        -12    1    3    3    0    0 -0.16526254047E+03 -0.19848254357E+03 -0.35894949739E+03  0.44221235742E+03  0.00000000000E+00 0.  1.
          4    1    6    6  502    0  0.16236580459E+01  0.65039448540E+02  0.23252950333E+01  0.65101252898E+02  0.00000000000E+00 0. -1.
         -3    1    6    6    0  502  0.51003554948E+02  0.24511164389E+01  0.17760266636E+02  0.54062904659E+02  0.00000000000E+00 0.  1.
<mgrwt>
<rscale>  0 0.46969874E+03</rscale>
<asrwt>0</asrwt>
<pdfrwt beam="1">  1        1 0.35346656E+00 0.46969874E+03</pdfrwt>
<pdfrwt beam="2">  1       -2 0.24603080E-01 0.46969874E+03</pdfrwt>
<totfact> 0.26443818E+01</totfact>
</mgrwt>
</event>
<event>
12    3  0.2422421E-007  0.5502749E+03  0.7818608E-02  0.1001430E+00
          1   -1    0    0  501    0  0.00000000000E+00  0.00000000000E+00  0.59820817703E+03  0.59820817703E+03  0.00000000000E+00 0. -1.
         -2   -1    0    0    0  501 -0.00000000000E+00 -0.00000000000E+00 -0.91224358391E+03  0.91224358391E+03  0.00000000000E+00 0.  1.
        -24    2    1    2    0    0  0.33673228280E+03  0.25699274251E+03 -0.58578946456E+03  0.72740383094E+03  0.80827820045E+02 0.  0.
    5000000    2    1    2    0    0 -0.33673228280E+03 -0.25699274251E+03  0.27175405768E+03  0.78304793000E+03  0.59989990235E+03 0.  0.
        -24    2    4    4    0    0 -0.43967307790E+03 -0.31330569644E+03  0.93994429017E+02  0.55371317318E+03  0.79312361041E+02 0.  0.
         24    2    4    4    0    0  0.10294079510E+03  0.56312953934E+02  0.17775962867E+03  0.22933475683E+03  0.85017580710E+02 0.  0.
         11    1    5    5    0    0 -0.41140725865E+03 -0.26806361840E+03  0.95997815048E+02  0.50032950789E+03  0.00000000000E+00 0. -1.
        -12    1    5    5    0    0 -0.28265819251E+02 -0.45242078041E+02 -0.20033860303E+01  0.53383665282E+02  0.00000000000E+00 0.  1.
         13    1    3    3    0    0  0.61782606340E+02  0.19295745225E+02 -0.60242066312E+02  0.88422411093E+02  0.00000000000E+00 0. -1.
        -14    1    3    3    0    0  0.27494967646E+03  0.23769699728E+03 -0.52554739825E+03  0.63898141984E+03  0.00000000000E+00 0.  1.
          4    1    6    6  502    0  0.39149516190E+02 -0.50556107580E+01  0.11726689746E+02  0.41179595317E+02  0.00000000000E+00 0. -1.
         -3    1    6    6    0  502  0.63791278908E+02  0.61368564692E+02  0.16603293892E+03  0.18815516151E+03  0.00000000000E+00 0.  1.
<mgrwt>
<rscale>  0 0.55027486E+03</rscale>
<asrwt>0</asrwt>
<pdfrwt beam="1">  1        1 0.92032028E-01 0.55027486E+03</pdfrwt>
<pdfrwt beam="2">  1       -2 0.14034517E+00 0.55027486E+03</pdfrwt>
<totfact> 0.11227952E+01</totfact>
</mgrwt>
</event>
<event>
12    3  0.2422421E-007  0.6500690E+03  0.7818608E-02  0.9806650E-01
         -2   -1    0    0    0  501 -0.00000000000E+00  0.00000000000E+00  0.15599388044E+04  0.15599388044E+04  0.00000000000E+00 0.  1.
          1   -1    0    0  501    0  0.00000000000E+00 -0.00000000000E+00 -0.58807949703E+03  0.58807949703E+03  0.00000000000E+00 0. -1.
        -24    2    1    2    0    0 -0.52618906866E+03  0.27462801542E+03  0.11393925836E+04  0.12873542860E+04  0.82280710699E+02 0.  0.
    5000000    2    1    2    0    0  0.52618906866E+03 -0.27462801542E+03 -0.16753327621E+03  0.86066401542E+03  0.60031630494E+03 0.  0.
        -24    2    4    4    0    0  0.15314621233E+03  0.92938049246E+02  0.14267971070E+03  0.24655080420E+03  0.91315693388E+02 0.  0.
         24    2    4    4    0    0  0.37304285632E+03 -0.36756606467E+03 -0.31021298691E+03  0.61411321122E+03  0.81468732625E+02 0.  0.
         11    1    5    5    0    0  0.15867041240E+02  0.16468491130E+02  0.69576200444E+02  0.73238117576E+02  0.00000000000E+00 0. -1.
        -12    1    5    5    0    0  0.13727917109E+03  0.76469558117E+02  0.73103510252E+02  0.17331268663E+03  0.00000000000E+00 0.  1.
         13    1    3    3    0    0 -0.48314856916E+03  0.24353055554E+03  0.98120148939E+03  0.11204891941E+04  0.00000000000E+00 0. -1.
        -14    1    3    3    0    0 -0.43040499499E+02  0.31097459886E+02  0.15819109422E+03  0.16686509191E+03  0.00000000000E+00 0.  1.
          2    1    6    6  502    0  0.26618241329E+03 -0.23003180431E+03 -0.17110086398E+03  0.39120737952E+03  0.00000000000E+00 0. -1.
         -1    1    6    6    0  502  0.10686044303E+03 -0.13753426036E+03 -0.13911212293E+03  0.22290583170E+03  0.00000000000E+00 0.  1.
<mgrwt>
<rscale>  0 0.65006903E+03</rscale>
<asrwt>0</asrwt>
<pdfrwt beam="1">  1        1 0.90473769E-01 0.65006903E+03</pdfrwt>
<pdfrwt beam="2">  1       -2 0.23999058E+00 0.65006903E+03</pdfrwt>
<totfact> 0.24018017E+00</totfact>
</mgrwt>
</event>
<event>
12    3  0.2422421E-007  0.3970136E+03  0.7818608E-02  0.1044819E+00
          1   -1    0    0  501    0  0.00000000000E+00  0.00000000000E+00  0.14504169775E+04  0.14504169775E+04  0.00000000000E+00 0. -1.
         -2   -1    0    0    0  501 -0.00000000000E+00 -0.00000000000E+00 -0.28013278193E+03  0.28013278193E+03  0.00000000000E+00 0.  1.
        -24    2    1    2    0    0 -0.31096311091E+02  0.29425258843E+03 -0.76055456816E+02  0.31598192247E+03  0.80675748856E+02 0.  0.
    5000000    2    1    2    0    0  0.31096311091E+02 -0.29425258843E+03  0.12463396523E+04  0.14145678369E+04  0.60007338706E+03 0.  0.
        -24    2    4    4    0    0  0.10526079881E+03 -0.35362133011E+03  0.12343316187E+04  0.12906992242E+04  0.78753168721E+02 0.  0.
         24    2    4    4    0    0 -0.74164487723E+02  0.59368741684E+02  0.12008033663E+02  0.12386861272E+03  0.78576215329E+02 0.  0.
         13    1    3    3    0    0 -0.51350894986E+02  0.25555955712E+03 -0.78524778547E+02  0.27223839277E+03  0.00000000000E+00 0. -1.
        -14    1    3    3    0    0  0.20254583895E+02  0.38693031307E+02  0.24693217310E+01  0.43743529696E+02  0.00000000000E+00 0.  1.
         13    1    5    5    0    0  0.85945439613E+02 -0.15455340827E+03  0.54890586925E+03  0.57668971544E+03  0.00000000000E+00 0. -1.
        -14    1    5    5    0    0  0.19315359201E+02 -0.19906792185E+03  0.68542574943E+03  0.71400950875E+03  0.00000000000E+00 0.  1.
          2    1    6    6  502    0 -0.40065509943E+02 -0.46219784021E+01 -0.19514091260E+02  0.44804101699E+02  0.00000000000E+00 0. -1.
         -1    1    6    6    0  502 -0.34098977780E+02  0.63990720086E+02  0.31522124922E+02  0.79064511017E+02  0.00000000000E+00 0.  1.
<mgrwt>
<rscale>  0 0.39701360E+03</rscale>
<asrwt>0</asrwt>
<pdfrwt beam="1">  1        1 0.22314107E+00 0.39701360E+03</pdfrwt>
<pdfrwt beam="2">  1       -2 0.43097352E-01 0.39701360E+03</pdfrwt>
<totfact> 0.34376655E+01</totfact>
</mgrwt>
</event>
<event>
12    3  0.2422421E-007  0.1565236E+04  0.7818608E-02  0.8842194E-01
         -2   -1    0    0    0  501 -0.00000000000E+00  0.00000000000E+00  0.69947633781E+03  0.69947633781E+03  0.00000000000E+00 0.  1.
          1   -1    0    0  501    0  0.00000000000E+00 -0.00000000000E+00 -0.35443518916E+04  0.35443518916E+04  0.00000000000E+00 0. -1.
        -24    2    1    2    0    0 -0.88491350856E+03 -0.12291265252E+04 -0.14696407371E+04  0.21118939645E+04  0.80176609143E+02 0.  0.
    5000000    2    1    2    0    0  0.88491350856E+03  0.12291265252E+04 -0.13752348167E+04  0.21319342649E+04  0.60004081206E+03 0.  0.
        -24    2    4    4    0    0  0.58186209651E+03  0.11698645190E+04 -0.10623647102E+04  0.16853175285E+04  0.67304548102E+02 0.  0.
         24    2    4    4    0    0  0.30305141206E+03  0.59262006230E+02 -0.31287010654E+03  0.44661673644E+03  0.78909200789E+02 0.  0.
         11    1    3    3    0    0 -0.28996486875E+03 -0.41700052233E+03 -0.54488611807E+03  0.74489592723E+03  0.00000000000E+00 0. -1.
        -12    1    3    3    0    0 -0.59494863981E+03 -0.81212600288E+03 -0.92475461902E+03  0.13669980373E+04  0.00000000000E+00 0.  1.
         13    1    5    5    0    0  0.55163304973E+02  0.13178372104E+03 -0.14130957836E+03  0.20094361469E+03  0.00000000000E+00 0. -1.
        -14    1    5    5    0    0  0.52669879153E+03  0.10380807979E+04 -0.92105513182E+03  0.14843739138E+04  0.00000000000E+00 0.  1.
          4    1    6    6  502    0  0.60628245240E+02  0.15418544979E+02 -0.11388824447E+03  0.12993863120E+03  0.00000000000E+00 0. -1.
         -3    1    6    6    0  502  0.24242316682E+03  0.43843461251E+02 -0.19898186207E+03  0.31667810524E+03  0.00000000000E+00 0.  1.
<mgrwt>
<rscale>  0 0.15652361E+04</rscale>
<asrwt>0</asrwt>
<pdfrwt beam="1">  1        1 0.54528489E+00 0.15652361E+04</pdfrwt>
<pdfrwt beam="2">  1       -2 0.10761175E+00 0.15652361E+04</pdfrwt>
<totfact> 0.13353589E-01</totfact>
</mgrwt>
</event>
<event>
12    3  0.2422421E-007  0.8473484E+03  0.7818608E-02  0.9493903E-01
         -4   -1    0    0    0  501 -0.00000000000E+00  0.00000000000E+00  0.11766379893E+04  0.11766379893E+04  0.00000000000E+00 0.  1.
          1   -1    0    0  501    0  0.00000000000E+00 -0.00000000000E+00 -0.69333710370E+03  0.69333710370E+03  0.00000000000E+00 0. -1.
        -24    2    1    2    0    0 -0.79550210752E+03  0.95293939166E+02  0.19918108285E+03  0.82946977911E+03  0.80265015952E+02 0.  0.
    5000000    2    1    2    0    0  0.79550210752E+03 -0.95293939166E+02  0.28411980273E+03  0.10405053139E+04  0.60001892300E+03 0.  0.
        -24    2    4    4    0    0  0.52477555680E+03  0.11078555780E+03 -0.65816695480E+02  0.54602321872E+03  0.78400849152E+02 0.  0.
         24    2    4    4    0    0  0.27072655072E+03 -0.20607949696E+03  0.34993649821E+03  0.49448209514E+03  0.79343338118E+02 0.  0.
         11    1    5    5    0    0  0.15273052259E+03  0.69211502446E+02 -0.20004351526E+02  0.16886982763E+03  0.00000000000E+00 0. -1.
        -12    1    5    5    0    0  0.37204503420E+03  0.41574055350E+02 -0.45812343954E+02  0.37715339109E+03  0.00000000000E+00 0.  1.
         11    1    3    3    0    0 -0.56440203948E+02  0.27972831787E+02  0.18865917498E+02  0.65756359259E+02  0.00000000000E+00 0. -1.
        -12    1    3    3    0    0 -0.73906190357E+03  0.67321107380E+02  0.18031516536E+03  0.76371341985E+03  0.00000000000E+00 0.  1.
          2    1    6    6  502    0  0.16409024568E+03 -0.16657789148E+03  0.21110735522E+03  0.31502399605E+03  0.00000000000E+00 0. -1.
         -1    1    6    6    0  502  0.10663630504E+03 -0.39501605487E+02  0.13882914299E+03  0.17945809909E+03  0.00000000000E+00 0.  1.
<mgrwt>
<rscale>  0 0.84734843E+03</rscale>
<asrwt>0</asrwt>
<pdfrwt beam="1">  1        1 0.10666725E+00 0.84734843E+03</pdfrwt>
<pdfrwt beam="2">  1       -4 0.18102123E+00 0.84734843E+03</pdfrwt>
<totfact> 0.23410227E+00</totfact>
</mgrwt>
</event>
<event>
12    3  0.2422421E-007  0.1836555E+04  0.7818608E-02  0.8687098E-01
          1   -1    0    0  501    0  0.00000000000E+00  0.00000000000E+00  0.17613760653E+04  0.17613760653E+04  0.00000000000E+00 0. -1.
         -2   -1    0    0    0  501 -0.00000000000E+00 -0.00000000000E+00 -0.21102192311E+04  0.21102192311E+04  0.00000000000E+00 0.  1.
        -24    2    1    2    0    0 -0.97146692133E+03 -0.15156335394E+04 -0.71486813188E+03  0.19390016188E+04  0.88305304025E+02 0.  0.
    5000000    2    1    2    0    0  0.97146692133E+03  0.15156335394E+04  0.36602496609E+03  0.19325936776E+04  0.60004253330E+03 0.  0.
        -24    2    4    4    0    0  0.96556603065E+03  0.15096635263E+04  0.41094432797E+03  0.18401834333E+04  0.77447436055E+02 0.  0.
         24    2    4    4    0    0  0.59008906822E+01  0.59700131167E+01 -0.44919361882E+02  0.92410244268E+02  0.80320872793E+02 0.  0.
         11    1    3    3    0    0 -0.40929775118E+03 -0.61812868057E+03 -0.33973135004E+03  0.81549071427E+03  0.00000000000E+00 0. -1.
        -12    1    3    3    0    0 -0.56216917016E+03 -0.89750485886E+03 -0.37513678184E+03  0.11235109045E+04  0.00000000000E+00 0.  1.
         11    1    5    5    0    0  0.23673412406E+03  0.38719232921E+03  0.70989241777E+02  0.45934781782E+03  0.00000000000E+00 0. -1.
        -12    1    5    5    0    0  0.72883190659E+03  0.11224711971E+04  0.33995508619E+03  0.13808356155E+04  0.00000000000E+00 0.  1.
          2    1    6    6  502    0  0.36170050925E+02  0.25751366754E+02 -0.27963326034E+02  0.52472402999E+02  0.00000000000E+00 0. -1.
         -1    1    6    6    0  502 -0.30269160242E+02 -0.19781353638E+02 -0.16956035848E+02  0.39937841269E+02  0.00000000000E+00 0.  1.
<mgrwt>
<rscale>  0 0.18365554E+04</rscale>
<asrwt>0</asrwt>
<pdfrwt beam="1">  1        1 0.27098093E+00 0.18365554E+04</pdfrwt>
<pdfrwt beam="2">  1       -2 0.32464911E+00 0.18365554E+04</pdfrwt>
<totfact> 0.77128049E-02</totfact>
</mgrwt>
</event>
<event>
12    3  0.2422421E-007  0.1608778E+04  0.7818608E-02  0.8815173E-01
          1   -1    0    0  501    0  0.00000000000E+00  0.00000000000E+00  0.25457810170E+04  0.25457810170E+04  0.00000000000E+00 0. -1.
         -2   -1    0    0    0  501 -0.00000000000E+00 -0.00000000000E+00 -0.10418263838E+04  0.10418263838E+04  0.00000000000E+00 0.  1.
        -24    2    1    2    0    0  0.98459121854E+02 -0.15683229830E+04  0.78564988782E+03  0.17586347929E+04  0.78863240927E+02 0.  0.
    5000000    2    1    2    0    0 -0.98459121854E+02  0.15683229830E+04  0.71830474538E+03  0.18289726080E+04  0.59987324993E+03 0.  0.
        -24    2    4    4    0    0 -0.14572378499E+03  0.15652830620E+04  0.66842075156E+03  0.17102580079E+04  0.82762712848E+02 0.  0.
         24    2    4    4    0    0  0.47264663138E+02  0.30399209859E+01  0.49883993819E+02  0.11871460015E+03  0.96755123630E+02 0.  0.
         11    1    5    5    0    0 -0.71875447144E+02  0.66793683232E+03  0.32897179838E+03  0.74801613352E+03  0.00000000000E+00 0. -1.
        -12    1    5    5    0    0 -0.73848337848E+02  0.89734622970E+03  0.33944895317E+03  0.96224187436E+03  0.00000000000E+00 0.  1.
         13    1    3    3    0    0  0.37079124961E+02 -0.10067878061E+04  0.47260685376E+03  0.11128134553E+04  0.00000000000E+00 0. -1.
        -14    1    3    3    0    0  0.61379996893E+02 -0.56153517686E+03  0.31304303406E+03  0.64582133756E+03  0.00000000000E+00 0.  1.
          4    1    6    6  502    0  0.26832815477E+02 -0.26107726251E+02  0.68858187636E+02  0.78377696834E+02  0.00000000000E+00 0. -1.
         -3    1    6    6    0  502  0.20431847660E+02  0.29147647237E+02 -0.18974193817E+02  0.40336903318E+02  0.00000000000E+00 0.  1.
<mgrwt>
<rscale>  0 0.16087783E+04</rscale>
<asrwt>0</asrwt>
<pdfrwt beam="1">  1        1 0.39165862E+00 0.16087783E+04</pdfrwt>
<pdfrwt beam="2">  1       -2 0.16028098E+00 0.16087783E+04</pdfrwt>
<totfact> 0.25879685E-01</totfact>
</mgrwt>
</event>
<event>
12    3  0.2422421E-007  0.6830516E+03  0.7818608E-02  0.9746663E-01
          1   -1    0    0  501    0  0.00000000000E+00  0.00000000000E+00  0.11499675626E+04  0.11499675626E+04  0.00000000000E+00 0. -1.
         -2   -1    0    0    0  501 -0.00000000000E+00 -0.00000000000E+00 -0.51157846434E+03  0.51157846434E+03  0.00000000000E+00 0.  1.
        -24    2    1    2    0    0  0.38064471168E+03 -0.44604822676E+03 -0.24563894589E+02  0.59222352908E+03  0.79220618241E+02 0.  0.
    5000000    2    1    2    0    0 -0.38064471168E+03  0.44604822676E+03  0.66295299286E+03  0.10693224979E+04  0.60007875864E+03 0.  0.
        -24    2    4    4    0    0  0.87922963213E+02 -0.25574316798E+02 -0.75272964091E+01  0.12140746301E+03  0.79363837762E+02 0.  0.
         24    2    4    4    0    0 -0.46856767489E+03  0.47162254356E+03  0.67048028927E+03  0.94791503485E+03  0.83759211164E+02 0.  0.
         13    1    5    5    0    0  0.87144964829E+02 -0.82543176501E+01  0.19136774993E+02  0.89602426373E+02  0.00000000000E+00 0. -1.
        -14    1    5    5    0    0  0.77799838427E+00 -0.17319999148E+02 -0.26664071402E+02  0.31805036640E+02  0.00000000000E+00 0.  1.
         13    1    3    3    0    0  0.11485641747E+03 -0.19371778336E+03 -0.71573858073E+01  0.22532155777E+03  0.00000000000E+00 0. -1.
        -14    1    3    3    0    0  0.26578829421E+03 -0.25233044341E+03 -0.17406508781E+02  0.36690197132E+03  0.00000000000E+00 0.  1.
          4    1    6    6  502    0 -0.11178577000E+03  0.16383055088E+03  0.18146218930E+03  0.26882156521E+03  0.00000000000E+00 0. -1.
         -3    1    6    6    0  502 -0.35678190489E+03  0.30779199268E+03  0.48901809997E+03  0.67909346964E+03  0.00000000000E+00 0.  1.
<mgrwt>
<rscale>  0 0.68305164E+03</rscale>
<asrwt>0</asrwt>
<pdfrwt beam="1">  1        1 0.17691809E+00 0.68305164E+03</pdfrwt>
<pdfrwt beam="2">  1       -2 0.78704380E-01 0.68305164E+03</pdfrwt>
<totfact> 0.15130759E+01</totfact>
</mgrwt>
</event>
<event>
12    3  0.3573758E-007  0.1119118E+04  0.7818608E-02  0.9186756E-01
          1   -1    0    0  501    0  0.00000000000E+00  0.00000000000E+00  0.13745775429E+04  0.13745775429E+04  0.00000000000E+00 0. -1.
         -2   -1    0    0    0  501 -0.00000000000E+00 -0.00000000000E+00 -0.93622821150E+03  0.93622821150E+03  0.00000000000E+00 0.  1.
        -24    2    1    2    0    0 -0.10513768527E+04  0.47895656902E+00  0.13849310422E+03  0.10636108792E+04  0.81818376214E+02 0.  0.
    5000000    2    1    2    0    0  0.10513768527E+04 -0.47895656902E+00  0.29985622718E+03  0.12471948752E+04  0.60015646622E+03 0.  0.
        -24    2    4    4    0    0  0.10262420456E+04 -0.13539408335E+03  0.19142921455E+03  0.10556464777E+04  0.78993972221E+02 0.  0.
         24    2    4    4    0    0  0.25134807053E+02  0.13491512678E+03  0.10842701263E+03  0.19154839749E+03  0.78105835591E+02 0.  0.
         13    1    3    3    0    0 -0.52317087144E+03 -0.36438596598E+02  0.50639370502E+02  0.52687747901E+03  0.00000000000E+00 0. -1.
        -14    1    3    3    0    0 -0.52820598126E+03  0.36917553167E+02  0.87853733720E+02  0.53673340021E+03  0.00000000000E+00 0.  1.
         13    1    5    5    0    0  0.33465277871E+03 -0.13844755929E+02  0.40049153641E+02  0.33732490906E+03  0.00000000000E+00 0. -1.
        -14    1    5    5    0    0  0.69158926693E+03 -0.12154932742E+03  0.15138006091E+03  0.71832156864E+03  0.00000000000E+00 0.  1.
          4    1    6    6  502    0  0.25038841770E+02  0.19441149380E+02 -0.20121571118E+01  0.31763983734E+02  0.00000000000E+00 0. -1.
         -3    1    6    6    0  502  0.95965282254E-01  0.11547397740E+03  0.11043916974E+03  0.15978441376E+03  0.00000000000E+00 0.  1.
<mgrwt>
<rscale>  0 0.11191177E+04</rscale>
<asrwt>0</asrwt>
<pdfrwt beam="1">  1        1 0.21147347E+00 0.11191177E+04</pdfrwt>
<pdfrwt beam="2">  1       -2 0.14403511E+00 0.11191177E+04</pdfrwt>
<totfact> 0.23051257E+00</totfact>
</mgrwt>
</event>
<event>
12    3  0.2422421E-007  0.5877380E+03  0.7818608E-02  0.9931178E-01
         -2   -1    0    0    0  501 -0.00000000000E+00  0.00000000000E+00  0.50127579557E+03  0.50127579557E+03  0.00000000000E+00 0.  1.
          1   -1    0    0  501    0  0.00000000000E+00 -0.00000000000E+00 -0.18739855369E+04  0.18739855369E+04  0.00000000000E+00 0. -1.
        -24    2    1    2    0    0  0.21906422731E+03 -0.49819289914E+03  0.21683785844E+03  0.59118881324E+03  0.79374149484E+02 0.  0.
    5000000    2    1    2    0    0 -0.21906422731E+03  0.49819289914E+03 -0.15895475997E+04  0.17840725192E+04  0.60005656524E+03 0.  0.
        -24    2    4    4    0    0 -0.77481870974E+02  0.40048710967E+01  0.73549491295E+00  0.11047327202E+03  0.78640470214E+02 0.  0.
         24    2    4    4    0    0 -0.14158235634E+03  0.49418802805E+03 -0.15902830946E+04  0.16735992472E+04  0.87559970015E+02 0.  0.
         11    1    5    5    0    0 -0.50551506776E+02  0.40682289641E+02 -0.16360179189E+01  0.64909013876E+02  0.00000000000E+00 0. -1.
        -12    1    5    5    0    0 -0.26930364198E+02 -0.36677418544E+02  0.23715128318E+01  0.45564258142E+02  0.00000000000E+00 0.  1.
         13    1    3    3    0    0  0.18706832574E+03 -0.41760087407E+03  0.14945767329E+03  0.48137578317E+03  0.00000000000E+00 0. -1.
        -14    1    3    3    0    0  0.31995901570E+02 -0.80592025078E+02  0.67380185147E+02  0.10981303007E+03  0.00000000000E+00 0.  1.
          4    1    6    6  502    0 -0.10546972949E+03  0.21717461867E+03 -0.69461847579E+03  0.73537983773E+03  0.00000000000E+00 0. -1.
         -3    1    6    6    0  502 -0.36112626846E+02  0.27701340938E+03 -0.89566461885E+03  0.93821940944E+03  0.00000000000E+00 0.  1.
<mgrwt>
<rscale>  0 0.58773798E+03</rscale>
<asrwt>0</asrwt>
<pdfrwt beam="1">  1        1 0.28830547E+00 0.58773798E+03</pdfrwt>
<pdfrwt beam="2">  1       -2 0.77119353E-01 0.58773798E+03</pdfrwt>
<totfact> 0.51212770E+00</totfact>
</mgrwt>
</event>
<event>
12    3  0.2422421E-007  0.6254264E+03  0.7818608E-02  0.9854015E-01
          1   -1    0    0  501    0  0.00000000000E+00  0.00000000000E+00  0.27708551829E+03  0.27708551829E+03  0.00000000000E+00 0. -1.
         -2   -1    0    0    0  501 -0.00000000000E+00 -0.00000000000E+00 -0.19711980935E+04  0.19711980935E+04  0.00000000000E+00 0.  1.
        -24    2    1    2    0    0 -0.59964796146E+03 -0.74141921397E+02 -0.54197552180E+03  0.81557277102E+03  0.79666658087E+02 0.  0.
    5000000    2    1    2    0    0  0.59964796146E+03  0.74141921397E+02 -0.11521370534E+04  0.14327108408E+04  0.60013820175E+03 0.  0.
        -24    2    4    4    0    0  0.44470843918E+03 -0.71972662345E+01 -0.26367962982E+03  0.52368833997E+03  0.83097134224E+02 0.  0.
         24    2    4    4    0    0  0.15493952228E+03  0.81339187631E+02 -0.88845742357E+03  0.90902250078E+03  0.79642918153E+02 0.  0.
         11    1    5    5    0    0  0.17714236148E+03  0.36991182079E+02 -0.11504712676E+03  0.21443788182E+03  0.00000000000E+00 0. -1.
        -12    1    5    5    0    0  0.26756607770E+03 -0.44188448314E+02 -0.14863250306E+03  0.30925045815E+03  0.00000000000E+00 0.  1.
         13    1    3    3    0    0 -0.27646163459E+03  0.53296782759E+01 -0.23801575579E+03  0.36484372116E+03  0.00000000000E+00 0. -1.
        -14    1    3    3    0    0 -0.32318632687E+03 -0.79471599673E+02 -0.30395976602E+03  0.45072904986E+03  0.00000000000E+00 0.  1.
          4    1    6    6  502    0  0.90610908076E+02  0.85933360582E+02 -0.65621418923E+03  0.66799097395E+03  0.00000000000E+00 0. -1.
         -3    1    6    6    0  502  0.64328614205E+02 -0.45941729510E+01 -0.23224323434E+03  0.24103152684E+03  0.00000000000E+00 0.  1.
<mgrwt>
<rscale>  0 0.62542635E+03</rscale>
<asrwt>0</asrwt>
<pdfrwt beam="1">  1        1 0.42628540E-01 0.62542635E+03</pdfrwt>
<pdfrwt beam="2">  1       -2 0.30326126E+00 0.62542635E+03</pdfrwt>
<totfact> 0.27462983E+00</totfact>
</mgrwt>
</event>
<event>
12    3  0.2422421E-007  0.4144232E+03  0.7818608E-02  0.1038897E+00
          1   -1    0    0  501    0  0.00000000000E+00  0.00000000000E+00  0.12063659601E+04  0.12063659601E+04  0.00000000000E+00 0. -1.
         -2   -1    0    0    0  501 -0.00000000000E+00 -0.00000000000E+00 -0.16667983040E+03  0.16667983040E+03  0.00000000000E+00 0.  1.
        -24    2    1    2    0    0  0.76246278926E+02  0.18661292604E+03  0.48714125450E+03  0.53275151903E+03  0.76679201763E+02 0.  0.
    5000000    2    1    2    0    0 -0.76246278926E+02 -0.18661292604E+03  0.55254487519E+03  0.84029427145E+03  0.60012560712E+03 0.  0.
        -24    2    4    4    0    0 -0.24825186444E+03  0.10733511979E+03  0.27425860641E+03  0.39356463725E+03  0.80780717802E+02 0.  0.
         24    2    4    4    0    0  0.17200558551E+03 -0.29394804583E+03  0.27828626879E+03  0.44672963420E+03  0.78311835534E+02 0.  0.
         11    1    5    5    0    0 -0.37174576886E+02  0.36273984906E+02  0.20263108667E+02  0.55752531067E+02  0.00000000000E+00 0. -1.
        -12    1    5    5    0    0 -0.21107728755E+03  0.71061134882E+02  0.25399549774E+03  0.33781210618E+03  0.00000000000E+00 0.  1.
         13    1    3    3    0    0 -0.30402123304E+01  0.75248939254E+02  0.12854624131E+03  0.14898248859E+03  0.00000000000E+00 0. -1.
        -14    1    3    3    0    0  0.79286491257E+02  0.11136398679E+03  0.35859501318E+03  0.38376903045E+03  0.00000000000E+00 0.  1.
          2    1    6    6  502    0  0.66542290650E+02 -0.83441145013E+02  0.13115252124E+03  0.16908957671E+03  0.00000000000E+00 0. -1.
         -1    1    6    6    0  502  0.10546329486E+03 -0.21050690082E+03  0.14713374755E+03  0.27764005749E+03  0.00000000000E+00 0.  1.
<mgrwt>
<rscale>  0 0.41442323E+03</rscale>
<asrwt>0</asrwt>
<pdfrwt beam="1">  1        1 0.18559476E+00 0.41442323E+03</pdfrwt>
<pdfrwt beam="2">  1       -2 0.25643052E-01 0.41442323E+03</pdfrwt>
<totfact> 0.13350140E+02</totfact>
</mgrwt>
</event>
<event>
12    3  0.2422421E-007  0.3221810E+03  0.7818608E-02  0.1074650E+00
          1   -1    0    0  501    0  0.00000000000E+00  0.00000000000E+00  0.89227993879E+03  0.89227993879E+03  0.00000000000E+00 0. -1.
         -2   -1    0    0    0  501 -0.00000000000E+00 -0.00000000000E+00 -0.17574043811E+03  0.17574043811E+03  0.00000000000E+00 0.  1.
        -24    2    1    2    0    0 -0.30358775970E+02 -0.99563390273E+02  0.54262615434E+01  0.13188108093E+03  0.80800069500E+02 0.  0.
    5000000    2    1    2    0    0  0.30358775970E+02  0.99563390273E+02  0.71111323913E+03  0.93613929598E+03  0.59986683409E+03 0.  0.
        -24    2    4    4    0    0 -0.83334388355E+02  0.27595937007E+03  0.15527138784E+03  0.33656527124E+03  0.77902398600E+02 0.  0.
         24    2    4    4    0    0  0.11369316432E+03 -0.17639597980E+03  0.55584185129E+03  0.59957402474E+03  0.80542971069E+02 0.  0.
         11    1    3    3    0    0  0.26996609945E+02 -0.19688641385E+02  0.33448723217E+00  0.33415137734E+02  0.00000000000E+00 0. -1.
        -12    1    3    3    0    0 -0.57355385914E+02 -0.79874748888E+02  0.50917743112E+01  0.98465943193E+02  0.00000000000E+00 0.  1.
         11    1    5    5    0    0 -0.64268413087E+02  0.16444053083E+03  0.13351969966E+03  0.22135633557E+03  0.00000000000E+00 0. -1.
        -12    1    5    5    0    0 -0.19065975268E+02  0.11151883924E+03  0.21751688183E+02  0.11520893566E+03  0.00000000000E+00 0.  1.
          4    1    6    6  502    0  0.30876358187E+02 -0.11701065127E+03  0.33972027146E+03  0.36063098154E+03  0.00000000000E+00 0. -1.
         -3    1    6    6    0  502  0.82816806137E+02 -0.59385328526E+02  0.21612157983E+03  0.23894304320E+03  0.00000000000E+00 0.  1.
<mgrwt>
<rscale>  0 0.32218095E+03</rscale>
<asrwt>0</asrwt>
<pdfrwt beam="1">  1        1 0.13727383E+00 0.32218095E+03</pdfrwt>
<pdfrwt beam="2">  1       -2 0.27036991E-01 0.32218095E+03</pdfrwt>
<totfact> 0.21074250E+02</totfact>
</mgrwt>
</event>
<event>
12    3  0.2422421E-007  0.1201811E+04  0.7818608E-02  0.9111273E-01
          1   -1    0    0  501    0  0.00000000000E+00  0.00000000000E+00  0.98557795434E+03  0.98557795434E+03  0.00000000000E+00 0. -1.
         -2   -1    0    0    0  501 -0.00000000000E+00 -0.00000000000E+00 -0.16384388817E+04  0.16384388817E+04  0.00000000000E+00 0.  1.
        -24    2    1    2    0    0 -0.96616891938E+03  0.64097480014E+03 -0.62302028258E+03  0.13182955889E+04  0.73606466983E+02 0.  0.
    5000000    2    1    2    0    0  0.96616891938E+03 -0.64097480014E+03 -0.29840644771E+02  0.13057212471E+04  0.59973863970E+03 0.  0.
        -24    2    4    4    0    0  0.54278862999E+03 -0.60561720033E+03 -0.19992727851E+03  0.84127049177E+03  0.79833786376E+02 0.  0.
         24    2    4    4    0    0  0.42338028939E+03 -0.35357599813E+02  0.17008663374E+03  0.46445075537E+03  0.79271759634E+02 0.  0.
         13    1    5    5    0    0  0.11370353720E+03 -0.14945794895E+03 -0.15537989412E+02  0.18843460932E+03  0.00000000000E+00 0. -1.
        -14    1    5    5    0    0  0.42908509278E+03 -0.45615925138E+03 -0.18438928910E+03  0.65283588244E+03  0.00000000000E+00 0.  1.
         13    1    3    3    0    0 -0.21846274348E+03  0.12826467777E+03 -0.16734633404E+03  0.30361586482E+03  0.00000000000E+00 0. -1.
        -14    1    3    3    0    0 -0.74770617590E+03  0.51271012237E+03 -0.45567394854E+03  0.10146797241E+04  0.00000000000E+00 0.  1.
          4    1    6    6  502    0  0.13447388188E+03  0.18530447037E+02  0.77562517997E+02  0.15634112247E+03  0.00000000000E+00 0. -1.
         -3    1    6    6    0  502  0.28890640751E+03 -0.53888046850E+02  0.92524115742E+02  0.30810963290E+03  0.00000000000E+00 0.  1.
<mgrwt>
<rscale>  0 0.12018110E+04</rscale>
<asrwt>0</asrwt>
<pdfrwt beam="1">  1        1 0.15162738E+00 0.12018110E+04</pdfrwt>
<pdfrwt beam="2">  1       -2 0.25206752E+00 0.12018110E+04</pdfrwt>
<totfact> 0.83030897E-01</totfact>
</mgrwt>
</event>
<event>
12    3  0.2422421E-007  0.6689818E+03  0.7818608E-02  0.9771799E-01
         -2   -1    0    0    0  501 -0.00000000000E+00  0.00000000000E+00  0.22069454555E+03  0.22069454555E+03  0.00000000000E+00 0.  1.
          1   -1    0    0  501    0  0.00000000000E+00 -0.00000000000E+00 -0.22567472714E+04  0.22567472714E+04  0.00000000000E+00 0. -1.
        -24    2    1    2    0    0 -0.44688159111E+03  0.31446435651E+03 -0.11509545489E+04  0.12765795922E+04  0.79800335248E+02 0.  0.
    5000000    2    1    2    0    0  0.44688159111E+03 -0.31446435651E+03 -0.88509817695E+03  0.12008622248E+04  0.60006692300E+03 0.  0.
        -24    2    4    4    0    0 -0.55641225262E+02  0.94025499118E+02 -0.57791078034E+02  0.14729010185E+03  0.80111328597E+02 0.  0.
         24    2    4    4    0    0  0.50252281638E+03 -0.40848985563E+03 -0.82730709892E+03  0.10535721229E+04  0.78638662049E+02 0.  0.
         13    1    5    5    0    0 -0.34758770122E+02 -0.35178527180E+01 -0.81819790389E+01  0.35881641116E+02  0.00000000000E+00 0. -1.
        -14    1    5    5    0    0 -0.20882455140E+02  0.97543351836E+02 -0.49609098995E+02  0.11140846073E+03  0.00000000000E+00 0.  1.
         13    1    3    3    0    0 -0.37286436040E+03  0.22285653373E+03 -0.91369336907E+03  0.10116958231E+04  0.00000000000E+00 0. -1.
        -14    1    3    3    0    0 -0.74017230715E+02  0.91607822777E+02 -0.23726117986E+03  0.26488376905E+03  0.00000000000E+00 0.  1.
          2    1    6    6  502    0  0.41577529215E+03 -0.36857376316E+03 -0.68174726309E+03  0.87948566969E+03  0.00000000000E+00 0. -1.
         -1    1    6    6    0  502  0.86747524222E+02 -0.39916092466E+02 -0.14555983583E+03  0.17408645324E+03  0.00000000000E+00 0.  1.
<mgrwt>
<rscale>  0 0.66898175E+03</rscale>
<asrwt>0</asrwt>
<pdfrwt beam="1">  1        1 0.34719189E+00 0.66898175E+03</pdfrwt>
<pdfrwt beam="2">  1       -2 0.33953007E-01 0.66898175E+03</pdfrwt>
<totfact> 0.15013019E+01</totfact>
</mgrwt>
</event>
<event>
12    3  0.2422421E-007  0.1258545E+04  0.7818608E-02  0.9063101E-01
          1   -1    0    0  501    0  0.00000000000E+00  0.00000000000E+00  0.27607008362E+04  0.27607008362E+04  0.00000000000E+00 0. -1.
         -2   -1    0    0    0  501 -0.00000000000E+00 -0.00000000000E+00 -0.83932033335E+03  0.83932033335E+03  0.00000000000E+00 0.  1.
        -24    2    1    2    0    0 -0.22682600923E+03 -0.11961250736E+04 -0.32820812755E+02  0.12207076729E+04  0.82974614715E+02 0.  0.
    5000000    2    1    2    0    0  0.22682600923E+03  0.11961250736E+04  0.19542013156E+04  0.23793134966E+04  0.60005391695E+03 0.  0.
        -24    2    4    4    0    0 -0.19364901381E+01  0.95679161294E+03  0.11011117058E+04  0.14608989168E+04  0.79528082313E+02 0.  0.
         24    2    4    4    0    0  0.22876249936E+03  0.23933346068E+03  0.85308960975E+03  0.91841457981E+03  0.78170784966E+02 0.  0.
         11    1    3    3    0    0 -0.23285699165E+03 -0.11229949756E+04 -0.31697294724E+02  0.11473207103E+04  0.00000000000E+00 0. -1.
        -12    1    3    3    0    0  0.60309824215E+01 -0.73130097973E+02 -0.11235180307E+01  0.73386962543E+02  0.00000000000E+00 0.  1.
         11    1    5    5    0    0 -0.74800615254E+01  0.40748703351E+03  0.52850597726E+03  0.66739808345E+03  0.00000000000E+00 0. -1.
        -12    1    5    5    0    0  0.55435713874E+01  0.54930457943E+03  0.57260572855E+03  0.79350083336E+03  0.00000000000E+00 0.  1.
          4    1    6    6  502    0  0.47415854622E+02  0.11583075525E+02  0.11078988933E+03  0.12106539756E+03  0.00000000000E+00 0. -1.
         -3    1    6    6    0  502  0.18134664474E+03  0.22775038515E+03  0.74229972042E+03  0.79734918225E+03  0.00000000000E+00 0.  1.
<mgrwt>
<rscale>  0 0.12585449E+04</rscale>
<asrwt>0</asrwt>
<pdfrwt beam="1">  1        1 0.42472320E+00 0.12585449E+04</pdfrwt>
<pdfrwt beam="2">  1       -2 0.12912621E+00 0.12585449E+04</pdfrwt>
<totfact> 0.33706026E-01</totfact>
</mgrwt>
</event>
<event>
12    3  0.2422421E-007  0.4263722E+03  0.7818608E-02  0.1035012E+00
          1   -1    0    0  501    0  0.00000000000E+00  0.00000000000E+00  0.15481129773E+04  0.15481129773E+04  0.00000000000E+00 0. -1.
         -2   -1    0    0    0  501 -0.00000000000E+00 -0.00000000000E+00 -0.17083612126E+03  0.17083612126E+03  0.00000000000E+00 0.  1.
        -24    2    1    2    0    0 -0.46324420112E+02  0.32922140417E+03  0.42475939374E+03  0.54517845222E+03  0.79160074045E+02 0.  0.
    5000000    2    1    2    0    0  0.46324420112E+02 -0.32922140417E+03  0.95251746232E+03  0.11737706464E+04  0.59992943701E+03 0.  0.
        -24    2    4    4    0    0  0.24238212716E+02 -0.40963843466E+03  0.30801793172E+03  0.51934859852E+03  0.80354106477E+02 0.  0.
         24    2    4    4    0    0  0.22086207396E+02  0.80417030483E+02  0.64449953060E+03  0.65442204785E+03  0.77031632539E+02 0.  0.
         11    1    3    3    0    0  0.13296940544E+02  0.16946633786E+03  0.18872585085E+03  0.25399428158E+03  0.00000000000E+00 0. -1.
        -12    1    3    3    0    0 -0.59621360656E+02  0.15975506631E+03  0.23603354289E+03  0.29118417063E+03  0.00000000000E+00 0.  1.
         11    1    5    5    0    0 -0.10735314927E+02 -0.14173762534E+03  0.14864914342E+03  0.20567296678E+03  0.00000000000E+00 0. -1.
        -12    1    5    5    0    0  0.34973527643E+02 -0.26790080932E+03  0.15936878829E+03  0.31367563175E+03  0.00000000000E+00 0.  1.
          2    1    6    6  502    0  0.35110513919E+02  0.25273654258E+02  0.44301315973E+03  0.44512039437E+03  0.00000000000E+00 0. -1.
         -1    1    6    6    0  502 -0.13024306523E+02  0.55143376225E+02  0.20148637087E+03  0.20930165348E+03  0.00000000000E+00 0.  1.
<mgrwt>
<rscale>  0 0.42637215E+03</rscale>
<asrwt>0</asrwt>
<pdfrwt beam="1">  1        1 0.23817122E+00 0.42637215E+03</pdfrwt>
<pdfrwt beam="2">  1       -2 0.26282481E-01 0.42637215E+03</pdfrwt>
<totfact> 0.74269833E+01</totfact>
</mgrwt>
</event>
<event>
12    3  0.2422421E-007  0.4000356E+03  0.7818608E-02  0.1043767E+00
          1   -1    0    0  501    0  0.00000000000E+00  0.00000000000E+00  0.14826679885E+04  0.14826679885E+04  0.00000000000E+00 0. -1.
         -2   -1    0    0    0  501 -0.00000000000E+00 -0.00000000000E+00 -0.13138894451E+03  0.13138894451E+03  0.00000000000E+00 0.  1.
        -24    2    1    2    0    0 -0.15420426296E+03 -0.95639199883E+02  0.62077093407E+03  0.65160102216E+03  0.79382165677E+02 0.  0.
    5000000    2    1    2    0    0  0.15420426296E+03  0.95639199883E+02  0.73050810989E+03  0.96245591082E+03  0.59979452347E+03 0.  0.
        -24    2    4    4    0    0  0.29405997767E+03 -0.14486774773E+03  0.39451177309E+03  0.51894024948E+03  0.78749657955E+02 0.  0.
         24    2    4    4    0    0 -0.13985571471E+03  0.24050694761E+03  0.33599633680E+03  0.44351566133E+03  0.80058670497E+02 0.  0.
         11    1    5    5    0    0  0.91169163861E+02 -0.34095166922E+02  0.67398901815E+02  0.11839302687E+03  0.00000000000E+00 0. -1.
        -12    1    5    5    0    0  0.20289081381E+03 -0.11077258080E+03  0.32711287127E+03  0.40054722261E+03  0.00000000000E+00 0.  1.
         13    1    3    3    0    0 -0.15511338058E+03 -0.78095399337E+02  0.49437605689E+03  0.52399116201E+03  0.00000000000E+00 0. -1.
        -14    1    3    3    0    0  0.90911761625E+00 -0.17543800545E+02  0.12639487718E+03  0.12760986016E+03  0.00000000000E+00 0.  1.
          2    1    6    6  502    0 -0.12113124554E+03  0.22686068522E+03  0.26690894846E+03  0.37064664563E+03  0.00000000000E+00 0. -1.
         -1    1    6    6    0  502 -0.18724469172E+02  0.13646262385E+02  0.69087388340E+02  0.72869015710E+02  0.00000000000E+00 0.  1.
<mgrwt>
<rscale>  0 0.40003564E+03</rscale>
<asrwt>0</asrwt>
<pdfrwt beam="1">  1        1 0.22810276E+00 0.40003564E+03</pdfrwt>
<pdfrwt beam="2">  1       -2 0.20213685E-01 0.40003564E+03</pdfrwt>
<totfact> 0.13119519E+02</totfact>
</mgrwt>
</event>
<event>
12    3  0.2422421E-007  0.6322585E+03  0.7818608E-02  0.9840651E-01
         -2   -1    0    0    0  501 -0.00000000000E+00  0.00000000000E+00  0.20251421282E+03  0.20251421282E+03  0.00000000000E+00 0.  1.
          1   -1    0    0  501    0  0.00000000000E+00 -0.00000000000E+00 -0.20073504718E+04  0.20073504718E+04  0.00000000000E+00 0. -1.
        -24    2    1    2    0    0  0.48315935515E+03 -0.92183391930E+02 -0.67767468387E+03  0.84121516892E+03  0.80369416131E+02 0.  0.
    5000000    2    1    2    0    0 -0.48315935515E+03  0.92183391930E+02 -0.11271615751E+04  0.13686495157E+04  0.60063927627E+03 0.  0.
        -24    2    4    4    0    0 -0.11845797145E+02  0.25074782653E+03 -0.29140848756E+03  0.39277271332E+03  0.79603406245E+02 0.  0.
         24    2    4    4    0    0 -0.47131355801E+03 -0.15856443460E+03 -0.83575308755E+03  0.97587680237E+03  0.81075028136E+02 0.  0.
         11    1    3    3    0    0  0.25794419117E+03 -0.10500343247E+02 -0.32968394068E+03  0.41873256824E+03  0.00000000000E+00 0. -1.
        -12    1    3    3    0    0  0.22521516398E+03 -0.81683048683E+02 -0.34799074319E+03  0.42248260068E+03  0.00000000000E+00 0.  1.
         11    1    5    5    0    0  0.14563829943E+02  0.38827755863E+01 -0.16859503118E+02  0.22614684041E+02  0.00000000000E+00 0. -1.
        -12    1    5    5    0    0 -0.26409627088E+02  0.24686505095E+03 -0.27454898444E+03  0.37015802928E+03  0.00000000000E+00 0.  1.
          2    1    6    6  502    0 -0.15354461913E+03 -0.91280534098E+02 -0.27823816836E+03  0.33064265348E+03  0.00000000000E+00 0. -1.
         -1    1    6    6    0  502 -0.31776893888E+03 -0.67283900505E+02 -0.55751491918E+03  0.64523414889E+03  0.00000000000E+00 0.  1.
<mgrwt>
<rscale>  0 0.63225847E+03</rscale>
<asrwt>0</asrwt>
<pdfrwt beam="1">  1        1 0.30882315E+00 0.63225847E+03</pdfrwt>
<pdfrwt beam="2">  1       -2 0.31156033E-01 0.63225847E+03</pdfrwt>
<totfact> 0.26036600E+01</totfact>
</mgrwt>
</event>
<event>
12    3  0.2422421E-007  0.7257709E+03  0.7818608E-02  0.9674148E-01
         -2   -1    0    0    0  501 -0.00000000000E+00  0.00000000000E+00  0.14329531086E+04  0.14329531086E+04  0.00000000000E+00 0.  1.
          1   -1    0    0  501    0  0.00000000000E+00 -0.00000000000E+00 -0.44220040631E+03  0.44220040631E+03  0.00000000000E+00 0. -1.
        -24    2    1    2    0    0 -0.66338787460E+03 -0.12718232895E+03  0.33852113070E+03  0.76076381948E+03  0.88916905845E+02 0.  0.
    5000000    2    1    2    0    0  0.66338787460E+03  0.12718232895E+03  0.65223157162E+03  0.11143896955E+04  0.60016627142E+03 0.  0.
        -24    2    4    4    0    0  0.19248992491E+03 -0.13415803512E+03  0.48586613138E+03  0.54499497164E+03  0.76830149776E+02 0.  0.
         24    2    4    4    0    0  0.47089794968E+03  0.26134036407E+03  0.16636544024E+03  0.56939472381E+03  0.80555737780E+02 0.  0.
         11    1    5    5    0    0  0.16467683562E+03 -0.99681236046E+02  0.32111249624E+03  0.37439022991E+03  0.00000000000E+00 0. -1.
        -12    1    5    5    0    0  0.27813089291E+02 -0.34476799074E+02  0.16475363514E+03  0.17060474174E+03  0.00000000000E+00 0.  1.
         11    1    3    3    0    0 -0.44832628834E+03 -0.76896855960E+02  0.18137184197E+03  0.48969922640E+03  0.00000000000E+00 0. -1.
        -12    1    3    3    0    0 -0.21506158625E+03 -0.50285472989E+02  0.15714928873E+03  0.27106459308E+03  0.00000000000E+00 0.  1.
          2    1    6    6  502    0  0.14430487263E+03  0.68509342730E+02  0.12936157610E+02  0.16026468881E+03  0.00000000000E+00 0. -1.
         -1    1    6    6    0  502  0.32659307705E+03  0.19283102134E+03  0.15342928263E+03  0.40913003500E+03  0.00000000000E+00 0.  1.
<mgrwt>
<rscale>  0 0.72577088E+03</rscale>
<asrwt>0</asrwt>
<pdfrwt beam="1">  1        1 0.68030832E-01 0.72577088E+03</pdfrwt>
<pdfrwt beam="2">  1       -2 0.22045432E+00 0.72577088E+03</pdfrwt>
<totfact> 0.46431547E+00</totfact>
</mgrwt>
</event>
<event>
12    3  0.2422421E-007  0.5804687E+03  0.7818608E-02  0.9946777E-01
         -2   -1    0    0    0  501 -0.00000000000E+00  0.00000000000E+00  0.45553546468E+03  0.45553546468E+03  0.00000000000E+00 0.  1.
          1   -1    0    0  501    0  0.00000000000E+00 -0.00000000000E+00 -0.95499132822E+03  0.95499132822E+03  0.00000000000E+00 0. -1.
        -24    2    1    2    0    0 -0.34891903080E+03  0.36946059247E+03 -0.83580073965E+02  0.52101707266E+03  0.78914775514E+02 0.  0.
    5000000    2    1    2    0    0  0.34891903080E+03 -0.36946059247E+03 -0.41587578958E+03  0.88950972025E+03  0.60002437501E+03 0.  0.
        -24    2    4    4    0    0  0.10164342131E+03 -0.37697422965E+03 -0.11637298958E-01  0.39875468045E+03  0.81020615472E+02 0.  0.
         24    2    4    4    0    0  0.24727560950E+03  0.75136371839E+01 -0.41586415228E+03  0.49075503979E+03  0.81828076696E+02 0.  0.
         11    1    3    3    0    0 -0.14709636100E+03  0.10231078017E+03 -0.37280605272E+02  0.18301551488E+03  0.00000000000E+00 0. -1.
        -12    1    3    3    0    0 -0.20182266981E+03  0.26714981230E+03 -0.46299468693E+02  0.33800155778E+03  0.00000000000E+00 0.  1.
         13    1    5    5    0    0  0.32377097508E+02 -0.59650585874E+02 -0.26544679299E+02  0.72877217546E+02  0.00000000000E+00 0. -1.
        -14    1    5    5    0    0  0.69266323801E+02 -0.31732364378E+03  0.26533042000E+02  0.32587746291E+03  0.00000000000E+00 0.  1.
          2    1    6    6  502    0  0.28652290044E+02 -0.18508933491E+02 -0.10057970731E+03  0.10620645869E+03  0.00000000000E+00 0. -1.
         -3    1    6    6    0  502  0.21862331945E+03  0.26022570675E+02 -0.31528444497E+03  0.38454858111E+03  0.00000000000E+00 0.  1.
<mgrwt>
<rscale>  0 0.58046870E+03</rscale>
<asrwt>0</asrwt>
<pdfrwt beam="1">  1        1 0.14692174E+00 0.58046870E+03</pdfrwt>
<pdfrwt beam="2">  1       -2 0.70082379E-01 0.58046870E+03</pdfrwt>
<totfact> 0.27809454E+01</totfact>
</mgrwt>
</event>
<event>
12    3  0.2422421E-007  0.1110956E+04  0.7818608E-02  0.9194579E-01
         -2   -1    0    0    0  501 -0.00000000000E+00  0.00000000000E+00  0.73213633814E+03  0.73213633814E+03  0.00000000000E+00 0.  1.
          1   -1    0    0  501    0  0.00000000000E+00 -0.00000000000E+00 -0.17852194947E+04  0.17852194947E+04  0.00000000000E+00 0. -1.
        -24    2    1    2    0    0  0.10330026056E+04  0.46984622177E+02 -0.21958796837E+03  0.10601338855E+04  0.79768674173E+02 0.  0.
    5000000    2    1    2    0    0 -0.10330026056E+04 -0.46984622177E+02 -0.83349518821E+03  0.14572219474E+04  0.59956620765E+03 0.  0.
        -24    2    4    4    0    0 -0.91537383238E+03  0.17026705255E+03 -0.62729656332E+03  0.11254840073E+04  0.79455334025E+02 0.  0.
         24    2    4    4    0    0 -0.11762877320E+03 -0.21725167472E+03 -0.20619862489E+03  0.33173794012E+03  0.80606262493E+02 0.  0.
         13    1    3    3    0    0  0.35210425907E+03 -0.15710765125E+02 -0.95780319006E+02  0.36523705577E+03  0.00000000000E+00 0. -1.
        -14    1    3    3    0    0  0.68089834651E+03  0.62695387302E+02 -0.12380764936E+03  0.69489682969E+03  0.00000000000E+00 0.  1.
         13    1    5    5    0    0 -0.55752488019E+03  0.10233823737E+03 -0.33472175598E+03  0.65829002786E+03  0.00000000000E+00 0. -1.
        -14    1    5    5    0    0 -0.35784895219E+03  0.67928815179E+02 -0.29257480734E+03  0.46719397942E+03  0.00000000000E+00 0.  1.
          4    1    6    6  502    0 -0.69882095793E+01 -0.70336284012E+02 -0.29172480970E+02  0.76466081158E+02  0.00000000000E+00 0. -1.
         -3    1    6    6    0  502 -0.11064056362E+03 -0.14691539071E+03 -0.17702614392E+03  0.25527185896E+03  0.00000000000E+00 0.  1.
<mgrwt>
<rscale>  0 0.11109558E+04</rscale>
<asrwt>0</asrwt>
<pdfrwt beam="1">  1        1 0.27464915E+00 0.11109558E+04</pdfrwt>
<pdfrwt beam="2">  1       -2 0.11263636E+00 0.11109558E+04</pdfrwt>
<totfact> 0.22455907E+00</totfact>
</mgrwt>
</event>
<event>
12    3  0.2422421E-007  0.4944537E+03  0.7818608E-02  0.1015237E+00
         -2   -1    0    0    0  501 -0.00000000000E+00  0.00000000000E+00  0.21766046675E+03  0.21766046675E+03  0.00000000000E+00 0.  1.
          1   -1    0    0  501    0  0.00000000000E+00 -0.00000000000E+00 -0.11825349544E+04  0.11825349544E+04  0.00000000000E+00 0. -1.
        -24    2    1    2    0    0 -0.26936222586E+03  0.17332624317E+03 -0.27074815697E+03  0.42837802530E+03  0.87207641627E+02 0.  0.
    5000000    2    1    2    0    0  0.26936222586E+03 -0.17332624317E+03 -0.69412633072E+03  0.97181739589E+03  0.60001641034E+03 0.  0.
        -24    2    4    4    0    0 -0.17642621174E+03 -0.60882388902E+02 -0.29731813092E+03  0.35927387516E+03  0.76464193791E+02 0.  0.
         24    2    4    4    0    0  0.44578843761E+03 -0.11244385427E+03 -0.39680819980E+03  0.61254352073E+03  0.79886581441E+02 0.  0.
         11    1    5    5    0    0 -0.68018116889E+02 -0.61991496965E+02 -0.15655059306E+03  0.18159707627E+03  0.00000000000E+00 0. -1.
        -12    1    5    5    0    0 -0.10840809486E+03  0.11091080630E+01 -0.14076753786E+03  0.17767679889E+03  0.00000000000E+00 0.  1.
         11    1    3    3    0    0 -0.14503608087E+03  0.13530770238E+03 -0.19375547403E+03  0.27728112592E+03  0.00000000000E+00 0. -1.
        -12    1    3    3    0    0 -0.12432614500E+03  0.38018540794E+02 -0.76992682945E+02  0.15109689938E+03  0.00000000000E+00 0.  1.
          2    1    6    6  502    0  0.30783543572E+03 -0.69035846195E+02 -0.22249390897E+03  0.38604681461E+03  0.00000000000E+00 0. -1.
         -1    1    6    6    0  502  0.13795300189E+03 -0.43408008076E+02 -0.17431429083E+03  0.22649670612E+03  0.00000000000E+00 0.  1.
<mgrwt>
<rscale>  0 0.49445371E+03</rscale>
<asrwt>0</asrwt>
<pdfrwt beam="1">  1        1 0.18192845E+00 0.49445371E+03</pdfrwt>
<pdfrwt beam="2">  1       -2 0.33486226E-01 0.49445371E+03</pdfrwt>
<totfact> 0.84233248E+01</totfact>
</mgrwt>
</event>
<event>
12    3  0.2422421E-007  0.3920614E+03  0.7818608E-02  0.1046564E+00
         -2   -1    0    0    0  501 -0.00000000000E+00  0.00000000000E+00  0.24679762640E+03  0.24679762640E+03  0.00000000000E+00 0.  1.
          1   -1    0    0  501    0  0.00000000000E+00 -0.00000000000E+00 -0.13885756256E+04  0.13885756256E+04  0.00000000000E+00 0. -1.
        -24    2    1    2    0    0 -0.24285291567E+03  0.12432160140E+03  0.34990034759E+02  0.28662553960E+03  0.80600857293E+02 0.  0.
    5000000    2    1    2    0    0  0.24285291567E+03 -0.12432160140E+03 -0.11767680340E+04  0.13487477124E+04  0.59991998363E+03 0.  0.
        -24    2    4    4    0    0  0.20661913982E+03 -0.26572133242E+03 -0.30479431464E+03  0.46114411111E+03  0.80343148622E+02 0.  0.
         24    2    4    4    0    0  0.36233775850E+02  0.14139973102E+03 -0.87197371935E+03  0.88760360132E+03  0.78709690643E+02 0.  0.
         11    1    5    5    0    0  0.26565224856E+02 -0.21154463638E+02 -0.48630171619E+01  0.34305559890E+02  0.00000000000E+00 0. -1.
        -12    1    5    5    0    0  0.18005391496E+03 -0.24456686879E+03 -0.29993129748E+03  0.42683855122E+03  0.00000000000E+00 0.  1.
         13    1    3    3    0    0 -0.81738856868E+02  0.78016223500E+02 -0.88830024720E+01  0.11334319382E+03  0.00000000000E+00 0. -1.
        -14    1    3    3    0    0 -0.16111405880E+03  0.46305377902E+02  0.43873037231E+02  0.17328234579E+03  0.00000000000E+00 0.  1.
          2    1    6    6  502    0  0.58679072040E+02  0.12483737561E+03 -0.72698523037E+03  0.73995616696E+03  0.00000000000E+00 0. -1.
         -1    1    6    6    0  502 -0.22445296190E+02  0.16562355409E+02 -0.14498848898E+03  0.14764743436E+03  0.00000000000E+00 0.  1.
<mgrwt>
<rscale>  0 0.39206144E+03</rscale>
<asrwt>0</asrwt>
<pdfrwt beam="1">  1        1 0.21362702E+00 0.39206144E+03</pdfrwt>
<pdfrwt beam="2">  1       -2 0.37968865E-01 0.39206144E+03</pdfrwt>
<totfact> 0.48432166E+01</totfact>
</mgrwt>
</event>
<event>
12    3  0.2422421E-007  0.4945638E+03  0.7818608E-02  0.1015208E+00
         -2   -1    0    0    0  501 -0.00000000000E+00  0.00000000000E+00  0.15656541346E+03  0.15656541346E+03  0.00000000000E+00 0.  1.
          1   -1    0    0  501    0  0.00000000000E+00 -0.00000000000E+00 -0.19493646639E+04  0.19493646639E+04  0.00000000000E+00 0. -1.
        -24    2    1    2    0    0  0.29641808273E+03 -0.16688962877E+03 -0.29967566669E+03  0.46118692357E+03  0.84687928918E+02 0.  0.
    5000000    2    1    2    0    0 -0.29641808273E+03  0.16688962877E+03 -0.14931235838E+04  0.16447431538E+04  0.60003848015E+03 0.  0.
        -24    2    4    4    0    0 -0.31420900937E+03 -0.13646894125E+03 -0.57228784363E+03  0.67177205073E+03  0.80082698997E+02 0.  0.
         24    2    4    4    0    0  0.17790926639E+02  0.30335857002E+03 -0.92083574015E+03  0.97297110310E+03  0.79946032109E+02 0.  0.
         11    1    3    3    0    0  0.16194447489E+03 -0.98823135306E+02 -0.22068824255E+03  0.29102461308E+03  0.00000000000E+00 0. -1.
        -12    1    3    3    0    0  0.13447360784E+03 -0.68066493469E+02 -0.78987424138E+02  0.17016231049E+03  0.00000000000E+00 0.  1.
         11    1    5    5    0    0 -0.11171499941E+03 -0.68060482623E+02 -0.28601384387E+03  0.31450976022E+03  0.00000000000E+00 0. -1.
        -12    1    5    5    0    0 -0.20249400996E+03 -0.68408458627E+02 -0.28627399976E+03  0.35726229050E+03  0.00000000000E+00 0.  1.
          2    1    6    6  502    0  0.24682594619E+01  0.14976267989E+03 -0.33171613454E+03  0.36396503473E+03  0.00000000000E+00 0. -1.
         -1    1    6    6    0  502  0.15322667177E+02  0.15359589014E+03 -0.58911960561E+03  0.60900606837E+03  0.00000000000E+00 0.  1.
<mgrwt>
<rscale>  0 0.49456381E+03</rscale>
<asrwt>0</asrwt>
<pdfrwt beam="1">  1        1 0.29990226E+00 0.49456381E+03</pdfrwt>
<pdfrwt beam="2">  1       -2 0.24086986E-01 0.49456381E+03</pdfrwt>
<totfact> 0.46486622E+01</totfact>
</mgrwt>
</event>
<event>
12    3  0.2422421E-007  0.7098538E+03  0.7818608E-02  0.9700528E-01
         -2   -1    0    0    0  501 -0.00000000000E+00  0.00000000000E+00  0.41159039976E+03  0.41159039976E+03  0.00000000000E+00 0.  1.
          1   -1    0    0  501    0  0.00000000000E+00 -0.00000000000E+00 -0.17073992766E+04  0.17073992766E+04  0.00000000000E+00 0. -1.
        -24    2    1    2    0    0  0.40513448614E+03 -0.52092994396E+03 -0.17645146663E+03  0.68770150203E+03  0.79349085942E+02 0.  0.
    5000000    2    1    2    0    0 -0.40513448614E+03  0.52092994396E+03 -0.11193574102E+04  0.14312881743E+04  0.60010238112E+03 0.  0.
        -24    2    4    4    0    0 -0.40152217383E+03  0.24977904087E+03 -0.10268913813E+04  0.11337748431E+04  0.85614604812E+02 0.  0.
         24    2    4    4    0    0 -0.36123123165E+01  0.27115090309E+03 -0.92466028923E+02  0.29751333123E+03  0.80177021099E+02 0.  0.
         13    1    3    3    0    0  0.33893691853E+03 -0.39191069774E+03 -0.11837246095E+03  0.53149249219E+03  0.00000000000E+00 0. -1.
        -14    1    3    3    0    0  0.66197567615E+02 -0.12901924622E+03 -0.58079005684E+02  0.15620900984E+03  0.00000000000E+00 0.  1.
         13    1    5    5    0    0 -0.10641655822E+03  0.85280974940E+02 -0.38428983974E+03  0.40776955438E+03  0.00000000000E+00 0. -1.
        -14    1    5    5    0    0 -0.29510561560E+03  0.16449806593E+03 -0.64260154153E+03  0.72600528871E+03  0.00000000000E+00 0.  1.
          4    1    6    6  502    0  0.37500296574E+02  0.13332941989E+03 -0.53788002147E+02  0.14858046853E+03  0.00000000000E+00 0. -1.
         -3    1    6    6    0  502 -0.41112608890E+02  0.13782148319E+03 -0.38678026775E+02  0.14893286271E+03  0.00000000000E+00 0.  1.
<mgrwt>
<rscale>  0 0.70985383E+03</rscale>
<asrwt>0</asrwt>
<pdfrwt beam="1">  1        1 0.26267681E+00 0.70985383E+03</pdfrwt>
<pdfrwt beam="2">  1       -2 0.63321600E-01 0.70985383E+03</pdfrwt>
<totfact> 0.99502547E+00</totfact>
</mgrwt>
</event>
<event>
12    3  0.2422421E-007  0.1312758E+04  0.7818608E-02  0.9019509E-01
          1   -1    0    0  501    0  0.00000000000E+00  0.00000000000E+00  0.16671195525E+04  0.16671195525E+04  0.00000000000E+00 0. -1.
         -2   -1    0    0    0  501 -0.00000000000E+00 -0.00000000000E+00 -0.10835668402E+04  0.10835668402E+04  0.00000000000E+00 0.  1.
        -24    2    1    2    0    0  0.11198193982E+04 -0.55363493464E+03  0.54233869763E+03  0.13643305373E+04  0.82215731737E+02 0.  0.
    5000000    2    1    2    0    0 -0.11198193982E+04  0.55363493464E+03  0.41214014601E+02  0.13863558554E+04  0.59981400237E+03 0.  0.
        -24    2    4    4    0    0 -0.10955355060E+04  0.33031664031E+03  0.43422723294E+02  0.11477063007E+04  0.77698726226E+02 0.  0.
         24    2    4    4    0    0 -0.24283892255E+02  0.22331829433E+03 -0.22087086927E+01  0.23864955475E+03  0.80547896205E+02 0.  0.
         13    1    5    5    0    0 -0.49159654496E+03  0.16838144940E+03 -0.13833918640E+02  0.51981809590E+03  0.00000000000E+00 0. -1.
        -14    1    5    5    0    0 -0.60393896100E+03  0.16193519091E+03  0.57256641933E+02  0.62788820479E+03  0.00000000000E+00 0.  1.
         13    1    3    3    0    0  0.38039129396E+03 -0.22058678011E+03  0.21947871122E+03  0.49145393351E+03  0.00000000000E+00 0. -1.
        -14    1    3    3    0    0  0.73942810425E+03 -0.33304815453E+03  0.32285998641E+03  0.87287660377E+03  0.00000000000E+00 0.  1.
          4    1    6    6  502    0 -0.38120686347E+02  0.12668820032E+03  0.30371030000E+02  0.13574051087E+03  0.00000000000E+00 0. -1.
         -3    1    6    6    0  502  0.13836794092E+02  0.96630094015E+02 -0.32579738693E+02  0.10290904388E+03  0.00000000000E+00 0.  1.
<mgrwt>
<rscale>  0 0.13127577E+04</rscale>
<asrwt>0</asrwt>
<pdfrwt beam="1">  1        1 0.25647993E+00 0.13127577E+04</pdfrwt>
<pdfrwt beam="2">  1       -2 0.16670259E+00 0.13127577E+04</pdfrwt>
<totfact> 0.95424351E-01</totfact>
</mgrwt>
</event>
<event>
12    3  0.3933015E-007  0.7039215E+03  0.7818608E-02  0.9710549E-01
         -4   -1    0    0    0  501 -0.00000000000E+00  0.00000000000E+00  0.32476924496E+03  0.32476924496E+03  0.00000000000E+00 0.  1.
          3   -1    0    0  501    0  0.00000000000E+00 -0.00000000000E+00 -0.17032961999E+04  0.17032961999E+04  0.00000000000E+00 0. -1.
        -24    2    1    2    0    0 -0.27315921000E+02 -0.61135215132E+03 -0.44496205296E+03  0.76079097441E+03  0.79461095515E+02 0.  0.
    5000000    2    1    2    0    0  0.27315921000E+02  0.61135215132E+03 -0.93356490194E+03  0.12672744704E+04  0.59995295209E+03 0.  0.
        -24    2    4    4    0    0  0.23639524518E+03  0.14528461593E+03 -0.13050153098E+03  0.31221921074E+03  0.58820527021E+02 0.  0.
         24    2    4    4    0    0 -0.20907932418E+03  0.46606753539E+03 -0.80306337096E+03  0.95505525966E+03  0.79288459937E+02 0.  0.
         11    1    3    3    0    0 -0.47648365236E+02 -0.42041421095E+03 -0.33373309400E+03  0.53888426726E+03  0.00000000000E+00 0. -1.
        -12    1    3    3    0    0  0.20332444236E+02 -0.19093794038E+03 -0.11122895896E+03  0.22190670714E+03  0.00000000000E+00 0.  1.
         13    1    5    5    0    0  0.10516856718E+03  0.93659342355E+02 -0.47681586024E+02  0.14868097921E+03  0.00000000000E+00 0. -1.
        -14    1    5    5    0    0  0.13122667800E+03  0.51625273580E+02 -0.82819944953E+02  0.16353823153E+03  0.00000000000E+00 0.  1.
          4    1    6    6  502    0 -0.93160752642E+02  0.19824161579E+03 -0.27348716080E+03  0.35039105466E+03  0.00000000000E+00 0. -1.
         -3    1    6    6    0  502 -0.11591857153E+03  0.26782591960E+03 -0.52957621016E+03  0.60466420500E+03  0.00000000000E+00 0.  1.
<mgrwt>
<rscale>  0 0.70392154E+03</rscale>
<asrwt>0</asrwt>
<pdfrwt beam="1">  1        3 0.26204557E+00 0.70392154E+03</pdfrwt>
<pdfrwt beam="2">  1       -4 0.49964499E-01 0.70392154E+03</pdfrwt>
<totfact> 0.56029801E-01</totfact>
</mgrwt>
</event>
<event>
12    3  0.2422421E-007  0.4224026E+03  0.7818608E-02  0.1036287E+00
         -2   -1    0    0    0  501 -0.00000000000E+00  0.00000000000E+00  0.95597140120E+03  0.95597140120E+03  0.00000000000E+00 0.  1.
          1   -1    0    0  501    0  0.00000000000E+00 -0.00000000000E+00 -0.30183975505E+03  0.30183975505E+03  0.00000000000E+00 0. -1.
        -24    2    1    2    0    0 -0.27825241159E+03 -0.51440537877E+02  0.49486768697E+03  0.57539908473E+03  0.78227524685E+02 0.  0.
    5000000    2    1    2    0    0  0.27825241159E+03  0.51440537877E+02  0.15926395919E+03  0.68241207151E+03  0.60020887461E+03 0.  0.
        -24    2    4    4    0    0  0.34671307598E+03  0.17627269851E+03  0.27483273761E+03  0.48280734278E+03  0.79296124009E+02 0.  0.
         24    2    4    4    0    0 -0.68460664398E+02 -0.12483216063E+03 -0.11556877842E+03  0.19960472873E+03  0.78841450315E+02 0.  0.
         11    1    5    5    0    0  0.88050135244E+02  0.82350723683E+02  0.10135932962E+03  0.15750613229E+03  0.00000000000E+00 0. -1.
        -12    1    5    5    0    0  0.25866294074E+03  0.93921974823E+02  0.17347340799E+03  0.32530121049E+03  0.00000000000E+00 0.  1.
         13    1    3    3    0    0 -0.20891921675E+03 -0.44055513878E+01  0.33303841185E+03  0.39316819782E+03  0.00000000000E+00 0. -1.
        -14    1    3    3    0    0 -0.69333194838E+02 -0.47034986489E+02  0.16182927512E+03  0.18223088692E+03  0.00000000000E+00 0.  1.
          2    1    6    6  502    0 -0.70347679032E+02 -0.62949196967E+02 -0.41640379028E+02  0.10317615281E+03  0.00000000000E+00 0. -1.
         -1    1    6    6    0  502  0.18870146339E+01 -0.61882963662E+02 -0.73928399397E+02  0.96428575916E+02  0.00000000000E+00 0.  1.
<mgrwt>
<rscale>  0 0.42240263E+03</rscale>
<asrwt>0</asrwt>
<pdfrwt beam="1">  1        1 0.46436886E-01 0.42240263E+03</pdfrwt>
<pdfrwt beam="2">  1       -2 0.14707252E+00 0.42240263E+03</pdfrwt>
<totfact> 0.25158581E+01</totfact>
</mgrwt>
</event>
<event>
12    3  0.2422421E-007  0.8675249E+03  0.7818608E-02  0.9467113E-01
         -2   -1    0    0    0  501 -0.00000000000E+00  0.00000000000E+00  0.56443589584E+03  0.56443589584E+03  0.00000000000E+00 0.  1.
          1   -1    0    0  501    0  0.00000000000E+00 -0.00000000000E+00 -0.13632291551E+04  0.13632291551E+04  0.00000000000E+00 0. -1.
        -24    2    1    2    0    0 -0.76625492424E+03 -0.80392268162E+02 -0.29211056665E+03  0.82756974160E+03  0.77029659013E+02 0.  0.
    5000000    2    1    2    0    0  0.76625492424E+03  0.80392268162E+02 -0.50668269259E+03  0.11000953093E+04  0.59989400141E+03 0.  0.
        -24    2    4    4    0    0  0.71129673735E+03  0.26813468705E+03 -0.37667312229E+03  0.85156725315E+03  0.73789474944E+02 0.  0.
         24    2    4    4    0    0  0.54958186886E+02 -0.18774241889E+03 -0.13000957030E+03  0.24852805617E+03  0.81216304890E+02 0.  0.
         11    1    3    3    0    0 -0.49459178864E+03 -0.83670563981E+02 -0.16930130667E+03  0.52941924134E+03  0.00000000000E+00 0. -1.
        -12    1    3    3    0    0 -0.27166313560E+03  0.32782958191E+01 -0.12280925998E+03  0.29815050026E+03  0.00000000000E+00 0.  1.
         13    1    5    5    0    0  0.18509493877E+03  0.96557346026E+02 -0.79732480979E+02  0.22347421765E+03  0.00000000000E+00 0. -1.
        -14    1    5    5    0    0  0.52620179858E+03  0.17157734102E+03 -0.29694064131E+03  0.62809303550E+03  0.00000000000E+00 0.  1.
          2    1    6    6  502    0  0.22933017548E+02 -0.26166889822E+02  0.55077290830E+01  0.35227325991E+02  0.00000000000E+00 0. -1.
         -1    1    6    6    0  502  0.32025169337E+02 -0.16157552907E+03 -0.13551729939E+03  0.21330073018E+03  0.00000000000E+00 0.  1.
<mgrwt>
<rscale>  0 0.86752485E+03</rscale>
<asrwt>0</asrwt>
<pdfrwt beam="1">  1        1 0.20972756E+00 0.86752485E+03</pdfrwt>
<pdfrwt beam="2">  1       -2 0.86836292E-01 0.86752485E+03</pdfrwt>
<totfact> 0.83342145E+00</totfact>
</mgrwt>
</event>
<event>
12    3  0.2422421E-007  0.1006639E+04  0.7818608E-02  0.9301293E-01
         -2   -1    0    0    0  501 -0.00000000000E+00  0.00000000000E+00  0.68306553044E+03  0.68306553044E+03  0.00000000000E+00 0.  1.
          1   -1    0    0  501    0  0.00000000000E+00 -0.00000000000E+00 -0.17098425902E+04  0.17098425902E+04  0.00000000000E+00 0. -1.
        -24    2    1    2    0    0  0.44285160328E+03  0.88409965095E+03 -0.60530146175E+03  0.11621058938E+04  0.79690109447E+02 0.  0.
    5000000    2    1    2    0    0 -0.44285160328E+03 -0.88409965095E+03 -0.42147559805E+03  0.12308022268E+04  0.59956876712E+03 0.  0.
        -24    2    4    4    0    0 -0.42072355874E+03 -0.68272529202E+03 -0.55265272286E+03  0.97702270529E+03  0.77628585661E+02 0.  0.
         24    2    4    4    0    0 -0.22128044541E+02 -0.20137435892E+03  0.13117712481E+03  0.25377952155E+03  0.78455877392E+02 0.  0.
         13    1    3    3    0    0  0.12261037109E+03  0.31076561206E+03 -0.23170589337E+03  0.40656634115E+03  0.00000000000E+00 0. -1.
        -14    1    3    3    0    0  0.32024123220E+03  0.57333403889E+03 -0.37359556838E+03  0.75553955267E+03  0.00000000000E+00 0.  1.
         13    1    5    5    0    0 -0.26396453010E+03 -0.35927998842E+03 -0.32203647531E+03  0.54996988523E+03  0.00000000000E+00 0. -1.
        -14    1    5    5    0    0 -0.15675902864E+03 -0.32344530360E+03 -0.23061624755E+03  0.42705282006E+03  0.00000000000E+00 0.  1.
          4    1    6    6  502    0  0.29564321501E+02 -0.65633348862E+02  0.44758484352E+02  0.84765013480E+02  0.00000000000E+00 0. -1.
         -3    1    6    6    0  502 -0.51692366042E+02 -0.13574101006E+03  0.86418640461E+02  0.16901450807E+03  0.00000000000E+00 0.  1.
<mgrwt>
<rscale>  0 0.10066387E+04</rscale>
<asrwt>0</asrwt>
<pdfrwt beam="1">  1        1 0.26305270E+00 0.10066387E+04</pdfrwt>
<pdfrwt beam="2">  1       -2 0.10508701E+00 0.10066387E+04</pdfrwt>
<totfact> 0.30257174E+00</totfact>
</mgrwt>
</event>
<event>
12    3  0.2422421E-007  0.4311294E+03  0.7818608E-02  0.1033504E+00
          3   -1    0    0  501    0  0.00000000000E+00  0.00000000000E+00  0.95691980977E+03  0.95691980977E+03  0.00000000000E+00 0. -1.
         -4   -1    0    0    0  501 -0.00000000000E+00 -0.00000000000E+00 -0.46183180281E+03  0.46183180281E+03  0.00000000000E+00 0.  1.
        -24    2    1    2    0    0  0.23964494412E+03 -0.12512452453E+03  0.67912567847E+03  0.73531072961E+03  0.79902040256E+02 0.  0.
    5000000    2    1    2    0    0 -0.23964494412E+03  0.12512452453E+03 -0.18403767151E+03  0.68344088298E+03  0.60011309776E+03 0.  0.
        -24    2    4    4    0    0 -0.39217088457E+03  0.60278160545E+02  0.23974333957E+02  0.40574491363E+03  0.81380015377E+02 0.  0.
         24    2    4    4    0    0  0.15252594045E+03  0.64846363987E+02 -0.20801200547E+03  0.27769596935E+03  0.79855141003E+02 0.  0.
         11    1    5    5    0    0 -0.42565908313E+02 -0.14696365860E+02  0.16968203296E+02  0.48122340374E+02  0.00000000000E+00 0. -1.
        -12    1    5    5    0    0 -0.34960497626E+03  0.74974526405E+02  0.70061306605E+01  0.35762257325E+03  0.00000000000E+00 0.  1.
         11    1    3    3    0    0  0.11113233338E+03 -0.10246926516E+03  0.34909201392E+03  0.38041501023E+03  0.00000000000E+00 0. -1.
        -12    1    3    3    0    0  0.12851261074E+03 -0.22655259370E+02  0.33003366455E+03  0.35489571938E+03  0.00000000000E+00 0.  1.
          2    1    6    6  502    0  0.88006358160E+02  0.71176160747E+02 -0.96643656399E+02  0.14883266193E+03  0.00000000000E+00 0. -1.
         -1    1    6    6    0  502  0.64519582287E+02 -0.63297967602E+01 -0.11136834907E+03  0.12886330742E+03  0.00000000000E+00 0.  1.
<mgrwt>
<rscale>  0 0.43112940E+03</rscale>
<asrwt>0</asrwt>
<pdfrwt beam="1">  1        3 0.14721843E+00 0.43112940E+03</pdfrwt>
<pdfrwt beam="2">  1       -4 0.71051047E-01 0.43112940E+03</pdfrwt>
<totfact> 0.13954426E+00</totfact>
</mgrwt>
</event>
<event>
12    3  0.2422421E-007  0.7076311E+03  0.7818608E-02  0.9704270E-01
          1   -1    0    0  501    0  0.00000000000E+00  0.00000000000E+00  0.53105701344E+03  0.53105701344E+03  0.00000000000E+00 0. -1.
         -2   -1    0    0    0  501 -0.00000000000E+00 -0.00000000000E+00 -0.12201256391E+04  0.12201256391E+04  0.00000000000E+00 0.  1.
        -24    2    1    2    0    0  0.45137890492E+03 -0.43919494581E+03 -0.60553558328E+03  0.87727929765E+03  0.79438701120E+02 0.  0.
    5000000    2    1    2    0    0 -0.45137890492E+03  0.43919494581E+03 -0.83533042414E+02  0.87390335492E+03  0.60007848514E+03 0.  0.
        -24    2    4    4    0    0 -0.30296053567E+03  0.50921893115E+03 -0.22640092674E+03  0.64194149127E+03  0.98704065673E+02 0.  0.
         24    2    4    4    0    0 -0.14841836925E+03 -0.70023985338E+02  0.14286788432E+03  0.23196186364E+03  0.80397157664E+02 0.  0.
         11    1    5    5    0    0 -0.13843955668E+03  0.15860534063E+03 -0.11000920861E+03  0.23753566239E+03  0.00000000000E+00 0. -1.
        -12    1    5    5    0    0 -0.16452097899E+03  0.35061359052E+03 -0.11639171813E+03  0.40440582888E+03  0.00000000000E+00 0.  1.
         13    1    3    3    0    0  0.16101862759E+03 -0.21095505416E+03 -0.25953671011E+03  0.37119851455E+03  0.00000000000E+00 0. -1.
        -14    1    3    3    0    0  0.29036027733E+03 -0.22823989165E+03 -0.34599887316E+03  0.50608078310E+03  0.00000000000E+00 0.  1.
          4    1    6    6  502    0 -0.75560305315E+02 -0.79003946771E+02  0.84100773478E+02  0.13792723967E+03  0.00000000000E+00 0. -1.
         -1    1    6    6    0  502 -0.72858063938E+02  0.89799614334E+01  0.58767110843E+02  0.94034623969E+02  0.00000000000E+00 0.  1.
<mgrwt>
<rscale>  0 0.70763110E+03</rscale>
<asrwt>0</asrwt>
<pdfrwt beam="1">  1        1 0.81701079E-01 0.70763110E+03</pdfrwt>
<pdfrwt beam="2">  1       -2 0.18771164E+00 0.70763110E+03</pdfrwt>
<totfact> 0.58944515E+00</totfact>
</mgrwt>
</event>
<event>
12    3  0.2422421E-007  0.5811455E+03  0.7818608E-02  0.9945314E-01
         -2   -1    0    0    0  501 -0.00000000000E+00  0.00000000000E+00  0.25787349736E+03  0.25787349736E+03  0.00000000000E+00 0.  1.
          1   -1    0    0  501    0  0.00000000000E+00 -0.00000000000E+00 -0.20254253022E+04  0.20254253022E+04  0.00000000000E+00 0. -1.
        -24    2    1    2    0    0 -0.48532826297E+03 -0.55535950324E+02 -0.19796757933E+03  0.53334446735E+03  0.81470201683E+02 0.  0.
    5000000    2    1    2    0    0  0.48532826297E+03  0.55535950324E+02 -0.15695842255E+04  0.17499543322E+04  0.60009812471E+03 0.  0.
        -24    2    4    4    0    0 -0.63586154757E+02  0.74564092223E+02 -0.51775440208E+02  0.13385359998E+03  0.75053894592E+02 0.  0.
         24    2    4    4    0    0  0.54891441773E+03 -0.19028141899E+02 -0.15178087853E+04  0.16161007322E+04  0.79805763173E+02 0.  0.
         13    1    3    3    0    0 -0.13482497828E+03  0.10285966603E+02 -0.27148346224E+02  0.13791522244E+03  0.00000000000E+00 0. -1.
        -14    1    3    3    0    0 -0.35050328469E+03 -0.65821916928E+02 -0.17081923311E+03  0.39542924491E+03  0.00000000000E+00 0.  1.
         13    1    5    5    0    0 -0.45341430818E+02  0.87202120463E+02 -0.52925269034E+02  0.11162947310E+03  0.00000000000E+00 0. -1.
        -14    1    5    5    0    0 -0.18244723939E+02 -0.12638028240E+02  0.11498288264E+01  0.22224126883E+02  0.00000000000E+00 0.  1.
          2    1    6    6  502    0  0.95750268253E+02 -0.14028050183E+02 -0.35932935419E+03  0.37213234856E+03  0.00000000000E+00 0. -1.
         -1    1    6    6    0  502  0.45316414948E+03 -0.50000917154E+01 -0.11584794311E+04  0.12439683837E+04  0.00000000000E+00 0.  1.
<mgrwt>
<rscale>  0 0.58114552E+03</rscale>
<asrwt>0</asrwt>
<pdfrwt beam="1">  1        1 0.31160388E+00 0.58114552E+03</pdfrwt>
<pdfrwt beam="2">  1       -2 0.39672847E-01 0.58114552E+03</pdfrwt>
<totfact> 0.16138078E+01</totfact>
</mgrwt>
</event>
<event>
12    3  0.2422421E-007  0.1014603E+04  0.7818608E-02  0.9292672E-01
         -2   -1    0    0    0  501 -0.00000000000E+00  0.00000000000E+00  0.37810444095E+03  0.37810444095E+03  0.00000000000E+00 0.  1.
          1   -1    0    0  501    0  0.00000000000E+00 -0.00000000000E+00 -0.29516749154E+04  0.29516749154E+04  0.00000000000E+00 0. -1.
        -24    2    1    2    0    0  0.94709519887E+03  0.15484835710E+03 -0.14009843950E+04  0.17000379218E+04  0.80027064327E+02 0.  0.
    5000000    2    1    2    0    0 -0.94709519887E+03 -0.15484835710E+03 -0.11725860794E+04  0.16297414345E+04  0.60010974027E+03 0.  0.
        -24    2    4    4    0    0  0.32711203749E+02 -0.65060090751E+02 -0.62174575959E+01  0.10176489628E+03  0.70813833940E+02 0.  0.
         24    2    4    4    0    0 -0.97980640262E+03 -0.89788266348E+02 -0.11663686218E+04  0.15279765382E+04  0.78829056145E+02 0.  0.
         11    1    5    5    0    0  0.36512322925E+01 -0.51478956120E+02 -0.31901580383E+02  0.60672277453E+02  0.00000000000E+00 0. -1.
        -12    1    5    5    0    0  0.29059971456E+02 -0.13581134631E+02  0.25684122788E+02  0.41092618830E+02  0.00000000000E+00 0.  1.
         13    1    3    3    0    0  0.63425022501E+03  0.10230815799E+03 -0.86979987063E+03  0.10813381164E+04  0.00000000000E+00 0. -1.
        -14    1    3    3    0    0  0.31284497386E+03  0.52540199106E+02 -0.53118452441E+03  0.61869980537E+03  0.00000000000E+00 0.  1.
          4    1    6    6  502    0 -0.63908727077E+03 -0.88036412278E+02 -0.72670866147E+03  0.97174504280E+03  0.00000000000E+00 0. -1.
         -3    1    6    6    0  502 -0.34071913185E+03 -0.17518540704E+01 -0.43965996030E+03  0.55623149541E+03  0.00000000000E+00 0.  1.
<mgrwt>
<rscale>  0 0.10146031E+04</rscale>
<asrwt>0</asrwt>
<pdfrwt beam="1">  1        1 0.45410382E+00 0.10146031E+04</pdfrwt>
<pdfrwt beam="2">  1       -2 0.58169915E-01 0.10146031E+04</pdfrwt>
<totfact> 0.16089077E+00</totfact>
</mgrwt>
</event>
<event>
12    3  0.2422421E-007  0.4134766E+03  0.7818608E-02  0.1039211E+00
          1   -1    0    0  501    0  0.00000000000E+00  0.00000000000E+00  0.76035593774E+03  0.76035593774E+03  0.00000000000E+00 0. -1.
         -2   -1    0    0    0  501 -0.00000000000E+00 -0.00000000000E+00 -0.33709402488E+03  0.33709402488E+03  0.00000000000E+00 0.  1.
        -24    2    1    2    0    0 -0.31103994365E+03 -0.76759850264E+02  0.17363332337E+03  0.37284689181E+03  0.78919912505E+02 0.  0.
    5000000    2    1    2    0    0  0.31103994365E+03  0.76759850264E+02  0.24962858948E+03  0.72460307081E+03  0.60008104151E+03 0.  0.
        -24    2    4    4    0    0 -0.63601344352E+02  0.75684436116E+02 -0.13367438301E+03  0.18252245626E+03  0.75314948671E+02 0.  0.
         24    2    4    4    0    0  0.37464128800E+03  0.10754141475E+01  0.38330297249E+03  0.54208061454E+03  0.81073872195E+02 0.  0.
         13    1    5    5    0    0 -0.75795163536E+02  0.80902993414E+02 -0.12208523086E+03  0.16490908026E+03  0.00000000000E+00 0. -1.
        -14    1    5    5    0    0  0.12193819185E+02 -0.52185572977E+01 -0.11589152155E+02  0.17613376004E+02  0.00000000000E+00 0.  1.
         13    1    3    3    0    0 -0.17619651768E+03 -0.67109629405E+02  0.13613410022E+03  0.23255409789E+03  0.00000000000E+00 0. -1.
        -14    1    3    3    0    0 -0.13484342597E+03 -0.96502208592E+01  0.37499223153E+02  0.14029279393E+03  0.00000000000E+00 0.  1.
          4    1    6    6  502    0  0.30949434189E+03 -0.21267020898E+02  0.34215095035E+03  0.46185095719E+03  0.00000000000E+00 0. -1.
         -3    1    6    6    0  502  0.65146946117E+02  0.22342435045E+02  0.41152022143E+02  0.80229657350E+02  0.00000000000E+00 0.  1.
<mgrwt>
<rscale>  0 0.41347656E+03</rscale>
<asrwt>0</asrwt>
<pdfrwt beam="1">  1        1 0.11697784E+00 0.41347656E+03</pdfrwt>
<pdfrwt beam="2">  1       -2 0.51860619E-01 0.41347656E+03</pdfrwt>
<totfact> 0.77457030E+01</totfact>
</mgrwt>
</event>
<event>
12    3  0.2422421E-007  0.8959440E+03  0.7818608E-02  0.9430666E-01
         -2   -1    0    0    0  501 -0.00000000000E+00  0.00000000000E+00  0.89042807917E+03  0.89042807917E+03  0.00000000000E+00 0.  1.
          1   -1    0    0  501    0  0.00000000000E+00 -0.00000000000E+00 -0.10171119355E+04  0.10171119355E+04  0.00000000000E+00 0. -1.
        -24    2    1    2    0    0 -0.37709615767E+03  0.76742457845E+03 -0.52983975645E+02  0.86037537103E+03  0.79350372854E+02 0.  0.
    5000000    2    1    2    0    0  0.37709615767E+03 -0.76742457845E+03 -0.73699880681E+02  0.10471646436E+04  0.59998343537E+03 0.  0.
        -24    2    4    4    0    0  0.12068572061E+03 -0.62789263381E+03 -0.25689471891E+03  0.69352270620E+03  0.78515251150E+02 0.  0.
         24    2    4    4    0    0  0.25641043707E+03 -0.13953194463E+03  0.18319483822E+03  0.35364193743E+03  0.79289314193E+02 0.  0.
         13    1    3    3    0    0 -0.49579510327E+02  0.11072478157E+03 -0.35191700505E+02  0.12631928152E+03  0.00000000000E+00 0. -1.
        -14    1    3    3    0    0 -0.32751664735E+03  0.65669979687E+03 -0.17792275140E+02  0.73405608952E+03  0.00000000000E+00 0.  1.
         13    1    5    5    0    0  0.67868145114E+01 -0.11017409646E+03 -0.17062986664E+02  0.11169394744E+03  0.00000000000E+00 0. -1.
        -14    1    5    5    0    0  0.11389890609E+03 -0.51771853736E+03 -0.23983173224E+03  0.58182875876E+03  0.00000000000E+00 0.  1.
          2    1    6    6  502    0  0.12012104552E+03 -0.94080581349E+02  0.58507263778E+02  0.16341150901E+03  0.00000000000E+00 0. -1.
         -1    1    6    6    0  502  0.13628939155E+03 -0.45451363285E+02  0.12468757445E+03  0.19023042842E+03  0.00000000000E+00 0.  1.
<mgrwt>
<rscale>  0 0.89594403E+03</rscale>
<asrwt>0</asrwt>
<pdfrwt beam="1">  1        1 0.15647876E+00 0.89594403E+03</pdfrwt>
<pdfrwt beam="2">  1       -2 0.13698894E+00 0.89594403E+03</pdfrwt>
<totfact> 0.49240232E+00</totfact>
</mgrwt>
</event>
<event>
12    3  0.2422421E-007  0.1015805E+04  0.7818608E-02  0.9291378E-01
         -2   -1    0    0    0  501 -0.00000000000E+00  0.00000000000E+00  0.79872529822E+03  0.79872529822E+03  0.00000000000E+00 0.  1.
          1   -1    0    0  501    0  0.00000000000E+00 -0.00000000000E+00 -0.23853303098E+04  0.23853303098E+04  0.00000000000E+00 0. -1.
        -24    2    1    2    0    0 -0.41135092777E+03  0.91474186764E+03 -0.17353459486E+04  0.20059225404E+04  0.79607831107E+02 0.  0.
    5000000    2    1    2    0    0  0.41135092777E+03 -0.91474186764E+03  0.14874093699E+03  0.11781330676E+04  0.59992615249E+03 0.  0.
        -24    2    4    4    0    0  0.93153939782E+02 -0.11580199943E+03  0.25824966245E+03  0.30775298353E+03  0.77014616467E+02 0.  0.
         24    2    4    4    0    0  0.31819698799E+03 -0.79893986821E+03 -0.10950872546E+03  0.87038008406E+03  0.77557034492E+02 0.  0.
         11    1    3    3    0    0 -0.32446556944E+03  0.73238529665E+03 -0.14458263490E+04  0.16529004688E+04  0.00000000000E+00 0. -1.
        -12    1    3    3    0    0 -0.86885358336E+02  0.18235657099E+03 -0.28951959957E+03  0.35302207157E+03  0.00000000000E+00 0.  1.
         11    1    5    5    0    0  0.50457055039E+02 -0.11398088677E+03  0.19146237324E+03  0.22846312026E+03  0.00000000000E+00 0. -1.
        -12    1    5    5    0    0  0.42696884743E+02 -0.18211126599E+01  0.66787289208E+02  0.79289863273E+02  0.00000000000E+00 0.  1.
          4    1    6    6  502    0  0.98686250578E+02 -0.30756269919E+03 -0.71735354721E+02  0.33087724476E+03  0.00000000000E+00 0. -1.
         -3    1    6    6    0  502  0.21951073741E+03 -0.49137716902E+03 -0.37773370741E+02  0.53950283930E+03  0.00000000000E+00 0.  1.
<mgrwt>
<rscale>  0 0.10158049E+04</rscale>
<asrwt>0</asrwt>
<pdfrwt beam="1">  1        1 0.36697389E+00 0.10158049E+04</pdfrwt>
<pdfrwt beam="2">  1       -2 0.12288082E+00 0.10158049E+04</pdfrwt>
<totfact> 0.71964051E-01</totfact>
</mgrwt>
</event>
<event>
12    3  0.2422421E-007  0.5067963E+03  0.7818608E-02  0.1012020E+00
          3   -1    0    0  501    0  0.00000000000E+00  0.00000000000E+00  0.15348573961E+03  0.15348573961E+03  0.00000000000E+00 0. -1.
         -4   -1    0    0    0  501 -0.00000000000E+00 -0.00000000000E+00 -0.24779626784E+04  0.24779626784E+04  0.00000000000E+00 0.  1.
        -24    2    1    2    0    0 -0.36187525892E+03 -0.29004756182E+03 -0.82247124187E+03  0.94881108462E+03  0.93285794592E+02 0.  0.
    5000000    2    1    2    0    0  0.36187525892E+03  0.29004756182E+03 -0.15020056970E+04  0.16826373334E+04  0.60013830987E+03 0.  0.
        -24    2    4    4    0    0 -0.82458364293E+01  0.57242983582E+02 -0.10265789188E+04  0.10321656088E+04  0.90315084839E+02 0.  0.
         24    2    4    4    0    0  0.37012109535E+03  0.23280457824E+03 -0.47542677821E+03  0.65047172463E+03  0.76780506897E+02 0.  0.
         13    1    3    3    0    0 -0.31955737294E+03 -0.27633839810E+03 -0.68989888276E+03  0.80897484095E+03  0.00000000000E+00 0. -1.
        -14    1    3    3    0    0 -0.42317885971E+02 -0.13709163714E+02 -0.13257235911E+03  0.13983624367E+03  0.00000000000E+00 0.  1.
         13    1    5    5    0    0 -0.21212340228E+02 -0.18434190982E+02 -0.38143539456E+03  0.38246927066E+03  0.00000000000E+00 0. -1.
        -14    1    5    5    0    0  0.12966503798E+02  0.75677174564E+02 -0.64514352419E+03  0.64969633812E+03  0.00000000000E+00 0.  1.
          4    1    6    6  502    0  0.55588431387E+00 -0.32106640091E+01  0.54129631546E+00  0.33030852927E+01  0.00000000000E+00 0. -1.
         -3    1    6    6    0  502  0.36956521103E+03  0.23601524225E+03 -0.47596807453E+03  0.64716863934E+03  0.00000000000E+00 0.  1.
<mgrwt>
<rscale>  0 0.50679630E+03</rscale>
<asrwt>0</asrwt>
<pdfrwt beam="1">  1        3 0.23613191E-01 0.50679630E+03</pdfrwt>
<pdfrwt beam="2">  1       -4 0.38122502E+00 0.50679630E+03</pdfrwt>
<totfact> 0.38354509E-01</totfact>
</mgrwt>
</event>
<event>
12    3  0.2594646E-007  0.1319511E+04  0.7818608E-02  0.9014234E-01
          1   -1    0    0  501    0  0.00000000000E+00  0.00000000000E+00  0.23749224680E+04  0.23749224680E+04  0.00000000000E+00 0. -1.
         -2   -1    0    0    0  501 -0.00000000000E+00 -0.00000000000E+00 -0.81252114343E+03  0.81252114343E+03  0.00000000000E+00 0.  1.
        -24    2    1    2    0    0 -0.12289522476E+04  0.25296085635E+03  0.26384629824E+03  0.12847100166E+04  0.80945264099E+02 0.  0.
    5000000    2    1    2    0    0  0.12289522476E+04 -0.25296085635E+03  0.12985550263E+04  0.19027335949E+04  0.59986428044E+03 0.  0.
        -24    2    4    4    0    0  0.14800669036E+03 -0.25768765543E+03  0.29189365930E+03  0.42343645533E+03  0.76076377446E+02 0.  0.
         24    2    4    4    0    0  0.10809455573E+04  0.47267990760E+01  0.10066613670E+04  0.14792971396E+04  0.80543645792E+02 0.  0.
         11    1    3    3    0    0 -0.66104914378E+03  0.14428151406E+03  0.10182813561E+03  0.68423102458E+03  0.00000000000E+00 0. -1.
        -12    1    3    3    0    0 -0.56790310383E+03  0.10867934229E+03  0.16201816263E+03  0.60047899197E+03  0.00000000000E+00 0.  1.
         11    1    5    5    0    0  0.93973557210E+02 -0.11766171984E+03  0.10423705264E+03  0.18314112841E+03  0.00000000000E+00 0. -1.
        -12    1    5    5    0    0  0.54033133149E+02 -0.14002593559E+03  0.18765660666E+03  0.24029532692E+03  0.00000000000E+00 0.  1.
          2    1    6    6  502    0  0.47758652108E+03 -0.34978403561E+02  0.42442528815E+03  0.63988217592E+03  0.00000000000E+00 0. -1.
         -1    1    6    6    0  502  0.60335903617E+03  0.39705202637E+02  0.58223607887E+03  0.83941496364E+03  0.00000000000E+00 0.  1.
<mgrwt>
<rscale>  0 0.13195113E+04</rscale>
<asrwt>0</asrwt>
<pdfrwt beam="1">  1        1 0.36537268E+00 0.13195113E+04</pdfrwt>
<pdfrwt beam="2">  1       -2 0.12500325E+00 0.13195113E+04</pdfrwt>
<totfact> 0.67363680E-01</totfact>
</mgrwt>
</event>
<event>
12    3  0.2422421E-007  0.5331040E+03  0.7818608E-02  0.1005482E+00
          1   -1    0    0  501    0  0.00000000000E+00  0.00000000000E+00  0.43212930885E+03  0.43212930885E+03  0.00000000000E+00 0. -1.
         -2   -1    0    0    0  501 -0.00000000000E+00 -0.00000000000E+00 -0.89387913667E+03  0.89387913667E+03  0.00000000000E+00 0.  1.
        -24    2    1    2    0    0 -0.38604544523E+03  0.22243207370E+02  0.11172065446E+03  0.41035384940E+03  0.79893247689E+02 0.  0.
    5000000    2    1    2    0    0  0.38604544523E+03 -0.22243207370E+02 -0.57347048228E+03  0.91565459612E+03  0.60002424892E+03 0.  0.
        -24    2    4    4    0    0  0.51443791151E+03  0.47564903990E+02 -0.52964785387E+03  0.74414985670E+03  0.79519653136E+02 0.  0.
         24    2    4    4    0    0 -0.12839246628E+03 -0.69808111360E+02 -0.43822628410E+02  0.17150473941E+03  0.78330422381E+02 0.  0.
         11    1    5    5    0    0  0.10859249501E+03  0.43067400711E+02 -0.12141347557E+03  0.16848846556E+03  0.00000000000E+00 0. -1.
        -12    1    5    5    0    0  0.40584541651E+03  0.44975032792E+01 -0.40823437829E+03  0.57566139115E+03  0.00000000000E+00 0.  1.
         11    1    3    3    0    0 -0.30119837523E+03 -0.10238221074E+02  0.10544063614E+03  0.31928515494E+03  0.00000000000E+00 0. -1.
        -12    1    3    3    0    0 -0.84847069998E+02  0.32481428444E+02  0.62800183218E+01  0.91068694463E+02  0.00000000000E+00 0.  1.
          2    1    6    6  502    0 -0.15445344357E+02 -0.25809776064E+02  0.18392816103E+02  0.35256189343E+02  0.00000000000E+00 0. -1.
         -1    1    6    6    0  502 -0.11294712193E+03 -0.43998335296E+02 -0.62215444513E+02  0.13624855007E+03  0.00000000000E+00 0.  1.
<mgrwt>
<rscale>  0 0.53310404E+03</rscale>
<asrwt>0</asrwt>
<pdfrwt beam="1">  1        1 0.66481432E-01 0.53310404E+03</pdfrwt>
<pdfrwt beam="2">  1       -2 0.13751987E+00 0.53310404E+03</pdfrwt>
<totfact> 0.18515624E+01</totfact>
</mgrwt>
</event>
<event>
12    3  0.2422421E-007  0.4766097E+03  0.7818608E-02  0.1020071E+00
          1   -1    0    0  501    0  0.00000000000E+00  0.00000000000E+00  0.20802283840E+04  0.20802283840E+04  0.00000000000E+00 0. -1.
         -2   -1    0    0    0  501 -0.00000000000E+00 -0.00000000000E+00 -0.35627472173E+03  0.35627472173E+03  0.00000000000E+00 0.  1.
        -24    2    1    2    0    0  0.25319812636E+03  0.31581613433E+03  0.16604461529E+04  0.17098848982E+04  0.52686021032E+02 0.  0.
    5000000    2    1    2    0    0 -0.25319812636E+03 -0.31581613433E+03  0.63507509390E+02  0.72661820747E+03  0.60007640662E+03 0.  0.
        -24    2    4    4    0    0 -0.32139748902E+03 -0.17347649186E+03  0.26516376451E+03  0.45813531978E+03  0.78649285084E+02 0.  0.
         24    2    4    4    0    0  0.68199362654E+02 -0.14233964247E+03 -0.20165625512E+03  0.26848288769E+03  0.80660330193E+02 0.  0.
         11    1    3    3    0    0  0.46331475698E+02  0.84027992203E+02  0.45882129687E+03  0.46874757768E+03  0.00000000000E+00 0. -1.
        -12    1    3    3    0    0  0.20686665066E+03  0.23178814212E+03  0.12016248560E+04  0.12411373206E+04  0.00000000000E+00 0.  1.
         11    1    5    5    0    0 -0.11792908305E+03 -0.26472454620E+02  0.10717389506E+03  0.16153731229E+03  0.00000000000E+00 0. -1.
        -12    1    5    5    0    0 -0.20346840597E+03 -0.14700403724E+03  0.15798986945E+03  0.29659800748E+03  0.00000000000E+00 0.  1.
          4    1    6    6  502    0  0.75782831632E+02 -0.73903057945E+02 -0.14373033029E+03  0.17850240163E+03  0.00000000000E+00 0. -1.
         -3    1    6    6    0  502 -0.75834689776E+01 -0.68436584522E+02 -0.57925924836E+02  0.89980486056E+02  0.00000000000E+00 0.  1.
<mgrwt>
<rscale>  0 0.47660965E+03</rscale>
<asrwt>0</asrwt>
<pdfrwt beam="1">  1        1 0.32003513E+00 0.47660965E+03</pdfrwt>
<pdfrwt beam="2">  1       -2 0.54811497E-01 0.47660965E+03</pdfrwt>
<totfact> 0.79566897E+00</totfact>
</mgrwt>
</event>
<event>
12    3  0.2422421E-007  0.1193211E+04  0.7818608E-02  0.9118820E-01
         -2   -1    0    0    0  501 -0.00000000000E+00  0.00000000000E+00  0.28643202761E+04  0.28643202761E+04  0.00000000000E+00 0.  1.
          1   -1    0    0  501    0  0.00000000000E+00 -0.00000000000E+00 -0.53552236458E+03  0.53552236458E+03  0.00000000000E+00 0. -1.
        -24    2    1    2    0    0 -0.11037571109E+04 -0.20556079128E+03  0.15208696741E+04  0.18920693706E+04  0.79667678977E+02 0.  0.
    5000000    2    1    2    0    0  0.11037571109E+04  0.20556079128E+03  0.80792823741E+03  0.15077732700E+04  0.60008099307E+03 0.  0.
        -24    2    4    4    0    0  0.62494992816E+03 -0.17421108348E+03  0.36403328583E+03  0.74821431958E+03  0.79953239601E+02 0.  0.
         24    2    4    4    0    0  0.47880718271E+03  0.37977187476E+03  0.44389495158E+03  0.75955895043E+03  0.80025471349E+02 0.  0.
         13    1    3    3    0    0 -0.92472846763E+03 -0.17603426826E+03  0.12235615467E+04  0.15437660642E+04  0.00000000000E+00 0. -1.
        -14    1    3    3    0    0 -0.17902864324E+03 -0.29526523021E+02  0.29730812742E+03  0.34830330646E+03  0.00000000000E+00 0.  1.
         13    1    5    5    0    0  0.41604192204E+03 -0.13405316014E+03  0.28219068814E+03  0.52028138070E+03  0.00000000000E+00 0. -1.
        -14    1    5    5    0    0  0.20890800612E+03 -0.40157923341E+02  0.81842597693E+02  0.22793293888E+03  0.00000000000E+00 0.  1.
          2    1    6    6  502    0  0.46471495246E+03  0.35312857015E+03  0.40527001451E+03  0.71056566112E+03  0.00000000000E+00 0. -1.
         -1    1    6    6    0  502  0.14092230249E+02  0.26643304605E+02  0.38624937072E+02  0.48993289310E+02  0.00000000000E+00 0.  1.
<mgrwt>
<rscale>  0 0.11932106E+04</rscale>
<asrwt>0</asrwt>
<pdfrwt beam="1">  1        1 0.82388058E-01 0.11932106E+04</pdfrwt>
<pdfrwt beam="2">  1       -2 0.44066465E+00 0.11932106E+04</pdfrwt>
<totfact> 0.14053864E-01</totfact>
</mgrwt>
</event>
<event>
12    3  0.2422421E-007  0.1021333E+04  0.7818608E-02  0.9285451E-01
         -2   -1    0    0    0  501 -0.00000000000E+00  0.00000000000E+00  0.79620789509E+03  0.79620789509E+03  0.00000000000E+00 0.  1.
          1   -1    0    0  501    0  0.00000000000E+00 -0.00000000000E+00 -0.14149893108E+04  0.14149893108E+04  0.00000000000E+00 0. -1.
        -24    2    1    2    0    0  0.91644046381E+03  0.21315023997E+03 -0.55140831275E+03  0.10933274506E+04  0.77573438094E+02 0.  0.
    5000000    2    1    2    0    0 -0.91644046381E+03 -0.21315023997E+03 -0.67373102924E+02  0.11178697553E+04  0.59983123149E+03 0.  0.
        -24    2    4    4    0    0 -0.33361689427E+03 -0.36197875787E+03 -0.10640548215E+03  0.50971269038E+03  0.78460479246E+02 0.  0.
         24    2    4    4    0    0 -0.58282356954E+03  0.14882851791E+03  0.39032379229E+02  0.60815706491E+03  0.80611711374E+02 0.  0.
         11    1    5    5    0    0 -0.22725220604E+03 -0.27768293918E+03 -0.10544429001E+03  0.37399181563E+03  0.00000000000E+00 0. -1.
        -12    1    5    5    0    0 -0.10636468823E+03 -0.84295818694E+02 -0.96119213911E+00  0.13572087474E+03  0.00000000000E+00 0.  1.
         13    1    3    3    0    0  0.40156451772E+03  0.80792501285E+02 -0.28239369524E+03  0.49752154653E+03  0.00000000000E+00 0. -1.
        -14    1    3    3    0    0  0.51487594610E+03  0.13235773868E+03 -0.26901461751E+03  0.59580590404E+03  0.00000000000E+00 0.  1.
          4    1    6    6  502    0 -0.33841625631E+03  0.45154241631E+02  0.21434392460E+02  0.34208756372E+03  0.00000000000E+00 0. -1.
         -3    1    6    6    0  502 -0.24440731323E+03  0.10367427628E+03  0.17597986770E+02  0.26606950118E+03  0.00000000000E+00 0.  1.
<mgrwt>
<rscale>  0 0.10213334E+04</rscale>
<asrwt>0</asrwt>
<pdfrwt beam="1">  1        1 0.21769066E+00 0.10213334E+04</pdfrwt>
<pdfrwt beam="2">  1       -2 0.12249352E+00 0.10213334E+04</pdfrwt>
<totfact> 0.33060680E+00</totfact>
</mgrwt>
</event>
<event>
12    3  0.2422421E-007  0.1183536E+04  0.7818608E-02  0.9127390E-01
         -2   -1    0    0    0  501 -0.00000000000E+00  0.00000000000E+00  0.96103248853E+03  0.96103248853E+03  0.00000000000E+00 0.  1.
          1   -1    0    0  501    0  0.00000000000E+00 -0.00000000000E+00 -0.15809435489E+04  0.15809435489E+04  0.00000000000E+00 0. -1.
        -24    2    1    2    0    0 -0.11059717153E+04  0.12282288251E+03 -0.62299643964E+03  0.12777521670E+04  0.79165276263E+02 0.  0.
    5000000    2    1    2    0    0  0.11059717153E+04 -0.12282288251E+03  0.30853792411E+01  0.12642238704E+04  0.59999464955E+03 0.  0.
        -24    2    4    4    0    0  0.23850861017E+02 -0.14971752687E+03  0.49152332515E+02  0.17786314908E+03  0.78962944372E+02 0.  0.
         24    2    4    4    0    0  0.10821208543E+04  0.26894644363E+02 -0.46066953274E+02  0.10863607214E+04  0.79678024205E+02 0.  0.
         11    1    3    3    0    0 -0.29804335265E+03  0.21385582752E+02 -0.12996335294E+03  0.32584913122E+03  0.00000000000E+00 0. -1.
        -12    1    3    3    0    0 -0.80792836267E+03  0.10143729976E+03 -0.49303308670E+03  0.95190303580E+03  0.00000000000E+00 0.  1.
         13    1    5    5    0    0  0.50725575856E+02 -0.12285853893E+03  0.37013879013E+02  0.13797583801E+03  0.00000000000E+00 0. -1.
        -14    1    5    5    0    0 -0.26874714839E+02 -0.26858987940E+02  0.12138453502E+02  0.39887311068E+02  0.00000000000E+00 0.  1.
          4    1    6    6  502    0  0.33195556882E+03  0.25203384492E+02  0.18467559238E+02  0.33342279617E+03  0.00000000000E+00 0. -1.
         -3    1    6    6    0  502  0.75016528548E+03  0.16912598709E+01 -0.64534512511E+02  0.75293792520E+03  0.00000000000E+00 0.  1.
<mgrwt>
<rscale>  0 0.11835365E+04</rscale>
<asrwt>0</asrwt>
<pdfrwt beam="1">  1        1 0.24322208E+00 0.11835365E+04</pdfrwt>
<pdfrwt beam="2">  1       -2 0.14785115E+00 0.11835365E+04</pdfrwt>
<totfact> 0.15354486E+00</totfact>
</mgrwt>
</event>
<event>
12    3  0.2422421E-007  0.9243279E+03  0.7818608E-02  0.9395671E-01
         -2   -1    0    0    0  501 -0.00000000000E+00  0.00000000000E+00  0.88367145940E+03  0.88367145940E+03  0.00000000000E+00 0.  1.
          1   -1    0    0  501    0  0.00000000000E+00 -0.00000000000E+00 -0.12415726051E+04  0.12415726051E+04  0.00000000000E+00 0. -1.
        -24    2    1    2    0    0  0.28151029556E+03 -0.81112537884E+03 -0.59963296898E+03  0.10503417089E+04  0.80533106584E+02 0.  0.
    5000000    2    1    2    0    0 -0.28151029556E+03  0.81112537884E+03  0.24173182332E+03  0.10749023556E+04  0.59984028951E+03 0.  0.
        -24    2    4    4    0    0 -0.90936813852E+02  0.77670687751E+03  0.32365197392E+03  0.85012795589E+03  0.80149007929E+02 0.  0.
         24    2    4    4    0    0 -0.19057348170E+03  0.34418501326E+02 -0.81920150603E+02  0.22477439969E+03  0.79433837355E+02 0.  0.
         11    1    3    3    0    0  0.21493541010E+03 -0.50613437061E+03 -0.39579935725E+03  0.67751484325E+03  0.00000000000E+00 0. -1.
        -12    1    3    3    0    0  0.66574885453E+02 -0.30499100823E+03 -0.20383361173E+03  0.37282686564E+03  0.00000000000E+00 0.  1.
         13    1    5    5    0    0 -0.57262138331E+02  0.41547307703E+03  0.13119702020E+03  0.43944224687E+03  0.00000000000E+00 0. -1.
        -14    1    5    5    0    0 -0.33674675521E+02  0.36123380048E+03  0.19245495372E+03  0.41068570902E+03  0.00000000000E+00 0.  1.
          2    1    6    6  502    0 -0.18099180543E+03  0.48492523080E+02 -0.87579239250E+02  0.20683249642E+03  0.00000000000E+00 0. -1.
         -1    1    6    6    0  502 -0.95816762772E+01 -0.14074021754E+02  0.56590886468E+01  0.17941903269E+02  0.00000000000E+00 0.  1.
<mgrwt>
<rscale>  0 0.92432789E+03</rscale>
<asrwt>0</asrwt>
<pdfrwt beam="1">  1        1 0.19101117E+00 0.92432789E+03</pdfrwt>
<pdfrwt beam="2">  1       -2 0.13594946E+00 0.92432789E+03</pdfrwt>
<totfact> 0.34062694E+00</totfact>
</mgrwt>
</event>
<event>
12    3  0.2422421E-007  0.7732306E+03  0.7818608E-02  0.9599594E-01
         -2   -1    0    0    0  501 -0.00000000000E+00  0.00000000000E+00  0.29776762764E+03  0.29776762764E+03  0.00000000000E+00 0.  1.
          1   -1    0    0  501    0  0.00000000000E+00 -0.00000000000E+00 -0.21929014812E+04  0.21929014812E+04  0.00000000000E+00 0. -1.
        -24    2    1    2    0    0  0.67093698658E+03 -0.16493550595E+03 -0.71568808582E+03  0.99787980985E+03  0.78705258118E+02 0.  0.
    5000000    2    1    2    0    0 -0.67093698658E+03  0.16493550595E+03 -0.11794457677E+04  0.14927892990E+04  0.59997284190E+03 0.  0.
        -24    2    4    4    0    0 -0.14366108033E+03 -0.16475272837E+03 -0.12058349901E+03  0.26223740280E+03  0.80287655877E+02 0.  0.
         24    2    4    4    0    0 -0.52727590625E+03  0.32968823433E+03 -0.10588622687E+04  0.12305518962E+04  0.79714815992E+02 0.  0.
         11    1    3    3    0    0  0.10262261586E+03  0.26807808267E+01 -0.11446172607E+03  0.15375329137E+03  0.00000000000E+00 0. -1.
        -12    1    3    3    0    0  0.56831437071E+03 -0.16761628678E+03 -0.60122635974E+03  0.84412651848E+03  0.00000000000E+00 0.  1.
         13    1    5    5    0    0 -0.86941147123E+02 -0.57810018484E+02 -0.88846669171E+02  0.13709300465E+03  0.00000000000E+00 0. -1.
        -14    1    5    5    0    0 -0.56719933209E+02 -0.10694270989E+03 -0.31736829840E+02  0.12514439816E+03  0.00000000000E+00 0.  1.
          2    1    6    6  502    0 -0.36873208704E+03  0.19140989483E+03 -0.73712226485E+03  0.84613848346E+03  0.00000000000E+00 0. -1.
         -1    1    6    6    0  502 -0.15854381921E+03  0.13827833950E+03 -0.32174000386E+03  0.38441341271E+03  0.00000000000E+00 0.  1.
<mgrwt>
<rscale>  0 0.77323055E+03</rscale>
<asrwt>0</asrwt>
<pdfrwt beam="1">  1        1 0.33736947E+00 0.77323055E+03</pdfrwt>
<pdfrwt beam="2">  1       -2 0.45810403E-01 0.77323055E+03</pdfrwt>
<totfact> 0.91059051E+00</totfact>
</mgrwt>
</event>
<event>
12    3  0.2422421E-007  0.1070335E+04  0.7818608E-02  0.9234598E-01
          1   -1    0    0  501    0  0.00000000000E+00  0.00000000000E+00  0.21483517174E+04  0.21483517174E+04  0.00000000000E+00 0. -1.
         -2   -1    0    0    0  501 -0.00000000000E+00 -0.00000000000E+00 -0.83124590294E+03  0.83124590294E+03  0.00000000000E+00 0.  1.
        -24    2    1    2    0    0  0.18537404503E+03  0.97080577036E+03  0.15099733793E+04  0.18074751439E+04  0.10059527463E+03 0.  0.
    5000000    2    1    2    0    0 -0.18537404503E+03 -0.97080577036E+03 -0.19286756486E+03  0.11721224764E+04  0.59987150443E+03 0.  0.
        -24    2    4    4    0    0  0.20131058058E+03 -0.46918219230E+03 -0.11119272342E+03  0.52859100649E+03  0.79917150713E+02 0.  0.
         24    2    4    4    0    0 -0.38668462561E+03 -0.50162357806E+03 -0.81674841441E+02  0.64353146993E+03  0.79440287722E+02 0.  0.
         11    1    3    3    0    0  0.50515108105E+02  0.10509090046E+03  0.19993744565E+03  0.23145378735E+03  0.00000000000E+00 0. -1.
        -12    1    3    3    0    0  0.13485893693E+03  0.86571486990E+03  0.13100359336E+04  0.15760213565E+04  0.00000000000E+00 0.  1.
         11    1    5    5    0    0  0.58076658959E+02 -0.76628663854E+02  0.12126178588E+00  0.96150221759E+02  0.00000000000E+00 0. -1.
        -12    1    5    5    0    0  0.14323392162E+03 -0.39255352845E+03 -0.11131398521E+03  0.43244078474E+03  0.00000000000E+00 0.  1.
          2    1    6    6  502    0 -0.15081694754E+03 -0.21654136484E+03  0.32371350108E+01  0.26390603137E+03  0.00000000000E+00 0. -1.
         -1    1    6    6    0  502 -0.23586767807E+03 -0.28508221322E+03 -0.84911976451E+02  0.37962543856E+03  0.00000000000E+00 0.  1.
<mgrwt>
<rscale>  0 0.10703348E+04</rscale>
<asrwt>0</asrwt>
<pdfrwt beam="1">  1        1 0.33051565E+00 0.10703348E+04</pdfrwt>
<pdfrwt beam="2">  1       -2 0.12788399E+00 0.10703348E+04</pdfrwt>
<totfact> 0.93516380E-01</totfact>
</mgrwt>
</event>
<event>
12    3  0.2422421E-007  0.1415809E+04  0.7818608E-02  0.8942454E-01
          1   -1    0    0  501    0  0.00000000000E+00  0.00000000000E+00  0.18447940620E+04  0.18447940620E+04  0.00000000000E+00 0. -1.
         -2   -1    0    0    0  501 -0.00000000000E+00 -0.00000000000E+00 -0.11292484953E+04  0.11292484953E+04  0.00000000000E+00 0.  1.
        -24    2    1    2    0    0 -0.13777481685E+04  0.50559389937E+02  0.28737298488E+03  0.14106592268E+04  0.81424529152E+02 0.  0.
    5000000    2    1    2    0    0  0.13777481685E+04 -0.50559389937E+02  0.42817258184E+03  0.15633833305E+04  0.60007450423E+03 0.  0.
        -24    2    4    4    0    0  0.79111214780E+03  0.18993434999E+03  0.43219620084E+03  0.92477769436E+03  0.80540302078E+02 0.  0.
         24    2    4    4    0    0  0.58663602067E+03 -0.24049373992E+03 -0.40236189922E+01  0.63860563615E+03  0.76301437228E+02 0.  0.
         11    1    5    5    0    0  0.64844073954E+03  0.12407822654E+03  0.35762315539E+03  0.75084293981E+03  0.00000000000E+00 0. -1.
        -12    1    5    5    0    0  0.14267140826E+03  0.65856123450E+02  0.74573045443E+02  0.17393475454E+03  0.00000000000E+00 0.  1.
         13    1    3    3    0    0 -0.97133648780E+03  0.43808976845E+02  0.23946676231E+03  0.10013781150E+04  0.00000000000E+00 0. -1.
        -14    1    3    3    0    0 -0.40641168067E+03  0.67504130919E+01  0.47906222571E+02  0.40928111173E+03  0.00000000000E+00 0.  1.
          2    1    6    6  502    0  0.44149175763E+03 -0.20078598202E+03  0.23749762080E+02  0.48558627846E+03  0.00000000000E+00 0. -1.
         -1    1    6    6    0  502  0.14514426304E+03 -0.39707757900E+02 -0.27773381072E+02  0.15301935769E+03  0.00000000000E+00 0.  1.
<mgrwt>
<rscale>  0 0.14158085E+04</rscale>
<asrwt>0</asrwt>
<pdfrwt beam="1">  1        1 0.28381447E+00 0.14158085E+04</pdfrwt>
<pdfrwt beam="2">  1       -2 0.17373054E+00 0.14158085E+04</pdfrwt>
<totfact> 0.63627515E-01</totfact>
</mgrwt>
</event>
<event>
12    3  0.2422421E-007  0.4952892E+03  0.7818608E-02  0.1015016E+00
         -2   -1    0    0    0  501 -0.00000000000E+00  0.00000000000E+00  0.50910946793E+03  0.50910946793E+03  0.00000000000E+00 0.  1.
          1   -1    0    0  501    0  0.00000000000E+00 -0.00000000000E+00 -0.77729420902E+03  0.77729420902E+03  0.00000000000E+00 0. -1.
        -24    2    1    2    0    0  0.16066242630E+03  0.35271194472E+03 -0.39706750829E+03  0.56044520022E+03  0.78854835796E+02 0.  0.
    5000000    2    1    2    0    0 -0.16066242630E+03 -0.35271194472E+03  0.12888276720E+03  0.72595847673E+03  0.60015565572E+03 0.  0.
        -24    2    4    4    0    0 -0.14354404194E+03 -0.45302071284E+03 -0.71345319516E+02  0.48747318900E+03  0.81898089908E+02 0.  0.
         24    2    4    4    0    0 -0.17118384355E+02  0.10030876812E+03  0.20022808671E+03  0.23848528774E+03  0.80181405048E+02 0.  0.
         13    1    3    3    0    0  0.13233639549E+03  0.27907545614E+03 -0.35664430987E+03  0.47179571379E+03  0.00000000000E+00 0. -1.
        -14    1    3    3    0    0  0.28326030806E+02  0.73636488584E+02 -0.40423198423E+02  0.88649486423E+02  0.00000000000E+00 0.  1.
         13    1    5    5    0    0 -0.76089035404E+02 -0.20658911190E+03 -0.73086268651E+02  0.23197026777E+03  0.00000000000E+00 0. -1.
        -14    1    5    5    0    0 -0.67455006539E+02 -0.24643160094E+03  0.17409491344E+01  0.25550292123E+03  0.00000000000E+00 0.  1.
          4    1    6    6  502    0 -0.65776470789E+01  0.11155716338E+03  0.15795448461E+03  0.19348872151E+03  0.00000000000E+00 0. -1.
         -3    1    6    6    0  502 -0.10540737276E+02 -0.11248395257E+02  0.42273602101E+02  0.44996566233E+02  0.00000000000E+00 0.  1.
<mgrwt>
<rscale>  0 0.49528918E+03</rscale>
<asrwt>0</asrwt>
<pdfrwt beam="1">  1        1 0.11958372E+00 0.49528918E+03</pdfrwt>
<pdfrwt beam="2">  1       -2 0.78324534E-01 0.49528918E+03</pdfrwt>
<totfact> 0.30842673E+01</totfact>
</mgrwt>
</event>
<event>
12    3  0.2422421E-007  0.3168420E+03  0.7818608E-02  0.1077112E+00
         -2   -1    0    0    0  501 -0.00000000000E+00  0.00000000000E+00  0.25625969774E+03  0.25625969774E+03  0.00000000000E+00 0.  1.
          1   -1    0    0  501    0  0.00000000000E+00 -0.00000000000E+00 -0.63488696828E+03  0.63488696828E+03  0.00000000000E+00 0. -1.
        -24    2    1    2    0    0 -0.56079332128E+02 -0.15804214408E+03 -0.91236424254E+02  0.20510000643E+03  0.74964769933E+02 0.  0.
    5000000    2    1    2    0    0  0.56079332128E+02  0.15804214408E+03 -0.28739084629E+03  0.68604665959E+03  0.59995358971E+03 0.  0.
        -24    2    4    4    0    0  0.13916611327E+03 -0.10281887919E+03  0.91742390668E+02  0.21160142594E+03  0.80122207986E+02 0.  0.
         24    2    4    4    0    0 -0.83086781140E+02  0.26086102327E+03 -0.37913323695E+03  0.47444523366E+03  0.80027381040E+02 0.  0.
         11    1    3    3    0    0 -0.39817785032E+02 -0.12703300490E+03 -0.10282948190E+03  0.16821635677E+03  0.00000000000E+00 0. -1.
        -12    1    3    3    0    0 -0.16261547096E+02 -0.31009139178E+02  0.11593057645E+02  0.36883649658E+02  0.00000000000E+00 0.  1.
         13    1    5    5    0    0  0.89425498146E+02 -0.19248640675E+02  0.29399936078E+02  0.96082184238E+02  0.00000000000E+00 0. -1.
        -14    1    5    5    0    0  0.49740615122E+02 -0.83570238514E+02  0.62342454590E+02  0.11551924170E+03  0.00000000000E+00 0.  1.
          2    1    6    6  502    0 -0.17087046394E+02  0.12057950335E+03 -0.11131731494E+03  0.16499372227E+03  0.00000000000E+00 0. -1.
         -1    1    6    6    0  502 -0.65999734746E+02  0.14028151992E+03 -0.26781592201E+03  0.30945151139E+03  0.00000000000E+00 0.  1.
<mgrwt>
<rscale>  0 0.31684200E+03</rscale>
<asrwt>0</asrwt>
<pdfrwt beam="1">  1        1 0.97674918E-01 0.31684200E+03</pdfrwt>
<pdfrwt beam="2">  1       -2 0.39424569E-01 0.31684200E+03</pdfrwt>
<totfact> 0.17563254E+02</totfact>
</mgrwt>
</event>
<event>
12    3  0.2422421E-007  0.5484456E+03  0.7818608E-02  0.1001854E+00
          1   -1    0    0  501    0  0.00000000000E+00  0.00000000000E+00  0.16174019511E+04  0.16174019511E+04  0.00000000000E+00 0. -1.
         -2   -1    0    0    0  501 -0.00000000000E+00 -0.00000000000E+00 -0.33848740121E+03  0.33848740121E+03  0.00000000000E+00 0.  1.
        -24    2    1    2    0    0  0.86706682634E+02  0.53075015750E+03  0.93146259395E+03  0.10784421695E+04  0.78747511456E+02 0.  0.
    5000000    2    1    2    0    0 -0.86706682634E+02 -0.53075015750E+03  0.34745195594E+03  0.87744718280E+03  0.59998076504E+03 0.  0.
        -24    2    4    4    0    0 -0.69132507798E+02 -0.19698402367E+03  0.46359439970E+03  0.51484671534E+03  0.81026931626E+02 0.  0.
         24    2    4    4    0    0 -0.17574174836E+02 -0.33376613384E+03 -0.11614244376E+03  0.36260046746E+03  0.79254955961E+02 0.  0.
         11    1    3    3    0    0  0.30133683422E+02  0.39616609909E+03  0.69457812137E+03  0.80018396861E+03  0.00000000000E+00 0. -1.
        -12    1    3    3    0    0  0.56572999212E+02  0.13458405841E+03  0.23688447259E+03  0.27825820091E+03  0.00000000000E+00 0.  1.
         13    1    5    5    0    0 -0.59095659092E+02 -0.13363277279E+03  0.22902680997E+03  0.27166761782E+03  0.00000000000E+00 0. -1.
        -14    1    5    5    0    0 -0.10036848706E+02 -0.63351250881E+02  0.23456758972E+03  0.24317909752E+03  0.00000000000E+00 0.  1.
          2    1    6    6  502    0 -0.25716715048E+02 -0.30239381061E+02 -0.98768714835E+01  0.40906261014E+02  0.00000000000E+00 0. -1.
         -1    1    6    6    0  502  0.81425402125E+01 -0.30352675277E+03 -0.10626557228E+03  0.32169420645E+03  0.00000000000E+00 0.  1.
<mgrwt>
<rscale>  0 0.54844562E+03</rscale>
<asrwt>0</asrwt>
<pdfrwt beam="1">  1        1 0.24883107E+00 0.54844562E+03</pdfrwt>
<pdfrwt beam="2">  1       -2 0.52074986E-01 0.54844562E+03</pdfrwt>
<totfact> 0.17655967E+01</totfact>
</mgrwt>
</event>
<event>
12    3  0.2422421E-007  0.1298449E+04  0.7818608E-02  0.9030796E-01
         -2   -1    0    0    0  501 -0.00000000000E+00  0.00000000000E+00  0.45560230647E+03  0.45560230647E+03  0.00000000000E+00 0.  1.
          1   -1    0    0  501    0  0.00000000000E+00 -0.00000000000E+00 -0.38903113917E+04  0.38903113917E+04  0.00000000000E+00 0. -1.
        -24    2    1    2    0    0 -0.96808870611E+03  0.78963884421E+03 -0.19279227640E+04  0.22986860990E+04  0.79663983499E+02 0.  0.
    5000000    2    1    2    0    0  0.96808870611E+03 -0.78963884421E+03 -0.15067863212E+04  0.20472275993E+04  0.60000881506E+03 0.  0.
        -24    2    4    4    0    0  0.56079466130E+03 -0.14378807350E+03 -0.43338311013E+03  0.72771711572E+03  0.81151821544E+02 0.  0.
         24    2    4    4    0    0  0.40729404481E+03 -0.64585077071E+03 -0.10734032111E+04  0.13195104835E+04  0.76823210156E+02 0.  0.
         13    1    5    5    0    0  0.10600951196E+03 -0.17347294893E+02 -0.45093123349E+02  0.11650036497E+03  0.00000000000E+00 0. -1.
        -14    1    5    5    0    0  0.45478514934E+03 -0.12644077860E+03 -0.38828998678E+03  0.61121675074E+03  0.00000000000E+00 0.  1.
         13    1    3    3    0    0 -0.86432920857E+03  0.68367863295E+03 -0.17338120362E+04  0.20544063938E+04  0.00000000000E+00 0. -1.
        -14    1    3    3    0    0 -0.10375949754E+03  0.10596021126E+03 -0.19411072786E+03  0.24427970519E+03  0.00000000000E+00 0.  1.
          2    1    6    6  502    0  0.18330379044E+03 -0.35971551741E+03 -0.58332650520E+03  0.70941197109E+03  0.00000000000E+00 0. -1.
         -1    1    6    6    0  502  0.22399025438E+03 -0.28613525330E+03 -0.49007670591E+03  0.61009851246E+03  0.00000000000E+00 0.  1.
<mgrwt>
<rscale>  0 0.12984494E+04</rscale>
<asrwt>0</asrwt>
<pdfrwt beam="1">  1        1 0.59850942E+00 0.12984494E+04</pdfrwt>
<pdfrwt beam="2">  1       -2 0.70092666E-01 0.12984494E+04</pdfrwt>
<totfact> 0.19412596E-01</totfact>
</mgrwt>
</event>
<event>
12    3  0.2422421E-007  0.8030441E+03  0.7818608E-02  0.9555621E-01
         -2   -1    0    0    0  501 -0.00000000000E+00  0.00000000000E+00  0.11364141095E+04  0.11364141095E+04  0.00000000000E+00 0.  1.
          1   -1    0    0  501    0  0.00000000000E+00 -0.00000000000E+00 -0.63346443118E+03  0.63346443118E+03  0.00000000000E+00 0. -1.
        -24    2    1    2    0    0 -0.38881419419E+03  0.60316791293E+03  0.32955655386E+02  0.72302786668E+03  0.81824275035E+02 0.  0.
    5000000    2    1    2    0    0  0.38881419419E+03 -0.60316791293E+03  0.46999402289E+03  0.10468506739E+04  0.60001161922E+03 0.  0.
        -24    2    4    4    0    0  0.29670540520E+02 -0.50282264208E+03  0.42397632140E+03  0.66301064811E+03  0.78206444939E+02 0.  0.
         24    2    4    4    0    0  0.35914365367E+03 -0.10034527085E+03  0.46017701488E+02  0.38384002584E+03  0.78499676662E+02 0.  0.
         11    1    3    3    0    0 -0.21910601569E+03  0.26660451481E+03  0.60720954726E+01  0.34514096218E+03  0.00000000000E+00 0. -1.
        -12    1    3    3    0    0 -0.16970817850E+03  0.33656339812E+03  0.26883559913E+02  0.37788690450E+03  0.00000000000E+00 0.  1.
         11    1    5    5    0    0  0.17319333753E+02 -0.13523201800E+03  0.16043706416E+03  0.21054146758E+03  0.00000000000E+00 0. -1.
        -12    1    5    5    0    0  0.12351206767E+02 -0.36759062408E+03  0.26353925724E+03  0.45246918053E+03  0.00000000000E+00 0.  1.
          4    1    6    6  502    0  0.23868614250E+03 -0.10175486549E+03  0.17595588538E+02  0.26006678375E+03  0.00000000000E+00 0. -1.
         -3    1    6    6    0  502  0.12045751117E+03  0.14095946430E+01  0.28422112950E+02  0.12377324210E+03  0.00000000000E+00 0.  1.
<mgrwt>
<rscale>  0 0.80304411E+03</rscale>
<asrwt>0</asrwt>
<pdfrwt beam="1">  1        1 0.97456066E-01 0.80304411E+03</pdfrwt>
<pdfrwt beam="2">  1       -2 0.17483294E+00 0.80304411E+03</pdfrwt>
<totfact> 0.55509844E+00</totfact>
</mgrwt>
</event>
<event>
12    3  0.2422421E-007  0.6267957E+03  0.7818608E-02  0.9851322E-01
          1   -1    0    0  501    0  0.00000000000E+00  0.00000000000E+00  0.85947048191E+03  0.85947048191E+03  0.00000000000E+00 0. -1.
         -2   -1    0    0    0  501 -0.00000000000E+00 -0.00000000000E+00 -0.48364801845E+03  0.48364801845E+03  0.00000000000E+00 0.  1.
        -24    2    1    2    0    0 -0.45131467993E+03 -0.20030888155E+03  0.23823815561E+03  0.55406672193E+03  0.80149393115E+02 0.  0.
    5000000    2    1    2    0    0  0.45131467993E+03  0.20030888155E+03  0.13758430785E+03  0.78905177842E+03  0.59988722183E+03 0.  0.
        -24    2    4    4    0    0  0.58434836247E+03  0.19678943420E+03  0.12159304444E+03  0.63353587367E+03  0.79960894477E+02 0.  0.
         24    2    4    4    0    0 -0.13303368254E+03  0.35194473503E+01  0.15991263410E+02  0.15551590475E+03  0.78861453985E+02 0.  0.
         11    1    3    3    0    0 -0.16637468856E+03 -0.11234863425E+03  0.11531719435E+03  0.23151848289E+03  0.00000000000E+00 0. -1.
        -12    1    3    3    0    0 -0.28493999137E+03 -0.87960247304E+02  0.12292096127E+03  0.32254823904E+03  0.00000000000E+00 0.  1.
         13    1    5    5    0    0  0.27487615318E+03  0.90983261936E+02  0.97793169969E+02  0.30561144880E+03  0.00000000000E+00 0. -1.
        -14    1    5    5    0    0  0.30947220928E+03  0.10580617227E+03  0.23799874468E+02  0.32792442488E+03  0.00000000000E+00 0.  1.
          4    1    6    6  502    0 -0.38006508836E+02 -0.15619518045E+02  0.38160802419E+02  0.56077721950E+02  0.00000000000E+00 0. -1.
         -3    1    6    6    0  502 -0.95027173703E+02  0.19138965396E+02 -0.22169539008E+02  0.99438182798E+02  0.00000000000E+00 0.  1.
<mgrwt>
<rscale>  0 0.62679575E+03</rscale>
<asrwt>0</asrwt>
<pdfrwt beam="1">  1        1 0.13222623E+00 0.62679575E+03</pdfrwt>
<pdfrwt beam="2">  1       -2 0.74407388E-01 0.62679575E+03</pdfrwt>
<totfact> 0.28961029E+01</totfact>
</mgrwt>
</event>
<event>
12    3  0.2422421E-007  0.1285780E+04  0.7818608E-02  0.9040918E-01
         -2   -1    0    0    0  501 -0.00000000000E+00  0.00000000000E+00  0.61023200383E+03  0.61023200383E+03  0.00000000000E+00 0.  1.
          1   -1    0    0  501    0  0.00000000000E+00 -0.00000000000E+00 -0.27703996847E+04  0.27703996847E+04  0.00000000000E+00 0. -1.
        -24    2    1    2    0    0 -0.80288631195E+03 -0.92625115616E+03 -0.89825023176E+03  0.15218597046E+04  0.81460710884E+02 0.  0.
    5000000    2    1    2    0    0  0.80288631195E+03  0.92625115616E+03 -0.12619174491E+04  0.18587719839E+04  0.60002500418E+03 0.  0.
        -24    2    4    4    0    0  0.59299958339E+03  0.95820073115E+03 -0.11219255130E+04  0.15922739545E+04  0.82597471018E+02 0.  0.
         24    2    4    4    0    0  0.20988672856E+03 -0.31949574984E+02 -0.13999193604E+03  0.26649802943E+03  0.79688414253E+02 0.  0.
         11    1    5    5    0    0  0.26757709151E+03  0.43570169072E+03 -0.45144523551E+03  0.68208229992E+03  0.00000000000E+00 0. -1.
        -12    1    5    5    0    0  0.32542249188E+03  0.52249904043E+03 -0.67048027752E+03  0.91019165455E+03  0.00000000000E+00 0.  1.
         13    1    3    3    0    0 -0.15749733697E+03 -0.23019065037E+03 -0.21952532159E+03  0.35494297217E+03  0.00000000000E+00 0. -1.
        -14    1    3    3    0    0 -0.64538897498E+03 -0.69606050579E+03 -0.67872491017E+03  0.11669167324E+04  0.00000000000E+00 0.  1.
          2    1    6    6  502    0  0.97439993590E+02  0.66742117721E+01 -0.24390979578E+02  0.10066785653E+03  0.00000000000E+00 0. -1.
         -1    1    6    6    0  502  0.11244673497E+03 -0.38623786756E+02 -0.11560095646E+03  0.16583017290E+03  0.00000000000E+00 0.  1.
<mgrwt>
<rscale>  0 0.12857802E+04</rscale>
<asrwt>0</asrwt>
<pdfrwt beam="1">  1        1 0.42621535E+00 0.12857802E+04</pdfrwt>
<pdfrwt beam="2">  1       -2 0.93881845E-01 0.12857802E+04</pdfrwt>
<totfact> 0.72095511E-01</totfact>
</mgrwt>
</event>
<event>
12    3  0.2422421E-007  0.5372183E+03  0.7818608E-02  0.1004496E+00
          1   -1    0    0  501    0  0.00000000000E+00  0.00000000000E+00  0.77229289113E+03  0.77229289113E+03  0.00000000000E+00 0. -1.
         -2   -1    0    0    0  501 -0.00000000000E+00 -0.00000000000E+00 -0.45863167927E+03  0.45863167927E+03  0.00000000000E+00 0.  1.
        -24    2    1    2    0    0  0.22210576826E+03  0.33769072784E+03 -0.61614674525E+02  0.41628985686E+03  0.78325454609E+02 0.  0.
    5000000    2    1    2    0    0 -0.22210576826E+03 -0.33769072784E+03  0.37527588638E+03  0.81463471355E+03  0.59952625101E+03 0.  0.
        -24    2    4    4    0    0 -0.34105991189E+03 -0.39184761296E+03  0.39888628678E+03  0.65980363912E+03  0.79775667518E+02 0.  0.
         24    2    4    4    0    0  0.11895414363E+03  0.54156885123E+02 -0.23610400399E+02  0.15483107443E+03  0.79574833389E+02 0.  0.
         11    1    3    3    0    0  0.11975006040E+03  0.12694346949E+03 -0.50781019248E+02  0.18175102016E+03  0.00000000000E+00 0. -1.
        -12    1    3    3    0    0  0.10235570786E+03  0.21074725835E+03 -0.10833655277E+02  0.23453883670E+03  0.00000000000E+00 0.  1.
         11    1    5    5    0    0 -0.10626977875E+03 -0.11709168563E+03  0.77196139990E+02  0.17596298687E+03  0.00000000000E+00 0. -1.
        -12    1    5    5    0    0 -0.23479013314E+03 -0.27475592734E+03  0.32169014679E+03  0.48384065225E+03  0.00000000000E+00 0.  1.
          4    1    6    6  502    0  0.84302157148E+02  0.30557697585E+01 -0.36236719948E+02  0.91811171985E+02  0.00000000000E+00 0. -1.
         -3    1    6    6    0  502  0.34651986481E+02  0.51101115365E+02  0.12626319550E+02  0.63019902444E+02  0.00000000000E+00 0.  1.
<mgrwt>
<rscale>  0 0.53721832E+03</rscale>
<asrwt>0</asrwt>
<pdfrwt beam="1">  1        1 0.11881429E+00 0.53721832E+03</pdfrwt>
<pdfrwt beam="2">  1       -2 0.70558720E-01 0.53721832E+03</pdfrwt>
<totfact> 0.38994166E+01</totfact>
</mgrwt>
</event>
<event>
12    3  0.2422421E-007  0.1045992E+04  0.7818608E-02  0.9259492E-01
         -2   -1    0    0    0  501 -0.00000000000E+00  0.00000000000E+00  0.68361556015E+03  0.68361556015E+03  0.00000000000E+00 0.  1.
          1   -1    0    0  501    0  0.00000000000E+00 -0.00000000000E+00 -0.28789615705E+04  0.28789615705E+04  0.00000000000E+00 0. -1.
        -24    2    1    2    0    0  0.72479115545E+03  0.72462220979E+03  0.42754256975E+02  0.10289145955E+04  0.80235605480E+02 0.  0.
    5000000    2    1    2    0    0 -0.72479115545E+03 -0.72462220979E+03 -0.22381002674E+04  0.25336625352E+04  0.59996122336E+03 0.  0.
        -24    2    4    4    0    0 -0.53986550725E+03 -0.67974525222E+03 -0.21301478197E+04  0.23015875466E+04  0.79165188711E+02 0.  0.
         24    2    4    4    0    0 -0.18492564820E+03 -0.44876957567E+02 -0.10795244770E+03  0.23207498861E+03  0.77418555237E+02 0.  0.
         11    1    5    5    0    0 -0.32235837590E+03 -0.38933452492E+03 -0.11392255416E+04  0.12463270556E+04  0.00000000000E+00 0. -1.
        -12    1    5    5    0    0 -0.21750713135E+03 -0.29041072730E+03 -0.99092227808E+03  0.10552604910E+04  0.00000000000E+00 0.  1.
         13    1    3    3    0    0  0.31291586423E+03  0.35859103277E+03  0.43377526804E+02  0.47789693104E+03  0.00000000000E+00 0. -1.
        -14    1    3    3    0    0  0.41187529122E+03  0.36603117702E+03 -0.62326982907E+00  0.55101766445E+03  0.00000000000E+00 0.  1.
          4    1    6    6  502    0 -0.11216799796E+03 -0.52004151723E+02 -0.34313894066E+02  0.12831030703E+03  0.00000000000E+00 0. -1.
         -3    1    6    6    0  502 -0.72757650235E+02  0.71271941555E+01 -0.73638553631E+02  0.10376468159E+03  0.00000000000E+00 0.  1.
<mgrwt>
<rscale>  0 0.10459919E+04</rscale>
<asrwt>0</asrwt>
<pdfrwt beam="1">  1        1 0.44291716E+00 0.10459919E+04</pdfrwt>
<pdfrwt beam="2">  1       -2 0.10517163E+00 0.10459919E+04</pdfrwt>
<totfact> 0.47595591E-01</totfact>
</mgrwt>
</event>
<event>
12    3  0.2422421E-007  0.1490908E+04  0.7818608E-02  0.8890522E-01
         -2   -1    0    0    0  501 -0.00000000000E+00  0.00000000000E+00  0.23039045087E+04  0.23039045087E+04  0.00000000000E+00 0.  1.
          1   -1    0    0  501    0  0.00000000000E+00 -0.00000000000E+00 -0.28783284024E+04  0.28783284024E+04  0.00000000000E+00 0. -1.
        -24    2    1    2    0    0  0.74788044542E+03 -0.12488942178E+04  0.18105000298E+04  0.23244912317E+04  0.79291869012E+02 0.  0.
    5000000    2    1    2    0    0 -0.74788044542E+03  0.12488942178E+04 -0.23849239235E+04  0.28577416794E+04  0.59980284872E+03 0.  0.
        -24    2    4    4    0    0 -0.73822584028E+03  0.12810319820E+04 -0.22001571274E+04  0.26519797582E+04  0.79277502787E+02 0.  0.
         24    2    4    4    0    0 -0.96546051402E+01 -0.32137764196E+02 -0.18476679612E+03  0.20576192121E+03  0.84102033182E+02 0.  0.
         11    1    3    3    0    0  0.22867129545E+03 -0.44833739327E+03  0.65078446816E+03  0.82268912936E+03  0.00000000000E+00 0. -1.
        -12    1    3    3    0    0  0.51920914997E+03 -0.80055682454E+03  0.11597155616E+04  0.15018021023E+04  0.00000000000E+00 0.  1.
         11    1    5    5    0    0 -0.31893794598E+03  0.53823847088E+03 -0.86259153659E+03  0.10655919594E+04  0.00000000000E+00 0. -1.
        -12    1    5    5    0    0 -0.41928789430E+03  0.74279351113E+03 -0.13375655908E+04  0.15863877988E+04  0.00000000000E+00 0.  1.
          2    1    6    6  502    0  0.11209813257E+02 -0.15112367068E+02  0.22795048031E+00  0.18817425783E+02  0.00000000000E+00 0. -1.
         -1    1    6    6    0  502 -0.20864418398E+02 -0.17025397127E+02 -0.18499474660E+03  0.18694449543E+03  0.00000000000E+00 0.  1.
<mgrwt>
<rscale>  0 0.14909081E+04</rscale>
<asrwt>0</asrwt>
<pdfrwt beam="1">  1        1 0.44281975E+00 0.14909081E+04</pdfrwt>
<pdfrwt beam="2">  1       -2 0.35444685E+00 0.14909081E+04</pdfrwt>
<totfact> 0.88471954E-03</totfact>
</mgrwt>
</event>
<event>
12    3  0.2422421E-007  0.7379518E+03  0.7818608E-02  0.9654444E-01
         -2   -1    0    0    0  501 -0.00000000000E+00  0.00000000000E+00  0.64714911930E+03  0.64714911930E+03  0.00000000000E+00 0.  1.
          1   -1    0    0  501    0  0.00000000000E+00 -0.00000000000E+00 -0.10445418567E+04  0.10445418567E+04  0.00000000000E+00 0. -1.
        -24    2    1    2    0    0  0.60168365416E+03 -0.29404263477E+03  0.69958158022E+02  0.67837955744E+03  0.82585648474E+02 0.  0.
    5000000    2    1    2    0    0 -0.60168365416E+03  0.29404263477E+03 -0.46735089547E+03  0.10133114186E+04  0.59991572810E+03 0.  0.
        -24    2    4    4    0    0 -0.78547995089E+02  0.25716114638E+03  0.35139340325E+02  0.28282777957E+03  0.80343866708E+02 0.  0.
         24    2    4    4    0    0 -0.52313565907E+03  0.36881488381E+02 -0.50249023579E+03  0.73048363903E+03  0.77966325030E+02 0.  0.
         13    1    5    5    0    0  0.11024616418E+02  0.45583487632E+02 -0.11721764036E+02  0.48340420602E+02  0.00000000000E+00 0. -1.
        -14    1    5    5    0    0 -0.89572611506E+02  0.21157765875E+03  0.46861104362E+02  0.23448735897E+03  0.00000000000E+00 0.  1.
         13    1    3    3    0    0  0.39176602875E+02 -0.24696952427E+02 -0.15605253667E+02  0.48869925456E+02  0.00000000000E+00 0. -1.
        -14    1    3    3    0    0  0.56250705129E+03 -0.26934568234E+03  0.85563411690E+02  0.62950963199E+03  0.00000000000E+00 0.  1.
          2    1    6    6  502    0 -0.22201563551E+03 -0.19670671996E+02 -0.23307995861E+03  0.32249673619E+03  0.00000000000E+00 0. -1.
         -1    1    6    6    0  502 -0.30112002356E+03  0.56552160377E+02 -0.26941027718E+03  0.40798690284E+03  0.00000000000E+00 0.  1.
<mgrwt>
<rscale>  0 0.73795183E+03</rscale>
<asrwt>0</asrwt>
<pdfrwt beam="1">  1        1 0.16069874E+00 0.73795183E+03</pdfrwt>
<pdfrwt beam="2">  1       -2 0.99561405E-01 0.73795183E+03</pdfrwt>
<totfact> 0.10493769E+01</totfact>
</mgrwt>
</event>
<event>
12    3  0.2422421E-007  0.1005642E+04  0.7818608E-02  0.9302378E-01
         -4   -1    0    0    0  501 -0.00000000000E+00  0.00000000000E+00  0.13115278979E+04  0.13115278979E+04  0.00000000000E+00 0.  1.
          1   -1    0    0  501    0  0.00000000000E+00 -0.00000000000E+00 -0.94330792156E+03  0.94330792156E+03  0.00000000000E+00 0. -1.
        -24    2    1    2    0    0 -0.65255013246E+03  0.75527120756E+03  0.42795605057E+03  0.10888440434E+04  0.78604690059E+02 0.  0.
    5000000    2    1    2    0    0  0.65255013246E+03 -0.75527120756E+03 -0.59736074258E+02  0.11659917760E+04  0.59976007773E+03 0.  0.
        -24    2    4    4    0    0  0.61589211000E+03 -0.66339603829E+03  0.14984721760E+03  0.92100281712E+03  0.79841128090E+02 0.  0.
         24    2    4    4    0    0  0.36658022466E+02 -0.91875169268E+02 -0.20958329186E+03  0.24498895891E+03  0.79432842207E+02 0.  0.
         11    1    3    3    0    0 -0.55049116811E+03  0.64237069853E+03  0.33121096334E+03  0.90850500424E+03  0.00000000000E+00 0. -1.
        -12    1    3    3    0    0 -0.10205896436E+03  0.11290050903E+03  0.96745087231E+02  0.18033903917E+03  0.00000000000E+00 0.  1.
         13    1    5    5    0    0  0.24223228575E+03 -0.23913766859E+03  0.20229075340E+02  0.34098756618E+03  0.00000000000E+00 0. -1.
        -14    1    5    5    0    0  0.37365982425E+03 -0.42425836970E+03  0.12961814226E+03  0.58001525094E+03  0.00000000000E+00 0.  1.
          2    1    6    6  502    0  0.35086467307E+02 -0.32012116817E+02 -0.31210821653E+02  0.56832659620E+02  0.00000000000E+00 0. -1.
         -1    1    6    6    0  502  0.15715551591E+01 -0.59863052451E+02 -0.17837247021E+03  0.18815629929E+03  0.00000000000E+00 0.  1.
<mgrwt>
<rscale>  0 0.10056423E+04</rscale>
<asrwt>0</asrwt>
<pdfrwt beam="1">  1        1 0.14512430E+00 0.10056423E+04</pdfrwt>
<pdfrwt beam="2">  1       -4 0.20177352E+00 0.10056423E+04</pdfrwt>
<totfact> 0.10162557E+00</totfact>
</mgrwt>
</event>
<event>
12    3  0.2422421E-007  0.1129031E+04  0.7818608E-02  0.9177350E-01
          1   -1    0    0  501    0  0.00000000000E+00  0.00000000000E+00  0.17712238008E+04  0.17712238008E+04  0.00000000000E+00 0. -1.
         -2   -1    0    0    0  501 -0.00000000000E+00 -0.00000000000E+00 -0.96138034871E+03  0.96138034871E+03  0.00000000000E+00 0.  1.
        -24    2    1    2    0    0 -0.47988579408E+03  0.96111768170E+03  0.10209456424E+04  0.14841339715E+04  0.79284722387E+02 0.  0.
    5000000    2    1    2    0    0  0.47988579408E+03 -0.96111768170E+03 -0.21110219032E+03  0.12484701780E+04  0.60006339424E+03 0.  0.
        -24    2    4    4    0    0 -0.90741320876E+02 -0.21762302411E+03 -0.18199276373E+03  0.30735338169E+03  0.75835132045E+02 0.  0.
         24    2    4    4    0    0  0.57062711496E+03 -0.74349465759E+03 -0.29109426592E+02  0.94111679629E+03  0.80335890763E+02 0.  0.
         11    1    5    5    0    0 -0.30637233581E+02 -0.14010703922E+03 -0.14075592177E+03  0.20094987443E+03  0.00000000000E+00 0. -1.
        -12    1    5    5    0    0 -0.60104087296E+02 -0.77515984883E+02 -0.41236841954E+02  0.10640350726E+03  0.00000000000E+00 0.  1.
         13    1    3    3    0    0 -0.95570655049E+02  0.14249240322E+03  0.18992613368E+03  0.25594876701E+03  0.00000000000E+00 0. -1.
        -14    1    3    3    0    0 -0.38431513904E+03  0.81862527848E+03  0.83101950869E+03  0.12281852045E+04  0.00000000000E+00 0.  1.
          2    1    6    6  502    0  0.19955658010E+03 -0.19986602800E+03 -0.51079294724E+01  0.28248070511E+03  0.00000000000E+00 0. -1.
         -1    1    6    6    0  502  0.37107053486E+03 -0.54362862959E+03 -0.24001497120E+02  0.65863609119E+03  0.00000000000E+00 0.  1.
<mgrwt>
<rscale>  0 0.11290307E+04</rscale>
<asrwt>0</asrwt>
<pdfrwt beam="1">  1        1 0.27249597E+00 0.11290307E+04</pdfrwt>
<pdfrwt beam="2">  1       -2 0.14790467E+00 0.11290307E+04</pdfrwt>
<totfact> 0.11448119E+00</totfact>
</mgrwt>
</event>
<event>
12    3  0.2422421E-007  0.8109597E+03  0.7818608E-02  0.9544288E-01
         -2   -1    0    0    0  501 -0.00000000000E+00  0.00000000000E+00  0.55651648832E+03  0.55651648832E+03  0.00000000000E+00 0.  1.
          1   -1    0    0  501    0  0.00000000000E+00 -0.00000000000E+00 -0.14866357218E+04  0.14866357218E+04  0.00000000000E+00 0. -1.
        -24    2    1    2    0    0  0.70752280861E+03  0.33727277669E+02  0.22896234432E+02  0.71280735872E+03  0.76446315315E+02 0.  0.
    5000000    2    1    2    0    0 -0.70752280861E+03 -0.33727277669E+02 -0.95301546787E+03  0.13303448514E+04  0.59987739378E+03 0.  0.
        -24    2    4    4    0    0 -0.30397438212E+02  0.19149835888E+03 -0.21039247283E+03  0.29737375139E+03  0.81058803913E+02 0.  0.
         24    2    4    4    0    0 -0.67712537040E+03 -0.22522563654E+03 -0.74262299504E+03  0.10329711000E+04  0.79467137862E+02 0.  0.
         11    1    5    5    0    0  0.27980625270E+01  0.67222826297E+02 -0.12803107147E+03  0.14463295887E+03  0.00000000000E+00 0. -1.
        -12    1    5    5    0    0 -0.33195500739E+02  0.12427553258E+03 -0.82361401359E+02  0.15274079252E+03  0.00000000000E+00 0.  1.
         13    1    3    3    0    0  0.47890104083E+03 -0.11915293667E+02  0.64154253128E+01  0.47909220283E+03  0.00000000000E+00 0. -1.
        -14    1    3    3    0    0  0.22862176779E+03  0.45642571336E+02  0.16480809119E+02  0.23371515589E+03  0.00000000000E+00 0.  1.
          2    1    6    6  502    0 -0.23728550689E+03 -0.87917361337E+02 -0.31783795657E+03  0.40626941903E+03  0.00000000000E+00 0. -1.
         -1    1    6    6    0  502 -0.43983986351E+03 -0.13730827521E+03 -0.42478503847E+03  0.62670168093E+03  0.00000000000E+00 0.  1.
<mgrwt>
<rscale>  0 0.81095969E+03</rscale>
<asrwt>0</asrwt>
<pdfrwt beam="1">  1        1 0.22871319E+00 0.81095969E+03</pdfrwt>
<pdfrwt beam="2">  1       -2 0.85617921E-01 0.81095969E+03</pdfrwt>
<totfact> 0.71165868E+00</totfact>
</mgrwt>
</event>
<event>
12    3  0.2422421E-007  0.3603820E+03  0.7818608E-02  0.1058433E+00
          1   -1    0    0  501    0  0.00000000000E+00  0.00000000000E+00  0.14738954395E+04  0.14738954395E+04  0.00000000000E+00 0. -1.
         -2   -1    0    0    0  501 -0.00000000000E+00 -0.00000000000E+00 -0.29095270422E+03  0.29095270422E+03  0.00000000000E+00 0.  1.
        -24    2    1    2    0    0  0.30035670700E+03  0.11992316812E+02 -0.92391777608E+02  0.32376548060E+03  0.77005705986E+02 0.  0.
    5000000    2    1    2    0    0 -0.30035670700E+03 -0.11992316812E+02  0.12753345129E+04  0.14410826631E+04  0.59990262133E+03 0.  0.
        -24    2    4    4    0    0 -0.20360082341E+03 -0.13687225493E+03  0.14600419063E+03  0.29774195924E+03  0.84532485750E+02 0.  0.
         24    2    4    4    0    0 -0.96755883591E+02  0.12487993812E+03  0.11293303223E+04  0.11433407039E+04  0.82971612159E+02 0.  0.
         13    1    5    5    0    0 -0.18285688051E+03 -0.12791248587E+03  0.15676423779E+03  0.27271462931E+03  0.00000000000E+00 0. -1.
        -14    1    5    5    0    0 -0.20743942897E+02 -0.89597690626E+01 -0.10760047155E+02  0.25027329929E+02  0.00000000000E+00 0.  1.
         13    1    3    3    0    0  0.30243374031E+03  0.18839540885E+02 -0.88824966078E+02  0.31577043905E+03  0.00000000000E+00 0. -1.
        -14    1    3    3    0    0 -0.20770333092E+01 -0.68472240730E+01 -0.35668115294E+01  0.79950415484E+01  0.00000000000E+00 0.  1.
          2    1    6    6  502    0 -0.91600875666E+02  0.86091836329E+02  0.62632444358E+03  0.63881517932E+03  0.00000000000E+00 0. -1.
         -1    1    6    6    0  502 -0.51550079256E+01  0.38788101787E+02  0.50300587867E+03  0.50452552456E+03  0.00000000000E+00 0.  1.
<mgrwt>
<rscale>  0 0.36038197E+03</rscale>
<asrwt>0</asrwt>
<pdfrwt beam="1">  1        1 0.22675314E+00 0.36038197E+03</pdfrwt>
<pdfrwt beam="2">  1       -2 0.44761955E-01 0.36038197E+03</pdfrwt>
<totfact> 0.31023988E+01</totfact>
</mgrwt>
</event>
<event>
12    3  0.2422421E-007  0.3233229E+03  0.7818608E-02  0.1074130E+00
         -2   -1    0    0    0  501 -0.00000000000E+00  0.00000000000E+00  0.42893985264E+03  0.42893985264E+03  0.00000000000E+00 0.  1.
          1   -1    0    0  501    0  0.00000000000E+00 -0.00000000000E+00 -0.94244727809E+03  0.94244727809E+03  0.00000000000E+00 0. -1.
        -24    2    1    2    0    0 -0.44907750060E+02 -0.22803798825E+03  0.26518812979E+03  0.36127475482E+03  0.78591820115E+02 0.  0.
    5000000    2    1    2    0    0  0.44907750060E+02  0.22803798825E+03 -0.77869555524E+03  0.10101123759E+04  0.59995184315E+03 0.  0.
        -24    2    4    4    0    0  0.95725413503E+02 -0.61004446350E+02 -0.67398606154E+03  0.68830852826E+03  0.81403449942E+02 0.  0.
         24    2    4    4    0    0 -0.50817663443E+02  0.28904243460E+03 -0.10470949370E+03  0.32180384764E+03  0.80409417161E+02 0.  0.
         11    1    5    5    0    0  0.53280175765E+02 -0.11505811451E+02 -0.49168322404E+03  0.49469541501E+03  0.00000000000E+00 0. -1.
        -12    1    5    5    0    0  0.42445237738E+02 -0.49498634899E+02 -0.18230283750E+03  0.19361311326E+03  0.00000000000E+00 0.  1.
         13    1    3    3    0    0 -0.27898780100E+01 -0.35939580198E+02  0.70044023129E+01  0.36721907574E+02  0.00000000000E+00 0. -1.
        -14    1    3    3    0    0 -0.42117872050E+02 -0.19209840805E+03  0.25818372748E+03  0.32455284725E+03  0.00000000000E+00 0.  1.
          2    1    6    6  502    0 -0.28070577914E+02  0.10163301883E+03  0.98977689720E+00  0.10544291119E+03  0.00000000000E+00 0. -1.
         -1    1    6    6    0  502 -0.22747085529E+02  0.18740941577E+03 -0.10569927059E+03  0.21636093645E+03  0.00000000000E+00 0.  1.
<mgrwt>
<rscale>  0 0.32332288E+03</rscale>
<asrwt>0</asrwt>
<pdfrwt beam="1">  1        1 0.14499189E+00 0.32332288E+03</pdfrwt>
<pdfrwt beam="2">  1       -2 0.65990748E-01 0.32332288E+03</pdfrwt>
<totfact> 0.33772151E+01</totfact>
</mgrwt>
</event>
<event>
12    3  0.2422421E-007  0.5183415E+03  0.7818608E-02  0.1009099E+00
          1   -1    0    0  501    0  0.00000000000E+00  0.00000000000E+00  0.73138483959E+03  0.73138483959E+03  0.00000000000E+00 0. -1.
         -2   -1    0    0    0  501 -0.00000000000E+00 -0.00000000000E+00 -0.49343205183E+03  0.49343205183E+03  0.00000000000E+00 0.  1.
        -24    2    1    2    0    0 -0.12183602765E+03 -0.42674787127E+03  0.14084907820E+03  0.47228769878E+03  0.79116650128E+02 0.  0.
    5000000    2    1    2    0    0  0.12183602765E+03  0.42674787127E+03  0.97103709551E+02  0.75252919263E+03  0.59992773906E+03 0.  0.
        -24    2    4    4    0    0  0.15051259939E+03  0.47683694852E+03 -0.11435793828E+03  0.51911855110E+03  0.79867477753E+02 0.  0.
         24    2    4    4    0    0 -0.28676571740E+02 -0.50089077249E+02  0.21146164783E+03  0.23341064154E+03  0.80207466314E+02 0.  0.
         11    1    3    3    0    0 -0.80480777487E+02 -0.31821359829E+03  0.68052417752E+02  0.33521363523E+03  0.00000000000E+00 0. -1.
        -12    1    3    3    0    0 -0.41355250160E+02 -0.10853427298E+03  0.72796660450E+02  0.13707406355E+03  0.00000000000E+00 0.  1.
         11    1    5    5    0    0  0.25220660566E+02  0.75902853380E+02  0.11049405720E+02  0.80742889701E+02  0.00000000000E+00 0. -1.
        -12    1    5    5    0    0  0.12529193882E+03  0.40093409514E+03 -0.12540734400E+03  0.43837566140E+03  0.00000000000E+00 0.  1.
          2    1    6    6  502    0 -0.23285977915E+02  0.14513237360E+02  0.10705450851E+03  0.11051487962E+03  0.00000000000E+00 0. -1.
         -1    1    6    6    0  502 -0.53905938249E+01 -0.64602314609E+02  0.10440713932E+03  0.12289576191E+03  0.00000000000E+00 0.  1.
<mgrwt>
<rscale>  0 0.51834153E+03</rscale>
<asrwt>0</asrwt>
<pdfrwt beam="1">  1        1 0.11252075E+00 0.51834153E+03</pdfrwt>
<pdfrwt beam="2">  1       -2 0.75912623E-01 0.51834153E+03</pdfrwt>
<totfact> 0.36194872E+01</totfact>
</mgrwt>
</event>
<event>
12    3  0.2422421E-007  0.1524494E+04  0.7818608E-02  0.8868326E-01
          1   -1    0    0  501    0  0.00000000000E+00  0.00000000000E+00  0.22272305201E+04  0.22272305201E+04  0.00000000000E+00 0. -1.
         -2   -1    0    0    0  501 -0.00000000000E+00 -0.00000000000E+00 -0.10736553584E+04  0.10736553584E+04  0.00000000000E+00 0.  1.
        -24    2    1    2    0    0  0.12052707927E+04  0.86510250810E+03  0.44638263186E+03  0.15513526517E+04  0.79734325712E+02 0.  0.
    5000000    2    1    2    0    0 -0.12052707927E+04 -0.86510250810E+03  0.70719252982E+03  0.17495332268E+04  0.59972093850E+03 0.  0.
        -24    2    4    4    0    0 -0.51530448681E+03 -0.99286578269E+02  0.41868338671E+03  0.67609178303E+03  0.80048622873E+02 0.  0.
         24    2    4    4    0    0 -0.68996630589E+03 -0.76581592983E+03  0.28850914311E+03  0.10734414437E+04  0.80693654188E+02 0.  0.
         13    1    5    5    0    0 -0.36574770966E+03 -0.10647311475E+03  0.29228250532E+03  0.48014266026E+03  0.00000000000E+00 0. -1.
        -14    1    5    5    0    0 -0.14955677715E+03  0.71865364816E+01  0.12640088139E+03  0.19594912277E+03  0.00000000000E+00 0.  1.
         13    1    3    3    0    0  0.78727473444E+03  0.60880364779E+03  0.31153829011E+03  0.10428324387E+04  0.00000000000E+00 0. -1.
        -14    1    3    3    0    0  0.41799605827E+03  0.25629886031E+03  0.13484434175E+03  0.50852021299E+03  0.00000000000E+00 0.  1.
          2    1    6    6  502    0 -0.55605337402E+03 -0.57707068243E+03  0.20265286759E+03  0.82660396323E+03  0.00000000000E+00 0. -1.
         -1    1    6    6    0  502 -0.13391293187E+03 -0.18874524740E+03  0.85856275521E+02  0.24683748052E+03  0.00000000000E+00 0.  1.
<mgrwt>
<rscale>  0 0.15244941E+04</rscale>
<asrwt>0</asrwt>
<pdfrwt beam="1">  1        1 0.34265085E+00 0.15244941E+04</pdfrwt>
<pdfrwt beam="2">  1       -2 0.16517775E+00 0.15244941E+04</pdfrwt>
<totfact> 0.39818148E-01</totfact>
</mgrwt>
</event>
<event>
12    3  0.2422421E-007  0.1396332E+04  0.7818608E-02  0.8956478E-01
         -2   -1    0    0    0  501 -0.00000000000E+00  0.00000000000E+00  0.12180690944E+04  0.12180690944E+04  0.00000000000E+00 0.  1.
          1   -1    0    0  501    0  0.00000000000E+00 -0.00000000000E+00 -0.21654936021E+04  0.21654936021E+04  0.00000000000E+00 0. -1.
        -24    2    1    2    0    0 -0.13653688246E+04  0.28405047440E+03 -0.12036438184E+04  0.18438613862E+04  0.78419836081E+02 0.  0.
    5000000    2    1    2    0    0  0.13653688246E+04 -0.28405047440E+03  0.25621931069E+03  0.15397013103E+04  0.60009590129E+03 0.  0.
        -24    2    4    4    0    0  0.11014368236E+04 -0.19363115560E+03  0.42740568040E+03  0.11998049654E+04  0.78741593889E+02 0.  0.
         24    2    4    4    0    0  0.26393200100E+03 -0.90419318808E+02 -0.17118636972E+03  0.33989634493E+03  0.91591472077E+02 0.  0.
         11    1    3    3    0    0 -0.58981291183E+03  0.14476949470E+03 -0.56674830551E+03  0.83068713687E+03  0.00000000000E+00 0. -1.
        -12    1    3    3    0    0 -0.77555591276E+03  0.13928097970E+03 -0.63689551286E+03  0.10131742493E+04  0.00000000000E+00 0.  1.
         13    1    5    5    0    0  0.59380198269E+03 -0.10840739754E+03  0.18881498790E+03  0.63245874027E+03  0.00000000000E+00 0. -1.
        -14    1    5    5    0    0  0.50763484089E+03 -0.85223758057E+02  0.23859069251E+03  0.56734622514E+03  0.00000000000E+00 0.  1.
          2    1    6    6  502    0  0.18934474991E+03 -0.62791524557E+02 -0.70484649348E+02  0.21157101803E+03  0.00000000000E+00 0. -1.
         -1    1    6    6    0  502  0.74587251081E+02 -0.27627794251E+02 -0.10070172037E+03  0.12832532690E+03  0.00000000000E+00 0.  1.
<mgrwt>
<rscale>  0 0.13963316E+04</rscale>
<asrwt>0</asrwt>
<pdfrwt beam="1">  1        1 0.33315286E+00 0.13963316E+04</pdfrwt>
<pdfrwt beam="2">  1       -2 0.18739525E+00 0.13963316E+04</pdfrwt>
<totfact> 0.31036649E-01</totfact>
</mgrwt>
</event>
<event>
12    3  0.2422421E-007  0.1047103E+04  0.7818608E-02  0.9258340E-01
          1   -1    0    0  501    0  0.00000000000E+00  0.00000000000E+00  0.21810703515E+04  0.21810703515E+04  0.00000000000E+00 0. -1.
         -2   -1    0    0    0  501 -0.00000000000E+00 -0.00000000000E+00 -0.69900087116E+03  0.69900087116E+03  0.00000000000E+00 0.  1.
        -24    2    1    2    0    0  0.74272890192E+03 -0.62674437304E+03 -0.41181496384E+02  0.97618646397E+03  0.82397608599E+02 0.  0.
    5000000    2    1    2    0    0 -0.74272890192E+03  0.62674437304E+03  0.15232509767E+04  0.19038847587E+04  0.60002408736E+03 0.  0.
        -24    2    4    4    0    0 -0.16765446204E+03 -0.94762589125E+02  0.37679273863E+03  0.43011007777E+03  0.77032098316E+02 0.  0.
         24    2    4    4    0    0 -0.57507443988E+03  0.72150696217E+03  0.11464582381E+04  0.14737746809E+04  0.79764720266E+02 0.  0.
         11    1    3    3    0    0  0.49435784784E+03 -0.39788027801E+03 -0.63242085249E+02  0.63772875009E+03  0.00000000000E+00 0. -1.
        -12    1    3    3    0    0  0.24837105408E+03 -0.22886409503E+03  0.22060588865E+02  0.33845771387E+03  0.00000000000E+00 0.  1.
         13    1    5    5    0    0 -0.10962164217E+03 -0.41709844313E+02  0.29094143955E+03  0.31369338022E+03  0.00000000000E+00 0. -1.
        -14    1    5    5    0    0 -0.58032819870E+02 -0.53052744812E+02  0.85851299081E+02  0.11641669755E+03  0.00000000000E+00 0.  1.
          4    1    6    6  502    0 -0.42619448644E+03  0.47667937419E+03  0.80281351140E+03  0.10263403432E+04  0.00000000000E+00 0. -1.
         -3    1    6    6    0  502 -0.14887995344E+03  0.24482758798E+03  0.34364472668E+03  0.44743433770E+03  0.00000000000E+00 0.  1.
<mgrwt>
<rscale>  0 0.10471033E+04</rscale>
<asrwt>0</asrwt>
<pdfrwt beam="1">  1        1 0.33554928E+00 0.10471033E+04</pdfrwt>
<pdfrwt beam="2">  1       -2 0.10753860E+00 0.10471033E+04</pdfrwt>
<totfact> 0.13689122E+00</totfact>
</mgrwt>
</event>
<event>
12    3  0.2422421E-007  0.1355762E+04  0.7818608E-02  0.8986478E-01
         -2   -1    0    0    0  501 -0.00000000000E+00  0.00000000000E+00  0.18937057944E+04  0.18937057944E+04  0.00000000000E+00 0.  1.
          1   -1    0    0  501    0  0.00000000000E+00 -0.00000000000E+00 -0.15879727649E+04  0.15879727649E+04  0.00000000000E+00 0. -1.
        -24    2    1    2    0    0  0.12546254778E+04 -0.47418063041E+03 -0.86927184272E+03  0.16002687532E+04  0.79335907501E+02 0.  0.
    5000000    2    1    2    0    0 -0.12546254778E+04  0.47418063041E+03  0.11750048722E+04  0.18814098060E+04  0.60011169699E+03 0.  0.
        -24    2    4    4    0    0 -0.93583782313E+03  0.46622153079E+03  0.57181030808E+03  0.11945325064E+04  0.82376776703E+02 0.  0.
         24    2    4    4    0    0 -0.31878765469E+03  0.79590996188E+01  0.60319456408E+03  0.68687729969E+03  0.79169606864E+02 0.  0.
         11    1    5    5    0    0 -0.79265835702E+03  0.42662993411E+03  0.49486801700E+03  0.10272364508E+04  0.00000000000E+00 0. -1.
        -12    1    5    5    0    0 -0.14317946611E+03  0.39591596685E+02  0.76942291075E+02  0.16729605554E+03  0.00000000000E+00 0.  1.
         11    1    3    3    0    0  0.68337073766E+03 -0.22816773278E+03 -0.49955441965E+03  0.87670445280E+03  0.00000000000E+00 0. -1.
        -12    1    3    3    0    0  0.57125474016E+03 -0.24601289763E+03 -0.36971742308E+03  0.72356430044E+03  0.00000000000E+00 0.  1.
          4    1    6    6  502    0 -0.20127992916E+03  0.19837251502E+02  0.30317688379E+03  0.36444937823E+03  0.00000000000E+00 0. -1.
         -3    1    6    6    0  502 -0.11750772553E+03 -0.11878151884E+02  0.30001768029E+03  0.32242792146E+03  0.00000000000E+00 0.  1.
<mgrwt>
<rscale>  0 0.13557619E+04</rscale>
<asrwt>0</asrwt>
<pdfrwt beam="1">  1        1 0.24430350E+00 0.13557619E+04</pdfrwt>
<pdfrwt beam="2">  1       -2 0.29133935E+00 0.13557619E+04</pdfrwt>
<totfact> 0.17165120E-01</totfact>
</mgrwt>
</event>
<event>
12    3  0.2422421E-007  0.2113644E+04  0.7818608E-02  0.8555257E-01
         -2   -1    0    0    0  501 -0.00000000000E+00  0.00000000000E+00  0.19385504070E+04  0.19385504070E+04  0.00000000000E+00 0.  1.
          1   -1    0    0  501    0  0.00000000000E+00 -0.00000000000E+00 -0.24916557630E+04  0.24916557630E+04  0.00000000000E+00 0. -1.
        -24    2    1    2    0    0  0.14076892041E+04  0.15531985640E+04 -0.77855140306E+03  0.22382112497E+04  0.97121760522E+02 0.  0.
    5000000    2    1    2    0    0 -0.14076892041E+04 -0.15531985640E+04  0.22544604703E+03  0.21919949203E+04  0.60000094668E+03 0.  0.
        -24    2    4    4    0    0 -0.91641462095E+03 -0.12439727696E+04 -0.42229363807E+02  0.15477322540E+04  0.80048747075E+02 0.  0.
         24    2    4    4    0    0 -0.49127458318E+03 -0.30922579444E+03  0.26767541084E+03  0.64426266637E+03  0.80330253818E+02 0.  0.
         11    1    5    5    0    0 -0.69653768061E+03 -0.94038776403E+03 -0.66163618077E+02  0.11721226521E+04  0.00000000000E+00 0. -1.
        -12    1    5    5    0    0 -0.21987694034E+03 -0.30358500553E+03  0.23934254270E+02  0.37560960185E+03  0.00000000000E+00 0.  1.
         13    1    3    3    0    0  0.10001934612E+04  0.11351323882E+04 -0.60205976346E+03  0.16283084650E+04  0.00000000000E+00 0. -1.
        -14    1    3    3    0    0  0.40749574298E+03  0.41806617578E+03 -0.17649163960E+03  0.60990278465E+03  0.00000000000E+00 0.  1.
          2    1    6    6  502    0 -0.44498958739E+03 -0.25036917767E+03  0.22383778008E+03  0.55749781148E+03  0.00000000000E+00 0. -1.
         -1    1    6    6    0  502 -0.46284995792E+02 -0.58856616771E+02  0.43837630761E+02  0.86764854890E+02  0.00000000000E+00 0.  1.
<mgrwt>
<rscale>  0 0.21136439E+04</rscale>
<asrwt>0</asrwt>
<pdfrwt beam="1">  1        1 0.38333165E+00 0.21136439E+04</pdfrwt>
<pdfrwt beam="2">  1       -2 0.29823853E+00 0.21136439E+04</pdfrwt>
<totfact> 0.34405404E-02</totfact>
</mgrwt>
</event>
<event>
12    3  0.2422421E-007  0.1061436E+04  0.7818608E-02  0.9243617E-01
          1   -1    0    0  501    0  0.00000000000E+00  0.00000000000E+00  0.13895607532E+04  0.13895607532E+04  0.00000000000E+00 0. -1.
         -2   -1    0    0    0  501 -0.00000000000E+00 -0.00000000000E+00 -0.85467554582E+03  0.85467554582E+03  0.00000000000E+00 0.  1.
        -24    2    1    2    0    0  0.45766366642E+02 -0.10040229305E+04  0.27706828407E+03  0.10456881794E+04  0.80872300903E+02 0.  0.
    5000000    2    1    2    0    0 -0.45766366642E+02  0.10040229305E+04  0.25781692328E+03  0.11985481196E+04  0.59990951296E+03 0.  0.
        -24    2    4    4    0    0  0.21117864211E+03  0.48821413762E+03 -0.47030096053E+02  0.54244493075E+03  0.95316367463E+02 0.  0.
         24    2    4    4    0    0 -0.25694500875E+03  0.51580879292E+03  0.30484701933E+03  0.65610318887E+03  0.73893442678E+02 0.  0.
         11    1    5    5    0    0  0.12619835418E+03  0.18788385288E+03  0.29224703570E+01  0.22635129247E+03  0.00000000000E+00 0. -1.
        -12    1    5    5    0    0  0.84980287929E+02  0.30033028474E+03 -0.49952566410E+02  0.31609363828E+03  0.00000000000E+00 0.  1.
         13    1    3    3    0    0  0.40819318762E+01 -0.78550689566E+03  0.20460535712E+03  0.81172723095E+03  0.00000000000E+00 0. -1.
        -14    1    3    3    0    0  0.41684434765E+02 -0.21851603489E+03  0.72462926950E+02  0.23396094842E+03  0.00000000000E+00 0.  1.
          2    1    6    6  502    0 -0.87231918472E+02  0.19064990852E+03  0.15092191205E+03  0.25832967068E+03  0.00000000000E+00 0. -1.
         -3    1    6    6    0  502 -0.16971309028E+03  0.32515888440E+03  0.15392510728E+03  0.39777351818E+03  0.00000000000E+00 0.  1.
<mgrwt>
<rscale>  0 0.10614356E+04</rscale>
<asrwt>0</asrwt>
<pdfrwt beam="1">  1        1 0.21377858E+00 0.10614356E+04</pdfrwt>
<pdfrwt beam="2">  1       -2 0.13148855E+00 0.10614356E+04</pdfrwt>
<totfact> 0.28665948E+00</totfact>
</mgrwt>
</event>
<event>
12    3  0.2422421E-007  0.5885323E+03  0.7818608E-02  0.9929488E-01
          1   -1    0    0  501    0  0.00000000000E+00  0.00000000000E+00  0.34821747912E+04  0.34821747912E+04  0.00000000000E+00 0. -1.
         -2   -1    0    0    0  501 -0.00000000000E+00 -0.00000000000E+00 -0.12942485716E+03  0.12942485716E+03  0.00000000000E+00 0.  1.
        -24    2    1    2    0    0 -0.48442943996E+03 -0.88923181665E+02  0.79233717923E+03  0.93612783296E+03  0.77187431074E+02 0.  0.
    5000000    2    1    2    0    0  0.48442943996E+03  0.88923181665E+02  0.25604127548E+04  0.26754718154E+04  0.59988060937E+03 0.  0.
        -24    2    4    4    0    0 -0.92078520596E+02 -0.47535490517E+01  0.14579044696E+03  0.18992530377E+03  0.79471481714E+02 0.  0.
         24    2    4    4    0    0  0.57650796055E+03  0.93676730717E+02  0.24146223078E+04  0.24855465116E+04  0.80023830505E+02 0.  0.
         11    1    5    5    0    0 -0.90972927901E+01  0.10385283473E+02  0.84594966110E+02  0.85714194507E+02  0.00000000000E+00 0. -1.
        -12    1    5    5    0    0 -0.82981227806E+02 -0.15138832525E+02  0.61195480848E+02  0.10421110927E+03  0.00000000000E+00 0.  1.
         13    1    3    3    0    0 -0.20541647473E+03 -0.15235307048E+02  0.38922580284E+03  0.44036890020E+03  0.00000000000E+00 0. -1.
        -14    1    3    3    0    0 -0.27901296523E+03 -0.73687874617E+02  0.40311137639E+03  0.49575893275E+03  0.00000000000E+00 0.  1.
          4    1    6    6  502    0  0.15691138478E+03  0.17389080950E+02  0.80837192470E+03  0.82364357063E+03  0.00000000000E+00 0. -1.
         -3    1    6    6    0  502  0.41959657578E+03  0.76287649766E+02  0.16062503831E+04  0.16619029410E+04  0.00000000000E+00 0.  1.
<mgrwt>
<rscale>  0 0.58853229E+03</rscale>
<asrwt>0</asrwt>
<pdfrwt beam="1">  1        1 0.53571913E+00 0.58853229E+03</pdfrwt>
<pdfrwt beam="2">  1       -2 0.19911519E-01 0.58853229E+03</pdfrwt>
<totfact> 0.54327584E+00</totfact>
</mgrwt>
</event>
<event>
12    3  0.2422421E-007  0.1325083E+04  0.7818608E-02  0.9009907E-01
          1   -1    0    0  501    0  0.00000000000E+00  0.00000000000E+00  0.70101526462E+03  0.70101526462E+03  0.00000000000E+00 0. -1.
         -2   -1    0    0    0  501 -0.00000000000E+00 -0.00000000000E+00 -0.25313752342E+04  0.25313752342E+04  0.00000000000E+00 0.  1.
        -24    2    1    2    0    0 -0.77057739488E+03 -0.99502612327E+03 -0.73654545615E+03  0.14602834016E+04  0.77858182751E+02 0.  0.
    5000000    2    1    2    0    0  0.77057739488E+03  0.99502612327E+03 -0.10938145135E+04  0.17721070972E+04  0.60005571963E+03 0.  0.
        -24    2    4    4    0    0  0.53443243471E+03  0.10086362977E+04 -0.88953566927E+03  0.14491091215E+04  0.75354700138E+02 0.  0.
         24    2    4    4    0    0  0.23614496017E+03 -0.13610174469E+02 -0.20427884419E+03  0.32299797568E+03  0.81536292807E+02 0.  0.
         13    1    3    3    0    0 -0.42304145146E+03 -0.55774682252E+03 -0.36546152284E+03  0.78968836408E+03  0.00000000000E+00 0. -1.
        -14    1    3    3    0    0 -0.34753594342E+03 -0.43727930076E+03 -0.37108393331E+03  0.67059503756E+03  0.00000000000E+00 0.  1.
         13    1    5    5    0    0  0.17522728634E+03  0.31712063071E+03 -0.32671411124E+03  0.48786494728E+03  0.00000000000E+00 0. -1.
        -14    1    5    5    0    0  0.35920514836E+03  0.69151566704E+03 -0.56282155803E+03  0.96124417426E+03  0.00000000000E+00 0.  1.
          4    1    6    6  502    0  0.21480376902E+03  0.13832577199E+02 -0.18003981644E+03  0.28061777364E+03  0.00000000000E+00 0. -1.
         -3    1    6    6    0  502  0.21341191158E+02 -0.27442751668E+02 -0.24239027746E+02  0.42380202043E+02  0.00000000000E+00 0.  1.
<mgrwt>
<rscale>  0 0.13250835E+04</rscale>
<asrwt>0</asrwt>
<pdfrwt beam="1">  1        1 0.10784850E+00 0.13250835E+04</pdfrwt>
<pdfrwt beam="2">  1       -2 0.38944234E+00 0.13250835E+04</pdfrwt>
<totfact> 0.20223006E-01</totfact>
</mgrwt>
</event>
<event>
12    3  0.2422421E-007  0.1988292E+04  0.7818608E-02  0.8612114E-01
         -2   -1    0    0    0  501 -0.00000000000E+00  0.00000000000E+00  0.20470590362E+04  0.20470590362E+04  0.00000000000E+00 0.  1.
          1   -1    0    0  501    0  0.00000000000E+00 -0.00000000000E+00 -0.19557400175E+04  0.19557400175E+04  0.00000000000E+00 0. -1.
        -24    2    1    2    0    0 -0.18993972678E+04 -0.43575724396E+03  0.20188159525E+03  0.19607859805E+04  0.79568375066E+02 0.  0.
    5000000    2    1    2    0    0  0.18993972678E+04  0.43575724396E+03 -0.11056257657E+03  0.20420130732E+04  0.59999912584E+03 0.  0.
        -24    2    4    4    0    0  0.68096008027E+03  0.43272097762E+03  0.38161829638E+02  0.81184473626E+03  0.81740290925E+02 0.  0.
         24    2    4    4    0    0  0.12184371875E+04  0.30362663395E+01 -0.14872440621E+03  0.12301683369E+04  0.81220620663E+02 0.  0.
         11    1    3    3    0    0 -0.80015884159E+03 -0.16481276940E+03  0.11956883145E+03  0.82565981262E+03  0.00000000000E+00 0. -1.
        -12    1    3    3    0    0 -0.10992384262E+04 -0.27094447456E+03  0.82312763804E+02  0.11351261679E+04  0.00000000000E+00 0.  1.
         11    1    5    5    0    0  0.52550179708E+03  0.33290554100E+03  0.63763380910E+02  0.62533511552E+03  0.00000000000E+00 0. -1.
        -12    1    5    5    0    0  0.15545828319E+03  0.99815436619E+02 -0.25601551272E+02  0.18650962074E+03  0.00000000000E+00 0.  1.
          4    1    6    6  502    0  0.10389990922E+04  0.28761273214E+02 -0.13880488927E+03  0.10486243950E+04  0.00000000000E+00 0. -1.
         -3    1    6    6    0  502  0.17943809536E+03 -0.25725006875E+02 -0.99195169366E+01  0.18154394196E+03  0.00000000000E+00 0.  1.
<mgrwt>
<rscale>  0 0.19882919E+04</rscale>
<asrwt>0</asrwt>
<pdfrwt beam="1">  1        1 0.30088308E+00 0.19882919E+04</pdfrwt>
<pdfrwt beam="2">  1       -2 0.31493216E+00 0.19882919E+04</pdfrwt>
<totfact> 0.64260564E-02</totfact>
</mgrwt>
</event>
<event>
12    3  0.2422421E-007  0.1657236E+04  0.7818608E-02  0.8786137E-01
          1   -1    0    0  501    0  0.00000000000E+00  0.00000000000E+00  0.27495928562E+04  0.27495928562E+04  0.00000000000E+00 0. -1.
         -2   -1    0    0    0  501 -0.00000000000E+00 -0.00000000000E+00 -0.10286217400E+04  0.10286217400E+04  0.00000000000E+00 0.  1.
        -24    2    1    2    0    0 -0.13035459491E+04  0.93819414260E+03  0.53968231683E+03  0.16960802887E+04  0.77401885192E+02 0.  0.
    5000000    2    1    2    0    0  0.13035459491E+04 -0.93819414260E+03  0.11812887993E+04  0.20821343075E+04  0.60033303805E+03 0.  0.
        -24    2    4    4    0    0  0.92656120289E+02  0.65411852544E+02  0.97761365888E+02  0.17054161745E+03  0.81628987152E+02 0.  0.
         24    2    4    4    0    0  0.12108898288E+04 -0.10036059951E+04  0.10835274334E+04  0.19115926901E+04  0.81705218599E+02 0.  0.
         13    1    5    5    0    0  0.14885650497E+02  0.55014138235E+02  0.62305712754E+02  0.84440155366E+02  0.00000000000E+00 0. -1.
        -14    1    5    5    0    0  0.77770469792E+02  0.10397714308E+02  0.35455653134E+02  0.86101462088E+02  0.00000000000E+00 0.  1.
         13    1    3    3    0    0 -0.81749155357E+03  0.57332459189E+03  0.37279077298E+03  0.10658172865E+04  0.00000000000E+00 0. -1.
        -14    1    3    3    0    0 -0.48605439556E+03  0.36486955070E+03  0.16689154385E+03  0.63026300215E+03  0.00000000000E+00 0.  1.
          2    1    6    6  502    0  0.40037668449E+03 -0.32620425865E+03  0.40257247049E+03  0.65480936297E+03  0.00000000000E+00 0. -1.
         -1    1    6    6    0  502  0.81051314435E+03 -0.67740173649E+03  0.68095496295E+03  0.12567833271E+04  0.00000000000E+00 0.  1.
<mgrwt>
<rscale>  0 0.16572364E+04</rscale>
<asrwt>0</asrwt>
<pdfrwt beam="1">  1        1 0.42301428E+00 0.16572364E+04</pdfrwt>
<pdfrwt beam="2">  1       -2 0.15824950E+00 0.16572364E+04</pdfrwt>
<totfact> 0.19178341E-01</totfact>
</mgrwt>
</event>
<event>
12    3  0.2422421E-007  0.2572141E+03  0.7818608E-02  0.1108829E+00
          1   -1    0    0  501    0  0.00000000000E+00  0.00000000000E+00  0.15244024723E+04  0.15244024723E+04  0.00000000000E+00 0. -1.
         -2   -1    0    0    0  501 -0.00000000000E+00 -0.00000000000E+00 -0.16625810752E+03  0.16625810752E+03  0.00000000000E+00 0.  1.
        -24    2    1    2    0    0  0.24030705038E+03  0.35259072078E+02  0.78656155991E+03  0.82705248902E+03  0.79662107941E+02 0.  0.
    5000000    2    1    2    0    0 -0.24030705038E+03 -0.35259072078E+02  0.57158280484E+03  0.86360809078E+03  0.60010111735E+03 0.  0.
        -24    2    4    4    0    0 -0.12663996717E+03 -0.17492672787E+02 -0.98399427970E+02  0.17915611622E+03  0.77915285197E+02 0.  0.
         24    2    4    4    0    0 -0.11366708321E+03 -0.17766399291E+02  0.66998223281E+03  0.68445197456E+03  0.79765045279E+02 0.  0.
         13    1    5    5    0    0 -0.50912401247E+02 -0.42155144809E+02 -0.24452095076E+02  0.70477186296E+02  0.00000000000E+00 0. -1.
        -14    1    5    5    0    0 -0.75727565921E+02  0.24662472022E+02 -0.73947332894E+02  0.10867892992E+03  0.00000000000E+00 0.  1.
         13    1    3    3    0    0  0.80227032812E+02  0.41941453480E+02  0.36532746289E+03  0.37637696191E+03  0.00000000000E+00 0. -1.
        -14    1    3    3    0    0  0.16008001757E+03 -0.66823814021E+01  0.42123409702E+03  0.45067552711E+03  0.00000000000E+00 0.  1.
          4    1    6    6  502    0 -0.79028949256E+02 -0.24318194720E+02  0.60408774322E+03  0.60972038749E+03  0.00000000000E+00 0. -1.
         -3    1    6    6    0  502 -0.34638133956E+02  0.65517954290E+01  0.65894489587E+02  0.74731587065E+02  0.00000000000E+00 0.  1.
<mgrwt>
<rscale>  0 0.25721406E+03</rscale>
<asrwt>0</asrwt>
<pdfrwt beam="1">  1        1 0.23452345E+00 0.25721406E+03</pdfrwt>
<pdfrwt beam="2">  1       -2 0.25578171E-01 0.25721406E+03</pdfrwt>
<totfact> 0.83806075E+01</totfact>
</mgrwt>
</event>
<event>
12    3  0.2422421E-007  0.1118767E+04  0.7818608E-02  0.9187091E-01
         -2   -1    0    0    0  501 -0.00000000000E+00  0.00000000000E+00  0.70424245719E+03  0.70424245719E+03  0.00000000000E+00 0.  1.
          1   -1    0    0  501    0  0.00000000000E+00 -0.00000000000E+00 -0.20263530420E+04  0.20263530420E+04  0.00000000000E+00 0. -1.
        -24    2    1    2    0    0  0.10028270224E+04  0.28223503607E+03 -0.10827931272E+04  0.15046758699E+04  0.79308668052E+02 0.  0.
    5000000    2    1    2    0    0 -0.10028270224E+04 -0.28223503607E+03 -0.23931745755E+03  0.12259196292E+04  0.60023948505E+03 0.  0.
        -24    2    4    4    0    0 -0.19662691705E+03 -0.32037863415E+03 -0.16913252862E+02  0.38472707300E+03  0.80151412030E+02 0.  0.
         24    2    4    4    0    0 -0.80620010532E+03  0.38143598079E+02 -0.22240420468E+03  0.84119255621E+03  0.82022816733E+02 0.  0.
         11    1    5    5    0    0  0.58520455116E+01 -0.72371923381E+00  0.64986373631E+00  0.59323291442E+01  0.00000000000E+00 0. -1.
        -12    1    5    5    0    0 -0.20247896256E+03 -0.31965491492E+03 -0.17563116598E+02  0.37879474386E+03  0.00000000000E+00 0.  1.
         13    1    3    3    0    0  0.61748522277E+03  0.19600947847E+03 -0.71827322176E+03  0.96727666005E+03  0.00000000000E+00 0. -1.
        -14    1    3    3    0    0  0.38534179960E+03  0.86225557600E+02 -0.36451990545E+03  0.53739920988E+03  0.00000000000E+00 0.  1.
          2    1    6    6  502    0 -0.43993707542E+03  0.57919915418E+02 -0.13948608956E+03  0.46514053372E+03  0.00000000000E+00 0. -1.
         -1    1    6    6    0  502 -0.36626302991E+03 -0.19776317339E+02 -0.82918115129E+02  0.37605202249E+03  0.00000000000E+00 0.  1.
<mgrwt>
<rscale>  0 0.11187668E+04</rscale>
<asrwt>0</asrwt>
<pdfrwt beam="1">  1        1 0.31174661E+00 0.11187668E+04</pdfrwt>
<pdfrwt beam="2">  1       -2 0.10834500E+00 0.11187668E+04</pdfrwt>
<totfact> 0.16949567E+00</totfact>
</mgrwt>
</event>
<event>
12    3  0.2422421E-007  0.8314499E+03  0.7818608E-02  0.9515578E-01
          1   -1    0    0  501    0  0.00000000000E+00  0.00000000000E+00  0.15840062442E+04  0.15840062442E+04  0.00000000000E+00 0. -1.
         -2   -1    0    0    0  501 -0.00000000000E+00 -0.00000000000E+00 -0.71806916141E+03  0.71806916141E+03  0.00000000000E+00 0.  1.
        -24    2    1    2    0    0 -0.66820006305E+03  0.29127365953E+03  0.11068579353E+04  0.13277536329E+04  0.80396216893E+02 0.  0.
    5000000    2    1    2    0    0  0.66820006305E+03 -0.29127365953E+03 -0.24092085252E+03  0.97432177272E+03  0.59994032255E+03 0.  0.
        -24    2    4    4    0    0  0.21968022686E+03 -0.41055756536E+03 -0.12535300477E+03  0.48912373901E+03  0.81925208022E+02 0.  0.
         24    2    4    4    0    0  0.44851983619E+03  0.11928390583E+03 -0.11556784775E+03  0.48519803371E+03  0.81624204999E+02 0.  0.
         13    1    3    3    0    0 -0.12806580105E+03  0.90889559687E+02  0.24991951403E+03  0.29516355627E+03  0.00000000000E+00 0. -1.
        -14    1    3    3    0    0 -0.54013426200E+03  0.20038409985E+03  0.85693842126E+03  0.10325900766E+04  0.00000000000E+00 0.  1.
         13    1    5    5    0    0  0.17142842977E+03 -0.31913264065E+03 -0.13193210851E+03  0.38553784524E+03  0.00000000000E+00 0. -1.
        -14    1    5    5    0    0  0.48251797089E+02 -0.91424924715E+02  0.65791037366E+01  0.10358589377E+03  0.00000000000E+00 0.  1.
          2    1    6    6  502    0  0.12529201739E+03  0.32463143939E+02 -0.70811310175E+02  0.14753368085E+03  0.00000000000E+00 0. -1.
         -1    1    6    6    0  502  0.32322781879E+03  0.86820761887E+02 -0.44756537576E+02  0.33766435286E+03  0.00000000000E+00 0.  1.
<mgrwt>
<rscale>  0 0.83144988E+03</rscale>
<asrwt>0</asrwt>
<pdfrwt beam="1">  1        1 0.24369327E+00 0.83144988E+03</pdfrwt>
<pdfrwt beam="2">  1       -2 0.11047218E+00 0.83144988E+03</pdfrwt>
<totfact> 0.33393376E+00</totfact>
</mgrwt>
</event>
<event>
12    3  0.2704333E-007  0.1110680E+04  0.7818608E-02  0.9194844E-01
          1   -1    0    0  501    0  0.00000000000E+00  0.00000000000E+00  0.18096712668E+04  0.18096712668E+04  0.00000000000E+00 0. -1.
         -2   -1    0    0    0  501 -0.00000000000E+00 -0.00000000000E+00 -0.77950919966E+03  0.77950919966E+03  0.00000000000E+00 0.  1.
        -24    2    1    2    0    0  0.39303479271E+03 -0.10202410241E+04  0.27148218268E+03  0.11293831333E+04  0.80222133716E+02 0.  0.
    5000000    2    1    2    0    0 -0.39303479271E+03  0.10202410241E+04  0.75867988444E+03  0.14597973332E+04  0.60003749166E+03 0.  0.
        -24    2    4    4    0    0 -0.27178154990E+03  0.36360348734E+03  0.62112683745E+03  0.77340935540E+03  0.79314411958E+02 0.  0.
         24    2    4    4    0    0 -0.12125324281E+03  0.65663753672E+03  0.13755304699E+03  0.68638797776E+03  0.79576452261E+02 0.  0.
         11    1    5    5    0    0 -0.10068240819E+03  0.86045509349E+02  0.21598648090E+03  0.25335930402E+03  0.00000000000E+00 0. -1.
        -12    1    5    5    0    0 -0.17109914171E+03  0.27755797799E+03  0.40514035655E+03  0.52005005138E+03  0.00000000000E+00 0.  1.
         13    1    3    3    0    0  0.16975666003E+03 -0.37190395423E+03  0.13233447013E+03  0.42970022898E+03  0.00000000000E+00 0. -1.
        -14    1    3    3    0    0  0.22327813268E+03 -0.64833706983E+03  0.13914771255E+03  0.69968290429E+03  0.00000000000E+00 0.  1.
          4    1    6    6  502    0 -0.23194513597E+02  0.19681665237E+03  0.64191052902E+01  0.19828258880E+03  0.00000000000E+00 0. -1.
         -3    1    6    6    0  502 -0.98058729211E+02  0.45982088436E+03  0.13113394170E+03  0.48810538896E+03  0.00000000000E+00 0.  1.
<mgrwt>
<rscale>  0 0.11106800E+04</rscale>
<asrwt>0</asrwt>
<pdfrwt beam="1">  1        1 0.27841096E+00 0.11106800E+04</pdfrwt>
<pdfrwt beam="2">  1       -2 0.11992449E+00 0.11106800E+04</pdfrwt>
<totfact> 0.18520170E+00</totfact>
</mgrwt>
</event>
<event>
12    3  0.2422421E-007  0.1190435E+04  0.7818608E-02  0.9121270E-01
          1   -1    0    0  501    0  0.00000000000E+00  0.00000000000E+00  0.79185299818E+03  0.79185299818E+03  0.00000000000E+00 0. -1.
         -2   -1    0    0    0  501 -0.00000000000E+00 -0.00000000000E+00 -0.18488210843E+04  0.18488210843E+04  0.00000000000E+00 0.  1.
        -24    2    1    2    0    0 -0.59069907086E+03  0.95180787407E+03 -0.68867388395E+03  0.13174347351E+04  0.80616011169E+02 0.  0.
    5000000    2    1    2    0    0  0.59069907086E+03 -0.95180787407E+03 -0.36829420218E+03  0.13232393474E+04  0.60038165343E+03 0.  0.
        -24    2    4    4    0    0 -0.40149737058E+02  0.31134332370E+02  0.91155034286E+01  0.93275007674E+02  0.77690325111E+02 0.  0.
         24    2    4    4    0    0  0.63084880791E+03 -0.98294220644E+03 -0.37740970560E+03  0.12299643397E+04  0.78921426327E+02 0.  0.
         11    1    3    3    0    0 -0.25639641541E+03  0.48901201154E+03 -0.34427583814E+03  0.65069018895E+03  0.00000000000E+00 0. -1.
        -12    1    3    3    0    0 -0.33430265545E+03  0.46279586252E+03 -0.34439804581E+03  0.66674454611E+03  0.00000000000E+00 0.  1.
         11    1    5    5    0    0 -0.15807596131E+02  0.54094816045E+02  0.17059773790E+02  0.58882638360E+02  0.00000000000E+00 0. -1.
        -12    1    5    5    0    0 -0.24342140926E+02 -0.22960483675E+02 -0.79442703611E+01  0.34392369314E+02  0.00000000000E+00 0.  1.
          4    1    6    6  502    0  0.46933161097E+03 -0.73698027755E+03 -0.24602730487E+03  0.90771224807E+03  0.00000000000E+00 0. -1.
         -3    1    6    6    0  502  0.16151719694E+03 -0.24596192889E+03 -0.13138240074E+03  0.32225209168E+03  0.00000000000E+00 0.  1.
<mgrwt>
<rscale>  0 0.11904347E+04</rscale>
<asrwt>0</asrwt>
<pdfrwt beam="1">  1        1 0.12182354E+00 0.11904347E+04</pdfrwt>
<pdfrwt beam="2">  1       -2 0.28443401E+00 0.11904347E+04</pdfrwt>
<totfact> 0.76602715E-01</totfact>
</mgrwt>
</event>
<event>
12    3  0.2422421E-007  0.6374723E+03  0.7818608E-02  0.9830575E-01
         -2   -1    0    0    0  501 -0.00000000000E+00  0.00000000000E+00  0.16457847129E+03  0.16457847129E+03  0.00000000000E+00 0.  1.
          1   -1    0    0  501    0  0.00000000000E+00 -0.00000000000E+00 -0.27490109843E+04  0.27490109843E+04  0.00000000000E+00 0. -1.
        -24    2    1    2    0    0 -0.77712697922E+02 -0.52161682450E+03 -0.12383895856E+04  0.13483516839E+04  0.79499198428E+02 0.  0.
    5000000    2    1    2    0    0  0.77712697922E+02  0.52161682450E+03 -0.13460429274E+04  0.15652377717E+04  0.60001195376E+03 0.  0.
        -24    2    4    4    0    0  0.13442059394E+03  0.60801815553E+03 -0.87899616530E+03  0.10799786479E+04  0.77231132674E+02 0.  0.
         24    2    4    4    0    0 -0.56707896022E+02 -0.86401331034E+02 -0.46704676205E+03  0.48525912376E+03  0.81625754350E+02 0.  0.
         11    1    5    5    0    0  0.41574056421E+02  0.12936908291E+03 -0.24525114193E+03  0.28037989300E+03  0.00000000000E+00 0. -1.
        -12    1    5    5    0    0  0.92846537522E+02  0.47864907262E+03 -0.63374502338E+03  0.79959875494E+03  0.00000000000E+00 0.  1.
         13    1    3    3    0    0 -0.14722797929E+02 -0.33540105620E+03 -0.74004726274E+03  0.81263803773E+03  0.00000000000E+00 0. -1.
        -14    1    3    3    0    0 -0.62989899993E+02 -0.18621576830E+03 -0.49834232291E+03  0.53571364615E+03  0.00000000000E+00 0.  1.
          2    1    6    6  502    0 -0.39667114859E+01 -0.60131426116E+02 -0.33889055299E+03  0.34420681300E+03  0.00000000000E+00 0. -1.
         -1    1    6    6    0  502 -0.52741184536E+02 -0.26269904917E+02 -0.12815620906E+03  0.14105231076E+03  0.00000000000E+00 0.  1.
<mgrwt>
<rscale>  0 0.63747227E+03</rscale>
<asrwt>0</asrwt>
<pdfrwt beam="1">  1        1 0.42292479E+00 0.63747227E+03</pdfrwt>
<pdfrwt beam="2">  1       -2 0.25319764E-01 0.63747227E+03</pdfrwt>
<totfact> 0.11984325E+01</totfact>
</mgrwt>
</event>
<event>
12    3  0.2422421E-007  0.6234704E+03  0.7818608E-02  0.9857874E-01
         -2   -1    0    0    0  501 -0.00000000000E+00  0.00000000000E+00  0.30566514888E+03  0.30566514888E+03  0.00000000000E+00 0.  1.
          1   -1    0    0  501    0  0.00000000000E+00 -0.00000000000E+00 -0.14375508241E+04  0.14375508241E+04  0.00000000000E+00 0. -1.
        -24    2    1    2    0    0  0.21682370817E+03 -0.44174669864E+03 -0.68678829452E+03  0.84868379427E+03  0.80208197723E+02 0.  0.
    5000000    2    1    2    0    0 -0.21682370817E+03  0.44174669864E+03 -0.44509738074E+03  0.89453217875E+03  0.59993622519E+03 0.  0.
        -24    2    4    4    0    0 -0.16527067378E+03 -0.11108873568E+03 -0.11233074685E+03  0.24233529350E+03  0.80331158219E+02 0.  0.
         24    2    4    4    0    0 -0.51553034393E+02  0.55283543432E+03 -0.33276663389E+03  0.65219688525E+03  0.79639259850E+02 0.  0.
         11    1    5    5    0    0 -0.57112429895E+02 -0.44723016396E+02  0.48524831704E+00  0.72541114618E+02  0.00000000000E+00 0. -1.
        -12    1    5    5    0    0 -0.10815824388E+03 -0.66365719284E+02 -0.11281599517E+03  0.16979417888E+03  0.00000000000E+00 0.  1.
         11    1    3    3    0    0  0.42934733546E+02 -0.94245414233E+02 -0.20540533547E+03  0.23003682594E+03  0.00000000000E+00 0. -1.
        -12    1    3    3    0    0  0.17388897462E+03 -0.34750128441E+03 -0.48138295905E+03  0.61864696833E+03  0.00000000000E+00 0.  1.
          4    1    6    6  502    0 -0.25119616838E+02  0.33198822175E+03 -0.15395450086E+03  0.36680943672E+03  0.00000000000E+00 0. -1.
         -3    1    6    6    0  502 -0.26433417555E+02  0.22084721257E+03 -0.17881213302E+03  0.28538744853E+03  0.00000000000E+00 0.  1.
<mgrwt>
<rscale>  0 0.62347041E+03</rscale>
<asrwt>0</asrwt>
<pdfrwt beam="1">  1        1 0.22116166E+00 0.62347041E+03</pdfrwt>
<pdfrwt beam="2">  1       -2 0.47025408E-01 0.62347041E+03</pdfrwt>
<totfact> 0.28408601E+01</totfact>
</mgrwt>
</event>
<event>
12    3  0.2422421E-007  0.5213179E+03  0.7818608E-02  0.1008360E+00
         -2   -1    0    0    0  501 -0.00000000000E+00  0.00000000000E+00  0.56852856126E+03  0.56852856126E+03  0.00000000000E+00 0.  1.
          1   -1    0    0  501    0  0.00000000000E+00 -0.00000000000E+00 -0.63691530631E+03  0.63691530631E+03  0.00000000000E+00 0. -1.
        -24    2    1    2    0    0 -0.94364493010E+02  0.34549795810E+03 -0.29528474217E+03  0.47077446390E+03  0.78498536969E+02 0.  0.
    5000000    2    1    2    0    0  0.94364493010E+02 -0.34549795810E+03  0.22689799712E+03  0.73466940367E+03  0.59998577899E+03 0.  0.
        -24    2    4    4    0    0  0.28202635535E+03  0.44999176806E+01  0.79376205895E+02  0.30334176961E+03  0.78463575963E+02 0.  0.
         24    2    4    4    0    0 -0.18766186234E+03 -0.34999787578E+03  0.14752179123E+03  0.43132763406E+03  0.81026917677E+02 0.  0.
         11    1    3    3    0    0 -0.42912626900E+02  0.75074532147E+02 -0.39735019018E+02  0.95165911234E+02  0.00000000000E+00 0. -1.
        -12    1    3    3    0    0 -0.51451866110E+02  0.27042342595E+03 -0.25554972316E+03  0.37560855267E+03  0.00000000000E+00 0.  1.
         11    1    5    5    0    0  0.23103094722E+03 -0.33731085179E+01  0.31943139086E+02  0.23325316840E+03  0.00000000000E+00 0. -1.
        -12    1    5    5    0    0  0.50995408135E+02  0.78730261985E+01  0.47433066808E+02  0.70088601208E+02  0.00000000000E+00 0.  1.
          2    1    6    6  502    0 -0.11482386804E+03 -0.18299223818E+03  0.11981366397E+03  0.24703439837E+03  0.00000000000E+00 0. -1.
         -1    1    6    6    0  502 -0.72837994304E+02 -0.16700563760E+03  0.27708127263E+02  0.18429323569E+03  0.00000000000E+00 0.  1.
<mgrwt>
<rscale>  0 0.52131786E+03</rscale>
<asrwt>0</asrwt>
<pdfrwt beam="1">  1        1 0.97986969E-01 0.52131786E+03</pdfrwt>
<pdfrwt beam="2">  1       -2 0.87465933E-01 0.52131786E+03</pdfrwt>
<totfact> 0.32319652E+01</totfact>
</mgrwt>
</event>
<event>
12    3  0.2422421E-007  0.1450354E+04  0.7818608E-02  0.8918155E-01
          1   -1    0    0  501    0  0.00000000000E+00  0.00000000000E+00  0.26565145731E+04  0.26565145731E+04  0.00000000000E+00 0. -1.
         -2   -1    0    0    0  501 -0.00000000000E+00 -0.00000000000E+00 -0.88402755896E+03  0.88402755896E+03  0.00000000000E+00 0.  1.
        -24    2    1    2    0    0 -0.11603988639E+04 -0.80237073342E+03  0.36538703676E+03  0.14596070805E+04  0.81368456170E+02 0.  0.
    5000000    2    1    2    0    0  0.11603988639E+04  0.80237073342E+03  0.14070999774E+04  0.20809350516E+04  0.60003002021E+03 0.  0.
        -24    2    4    4    0    0  0.81097781787E+03  0.28637140086E+03  0.10461883156E+04  0.13566958014E+04  0.80124313156E+02 0.  0.
         24    2    4    4    0    0  0.34942104606E+03  0.51599933256E+03  0.36091166179E+03  0.72423925014E+03  0.76908290813E+02 0.  0.
         13    1    3    3    0    0 -0.26924172475E+03 -0.21104206434E+03  0.59584067338E+02  0.34724648357E+03  0.00000000000E+00 0. -1.
        -14    1    3    3    0    0 -0.89115713918E+03 -0.59132866907E+03  0.30580296942E+03  0.11123605970E+04  0.00000000000E+00 0.  1.
         13    1    5    5    0    0  0.28125209259E+03  0.13197407086E+03  0.41350756964E+03  0.51721214711E+03  0.00000000000E+00 0. -1.
        -14    1    5    5    0    0  0.52972572528E+03  0.15439733000E+03  0.63268074597E+03  0.83948365431E+03  0.00000000000E+00 0.  1.
          2    1    6    6  502    0  0.14967884641E+03  0.16469513986E+03  0.10662187872E+03  0.24677210373E+03  0.00000000000E+00 0. -1.
         -1    1    6    6    0  502  0.19974219964E+03  0.35130419270E+03  0.25428978307E+03  0.47746714640E+03  0.00000000000E+00 0.  1.
<mgrwt>
<rscale>  0 0.14503543E+04</rscale>
<asrwt>0</asrwt>
<pdfrwt beam="1">  1        1 0.40869455E+00 0.14503543E+04</pdfrwt>
<pdfrwt beam="2">  1       -2 0.13600424E+00 0.14503543E+04</pdfrwt>
<totfact> 0.34136389E-01</totfact>
</mgrwt>
</event>
<event>
12    3  0.2422421E-007  0.8462917E+03  0.7818608E-02  0.9495328E-01
          1   -1    0    0  501    0  0.00000000000E+00  0.00000000000E+00  0.30408112299E+04  0.30408112299E+04  0.00000000000E+00 0. -1.
         -2   -1    0    0    0  501 -0.00000000000E+00 -0.00000000000E+00 -0.27735362560E+03  0.27735362560E+03  0.00000000000E+00 0.  1.
        -24    2    1    2    0    0 -0.70748523589E+03  0.40924454416E+03  0.11655434551E+04  0.14257352862E+04  0.78823249871E+02 0.  0.
    5000000    2    1    2    0    0  0.70748523589E+03 -0.40924454416E+03  0.15979141492E+04  0.18924295692E+04  0.59995299022E+03 0.  0.
        -24    2    4    4    0    0  0.88864868359E+02 -0.16419751477E+03  0.90965765305E+03  0.93192188082E+03  0.78380849157E+02 0.  0.
         24    2    4    4    0    0  0.61862036753E+03 -0.24504702939E+03  0.68825649612E+03  0.96050768842E+03  0.78350554026E+02 0.  0.
         13    1    3    3    0    0 -0.14981102093E+03  0.12285350889E+03  0.29574441022E+03  0.35355492193E+03  0.00000000000E+00 0. -1.
        -14    1    3    3    0    0 -0.55767421496E+03  0.28639103528E+03  0.86979904488E+03  0.10721803643E+04  0.00000000000E+00 0.  1.
         13    1    5    5    0    0  0.87007027863E+02 -0.17275035208E+03  0.87959708059E+03  0.90061308630E+03  0.00000000000E+00 0. -1.
        -14    1    5    5    0    0  0.18578404961E+01  0.85528373113E+01  0.30060572462E+02  0.31308794517E+02  0.00000000000E+00 0.  1.
          4    1    6    6  502    0  0.36232866519E+03 -0.18362205581E+03  0.40499888490E+03  0.57360545479E+03  0.00000000000E+00 0. -1.
         -3    1    6    6    0  502  0.25629170235E+03 -0.61424973586E+02  0.28325761122E+03  0.38690223362E+03  0.00000000000E+00 0.  1.
<mgrwt>
<rscale>  0 0.84629166E+03</rscale>
<asrwt>0</asrwt>
<pdfrwt beam="1">  1        1 0.46781709E+00 0.84629166E+03</pdfrwt>
<pdfrwt beam="2">  1       -2 0.42669791E-01 0.84629166E+03</pdfrwt>
<totfact> 0.26818806E+00</totfact>
</mgrwt>
</event>
<event>
12    3  0.2422421E-007  0.8309141E+03  0.7818608E-02  0.9516318E-01
          1   -1    0    0  501    0  0.00000000000E+00  0.00000000000E+00  0.33780397864E+04  0.33780397864E+04  0.00000000000E+00 0. -1.
         -2   -1    0    0    0  501 -0.00000000000E+00 -0.00000000000E+00 -0.21910293190E+03  0.21910293190E+03  0.00000000000E+00 0.  1.
        -24    2    1    2    0    0 -0.20721889831E+03  0.70530220724E+03  0.17338855989E+04  0.18851217698E+04  0.83270290652E+02 0.  0.
    5000000    2    1    2    0    0  0.20721889831E+03 -0.70530220724E+03  0.14250512556E+04  0.17120209485E+04  0.59987813087E+03 0.  0.
        -24    2    4    4    0    0  0.33360871139E+03 -0.72153089265E+03  0.12083250215E+04  0.14485821075E+04  0.80244397703E+02 0.  0.
         24    2    4    4    0    0 -0.12638981309E+03  0.16228685406E+02  0.21672623408E+03  0.26343884100E+03  0.78689308863E+02 0.  0.
         11    1    3    3    0    0 -0.55562463133E+02  0.12116488468E+03  0.25256487646E+03  0.28558209574E+03  0.00000000000E+00 0. -1.
        -12    1    3    3    0    0 -0.15165643517E+03  0.58413732256E+03  0.14813207225E+04  0.15995396740E+04  0.00000000000E+00 0.  1.
         11    1    5    5    0    0  0.92706090969E+02 -0.26095009543E+03  0.36922191213E+03  0.46153460543E+03  0.00000000000E+00 0. -1.
        -12    1    5    5    0    0  0.24090262042E+03 -0.46058079722E+03  0.83910310936E+03  0.98704750212E+03  0.00000000000E+00 0.  1.
          2    1    6    6  502    0 -0.72613497135E+02  0.17674142185E+01  0.18635110274E+03  0.20000644293E+03  0.00000000000E+00 0. -1.
         -1    1    6    6    0  502 -0.53776315952E+02  0.14461271188E+02  0.30375131331E+02  0.63432398072E+02  0.00000000000E+00 0.  1.
<mgrwt>
<rscale>  0 0.83091407E+03</rscale>
<asrwt>0</asrwt>
<pdfrwt beam="1">  1        1 0.51969839E+00 0.83091407E+03</pdfrwt>
<pdfrwt beam="2">  1       -2 0.33708146E-01 0.83091407E+03</pdfrwt>
<totfact> 0.23891410E+00</totfact>
</mgrwt>
</event>
<event>
12    3  0.2422421E-007  0.6211312E+03  0.7818608E-02  0.9862510E-01
         -4   -1    0    0    0  501 -0.00000000000E+00  0.00000000000E+00  0.37983533543E+03  0.37983533543E+03  0.00000000000E+00 0.  1.
          1   -1    0    0  501    0  0.00000000000E+00 -0.00000000000E+00 -0.20330268330E+04  0.20330268330E+04  0.00000000000E+00 0. -1.
        -24    2    1    2    0    0 -0.14284848069E+03 -0.48977021820E+03 -0.15312699233E+04  0.16159796555E+04  0.79511722301E+02 0.  0.
    5000000    2    1    2    0    0  0.14284848069E+03  0.48977021820E+03 -0.12192157431E+03  0.79688251295E+03  0.59989691955E+03 0.  0.
        -24    2    4    4    0    0  0.31300836368E+03  0.43534308756E+03  0.39263266041E+02  0.54359550558E+03  0.80353158023E+02 0.  0.
         24    2    4    4    0    0 -0.17015988299E+03  0.54427130637E+02 -0.16118484035E+03  0.25328700737E+03  0.79101561391E+02 0.  0.
         11    1    5    5    0    0  0.12759753981E+03  0.16456665431E+03 -0.23215425915E+02  0.20952868986E+03  0.00000000000E+00 0. -1.
        -12    1    5    5    0    0  0.18541082387E+03  0.27077643325E+03  0.62478691955E+02  0.33406681571E+03  0.00000000000E+00 0.  1.
         13    1    3    3    0    0 -0.10112949765E+03 -0.41430454102E+03 -0.11945794417E+04  0.12684224338E+04  0.00000000000E+00 0. -1.
        -14    1    3    3    0    0 -0.41718983041E+02 -0.75465677179E+02 -0.33669048162E+03  0.34755722175E+03  0.00000000000E+00 0.  1.
          4    1    6    6  502    0  0.53880790570E+01 -0.54604205070E+01 -0.18027602136E+00  0.76733361377E+01  0.00000000000E+00 0. -1.
         -1    1    6    6    0  502 -0.17554796205E+03  0.59887551144E+02 -0.16100456433E+03  0.24561367123E+03  0.00000000000E+00 0.  1.
<mgrwt>
<rscale>  0 0.62113117E+03</rscale>
<asrwt>0</asrwt>
<pdfrwt beam="1">  1        1 0.31277336E+00 0.62113117E+03</pdfrwt>
<pdfrwt beam="2">  1       -4 0.58436206E-01 0.62113117E+03</pdfrwt>
<totfact> 0.39864796E+00</totfact>
</mgrwt>
</event>
<event>
12    3  0.2422421E-007  0.5347444E+03  0.7818608E-02  0.1005088E+00
          1   -1    0    0  501    0  0.00000000000E+00  0.00000000000E+00  0.28242063999E+04  0.28242063999E+04  0.00000000000E+00 0. -1.
         -2   -1    0    0    0  501 -0.00000000000E+00 -0.00000000000E+00 -0.13445235611E+03  0.13445235611E+03  0.00000000000E+00 0.  1.
        -24    2    1    2    0    0  0.55305492505E+02 -0.44494568306E+03  0.13342674280E+04  0.14099115841E+04  0.80905792035E+02 0.  0.
    5000000    2    1    2    0    0 -0.55305492505E+02  0.44494568306E+03  0.13554866158E+04  0.15487471720E+04  0.60019869925E+03 0.  0.
        -24    2    4    4    0    0 -0.19621826196E+03  0.39130486730E+03  0.47059612192E+03  0.64756173769E+03  0.79084692956E+02 0.  0.
         24    2    4    4    0    0  0.14091276946E+03  0.53640815756E+02  0.88489049391E+03  0.90118543426E+03  0.79813877249E+02 0.  0.
         13    1    5    5    0    0 -0.56258083938E+02  0.19776017413E+03  0.23102597724E+03  0.30926858981E+03  0.00000000000E+00 0. -1.
        -14    1    5    5    0    0 -0.13996017802E+03  0.19354469317E+03  0.23957014467E+03  0.33829314788E+03  0.00000000000E+00 0.  1.
         13    1    3    3    0    0  0.17970587924E+02 -0.37599311694E+03  0.10716278295E+04  0.11358168739E+04  0.00000000000E+00 0. -1.
        -14    1    3    3    0    0  0.37334904581E+02 -0.68952566121E+02  0.26263959848E+03  0.27409471021E+03  0.00000000000E+00 0.  1.
          4    1    6    6  502    0  0.11209749057E+03  0.74527744249E+02  0.67359562311E+03  0.68691432910E+03  0.00000000000E+00 0. -1.
         -3    1    6    6    0  502  0.28815278891E+02 -0.20886928492E+02  0.21129487080E+03  0.21427110516E+03  0.00000000000E+00 0.  1.
<mgrwt>
<rscale>  0 0.53474445E+03</rscale>
<asrwt>0</asrwt>
<pdfrwt beam="1">  1        1 0.43449325E+00 0.53474445E+03</pdfrwt>
<pdfrwt beam="2">  1       -2 0.20684980E-01 0.53474445E+03</pdfrwt>
<totfact> 0.15525110E+01</totfact>
</mgrwt>
</event>
<event>
12    3  0.2422421E-007  0.8768896E+03  0.7818608E-02  0.9454941E-01
          1   -1    0    0  501    0  0.00000000000E+00  0.00000000000E+00  0.21036535444E+04  0.21036535444E+04  0.00000000000E+00 0. -1.
         -2   -1    0    0    0  501 -0.00000000000E+00 -0.00000000000E+00 -0.47734655826E+03  0.47734655826E+03  0.00000000000E+00 0.  1.
        -24    2    1    2    0    0 -0.39208664491E+03 -0.77939327077E+03  0.10755057804E+04  0.13874725213E+04  0.84743767875E+02 0.  0.
    5000000    2    1    2    0    0  0.39208664491E+03  0.77939327077E+03  0.55080120580E+03  0.11935275814E+04  0.59995025755E+03 0.  0.
        -24    2    4    4    0    0  0.61163188293E+02  0.17360342842E+03  0.45080820949E+03  0.49155175471E+03  0.67201189350E+02 0.  0.
         24    2    4    4    0    0  0.33092345661E+03  0.60578984234E+03  0.99992996302E+02  0.70197582665E+03  0.79245155485E+02 0.  0.
         11    1    3    3    0    0 -0.10309587564E+03 -0.13385877325E+03  0.22283130089E+03  0.27964391538E+03  0.00000000000E+00 0. -1.
        -12    1    3    3    0    0 -0.28899076926E+03 -0.64553449752E+03  0.85267447948E+03  0.11078286059E+04  0.00000000000E+00 0.  1.
         13    1    5    5    0    0  0.25831879110E+02  0.31033410833E+02  0.47576057915E+02  0.62400639844E+02  0.00000000000E+00 0. -1.
        -14    1    5    5    0    0  0.35331309183E+02  0.14257001759E+03  0.40323215158E+03  0.42915111487E+03  0.00000000000E+00 0.  1.
          2    1    6    6  502    0  0.12767896175E+03  0.23055800264E+03  0.77211140854E+02  0.27462787573E+03  0.00000000000E+00 0. -1.
         -1    1    6    6    0  502  0.20324449486E+03  0.37523183971E+03  0.22781855449E+02  0.42734795092E+03  0.00000000000E+00 0.  1.
<mgrwt>
<rscale>  0 0.87688964E+03</rscale>
<asrwt>0</asrwt>
<pdfrwt beam="1">  1        1 0.32363900E+00 0.87688964E+03</pdfrwt>
<pdfrwt beam="2">  1       -2 0.73437933E-01 0.87688964E+03</pdfrwt>
<totfact> 0.38179659E+00</totfact>
</mgrwt>
</event>
<event>
12    3  0.2422421E-007  0.8042127E+03  0.7818608E-02  0.9553939E-01
          1   -1    0    0  501    0  0.00000000000E+00  0.00000000000E+00  0.50667941707E+03  0.50667941707E+03  0.00000000000E+00 0. -1.
         -2   -1    0    0    0  501 -0.00000000000E+00 -0.00000000000E+00 -0.13111074657E+04  0.13111074657E+04  0.00000000000E+00 0.  1.
        -24    2    1    2    0    0  0.87862868842E+02  0.68848518480E+03 -0.46697617023E+03  0.84028040885E+03  0.79200306296E+02 0.  0.
    5000000    2    1    2    0    0 -0.87862868842E+02 -0.68848518480E+03 -0.33745187838E+03  0.97750647390E+03  0.59992783141E+03 0.  0.
        -24    2    4    4    0    0  0.10033052301E+03  0.60935069220E+02 -0.41356971417E+02  0.14617149649E+03  0.76657751039E+02 0.  0.
         24    2    4    4    0    0 -0.18819339185E+03 -0.74942025402E+03 -0.29609490696E+03  0.83133497741E+03  0.79988629625E+02 0.  0.
         13    1    3    3    0    0  0.71602133979E+02  0.46631479298E+03 -0.35833367125E+03  0.59243512024E+03  0.00000000000E+00 0. -1.
        -14    1    3    3    0    0  0.16260734863E+02  0.22217039182E+03 -0.10864249898E+03  0.24784528860E+03  0.00000000000E+00 0.  1.
         13    1    5    5    0    0  0.37292981895E+02 -0.15592816577E+02 -0.57730229019E+01  0.40831730564E+02  0.00000000000E+00 0. -1.
        -14    1    5    5    0    0  0.63037541112E+02  0.76527885797E+02 -0.35583948515E+02  0.10533976593E+03  0.00000000000E+00 0.  1.
          4    1    6    6  502    0 -0.19146825520E+03 -0.73595092709E+03 -0.28065831018E+03  0.81058802539E+03  0.00000000000E+00 0. -1.
         -3    1    6    6    0  502  0.32748633554E+01 -0.13469326927E+02 -0.15436596779E+02  0.20746952017E+02  0.00000000000E+00 0.  1.
<mgrwt>
<rscale>  0 0.80421266E+03</rscale>
<asrwt>0</asrwt>
<pdfrwt beam="1">  1        1 0.77950680E-01 0.80421266E+03</pdfrwt>
<pdfrwt beam="2">  1       -2 0.20170884E+00 0.80421266E+03</pdfrwt>
<totfact> 0.50292999E+00</totfact>
</mgrwt>
</event>
<event>
12    3  0.2422421E-007  0.4736154E+03  0.7818608E-02  0.1020905E+00
         -2   -1    0    0    0  501 -0.00000000000E+00  0.00000000000E+00  0.11143045920E+04  0.11143045920E+04  0.00000000000E+00 0.  1.
          1   -1    0    0  501    0  0.00000000000E+00 -0.00000000000E+00 -0.40565983025E+03  0.40565983025E+03  0.00000000000E+00 0. -1.
        -24    2    1    2    0    0 -0.27618611978E+03  0.35440150414E+03 -0.43620518673E+02  0.45799259765E+03  0.77299876810E+02 0.  0.
    5000000    2    1    2    0    0  0.27618611978E+03 -0.35440150414E+03  0.75226528038E+03  0.10619718246E+04  0.60000158766E+03 0.  0.
        -24    2    4    4    0    0  0.16608643728E+03 -0.81561000312E+02 -0.47596269719E+02  0.20653924350E+03  0.78461154685E+02 0.  0.
         24    2    4    4    0    0  0.11009968250E+03 -0.27284050382E+03  0.79986155010E+03  0.85543258105E+03  0.73637767391E+02 0.  0.
         11    1    3    3    0    0 -0.69303612766E+02  0.13216182750E+03 -0.39357364883E+02  0.15433321600E+03  0.00000000000E+00 0. -1.
        -12    1    3    3    0    0 -0.20688250702E+03  0.22223967663E+03 -0.42631537900E+01  0.30365938164E+03  0.00000000000E+00 0.  1.
         13    1    5    5    0    0  0.98154147749E+02 -0.12600198185E+02 -0.47428895125E+02  0.10973833335E+03  0.00000000000E+00 0. -1.
        -14    1    5    5    0    0  0.67932289533E+02 -0.68960802127E+02 -0.16737459431E+00  0.96800910148E+02  0.00000000000E+00 0.  1.
          2    1    6    6  502    0  0.56160108846E+02 -0.20146254039E+03  0.62409455447E+03  0.65820599049E+03  0.00000000000E+00 0. -1.
         -1    1    6    6    0  502  0.53939573657E+02 -0.71377963438E+02  0.17576699563E+03  0.19722659056E+03  0.00000000000E+00 0.  1.
<mgrwt>
<rscale>  0 0.47361539E+03</rscale>
<asrwt>0</asrwt>
<pdfrwt beam="1">  1        1 0.62409205E-01 0.47361539E+03</pdfrwt>
<pdfrwt beam="2">  1       -2 0.17143147E+00 0.47361539E+03</pdfrwt>
<totfact> 0.11310583E+01</totfact>
</mgrwt>
</event>
<event>
12    3  0.2422421E-007  0.7015884E+03  0.7818608E-02  0.9714520E-01
          1   -1    0    0  501    0  0.00000000000E+00  0.00000000000E+00  0.20094300462E+04  0.20094300462E+04  0.00000000000E+00 0. -1.
         -2   -1    0    0    0  501 -0.00000000000E+00 -0.00000000000E+00 -0.36990464828E+03  0.36990464828E+03  0.00000000000E+00 0.  1.
        -24    2    1    2    0    0 -0.60570122308E+03  0.10364715013E+03  0.13283888127E+04  0.14659141782E+04  0.81675190749E+02 0.  0.
    5000000    2    1    2    0    0  0.60570122308E+03 -0.10364715013E+03  0.31113658522E+03  0.91342051628E+03  0.59992863036E+03 0.  0.
        -24    2    4    4    0    0  0.29686559155E+03  0.18511541807E+03  0.32110429768E+03  0.48145787701E+03  0.79352504002E+02 0.  0.
         24    2    4    4    0    0  0.30883563153E+03 -0.28876256820E+03 -0.99677124690E+01  0.43196263927E+03  0.87915290701E+02 0.  0.
         13    1    5    5    0    0  0.14852366851E+03  0.13840849167E+03  0.17382876230E+03  0.26726883334E+03  0.00000000000E+00 0. -1.
        -14    1    5    5    0    0  0.14834192304E+03  0.46706926400E+02  0.14727553539E+03  0.21418904367E+03  0.00000000000E+00 0.  1.
         13    1    3    3    0    0 -0.21447729974E+03  0.39820608243E+02  0.56706568905E+03  0.60757689936E+03  0.00000000000E+00 0. -1.
        -14    1    3    3    0    0 -0.39122392333E+03  0.63826541888E+02  0.76132312369E+03  0.85833727887E+03  0.00000000000E+00 0.  1.
          2    1    6    6  502    0  0.23255908416E+03 -0.16658807090E+03 -0.24952793536E+02  0.28715493187E+03  0.00000000000E+00 0. -1.
         -1    1    6    6    0  502  0.76276547370E+02 -0.12217449729E+03  0.14985081067E+02  0.14480770740E+03  0.00000000000E+00 0.  1.
<mgrwt>
<rscale>  0 0.70158841E+03</rscale>
<asrwt>0</asrwt>
<pdfrwt beam="1">  1        1 0.30914308E+00 0.70158841E+03</pdfrwt>
<pdfrwt beam="2">  1       -2 0.56908409E-01 0.70158841E+03</pdfrwt>
<totfact> 0.78408765E+00</totfact>
</mgrwt>
</event>
<event>
12    3  0.2422421E-007  0.9446488E+03  0.7818608E-02  0.9371427E-01
          1   -1    0    0  501    0  0.00000000000E+00  0.00000000000E+00  0.66683709048E+03  0.66683709048E+03  0.00000000000E+00 0. -1.
         -2   -1    0    0    0  501 -0.00000000000E+00 -0.00000000000E+00 -0.15477726623E+04  0.15477726623E+04  0.00000000000E+00 0.  1.
        -24    2    1    2    0    0 -0.52025547152E+03 -0.75375177816E+03 -0.54739827993E+03  0.10701328011E+04  0.82047768371E+02 0.  0.
    5000000    2    1    2    0    0  0.52025547152E+03  0.75375177816E+03 -0.33353729191E+03  0.11444769518E+04  0.59981069454E+03 0.  0.
        -24    2    4    4    0    0  0.38607264370E+02 -0.16338600408E+02 -0.20606366469E+03  0.22386162577E+03  0.76774493562E+02 0.  0.
         24    2    4    4    0    0  0.48164820715E+03  0.77009037857E+03 -0.12747362722E+03  0.92061532599E+03  0.79112996349E+02 0.  0.
         11    1    3    3    0    0 -0.21435723183E+03 -0.24595032444E+03 -0.17820986529E+03  0.37175171959E+03  0.00000000000E+00 0. -1.
        -12    1    3    3    0    0 -0.30589823969E+03 -0.50780145372E+03 -0.36918841464E+03  0.69838108146E+03  0.00000000000E+00 0.  1.
         11    1    5    5    0    0 -0.39118261076E+01 -0.17634959847E+02 -0.16055225433E+03  0.16156522077E+03  0.00000000000E+00 0. -1.
        -12    1    5    5    0    0  0.42519090478E+02  0.12963594393E+01 -0.45511410358E+02  0.62296404997E+02  0.00000000000E+00 0.  1.
          2    1    6    6  502    0  0.14300760840E+03  0.27224470202E+03 -0.13468875231E+02  0.30781449680E+03  0.00000000000E+00 0. -1.
         -3    1    6    6    0  502  0.33864059875E+03  0.49784567655E+03 -0.11400475199E+03  0.61280082919E+03  0.00000000000E+00 0.  1.
<mgrwt>
<rscale>  0 0.94464884E+03</rscale>
<asrwt>0</asrwt>
<pdfrwt beam="1">  1        1 0.10259032E+00 0.94464884E+03</pdfrwt>
<pdfrwt beam="2">  1       -2 0.23811887E+00 0.94464884E+03</pdfrwt>
<totfact> 0.19683447E+00</totfact>
</mgrwt>
</event>
<event>
12    3  0.2422421E-007  0.3100009E+03  0.7818608E-02  0.1080345E+00
          1   -1    0    0  501    0  0.00000000000E+00  0.00000000000E+00  0.42947173476E+03  0.42947173476E+03  0.00000000000E+00 0. -1.
         -2   -1    0    0    0  501 -0.00000000000E+00 -0.00000000000E+00 -0.52472750749E+03  0.52472750749E+03  0.00000000000E+00 0.  1.
        -24    2    1    2    0    0  0.10422860180E+03  0.25613082749E+03 -0.53415792594E+02  0.29224994011E+03  0.78039594882E+02 0.  0.
    5000000    2    1    2    0    0 -0.10422860180E+03 -0.25613082749E+03 -0.41839980143E+02  0.66194930214E+03  0.59996640943E+03 0.  0.
        -24    2    4    4    0    0  0.24484621662E+02 -0.10521908419E+03  0.25938718004E+03  0.29206825990E+03  0.79696969156E+02 0.  0.
         24    2    4    4    0    0 -0.12871322346E+03 -0.15091174330E+03 -0.30122716019E+03  0.36988104224E+03  0.82053246230E+02 0.  0.
         11    1    3    3    0    0  0.81159055280E+02  0.16412191294E+03  0.59653356934E+00  0.18309328336E+03  0.00000000000E+00 0. -1.
        -12    1    3    3    0    0  0.23069546521E+02  0.92008914558E+02 -0.54012326163E+02  0.10915665675E+03  0.00000000000E+00 0.  1.
         11    1    5    5    0    0 -0.24352096021E+02 -0.49125522256E+02  0.72296247703E+02  0.90736370599E+02  0.00000000000E+00 0. -1.
        -12    1    5    5    0    0  0.48836717683E+02 -0.56093561939E+02  0.18709093234E+03  0.20133188930E+03  0.00000000000E+00 0.  1.
          2    1    6    6  502    0 -0.36413665133E+02 -0.10217898793E+03 -0.12956457092E+03  0.16897774593E+03  0.00000000000E+00 0. -1.
         -1    1    6    6    0  502 -0.92299558330E+02 -0.48732755364E+02 -0.17166258927E+03  0.20090329631E+03  0.00000000000E+00 0.  1.
<mgrwt>
<rscale>  0 0.31000090E+03</rscale>
<asrwt>0</asrwt>
<pdfrwt beam="1">  1        1 0.66072575E-01 0.31000090E+03</pdfrwt>
<pdfrwt beam="2">  1       -2 0.80727309E-01 0.31000090E+03</pdfrwt>
<totfact> 0.68179219E+01</totfact>
</mgrwt>
</event>
<event>
12    3  0.2422421E-007  0.4419061E+03  0.7818608E-02  0.1030164E+00
         -2   -1    0    0    0  501 -0.00000000000E+00  0.00000000000E+00  0.60467757136E+03  0.60467757136E+03  0.00000000000E+00 0.  1.
          1   -1    0    0  501    0  0.00000000000E+00 -0.00000000000E+00 -0.13093913347E+04  0.13093913347E+04  0.00000000000E+00 0. -1.
        -24    2    1    2    0    0 -0.17820808671E+03 -0.17116931213E+03  0.49008993310E+03  0.55451119073E+03  0.78977607795E+02 0.  0.
    5000000    2    1    2    0    0  0.17820808671E+03  0.17116931213E+03 -0.11948036965E+04  0.13595577154E+04  0.59982018366E+03 0.  0.
        -24    2    4    4    0    0  0.32703528284E+03 -0.76710617125E+02 -0.56085066146E+03  0.65856495465E+03  0.79484212479E+02 0.  0.
         24    2    4    4    0    0 -0.14882719613E+03  0.24787992926E+03 -0.63395303503E+03  0.70099276073E+03  0.76814102449E+02 0.  0.
         11    1    3    3    0    0 -0.42205834274E+02 -0.48297926693E+02  0.21168998335E+03  0.22119374137E+03  0.00000000000E+00 0. -1.
        -12    1    3    3    0    0 -0.13600225244E+03 -0.12287138544E+03  0.27839994975E+03  0.33331744936E+03  0.00000000000E+00 0.  1.
         11    1    5    5    0    0  0.46352170587E+02 -0.41537458226E+02 -0.96172897506E+02  0.11455614505E+03  0.00000000000E+00 0. -1.
        -12    1    5    5    0    0  0.28068311225E+03 -0.35173158898E+02 -0.46467776395E+03  0.54400880960E+03  0.00000000000E+00 0.  1.
          2    1    6    6  502    0 -0.90492554164E+02  0.18210484132E+03 -0.36228646090E+03  0.41545463692E+03  0.00000000000E+00 0. -1.
         -1    1    6    6    0  502 -0.58334641964E+02  0.65775087940E+02 -0.27166657413E+03  0.28553812381E+03  0.00000000000E+00 0.  1.
<mgrwt>
<rscale>  0 0.44190610E+03</rscale>
<asrwt>0</asrwt>
<pdfrwt beam="1">  1        1 0.20144482E+00 0.44190610E+03</pdfrwt>
<pdfrwt beam="2">  1       -2 0.93027321E-01 0.44190610E+03</pdfrwt>
<totfact> 0.83031735E+00</totfact>
</mgrwt>
</event>
<event>
12    3  0.2422421E-007  0.5218091E+03  0.7818608E-02  0.1008238E+00
         -2   -1    0    0    0  501 -0.00000000000E+00  0.00000000000E+00  0.18325400761E+03  0.18325400761E+03  0.00000000000E+00 0.  1.
          1   -1    0    0  501    0  0.00000000000E+00 -0.00000000000E+00 -0.32068916683E+04  0.32068916683E+04  0.00000000000E+00 0. -1.
        -24    2    1    2    0    0 -0.29812845466E+03  0.19907851596E+03 -0.10412485313E+03  0.38806444012E+03  0.10601506331E+03 0.  0.
    5000000    2    1    2    0    0  0.29812845466E+03 -0.19907851596E+03 -0.29195128075E+04  0.30020812357E+04  0.60035313097E+03 0.  0.
        -24    2    4    4    0    0  0.14745443735E+03  0.20167356577E+03 -0.93890503125E+03  0.97438336237E+03  0.73927267834E+02 0.  0.
         24    2    4    4    0    0  0.15067401731E+03 -0.40075208173E+03 -0.19806077763E+04  0.20276978734E+04  0.73801164326E+02 0.  0.
         11    1    5    5    0    0  0.43495812458E+02  0.10207978336E+03 -0.31149860014E+03  0.33067135612E+03  0.00000000000E+00 0. -1.
        -12    1    5    5    0    0  0.10395862489E+03  0.99593782410E+02 -0.62740643111E+03  0.64371200624E+03  0.00000000000E+00 0.  1.
         11    1    3    3    0    0 -0.22202845684E+03  0.16353701034E+03 -0.12305653944E+03  0.30196672216E+03  0.00000000000E+00 0. -1.
        -12    1    3    3    0    0 -0.76099997824E+02  0.35541505623E+02  0.18931686304E+02  0.86097717955E+02  0.00000000000E+00 0.  1.
          2    1    6    6  502    0  0.32918762769E+02 -0.12152114631E+03 -0.73860453921E+03  0.74925809925E+03  0.00000000000E+00 0. -1.
         -1    1    6    6    0  502  0.11775525454E+03 -0.27923093541E+03 -0.12420032370E+04  0.12784397741E+04  0.00000000000E+00 0.  1.
<mgrwt>
<rscale>  0 0.52180911E+03</rscale>
<asrwt>0</asrwt>
<pdfrwt beam="1">  1        1 0.49336796E+00 0.52180911E+03</pdfrwt>
<pdfrwt beam="2">  1       -2 0.28192924E-01 0.52180911E+03</pdfrwt>
<totfact> 0.47780547E+00</totfact>
</mgrwt>
</event>
<event>
12    3  0.2422421E-007  0.9112514E+03  0.7818608E-02  0.9411625E-01
          1   -1    0    0  501    0  0.00000000000E+00  0.00000000000E+00  0.92030100715E+03  0.92030100715E+03  0.00000000000E+00 0. -1.
         -2   -1    0    0    0  501 -0.00000000000E+00 -0.00000000000E+00 -0.93395043593E+03  0.93395043593E+03  0.00000000000E+00 0.  1.
        -24    2    1    2    0    0 -0.81600508276E+03 -0.12312095825E+03  0.59180045999E+02  0.83132477165E+03  0.81089658180E+02 0.  0.
    5000000    2    1    2    0    0  0.81600508276E+03  0.12312095825E+03 -0.72829474783E+02  0.10229266714E+04  0.60004314617E+03 0.  0.
        -24    2    4    4    0    0 -0.56609642968E+02 -0.74355202949E+02 -0.14640300304E+01  0.12203796091E+03  0.78471476579E+02 0.  0.
         24    2    4    4    0    0  0.87261472573E+03  0.19747616120E+03 -0.71365444753E+02  0.90088871052E+03  0.77808407187E+02 0.  0.
         11    1    3    3    0    0 -0.18330601293E+03 -0.16289829896E+02  0.45290299010E+02  0.18951956130E+03  0.00000000000E+00 0. -1.
        -12    1    3    3    0    0 -0.63269906984E+03 -0.10683112836E+03  0.13889746989E+02  0.64180521035E+03  0.00000000000E+00 0.  1.
         11    1    5    5    0    0 -0.38881346190E+02 -0.73484263764E+02 -0.30040640311E+02  0.88397602754E+02  0.00000000000E+00 0. -1.
        -12    1    5    5    0    0 -0.17728296778E+02 -0.87093918548E+00  0.28576610280E+02  0.33640358155E+02  0.00000000000E+00 0.  1.
          2    1    6    6  502    0  0.33914050368E+03  0.53143098764E+02 -0.57493768967E+02  0.34806034484E+03  0.00000000000E+00 0. -1.
         -1    1    6    6    0  502  0.53347422205E+03  0.14433306244E+03 -0.13871675786E+02  0.55282836568E+03  0.00000000000E+00 0.  1.
<mgrwt>
<rscale>  0 0.91125144E+03</rscale>
<asrwt>0</asrwt>
<pdfrwt beam="1">  1        1 0.14158477E+00 0.91125144E+03</pdfrwt>
<pdfrwt beam="2">  1       -2 0.14368468E+00 0.91125144E+03</pdfrwt>
<totfact> 0.51787193E+00</totfact>
</mgrwt>
</event>
<event>
12    3  0.2422421E-007  0.8543050E+03  0.7818608E-02  0.9484577E-01
         -2   -1    0    0    0  501 -0.00000000000E+00  0.00000000000E+00  0.58835019764E+03  0.58835019764E+03  0.00000000000E+00 0.  1.
          1   -1    0    0  501    0  0.00000000000E+00 -0.00000000000E+00 -0.14861491209E+04  0.14861491209E+04  0.00000000000E+00 0. -1.
        -24    2    1    2    0    0  0.38379615377E+02 -0.77614597369E+03 -0.59416677621E+02  0.78345551248E+03  0.79978941565E+02 0.  0.
    5000000    2    1    2    0    0 -0.38379615377E+02  0.77614597369E+03 -0.83838224565E+03  0.12910438061E+04  0.60002812602E+03 0.  0.
        -24    2    4    4    0    0 -0.25358300082E+03  0.56661169889E+03 -0.73109050993E+03  0.96226405217E+03  0.78138446117E+02 0.  0.
         24    2    4    4    0    0  0.21520338544E+03  0.20953427481E+03 -0.10729173572E+03  0.32877975390E+03  0.79796620209E+02 0.  0.
         11    1    3    3    0    0  0.20320522474E+02 -0.73635040295E+03 -0.64550225286E+02  0.73945356253E+03  0.00000000000E+00 0. -1.
        -12    1    3    3    0    0  0.18059092903E+02 -0.39795570749E+02  0.51335476652E+01  0.44001949949E+02  0.00000000000E+00 0.  1.
         13    1    5    5    0    0 -0.20952122960E+03  0.38626803104E+03 -0.53268583678E+03  0.69054785363E+03  0.00000000000E+00 0. -1.
        -14    1    5    5    0    0 -0.44061771219E+02  0.18034366785E+03 -0.19840467316E+03  0.27171619853E+03  0.00000000000E+00 0.  1.
          2    1    6    6  502    0  0.34739058410E+02  0.14982399725E+02  0.92593856554E+01  0.38948821593E+02  0.00000000000E+00 0. -1.
         -1    1    6    6    0  502  0.18046432703E+03  0.19455187508E+03 -0.11655112137E+03  0.28983093231E+03  0.00000000000E+00 0.  1.
<mgrwt>
<rscale>  0 0.85430504E+03</rscale>
<asrwt>0</asrwt>
<pdfrwt beam="1">  1        1 0.22863832E+00 0.85430504E+03</pdfrwt>
<pdfrwt beam="2">  1       -2 0.90515416E-01 0.85430504E+03</pdfrwt>
<totfact> 0.62324539E+00</totfact>
</mgrwt>
</event>
<event>
12    3  0.2422421E-007  0.7793177E+03  0.7818608E-02  0.9590446E-01
          1   -1    0    0  501    0  0.00000000000E+00  0.00000000000E+00  0.11656374435E+04  0.11656374435E+04  0.00000000000E+00 0. -1.
         -2   -1    0    0    0  501 -0.00000000000E+00 -0.00000000000E+00 -0.73884053662E+03  0.73884053662E+03  0.00000000000E+00 0.  1.
        -24    2    1    2    0    0  0.43654406759E+03  0.51161302131E+03  0.68855149100E+03  0.96586523063E+03  0.80460434172E+02 0.  0.
    5000000    2    1    2    0    0 -0.43654406759E+03 -0.51161302131E+03 -0.26175458409E+03  0.93861274953E+03  0.60013317253E+03 0.  0.
        -24    2    4    4    0    0  0.25705070684E+01 -0.43890509729E+03 -0.15976530543E+03  0.47396281693E+03  0.80445677826E+02 0.  0.
         24    2    4    4    0    0 -0.43911457465E+03 -0.72707924026E+02 -0.10198927866E+03  0.46464993260E+03  0.85963335297E+02 0.  0.
         11    1    3    3    0    0  0.18675035584E+03  0.21251267443E+03  0.34672540326E+03  0.44749953907E+03  0.00000000000E+00 0. -1.
        -12    1    3    3    0    0  0.24979371175E+03  0.29910034688E+03  0.34182608774E+03  0.51836569156E+03  0.00000000000E+00 0.  1.
         13    1    5    5    0    0  0.14612131288E+02 -0.33315964895E+03 -0.85752867716E+02  0.34432894214E+03  0.00000000000E+00 0. -1.
        -14    1    5    5    0    0 -0.12041624220E+02 -0.10574544833E+03 -0.74012437715E+02  0.12963387479E+03  0.00000000000E+00 0.  1.
          2    1    6    6  502    0 -0.27523780502E+03 -0.30637788365E+02 -0.22889795426E+02  0.27788210832E+03  0.00000000000E+00 0. -1.
         -1    1    6    6    0  502 -0.16387676963E+03 -0.42070135661E+02 -0.79099483232E+02  0.18676782428E+03  0.00000000000E+00 0.  1.
<mgrwt>
<rscale>  0 0.77931773E+03</rscale>
<asrwt>0</asrwt>
<pdfrwt beam="1">  1        1 0.17932884E+00 0.77931773E+03</pdfrwt>
<pdfrwt beam="2">  1       -2 0.11366777E+00 0.77931773E+03</pdfrwt>
<totfact> 0.61653310E+00</totfact>
</mgrwt>
</event>
<event>
12    3  0.2422421E-007  0.6158361E+03  0.7818608E-02  0.9873085E-01
         -2   -1    0    0    0  501 -0.00000000000E+00  0.00000000000E+00  0.22909131482E+03  0.22909131482E+03  0.00000000000E+00 0.  1.
          1   -1    0    0  501    0  0.00000000000E+00 -0.00000000000E+00 -0.31020593909E+04  0.31020593909E+04  0.00000000000E+00 0. -1.
        -24    2    1    2    0    0 -0.35142759384E+03  0.36436503714E+03 -0.21063032178E+03  0.55549592544E+03  0.89147948486E+02 0.  0.
    5000000    2    1    2    0    0  0.35142759384E+03 -0.36436503714E+03 -0.26623377543E+04  0.27756547802E+04  0.59996158819E+03 0.  0.
        -24    2    4    4    0    0 -0.86942228423E+02 -0.23682900359E+03 -0.51708174423E+03  0.58090585585E+03  0.80194483122E+02 0.  0.
         24    2    4    4    0    0  0.43836982226E+03 -0.12753603355E+03 -0.21452560100E+04  0.21947489244E+04  0.79786913691E+02 0.  0.
         11    1    5    5    0    0 -0.16846117317E+02 -0.14851188370E+03 -0.33353087076E+03  0.36548927894E+03  0.00000000000E+00 0. -1.
        -12    1    5    5    0    0 -0.70096111106E+02 -0.88317119889E+02 -0.18355087347E+03  0.21541657691E+03  0.00000000000E+00 0.  1.
         13    1    3    3    0    0 -0.18255845274E+03  0.19179463158E+03 -0.15810928604E+03  0.30840122520E+03  0.00000000000E+00 0. -1.
        -14    1    3    3    0    0 -0.16886914110E+03  0.17257040556E+03 -0.52521035738E+02  0.24709470024E+03  0.00000000000E+00 0.  1.
          2    1    6    6  502    0  0.25906624473E+03 -0.34926004698E+02 -0.12460160788E+04  0.12731422598E+04  0.00000000000E+00 0. -1.
         -1    1    6    6    0  502  0.17930357753E+03 -0.92610028854E+02 -0.89923993119E+03  0.92160666458E+03  0.00000000000E+00 0.  1.
<mgrwt>
<rscale>  0 0.61583609E+03</rscale>
<asrwt>0</asrwt>
<pdfrwt beam="1">  1        1 0.47723986E+00 0.61583609E+03</pdfrwt>
<pdfrwt beam="2">  1       -2 0.35244821E-01 0.61583609E+03</pdfrwt>
<totfact> 0.36704618E+00</totfact>
</mgrwt>
</event>
<event>
12    3  0.2422421E-007  0.1293029E+04  0.7818608E-02  0.9035111E-01
          1   -1    0    0  501    0  0.00000000000E+00  0.00000000000E+00  0.15928578593E+04  0.15928578593E+04  0.00000000000E+00 0. -1.
         -2   -1    0    0    0  501 -0.00000000000E+00 -0.00000000000E+00 -0.12668143577E+04  0.12668143577E+04  0.00000000000E+00 0.  1.
        -24    2    1    2    0    0  0.83890963187E+03 -0.97985070762E+03  0.57650471845E+03  0.14151299361E+04  0.79738736671E+02 0.  0.
    5000000    2    1    2    0    0 -0.83890963187E+03  0.97985070762E+03 -0.25046121685E+03  0.14445422809E+04  0.60007899523E+03 0.  0.
        -24    2    4    4    0    0 -0.30161382365E+03  0.32401637262E+03 -0.37458536050E+03  0.58437678185E+03  0.72280858598E+02 0.  0.
         24    2    4    4    0    0 -0.53729580822E+03  0.65583433500E+03  0.12412414365E+03  0.86016549906E+03  0.75315484721E+02 0.  0.
         11    1    5    5    0    0 -0.57521397628E+02  0.26446453176E+02 -0.61146262453E+02  0.88016995419E+02  0.00000000000E+00 0. -1.
        -12    1    5    5    0    0 -0.24409242602E+03  0.29756991944E+03 -0.31343909805E+03  0.49635978643E+03  0.00000000000E+00 0.  1.
         13    1    3    3    0    0  0.56993535595E+03 -0.66133798503E+03  0.43052795568E+03  0.97342106050E+03  0.00000000000E+00 0. -1.
        -14    1    3    3    0    0  0.26897427592E+03 -0.31851272259E+03  0.14597676277E+03  0.44170887565E+03  0.00000000000E+00 0.  1.
          2    1    6    6  502    0 -0.17154406580E+03  0.22004712243E+03  0.76125303367E+02  0.28921127989E+03  0.00000000000E+00 0. -1.
         -1    1    6    6    0  502 -0.36575174241E+03  0.43578721258E+03  0.47998840288E+02  0.57095421917E+03  0.00000000000E+00 0.  1.
<mgrwt>
<rscale>  0 0.12930292E+04</rscale>
<asrwt>0</asrwt>
<pdfrwt beam="1">  1        1 0.24505505E+00 0.12930292E+04</pdfrwt>
<pdfrwt beam="2">  1       -2 0.19489452E+00 0.12930292E+04</pdfrwt>
<totfact> 0.68572901E-01</totfact>
</mgrwt>
</event>
<event>
12    3  0.2422421E-007  0.3926876E+03  0.7818608E-02  0.1046342E+00
          1   -1    0    0  501    0  0.00000000000E+00  0.00000000000E+00  0.56216193774E+03  0.56216193774E+03  0.00000000000E+00 0. -1.
         -2   -1    0    0    0  501 -0.00000000000E+00 -0.00000000000E+00 -0.61696337606E+03  0.61696337606E+03  0.00000000000E+00 0.  1.
        -24    2    1    2    0    0 -0.36955917366E+03 -0.30614127205E+02  0.20007021101E+03  0.42912116239E+03  0.81275304110E+02 0.  0.
    5000000    2    1    2    0    0  0.36955917366E+03  0.30614127205E+02 -0.25487164933E+03  0.75000415141E+03  0.60002955084E+03 0.  0.
        -24    2    4    4    0    0  0.18167919274E+03  0.68100663634E+02 -0.42957626395E+03  0.47874135976E+03  0.83740632492E+02 0.  0.
         24    2    4    4    0    0  0.18787998092E+03 -0.37486536428E+02  0.17470461462E+03  0.27126279166E+03  0.79735011917E+02 0.  0.
         11    1    5    5    0    0  0.14823954407E+03  0.16860150393E+02 -0.28332252361E+03  0.32020443389E+03  0.00000000000E+00 0. -1.
        -12    1    5    5    0    0  0.33439648673E+02  0.51240513240E+02 -0.14625374034E+03  0.15853692587E+03  0.00000000000E+00 0.  1.
         13    1    3    3    0    0 -0.17392912027E+03 -0.11659135621E+01  0.13721657141E+03  0.22154251443E+03  0.00000000000E+00 0. -1.
        -14    1    3    3    0    0 -0.19563005339E+03 -0.29448213643E+02  0.62853639593E+02  0.20757864796E+03  0.00000000000E+00 0.  1.
          4    1    6    6  502    0  0.24828046974E+02  0.18356001671E+02  0.89646617455E+01  0.32151825362E+02  0.00000000000E+00 0. -1.
         -3    1    6    6    0  502  0.16305193394E+03 -0.55842538099E+02  0.16573995287E+03  0.23911096630E+03  0.00000000000E+00 0.  1.
<mgrwt>
<rscale>  0 0.39268757E+03</rscale>
<asrwt>0</asrwt>
<pdfrwt beam="1">  1        1 0.86486452E-01 0.39268757E+03</pdfrwt>
<pdfrwt beam="2">  1       -2 0.94917443E-01 0.39268757E+03</pdfrwt>
<totfact> 0.32519230E+01</totfact>
</mgrwt>
</event>
<event>
12    3  0.2422421E-007  0.1053852E+04  0.7818608E-02  0.9251376E-01
          1   -1    0    0  501    0  0.00000000000E+00  0.00000000000E+00  0.86446418546E+03  0.86446418546E+03  0.00000000000E+00 0. -1.
         -2   -1    0    0    0  501 -0.00000000000E+00 -0.00000000000E+00 -0.14158809107E+04  0.14158809107E+04  0.00000000000E+00 0.  1.
        -24    2    1    2    0    0  0.75119600835E+02 -0.99742704307E+03 -0.47812015200E+03  0.11116615264E+04  0.81785138780E+02 0.  0.
    5000000    2    1    2    0    0 -0.75119600835E+02  0.99742704307E+03 -0.73296573283E+02  0.11686835698E+04  0.59995436319E+03 0.  0.
        -24    2    4    4    0    0  0.17843203533E+03  0.60223743275E+03 -0.22009711449E+03  0.67049744676E+03  0.81216806555E+02 0.  0.
         24    2    4    4    0    0 -0.25355163617E+03  0.39518961032E+03  0.14680054120E+03  0.49818612300E+03  0.78585965346E+02 0.  0.
         13    1    5    5    0    0  0.13716504593E+03  0.54953309325E+03 -0.19553085075E+03  0.59919377834E+03  0.00000000000E+00 0. -1.
        -14    1    5    5    0    0  0.41266989405E+02  0.52704339501E+02 -0.24566263731E+02  0.71303668423E+02  0.00000000000E+00 0.  1.
         13    1    3    3    0    0 -0.12250267189E+02 -0.35926499643E+03 -0.17055245370E+03  0.39788132172E+03  0.00000000000E+00 0. -1.
        -14    1    3    3    0    0  0.87369868024E+02 -0.63816204664E+03 -0.30756769830E+03  0.71378020472E+03  0.00000000000E+00 0.  1.
          4    1    6    6  502    0 -0.21315671478E+03  0.35307132635E+03  0.10264991788E+03  0.42500841425E+03  0.00000000000E+00 0. -1.
         -3    1    6    6    0  502 -0.40394921386E+02  0.42118283970E+02  0.44150623318E+02  0.73177708749E+02  0.00000000000E+00 0.  1.
<mgrwt>
<rscale>  0 0.10538521E+04</rscale>
<asrwt>0</asrwt>
<pdfrwt beam="1">  1        1 0.13299449E+00 0.10538521E+04</pdfrwt>
<pdfrwt beam="2">  1       -2 0.21782783E+00 0.10538521E+04</pdfrwt>
<totfact> 0.17274006E+00</totfact>
</mgrwt>
</event>
<event>
12    3  0.2422421E-007  0.1767028E+04  0.7818608E-02  0.8724033E-01
         -2   -1    0    0    0  501 -0.00000000000E+00  0.00000000000E+00  0.93407789265E+03  0.93407789265E+03  0.00000000000E+00 0.  1.
          1   -1    0    0  501    0  0.00000000000E+00 -0.00000000000E+00 -0.34335573714E+04  0.34335573714E+04  0.00000000000E+00 0. -1.
        -24    2    1    2    0    0 -0.14372802716E+04 -0.95153676493E+03 -0.92898975109E+03  0.19597456001E+04  0.79900346198E+02 0.  0.
    5000000    2    1    2    0    0  0.14372802716E+04  0.95153676493E+03 -0.15704897277E+04  0.24078896640E+04  0.60024816117E+03 0.  0.
        -24    2    4    4    0    0  0.11539893833E+04  0.47650055832E+03 -0.12240626812E+04  0.17502384824E+04  0.79126599851E+02 0.  0.
         24    2    4    4    0    0  0.28329088826E+03  0.47503620661E+03 -0.34642704654E+03  0.65765118162E+03  0.81118759587E+02 0.  0.
         13    1    3    3    0    0 -0.11434153456E+04 -0.78977257963E+03 -0.76622291560E+03  0.15868953767E+04  0.00000000000E+00 0. -1.
        -14    1    3    3    0    0 -0.29386492598E+03 -0.16176418530E+03 -0.16276683550E+03  0.37285022342E+03  0.00000000000E+00 0.  1.
         13    1    5    5    0    0  0.10329959166E+04  0.40011935458E+03 -0.10757168483E+04  0.15441317299E+04  0.00000000000E+00 0. -1.
        -14    1    5    5    0    0  0.12099346678E+03  0.76381203739E+02 -0.14834583290E+03  0.20610675250E+03  0.00000000000E+00 0.  1.
          2    1    6    6  502    0  0.66637604534E+02  0.18084197464E+03 -0.13775538098E+03  0.23689857559E+03  0.00000000000E+00 0. -1.
         -1    1    6    6    0  502  0.21665328373E+03  0.29419423197E+03 -0.20867166555E+03  0.42075260603E+03  0.00000000000E+00 0.  1.
<mgrwt>
<rscale>  0 0.17670282E+04</rscale>
<asrwt>0</asrwt>
<pdfrwt beam="1">  1        1 0.52823960E+00 0.17670282E+04</pdfrwt>
<pdfrwt beam="2">  1       -2 0.14370429E+00 0.17670282E+04</pdfrwt>
<totfact> 0.76641677E-02</totfact>
</mgrwt>
</event>
<event>
12    3  0.2422421E-007  0.3837394E+03  0.7818608E-02  0.1049560E+00
         -2   -1    0    0    0  501 -0.00000000000E+00  0.00000000000E+00  0.21353758099E+03  0.21353758099E+03  0.00000000000E+00 0.  1.
          1   -1    0    0  501    0  0.00000000000E+00 -0.00000000000E+00 -0.12523573934E+04  0.12523573934E+04  0.00000000000E+00 0. -1.
        -24    2    1    2    0    0 -0.29653038695E+03 -0.49130494084E+02 -0.56164798663E+03  0.64242809750E+03  0.83194493412E+02 0.  0.
    5000000    2    1    2    0    0  0.29653038695E+03  0.49130494084E+02 -0.47717182581E+03  0.82346687692E+03  0.60005055637E+03 0.  0.
        -24    2    4    4    0    0 -0.50582201970E+02 -0.70486043929E+02  0.85431963074E+02  0.14676500868E+03  0.81942088786E+02 0.  0.
         24    2    4    4    0    0  0.34711258892E+03  0.11961653801E+03 -0.56260378889E+03  0.67670186823E+03  0.81284252135E+02 0.  0.
         11    1    5    5    0    0 -0.18972500244E+02 -0.22213497467E+02 -0.13542318662E+02  0.32199217847E+02  0.00000000000E+00 0. -1.
        -12    1    5    5    0    0 -0.31609701726E+02 -0.48272546462E+02  0.98974281736E+02  0.11456579084E+03  0.00000000000E+00 0.  1.
         13    1    3    3    0    0 -0.13245341457E+03 -0.47081159102E+02 -0.32862094345E+03  0.35742449139E+03  0.00000000000E+00 0. -1.
        -14    1    3    3    0    0 -0.16407697238E+03 -0.20493349815E+01 -0.23302704318E+03  0.28500360611E+03  0.00000000000E+00 0.  1.
          2    1    6    6  502    0  0.77511591524E+02 -0.74298099921E+01 -0.12392988205E+03  0.14636210084E+03  0.00000000000E+00 0. -1.
         -1    1    6    6    0  502  0.26960099740E+03  0.12704634801E+03 -0.43867390684E+03  0.53033976739E+03  0.00000000000E+00 0.  1.
<mgrwt>
<rscale>  0 0.38373942E+03</rscale>
<asrwt>0</asrwt>
<pdfrwt beam="1">  1        1 0.19267037E+00 0.38373942E+03</pdfrwt>
<pdfrwt beam="2">  1       -2 0.32851935E-01 0.38373942E+03</pdfrwt>
<totfact> 0.79157827E+01</totfact>
</mgrwt>
</event>
<event>
12    3  0.2422421E-007  0.9605881E+03  0.7818608E-02  0.9352860E-01
         -2   -1    0    0    0  501 -0.00000000000E+00  0.00000000000E+00  0.81053965377E+03  0.81053965377E+03  0.00000000000E+00 0.  1.
          1   -1    0    0  501    0  0.00000000000E+00 -0.00000000000E+00 -0.12137730960E+04  0.12137730960E+04  0.00000000000E+00 0. -1.
        -24    2    1    2    0    0 -0.86892982028E+03  0.23064059597E+03 -0.20279818710E+03  0.92505017825E+03  0.79728354445E+02 0.  0.
    5000000    2    1    2    0    0  0.86892982028E+03 -0.23064059597E+03 -0.20043525509E+03  0.10992625715E+04  0.59997482657E+03 0.  0.
        -24    2    4    4    0    0  0.83378410804E+03 -0.32401925519E+03 -0.29207954113E+03  0.94236437505E+03  0.50554331778E+02 0.  0.
         24    2    4    4    0    0  0.35145712239E+02  0.93378659224E+02  0.91644286043E+02  0.15689819644E+03  0.79142743156E+02 0.  0.
         11    1    5    5    0    0  0.72617997733E+03 -0.29963513945E+03 -0.25262219138E+03  0.82518879527E+03  0.00000000000E+00 0. -1.
        -12    1    5    5    0    0  0.10760413071E+03 -0.24384115738E+02 -0.39457349750E+02  0.11717557978E+03  0.00000000000E+00 0.  1.
         13    1    3    3    0    0 -0.32261042658E+03  0.46380987035E+02 -0.67965657853E+02  0.33293845369E+03  0.00000000000E+00 0. -1.
        -14    1    3    3    0    0 -0.54631939370E+03  0.18425960893E+03 -0.13483252925E+03  0.59211172455E+03  0.00000000000E+00 0.  1.
          2    1    6    6  502    0 -0.21664744263E+02  0.16664843980E+02  0.46106134550E+01  0.27718873088E+02  0.00000000000E+00 0. -1.
         -1    1    6    6    0  502  0.56810456502E+02  0.76713815244E+02  0.87033672588E+02  0.12917932335E+03  0.00000000000E+00 0.  1.
<mgrwt>
<rscale>  0 0.96058814E+03</rscale>
<asrwt>0</asrwt>
<pdfrwt beam="1">  1        1 0.18673432E+00 0.96058814E+03</pdfrwt>
<pdfrwt beam="2">  1       -2 0.12469841E+00 0.96058814E+03</pdfrwt>
<totfact> 0.44247729E+00</totfact>
</mgrwt>
</event>
<event>
12    3  0.2422421E-007  0.1282286E+04  0.7818608E-02  0.9043732E-01
          1   -1    0    0  501    0  0.00000000000E+00  0.00000000000E+00  0.10266536700E+04  0.10266536700E+04  0.00000000000E+00 0. -1.
         -2   -1    0    0    0  501 -0.00000000000E+00 -0.00000000000E+00 -0.17002995171E+04  0.17002995171E+04  0.00000000000E+00 0.  1.
        -24    2    1    2    0    0 -0.10030188856E+03  0.12088045390E+04 -0.63872462613E+03  0.13729879833E+04  0.76537389557E+02 0.  0.
    5000000    2    1    2    0    0  0.10030188856E+03 -0.12088045390E+04 -0.34921220922E+02  0.13539652038E+04  0.60061085488E+03 0.  0.
        -24    2    4    4    0    0  0.27391762970E+03 -0.26502917695E+03 -0.40068613174E+02  0.39113075618E+03  0.78143727658E+02 0.  0.
         24    2    4    4    0    0 -0.17361574114E+03 -0.94377536206E+03  0.51473922519E+01  0.96283444760E+03  0.78545007751E+02 0.  0.
         11    1    5    5    0    0  0.90630786534E+02 -0.13982346654E+03 -0.26763944155E+02  0.16876270313E+03  0.00000000000E+00 0. -1.
        -12    1    5    5    0    0  0.18328684316E+03 -0.12520571042E+03 -0.13304669019E+02  0.22236805305E+03  0.00000000000E+00 0.  1.
         13    1    3    3    0    0 -0.30156938237E+02  0.49311374668E+03 -0.30104463531E+03  0.57853131336E+03  0.00000000000E+00 0. -1.
        -14    1    3    3    0    0 -0.70144950321E+02  0.71569079233E+03 -0.33767999082E+03  0.79445666998E+03  0.00000000000E+00 0.  1.
          4    1    6    6  502    0 -0.26952312484E+02 -0.35617970981E+03  0.18114260553E+01  0.35720259530E+03  0.00000000000E+00 0. -1.
         -3    1    6    6    0  502 -0.14666342865E+03 -0.58759565225E+03  0.33359661966E+01  0.60563185230E+03  0.00000000000E+00 0.  1.
<mgrwt>
<rscale>  0 0.12822862E+04</rscale>
<asrwt>0</asrwt>
<pdfrwt beam="1">  1        1 0.15794672E+00 0.12822862E+04</pdfrwt>
<pdfrwt beam="2">  1       -2 0.26158454E+00 0.12822862E+04</pdfrwt>
<totfact> 0.66840453E-01</totfact>
</mgrwt>
</event>
<event>
12    3  0.2422421E-007  0.7731905E+03  0.7818608E-02  0.9599655E-01
          1   -1    0    0  501    0  0.00000000000E+00  0.00000000000E+00  0.48479367479E+03  0.48479367479E+03  0.00000000000E+00 0. -1.
         -2   -1    0    0    0  501 -0.00000000000E+00 -0.00000000000E+00 -0.13571120412E+04  0.13571120412E+04  0.00000000000E+00 0.  1.
        -24    2    1    2    0    0 -0.62464438359E+03 -0.27750061166E+03 -0.21219056250E+03  0.71809482979E+03  0.58720987264E+02 0.  0.
    5000000    2    1    2    0    0  0.62464438359E+03  0.27750061166E+03 -0.66012780389E+03  0.11238108862E+04  0.59999582914E+03 0.  0.
        -24    2    4    4    0    0  0.41738287250E+03  0.42894736109E+03 -0.29991130209E+03  0.67409760244E+03  0.79097962323E+02 0.  0.
         24    2    4    4    0    0  0.20726151109E+03 -0.15144674944E+03 -0.36021650180E+03  0.44971328373E+03  0.81195181521E+02 0.  0.
         11    1    5    5    0    0  0.13499418650E+03  0.15221800815E+03 -0.62139866964E+02  0.21273249742E+03  0.00000000000E+00 0. -1.
        -12    1    5    5    0    0  0.28238868600E+03  0.27672935294E+03 -0.23777143512E+03  0.46136510501E+03  0.00000000000E+00 0.  1.
         11    1    3    3    0    0 -0.26712766645E+03 -0.13628918677E+03 -0.67639815889E+02  0.30742003401E+03  0.00000000000E+00 0. -1.
        -12    1    3    3    0    0 -0.35751671714E+03 -0.14121142488E+03 -0.14455074661E+03  0.41067479579E+03  0.00000000000E+00 0.  1.
          2    1    6    6  502    0  0.62822795079E+02 -0.81169642376E+02 -0.96218071614E+02  0.14068806534E+03  0.00000000000E+00 0. -1.
         -1    1    6    6    0  502  0.14443871601E+03 -0.70277107063E+02 -0.26399843019E+03  0.30902521839E+03  0.00000000000E+00 0.  1.
<mgrwt>
<rscale>  0 0.77319051E+03</rscale>
<asrwt>0</asrwt>
<pdfrwt beam="1">  1        1 0.74583642E-01 0.77319051E+03</pdfrwt>
<pdfrwt beam="2">  1       -2 0.20878647E+00 0.77319051E+03</pdfrwt>
<totfact> 0.48293494E+00</totfact>
</mgrwt>
</event>
<event>
12    3  0.2422421E-007  0.4651224E+03  0.7818608E-02  0.1023306E+00
         -4   -1    0    0    0  501 -0.00000000000E+00  0.00000000000E+00  0.60925190995E+03  0.60925190995E+03  0.00000000000E+00 0.  1.
          3   -1    0    0  501    0  0.00000000000E+00 -0.00000000000E+00 -0.45830707112E+03  0.45830707112E+03  0.00000000000E+00 0. -1.
        -24    2    1    2    0    0  0.58754804065E+02 -0.31531590176E+03  0.19835817717E+03  0.38557464954E+03  0.80284488001E+02 0.  0.
    5000000    2    1    2    0    0 -0.58754804065E+02  0.31531590176E+03 -0.47413338350E+02  0.68198433152E+03  0.59998196547E+03 0.  0.
        -24    2    4    4    0    0  0.39973586738E+02  0.42629405085E+03  0.11088799282E+03  0.44950038087E+03  0.80186906801E+02 0.  0.
         24    2    4    4    0    0 -0.98728390802E+02 -0.11097814909E+03 -0.15830133117E+03  0.23248395066E+03  0.83222780173E+02 0.  0.
         11    1    3    3    0    0 -0.14383085862E+02 -0.51649562700E+02  0.54454113814E+02  0.76418590653E+02  0.00000000000E+00 0. -1.
        -12    1    3    3    0    0  0.73137889926E+02 -0.26366633906E+03  0.14390406336E+03  0.30915605889E+03  0.00000000000E+00 0.  1.
         11    1    5    5    0    0 -0.16430081376E+02  0.13890575252E+03  0.12011747152E+02  0.14038888035E+03  0.00000000000E+00 0. -1.
        -12    1    5    5    0    0  0.56403668113E+02  0.28738829833E+03  0.98876245664E+02  0.30911150052E+03  0.00000000000E+00 0.  1.
          4    1    6    6  502    0 -0.10599143744E+03 -0.66346651727E+02 -0.11614276228E+03  0.17066108002E+03  0.00000000000E+00 0. -1.
         -3    1    6    6    0  502  0.72630466333E+01 -0.44631497359E+02 -0.42158568887E+02  0.61822870634E+02  0.00000000000E+00 0.  1.
<mgrwt>
<rscale>  0 0.46512245E+03</rscale>
<asrwt>0</asrwt>
<pdfrwt beam="1">  1        3 0.70508780E-01 0.46512245E+03</pdfrwt>
<pdfrwt beam="2">  1       -4 0.93731063E-01 0.46512245E+03</pdfrwt>
<totfact> 0.41656959E+00</totfact>
</mgrwt>
</event>
<event>
12    3  0.2422421E-007  0.2916916E+03  0.7818608E-02  0.1089469E+00
          1   -1    0    0  501    0  0.00000000000E+00  0.00000000000E+00  0.12432943558E+04  0.12432943558E+04  0.00000000000E+00 0. -1.
         -2   -1    0    0    0  501 -0.00000000000E+00 -0.00000000000E+00 -0.17418717614E+03  0.17418717614E+03  0.00000000000E+00 0.  1.
        -24    2    1    2    0    0  0.13843489401E+03  0.12842038406E+03  0.59753142035E+03  0.63149169097E+03  0.77986809989E+02 0.  0.
    5000000    2    1    2    0    0 -0.13843489401E+03 -0.12842038406E+03  0.47157575927E+03  0.78598984093E+03  0.59978355963E+03 0.  0.
        -24    2    4    4    0    0  0.73710250439E+01 -0.21789958097E+03 -0.44727403066E+02  0.23611023897E+03  0.78822236500E+02 0.  0.
         24    2    4    4    0    0 -0.14580591906E+03  0.89479196910E+02  0.51630316233E+03  0.54987960196E+03  0.80825296194E+02 0.  0.
         13    1    5    5    0    0  0.42583388482E+01 -0.19353895545E+03 -0.10350694434E+02  0.19386231610E+03  0.00000000000E+00 0. -1.
        -14    1    5    5    0    0  0.31126861957E+01 -0.24360625512E+02 -0.34376708632E+02  0.42247922872E+02  0.00000000000E+00 0.  1.
         13    1    3    3    0    0  0.11890493480E+03  0.84986093975E+02  0.52305659168E+03  0.54309227373E+03  0.00000000000E+00 0. -1.
        -14    1    3    3    0    0  0.19529959212E+02  0.43434290081E+02  0.74474828672E+02  0.88399417235E+02  0.00000000000E+00 0.  1.
          2    1    6    6  502    0 -0.10683524318E+03  0.71426067796E+02  0.46762651116E+03  0.48496392267E+03  0.00000000000E+00 0. -1.
         -1    1    6    6    0  502 -0.38970675874E+02  0.18053129114E+02  0.48676651171E+02  0.64915679293E+02  0.00000000000E+00 0.  1.
<mgrwt>
<rscale>  0 0.29169163E+03</rscale>
<asrwt>0</asrwt>
<pdfrwt beam="1">  1        1 0.19127605E+00 0.29169163E+03</pdfrwt>
<pdfrwt beam="2">  1       -2 0.26798028E-01 0.29169163E+03</pdfrwt>
<totfact> 0.11850782E+02</totfact>
</mgrwt>
</event>
<event>
12    3  0.2422421E-007  0.7186258E+03  0.7818608E-02  0.9685899E-01
         -2   -1    0    0    0  501 -0.00000000000E+00  0.00000000000E+00  0.53343711942E+03  0.53343711942E+03  0.00000000000E+00 0.  1.
          1   -1    0    0  501    0  0.00000000000E+00 -0.00000000000E+00 -0.21734452971E+04  0.21734452971E+04  0.00000000000E+00 0. -1.
        -24    2    1    2    0    0 -0.49956177420E+03 -0.36541486017E+03 -0.17310694171E+04  0.18401191856E+04  0.79669968808E+02 0.  0.
    5000000    2    1    2    0    0  0.49956177420E+03  0.36541486017E+03  0.91061239395E+02  0.86676323100E+03  0.59991362964E+03 0.  0.
        -24    2    4    4    0    0  0.50028325202E+03  0.70789774729E+02 -0.75731611706E+02  0.51846948100E+03  0.88208850237E+02 0.  0.
         24    2    4    4    0    0 -0.72147782531E+00  0.29462508544E+03  0.16679285110E+03  0.34829375000E+03  0.81757076808E+02 0.  0.
         13    1    3    3    0    0 -0.25681416139E+03 -0.22836044375E+03 -0.10212735905E+04  0.10775443157E+04  0.00000000000E+00 0. -1.
        -14    1    3    3    0    0 -0.24274761280E+03 -0.13705441642E+03 -0.70979582663E+03  0.76257486982E+03  0.00000000000E+00 0.  1.
         13    1    5    5    0    0  0.44792697049E+03  0.40620398003E+02 -0.49108963248E+02  0.45243814815E+03  0.00000000000E+00 0. -1.
        -14    1    5    5    0    0  0.52356281528E+02  0.30169376727E+02 -0.26622648457E+02  0.66031332853E+02  0.00000000000E+00 0.  1.
          2    1    6    6  502    0 -0.26662998227E+02  0.36458723391E+02  0.14516737026E+02  0.47443541601E+02  0.00000000000E+00 0. -1.
         -1    1    6    6    0  502  0.25941520402E+02  0.25816636205E+03  0.15227611407E+03  0.30085020840E+03  0.00000000000E+00 0.  1.
<mgrwt>
<rscale>  0 0.71862577E+03</rscale>
<asrwt>0</asrwt>
<pdfrwt beam="1">  1        1 0.33437621E+00 0.71862577E+03</pdfrwt>
<pdfrwt beam="2">  1       -2 0.82067248E-01 0.71862577E+03</pdfrwt>
<totfact> 0.27430683E+00</totfact>
</mgrwt>
</event>
<event>
12    3  0.2422421E-007  0.6552324E+03  0.7818608E-02  0.9797010E-01
         -2   -1    0    0    0  501 -0.00000000000E+00  0.00000000000E+00  0.19405751949E+04  0.19405751949E+04  0.00000000000E+00 0.  1.
          1   -1    0    0  501    0  0.00000000000E+00 -0.00000000000E+00 -0.32354290613E+03  0.32354290613E+03  0.00000000000E+00 0. -1.
        -24    2    1    2    0    0 -0.53320879301E+03  0.29646051635E+03  0.27736316302E+03  0.67450487409E+03  0.76328541716E+02 0.  0.
    5000000    2    1    2    0    0  0.53320879301E+03 -0.29646051635E+03  0.13396691258E+04  0.15896132270E+04  0.59996365732E+03 0.  0.
        -24    2    4    4    0    0  0.86397865126E+02 -0.22126245212E+03  0.10547689888E+03  0.27200294058E+03  0.80240636032E+02 0.  0.
         24    2    4    4    0    0  0.44681092788E+03 -0.75198064227E+02  0.12341922269E+04  0.13176102864E+04  0.87015284377E+02 0.  0.
         13    1    5    5    0    0  0.15481052339E+02 -0.48110573278E+02 -0.10832800598E+02  0.51687907788E+02  0.00000000000E+00 0. -1.
        -14    1    5    5    0    0  0.70916812787E+02 -0.17315187884E+03  0.11630969947E+03  0.22031503279E+03  0.00000000000E+00 0.  1.
         13    1    3    3    0    0 -0.22025005810E+03  0.16056518398E+03  0.14312430230E+03  0.30785683736E+03  0.00000000000E+00 0. -1.
        -14    1    3    3    0    0 -0.31295873490E+03  0.13589533237E+03  0.13423886072E+03  0.36664803673E+03  0.00000000000E+00 0.  1.
          4    1    6    6  502    0  0.26055372775E+03 -0.68077371311E+01  0.63458677263E+03  0.68602839761E+03  0.00000000000E+00 0. -1.
         -1    1    6    6    0  502  0.18625720013E+03 -0.68390327096E+02  0.59960545430E+03  0.63158188880E+03  0.00000000000E+00 0.  1.
<mgrwt>
<rscale>  0 0.65523242E+03</rscale>
<asrwt>0</asrwt>
<pdfrwt beam="1">  1        1 0.49775833E-01 0.65523242E+03</pdfrwt>
<pdfrwt beam="2">  1       -2 0.29855002E+00 0.65523242E+03</pdfrwt>
<totfact> 0.23864645E+00</totfact>
</mgrwt>
</event>
<event>
12    3  0.2422421E-007  0.6280507E+03  0.7818608E-02  0.9848860E-01
         -2   -1    0    0    0  501 -0.00000000000E+00  0.00000000000E+00  0.41157955403E+03  0.41157955403E+03  0.00000000000E+00 0.  1.
          1   -1    0    0  501    0  0.00000000000E+00 -0.00000000000E+00 -0.13230469267E+04  0.13230469267E+04  0.00000000000E+00 0. -1.
        -24    2    1    2    0    0  0.60852834972E+03  0.73786686120E+02 -0.38573221280E+03  0.72850195601E+03  0.78578193249E+02 0.  0.
    5000000    2    1    2    0    0 -0.60852834972E+03 -0.73786686120E+02 -0.52573515991E+03  0.10061245248E+04  0.60011488357E+03 0.  0.
        -24    2    4    4    0    0 -0.26478238092E+03 -0.12182362185E+03  0.72758756394E+02  0.30965965444E+03  0.75130292606E+02 0.  0.
         24    2    4    4    0    0 -0.34374596880E+03  0.48036935728E+02 -0.59849391631E+03  0.69646487032E+03  0.79996934134E+02 0.  0.
         13    1    5    5    0    0 -0.96139900742E+02 -0.41809891084E+02 -0.10320708322E+02  0.10534450402E+03  0.00000000000E+00 0. -1.
        -14    1    5    5    0    0 -0.16864248018E+03 -0.80013730764E+02  0.83079464716E+02  0.20431515042E+03  0.00000000000E+00 0.  1.
         13    1    3    3    0    0  0.26180003942E+03  0.43692145301E+02 -0.21099098818E+03  0.33906557078E+03  0.00000000000E+00 0. -1.
        -14    1    3    3    0    0  0.34672831030E+03  0.30094540819E+02 -0.17474122462E+03  0.38943638522E+03  0.00000000000E+00 0.  1.
          2    1    6    6  502    0 -0.23781643337E+03  0.57895337815E+02 -0.36008821803E+03  0.43539872632E+03  0.00000000000E+00 0. -1.
         -1    1    6    6    0  502 -0.10592953543E+03 -0.98584020874E+01 -0.23840569828E+03  0.26106614400E+03  0.00000000000E+00 0.  1.
<mgrwt>
<rscale>  0 0.62805071E+03</rscale>
<asrwt>0</asrwt>
<pdfrwt beam="1">  1        1 0.20354568E+00 0.62805071E+03</pdfrwt>
<pdfrwt beam="2">  1       -2 0.63319931E-01 0.62805071E+03</pdfrwt>
<totfact> 0.18429704E+01</totfact>
</mgrwt>
</event>
<event>
12    3  0.2422421E-007  0.1236513E+04  0.7818608E-02  0.9081484E-01
          1   -1    0    0  501    0  0.00000000000E+00  0.00000000000E+00  0.14799017997E+04  0.14799017997E+04  0.00000000000E+00 0. -1.
         -2   -1    0    0    0  501 -0.00000000000E+00 -0.00000000000E+00 -0.10464967499E+04  0.10464967499E+04  0.00000000000E+00 0.  1.
        -24    2    1    2    0    0  0.50119139751E+03  0.10578593226E+04  0.21241757198E+03  0.11925547480E+04  0.82501143207E+02 0.  0.
    5000000    2    1    2    0    0 -0.50119139751E+03 -0.10578593226E+04  0.22098747786E+03  0.13338438016E+04  0.60003721414E+03 0.  0.
        -24    2    4    4    0    0 -0.32421567404E+03 -0.13068561825E+03 -0.15155472546E+02  0.35763715994E+03  0.74027803643E+02 0.  0.
         24    2    4    4    0    0 -0.17697572347E+03 -0.92717370435E+03  0.23614295041E+03  0.97620664166E+03  0.79021702440E+02 0.  0.
         11    1    5    5    0    0 -0.69950467663E+01  0.53957215836E+01 -0.87014340908E+01  0.12399977658E+02  0.00000000000E+00 0. -1.
        -12    1    5    5    0    0 -0.31722062728E+03 -0.13608133984E+03 -0.64540384550E+01  0.34523718229E+03  0.00000000000E+00 0.  1.
         13    1    3    3    0    0  0.99256158712E+02  0.29379131325E+03  0.51703725499E+02  0.31438574398E+03  0.00000000000E+00 0. -1.
        -14    1    3    3    0    0  0.40193523880E+03  0.76406800935E+03  0.16071384649E+03  0.87816900398E+03  0.00000000000E+00 0.  1.
          4    1    6    6  502    0 -0.17453545175E+03 -0.81990191491E+03  0.22730142785E+03  0.86854344342E+03  0.00000000000E+00 0. -1.
         -3    1    6    6    0  502 -0.24402717210E+01 -0.10727178944E+03  0.88415225555E+01  0.10766319825E+03  0.00000000000E+00 0.  1.
<mgrwt>
<rscale>  0 0.12365132E+04</rscale>
<asrwt>0</asrwt>
<pdfrwt beam="1">  1        1 0.22767720E+00 0.12365132E+04</pdfrwt>
<pdfrwt beam="2">  1       -2 0.16099950E+00 0.12365132E+04</pdfrwt>
<totfact> 0.14252678E+00</totfact>
</mgrwt>
</event>
<event>
12    3  0.2422421E-007  0.7979884E+03  0.7818608E-02  0.9562933E-01
         -2   -1    0    0    0  501 -0.00000000000E+00  0.00000000000E+00  0.10271140661E+04  0.10271140661E+04  0.00000000000E+00 0.  1.
          1   -1    0    0  501    0  0.00000000000E+00 -0.00000000000E+00 -0.72469275555E+03  0.72469275555E+03  0.00000000000E+00 0. -1.
        -24    2    1    2    0    0  0.18048083645E+03 -0.72117681874E+03 -0.63127564570E+01  0.74776685310E+03  0.80287480305E+02 0.  0.
    5000000    2    1    2    0    0 -0.18048083645E+03  0.72117681874E+03  0.30873406698E+03  0.10040399685E+04  0.60009182470E+03 0.  0.
        -24    2    4    4    0    0  0.12385580004E+03  0.13319797298E+03 -0.99300804653E+02  0.22254665062E+03  0.81144332468E+02 0.  0.
         24    2    4    4    0    0 -0.30433663648E+03  0.58797884576E+03  0.40803487163E+03  0.78149331790E+03  0.76807799618E+02 0.  0.
         13    1    3    3    0    0  0.11366438939E+03 -0.47152315473E+03  0.33917671996E+02  0.48621403449E+03  0.00000000000E+00 0. -1.
        -14    1    3    3    0    0  0.66816447055E+02 -0.24965366401E+03 -0.40230428453E+02  0.26155281861E+03  0.00000000000E+00 0.  1.
         13    1    5    5    0    0  0.12614662943E+03  0.11838817699E+03 -0.10920496949E+03  0.20458362088E+03  0.00000000000E+00 0. -1.
        -14    1    5    5    0    0 -0.22908293990E+01  0.14809795984E+02  0.99041648421E+01  0.17963029745E+02  0.00000000000E+00 0.  1.
          4    1    6    6  502    0 -0.67212307619E+02  0.18655360545E+03  0.14988161917E+03  0.24856436142E+03  0.00000000000E+00 0. -1.
         -3    1    6    6    0  502 -0.23712432886E+03  0.40142524031E+03  0.25815325246E+03  0.53292895648E+03  0.00000000000E+00 0.  1.
<mgrwt>
<rscale>  0 0.79798841E+03</rscale>
<asrwt>0</asrwt>
<pdfrwt beam="1">  1        1 0.11149119E+00 0.79798841E+03</pdfrwt>
<pdfrwt beam="2">  1       -2 0.15801755E+00 0.79798841E+03</pdfrwt>
<totfact> 0.59973303E+00</totfact>
</mgrwt>
</event>
<event>
12    3  0.2422421E-007  0.4683743E+03  0.7818608E-02  0.1022380E+00
          1   -1    0    0  501    0  0.00000000000E+00  0.00000000000E+00  0.43570592609E+03  0.43570592609E+03  0.00000000000E+00 0. -1.
         -2   -1    0    0    0  501 -0.00000000000E+00 -0.00000000000E+00 -0.57902666312E+03  0.57902666312E+03  0.00000000000E+00 0.  1.
        -24    2    1    2    0    0 -0.17821018060E+03  0.26170766285E+03 -0.49312259649E+02  0.32970025912E+03  0.77593766783E+02 0.  0.
    5000000    2    1    2    0    0  0.17821018060E+03 -0.26170766285E+03 -0.94008477388E+02  0.68503233010E+03  0.60015158934E+03 0.  0.
        -24    2    4    4    0    0 -0.16765785558E+03 -0.20701035694E+03  0.74153437166E+02  0.28742707356E+03  0.78441991010E+02 0.  0.
         24    2    4    4    0    0  0.34586803618E+03 -0.54697305915E+02 -0.16816191455E+03  0.39760525654E+03  0.84823444816E+02 0.  0.
         11    1    3    3    0    0 -0.63493179502E+02  0.83585331907E+02  0.19857741408E+02  0.10682799936E+03  0.00000000000E+00 0. -1.
        -12    1    3    3    0    0 -0.11471700110E+03  0.17812233095E+03 -0.69170001057E+02  0.22287225976E+03  0.00000000000E+00 0.  1.
         11    1    5    5    0    0 -0.77655454656E+02 -0.96403382402E+02 -0.58328362366E+01  0.12392741325E+03  0.00000000000E+00 0. -1.
        -12    1    5    5    0    0 -0.90002400927E+02 -0.11060697454E+03  0.79986273402E+02  0.16349966031E+03  0.00000000000E+00 0.  1.
          2    1    6    6  502    0  0.25729352012E+02  0.87214321207E+01 -0.36935913902E+02  0.45851114152E+02  0.00000000000E+00 0. -1.
         -1    1    6    6    0  502  0.32013868417E+03 -0.63418738036E+02 -0.13122600065E+03  0.35175414238E+03  0.00000000000E+00 0.  1.
<mgrwt>
<rscale>  0 0.46837433E+03</rscale>
<asrwt>0</asrwt>
<pdfrwt beam="1">  1        1 0.67031681E-01 0.46837433E+03</pdfrwt>
<pdfrwt beam="2">  1       -2 0.89081025E-01 0.46837433E+03</pdfrwt>
<totfact> 0.52621463E+01</totfact>
</mgrwt>
</event>
<event>
12    3  0.2422421E-007  0.7779793E+03  0.7818608E-02  0.9592450E-01
         -2   -1    0    0    0  501 -0.00000000000E+00  0.00000000000E+00  0.81069516893E+03  0.81069516893E+03  0.00000000000E+00 0.  1.
          1   -1    0    0  501    0  0.00000000000E+00 -0.00000000000E+00 -0.91637612120E+03  0.91637612120E+03  0.00000000000E+00 0. -1.
        -24    2    1    2    0    0 -0.37847447583E+03 -0.65322016403E+03 -0.35721055797E+02  0.76022534619E+03  0.82018727171E+02 0.  0.
    5000000    2    1    2    0    0  0.37847447583E+03  0.65322016403E+03 -0.69959896472E+02  0.96684594395E+03  0.59996431616E+03 0.  0.
        -24    2    4    4    0    0  0.28966539664E+03  0.27537169511E+03  0.23176513096E+03  0.46871039311E+03  0.78985721553E+02 0.  0.
         24    2    4    4    0    0  0.88809079198E+02  0.37784846892E+03 -0.30172502743E+03  0.49813555084E+03  0.80277747973E+02 0.  0.
         11    1    5    5    0    0  0.78124860975E+02  0.12558893582E+03  0.92820227833E+02  0.17461863989E+03  0.00000000000E+00 0. -1.
        -12    1    5    5    0    0  0.21154053566E+03  0.14978275928E+03  0.13894490312E+03  0.29409175322E+03  0.00000000000E+00 0.  1.
         13    1    3    3    0    0 -0.13977048023E+03 -0.27376912225E+03 -0.51450603125E+02  0.31166084772E+03  0.00000000000E+00 0. -1.
        -14    1    3    3    0    0 -0.23870399560E+03 -0.37945104178E+03  0.15729547327E+02  0.44856449847E+03  0.00000000000E+00 0.  1.
          4    1    6    6  502    0  0.48358370658E+02  0.31325991797E+03 -0.21675602222E+03  0.38399672055E+03  0.00000000000E+00 0. -1.
         -3    1    6    6    0  502  0.40450708540E+02  0.64588550949E+02 -0.84969005205E+02  0.11413883029E+03  0.00000000000E+00 0.  1.
<mgrwt>
<rscale>  0 0.77797928E+03</rscale>
<asrwt>0</asrwt>
<pdfrwt beam="1">  1        1 0.14098094E+00 0.77797928E+03</pdfrwt>
<pdfrwt beam="2">  1       -2 0.12472233E+00 0.77797928E+03</pdfrwt>
<totfact> 0.76059088E+00</totfact>
</mgrwt>
</event>
<event>
12    3  0.2422421E-007  0.4929718E+03  0.7818608E-02  0.1015630E+00
          1   -1    0    0  501    0  0.00000000000E+00  0.00000000000E+00  0.13379057587E+04  0.13379057587E+04  0.00000000000E+00 0. -1.
         -2   -1    0    0    0  501 -0.00000000000E+00 -0.00000000000E+00 -0.26347095711E+03  0.26347095711E+03  0.00000000000E+00 0.  1.
        -24    2    1    2    0    0 -0.31496859824E+03 -0.16632344410E+02 -0.60617638048E+01  0.32607117120E+03  0.82485216553E+02 0.  0.
    5000000    2    1    2    0    0  0.31496859824E+03  0.16632344410E+02  0.10804965653E+04  0.12753055446E+04  0.59954111746E+03 0.  0.
        -24    2    4    4    0    0  0.19071958605E+03  0.29618775679E+03  0.58181766300E+03  0.68488868546E+03  0.80371454622E+02 0.  0.
         24    2    4    4    0    0  0.12424901219E+03 -0.27955541238E+03  0.49867890234E+03  0.59041685911E+03  0.79513358970E+02 0.  0.
         11    1    3    3    0    0 -0.12782229756E+03 -0.46024020436E+02  0.81405230710E+01  0.13609929583E+03  0.00000000000E+00 0. -1.
        -12    1    3    3    0    0 -0.18714630068E+03  0.29391676026E+02 -0.14202286876E+02  0.18997187537E+03  0.00000000000E+00 0.  1.
         13    1    5    5    0    0  0.11338531873E+03  0.20875354590E+03  0.32287409157E+03  0.40085153416E+03  0.00000000000E+00 0. -1.
        -14    1    5    5    0    0  0.77334267316E+02  0.87434210894E+02  0.25894357143E+03  0.28403715131E+03  0.00000000000E+00 0.  1.
          2    1    6    6  502    0  0.92591148850E+02 -0.22464597028E+03  0.44645123723E+03  0.50828893361E+03  0.00000000000E+00 0. -1.
         -1    1    6    6    0  502  0.31657863341E+02 -0.54909442096E+02  0.52227665111E+02  0.82127925491E+02  0.00000000000E+00 0.  1.
<mgrwt>
<rscale>  0 0.49297183E+03</rscale>
<asrwt>0</asrwt>
<pdfrwt beam="1">  1        1 0.20583165E+00 0.49297183E+03</pdfrwt>
<pdfrwt beam="2">  1       -2 0.40533994E-01 0.49297183E+03</pdfrwt>
<totfact> 0.45466185E+01</totfact>
</mgrwt>
</event>
<event>
12    3  0.4637156E-007  0.1383125E+04  0.7818608E-02  0.8966125E-01
          1   -1    0    0  501    0  0.00000000000E+00  0.00000000000E+00  0.15405645831E+04  0.15405645831E+04  0.00000000000E+00 0. -1.
         -2   -1    0    0    0  501 -0.00000000000E+00 -0.00000000000E+00 -0.13503213291E+04  0.13503213291E+04  0.00000000000E+00 0.  1.
        -24    2    1    2    0    0 -0.44410096002E+03  0.12424102636E+04 -0.31010021360E+03  0.13575331286E+04  0.76974845203E+02 0.  0.
    5000000    2    1    2    0    0  0.44410096002E+03 -0.12424102636E+04  0.50034346758E+03  0.15333527836E+04  0.60001520622E+03 0.  0.
        -24    2    4    4    0    0  0.58148827561E+03 -0.95178075119E+03  0.38854380696E+03  0.11838160894E+04  0.80243570017E+02 0.  0.
         24    2    4    4    0    0 -0.13738731559E+03 -0.29062951245E+03  0.11179966062E+03  0.34953669428E+03  0.79598671706E+02 0.  0.
         11    1    5    5    0    0  0.20270005247E+03 -0.39161431323E+03  0.12827273448E+03  0.45924174027E+03  0.00000000000E+00 0. -1.
        -12    1    5    5    0    0  0.37878822314E+03 -0.56016643795E+03  0.26027107248E+03  0.72457434910E+03  0.00000000000E+00 0.  1.
         13    1    3    3    0    0 -0.30511662737E+03  0.77152494915E+03 -0.16916199403E+03  0.84673649011E+03  0.00000000000E+00 0. -1.
        -14    1    3    3    0    0 -0.13898433265E+03  0.47088531448E+03 -0.14093821957E+03  0.51079663845E+03  0.00000000000E+00 0.  1.
          4    1    6    6  502    0 -0.60941335883E+02 -0.20396267225E+03  0.50751745105E+02  0.21883865683E+03  0.00000000000E+00 0. -1.
         -3    1    6    6    0  502 -0.76445979711E+02 -0.86666840201E+02  0.61047915518E+02  0.13069803745E+03  0.00000000000E+00 0.  1.
<mgrwt>
<rscale>  0 0.13831252E+04</rscale>
<asrwt>0</asrwt>
<pdfrwt beam="1">  1        1 0.23700994E+00 0.13831252E+04</pdfrwt>
<pdfrwt beam="2">  1       -2 0.20774174E+00 0.13831252E+04</pdfrwt>
<totfact> 0.60772610E-01</totfact>
</mgrwt>
</event>
<event>
12    3  0.2422421E-007  0.6786528E+03  0.7818608E-02  0.9754452E-01
         -2   -1    0    0    0  501 -0.00000000000E+00  0.00000000000E+00  0.74766542509E+03  0.74766542509E+03  0.00000000000E+00 0.  1.
          1   -1    0    0  501    0  0.00000000000E+00 -0.00000000000E+00 -0.11761570562E+04  0.11761570562E+04  0.00000000000E+00 0. -1.
        -24    2    1    2    0    0 -0.49021366207E+03 -0.25084524002E+03 -0.84298633397E+03  0.10100290793E+04  0.79372619711E+02 0.  0.
    5000000    2    1    2    0    0  0.49021366207E+03  0.25084524002E+03  0.41449470281E+03  0.91379340208E+03  0.59998312818E+03 0.  0.
        -24    2    4    4    0    0  0.50834616828E+03  0.39286331698E+03  0.29816971635E+03  0.71279459013E+03  0.80084551163E+02 0.  0.
         24    2    4    4    0    0 -0.18132506207E+02 -0.14201807696E+03  0.11632498646E+03  0.20099881195E+03  0.79819157901E+02 0.  0.
         11    1    3    3    0    0 -0.24659973805E+03 -0.15458779144E+03 -0.38800543509E+03  0.48503302333E+03  0.00000000000E+00 0. -1.
        -12    1    3    3    0    0 -0.24361392402E+03 -0.96257448583E+02 -0.45498089888E+03  0.52499605592E+03  0.00000000000E+00 0.  1.
         13    1    5    5    0    0  0.14270821644E+03  0.89993920076E+02  0.11360521418E+03  0.20339784998E+03  0.00000000000E+00 0. -1.
        -14    1    5    5    0    0  0.36563795184E+03  0.30286939690E+03  0.18456450217E+03  0.50939674014E+03  0.00000000000E+00 0.  1.
          2    1    6    6  502    0  0.25137365721E+02 -0.88468057113E+02  0.85473029395E+02  0.12555525891E+03  0.00000000000E+00 0. -1.
         -1    1    6    6    0  502 -0.43269871927E+02 -0.53550019844E+02  0.30851957065E+02  0.75443553049E+02  0.00000000000E+00 0.  1.
<mgrwt>
<rscale>  0 0.67865275E+03</rscale>
<asrwt>0</asrwt>
<pdfrwt beam="1">  1        1 0.18094724E+00 0.67865275E+03</pdfrwt>
<pdfrwt beam="2">  1       -2 0.11502545E+00 0.67865275E+03</pdfrwt>
<totfact> 0.59673892E+00</totfact>
</mgrwt>
</event>
<event>
12    3  0.2422421E-007  0.4157538E+03  0.7818608E-02  0.1038457E+00
          1   -1    0    0  501    0  0.00000000000E+00  0.00000000000E+00  0.31537011259E+04  0.31537011259E+04  0.00000000000E+00 0. -1.
         -2   -1    0    0    0  501 -0.00000000000E+00 -0.00000000000E+00 -0.75227349570E+02  0.75227349570E+02  0.00000000000E+00 0.  1.
        -24    2    1    2    0    0 -0.20996247787E+03  0.19221114361E+03  0.12230791092E+04  0.12582666855E+04  0.79266503609E+02 0.  0.
    5000000    2    1    2    0    0  0.20996247787E+03 -0.19221114361E+03  0.18553946672E+04  0.19706617900E+04  0.59999096148E+03 0.  0.
        -24    2    4    4    0    0 -0.13262099532E+03 -0.82837432076E+02  0.12456120869E+04  0.12582209586E+04  0.84380928880E+02 0.  0.
         24    2    4    4    0    0  0.34258347320E+03 -0.10937371154E+03  0.60978258027E+03  0.71244083139E+03  0.80069333398E+02 0.  0.
         13    1    3    3    0    0 -0.13326435564E+03  0.73540998928E+02  0.70661865497E+03  0.72282611364E+03  0.00000000000E+00 0. -1.
        -14    1    3    3    0    0 -0.76698122230E+02  0.11867014468E+03  0.51646045420E+03  0.53544057182E+03  0.00000000000E+00 0.  1.
         13    1    5    5    0    0 -0.54119103414E+02  0.63924948439E+01  0.27395130429E+03  0.27931891892E+03  0.00000000000E+00 0. -1.
        -14    1    5    5    0    0 -0.78501891908E+02 -0.89229926919E+02  0.97166078259E+03  0.97890203969E+03  0.00000000000E+00 0.  1.
          2    1    6    6  502    0  0.58876485015E+02  0.42818703957E+01  0.65157070713E+02  0.87921662665E+02  0.00000000000E+00 0. -1.
         -1    1    6    6    0  502  0.28370698818E+03 -0.11365558193E+03  0.54462550956E+03  0.62451916873E+03  0.00000000000E+00 0.  1.
<mgrwt>
<rscale>  0 0.41575377E+03</rscale>
<asrwt>0</asrwt>
<pdfrwt beam="1">  1        1 0.48518469E+00 0.41575377E+03</pdfrwt>
<pdfrwt beam="2">  1       -2 0.11573441E-01 0.41575377E+03</pdfrwt>
<totfact> 0.24817414E+01</totfact>
</mgrwt>
</event>
<event>
12    3  0.2422421E-007  0.5429314E+03  0.7818608E-02  0.1003143E+00
          1   -1    0    0  501    0  0.00000000000E+00  0.00000000000E+00  0.69197817155E+03  0.69197817155E+03  0.00000000000E+00 0. -1.
         -2   -1    0    0    0  501 -0.00000000000E+00 -0.00000000000E+00 -0.65850510096E+03  0.65850510096E+03  0.00000000000E+00 0.  1.
        -24    2    1    2    0    0 -0.92149318727E+01  0.37920440496E+03 -0.36840692177E+03  0.53473155827E+03  0.79581930710E+02 0.  0.
    5000000    2    1    2    0    0  0.92149318727E+01 -0.37920440496E+03  0.40187999236E+03  0.81575171424E+03  0.60005202717E+03 0.  0.
        -24    2    4    4    0    0  0.27498150030E+03 -0.31045882089E+03  0.27109889267E+03  0.50184595610E+03  0.79719816051E+02 0.  0.
         24    2    4    4    0    0 -0.26576656843E+03 -0.68745584067E+02  0.13078109969E+03  0.31390575814E+03  0.77944241191E+02 0.  0.
         11    1    5    5    0    0  0.26182360463E+03 -0.28159750186E+03  0.27049019938E+03  0.47012094291E+03  0.00000000000E+00 0. -1.
        -12    1    5    5    0    0  0.13157895668E+02 -0.28861319031E+02  0.60869328506E+00  0.31725013194E+02  0.00000000000E+00 0.  1.
         13    1    3    3    0    0 -0.23827987916E+02  0.31814646933E+02 -0.42085209094E+02  0.57888769136E+02  0.00000000000E+00 0. -1.
        -14    1    3    3    0    0  0.14613056043E+02  0.34738975803E+03 -0.32632171267E+03  0.47684278914E+03  0.00000000000E+00 0.  1.
          2    1    6    6  502    0 -0.26227120305E+03 -0.76902049756E+02  0.11653158663E+03  0.29711903320E+03  0.00000000000E+00 0. -1.
         -1    1    6    6    0  502 -0.34953653741E+01  0.81564656886E+01  0.14249513067E+02  0.16786724942E+02  0.00000000000E+00 0.  1.
<mgrwt>
<rscale>  0 0.54293140E+03</rscale>
<asrwt>0</asrwt>
<pdfrwt beam="1">  1        1 0.10645818E+00 0.54293140E+03</pdfrwt>
<pdfrwt beam="2">  1       -2 0.10130848E+00 0.54293140E+03</pdfrwt>
<totfact> 0.20289014E+01</totfact>
</mgrwt>
</event>
<event>
12    3  0.2422421E-007  0.8469424E+03  0.7818608E-02  0.9494450E-01
         -2   -1    0    0    0  501 -0.00000000000E+00  0.00000000000E+00  0.17510059308E+04  0.17510059308E+04  0.00000000000E+00 0.  1.
          1   -1    0    0  501    0  0.00000000000E+00 -0.00000000000E+00 -0.50975392631E+03  0.50975392631E+03  0.00000000000E+00 0. -1.
        -24    2    1    2    0    0 -0.29979457338E+03  0.75676253689E+03  0.27848976513E+03  0.86457527817E+03  0.85834368799E+02 0.  0.
    5000000    2    1    2    0    0  0.29979457338E+03 -0.75676253689E+03  0.96276223938E+03  0.13961845790E+04  0.59987825888E+03 0.  0.
        -24    2    4    4    0    0 -0.58101389508E+02 -0.11370769494E+03 -0.34219964796E+02  0.15441802293E+03  0.79804188254E+02 0.  0.
         24    2    4    4    0    0  0.35789596289E+03 -0.64305484195E+03  0.99698220417E+03  0.12417665560E+04  0.80010088293E+02 0.  0.
         11    1    5    5    0    0 -0.65810789027E+00 -0.64705259700E+02 -0.44045706331E+02  0.78276611993E+02  0.00000000000E+00 0. -1.
        -12    1    5    5    0    0 -0.57443281618E+02 -0.49002435242E+02  0.98257415352E+01  0.76141410936E+02  0.00000000000E+00 0.  1.
         11    1    3    3    0    0 -0.13787227771E+03  0.44613638176E+03  0.13547740781E+03  0.48621041136E+03  0.00000000000E+00 0. -1.
        -12    1    3    3    0    0 -0.16192229567E+03  0.31062615514E+03  0.14301235732E+03  0.37836486681E+03  0.00000000000E+00 0.  1.
          2    1    6    6  502    0  0.28595001231E+03 -0.49083583605E+03  0.81950959630E+03  0.99713750602E+03  0.00000000000E+00 0. -1.
         -1    1    6    6    0  502  0.71945950581E+02 -0.15221900590E+03  0.17747260787E+03  0.24462905001E+03  0.00000000000E+00 0.  1.
<mgrwt>
<rscale>  0 0.84694244E+03</rscale>
<asrwt>0</asrwt>
<pdfrwt beam="1">  1        1 0.78423682E-01 0.84694244E+03</pdfrwt>
<pdfrwt beam="2">  1       -2 0.26938552E+00 0.84694244E+03</pdfrwt>
<totfact> 0.18928289E+00</totfact>
</mgrwt>
</event>
<event>
12    3  0.2422421E-007  0.5716543E+03  0.7818608E-02  0.9966025E-01
         -2   -1    0    0    0  501 -0.00000000000E+00  0.00000000000E+00  0.20168396171E+03  0.20168396171E+03  0.00000000000E+00 0.  1.
          1   -1    0    0  501    0  0.00000000000E+00 -0.00000000000E+00 -0.24750366041E+04  0.24750366041E+04  0.00000000000E+00 0. -1.
        -24    2    1    2    0    0  0.39765717216E+03  0.16532133824E+03 -0.16598974505E+04  0.17167691669E+04  0.81083011391E+02 0.  0.
    5000000    2    1    2    0    0 -0.39765717216E+03 -0.16532133824E+03 -0.61345519187E+03  0.95995139891E+03  0.59976415731E+03 0.  0.
        -24    2    4    4    0    0  0.11381031921E+03 -0.15663012941E+03 -0.10677478042E+03  0.23554186893E+03  0.81199335514E+02 0.  0.
         24    2    4    4    0    0 -0.51146749137E+03 -0.86912088293E+01 -0.50668041145E+03  0.72440952998E+03  0.79809748462E+02 0.  0.
         13    1    3    3    0    0  0.23365575822E+03  0.81988002856E+02 -0.10959594010E+04  0.11235853571E+04  0.00000000000E+00 0. -1.
        -14    1    3    3    0    0  0.16400141394E+03  0.83333335379E+02 -0.56393804949E+03  0.59318380981E+03  0.00000000000E+00 0.  1.
         13    1    5    5    0    0  0.41305090259E+02 -0.47034853149E+02  0.53142483324E+01  0.62822202503E+02  0.00000000000E+00 0. -1.
        -14    1    5    5    0    0  0.72505228947E+02 -0.10959527626E+03 -0.11208902875E+03  0.17271966642E+03  0.00000000000E+00 0.  1.
          2    1    6    6  502    0 -0.47439777003E+03 -0.29311732848E+02 -0.46628732316E+03  0.66583503184E+03  0.00000000000E+00 0. -1.
         -1    1    6    6    0  502 -0.37069721342E+02  0.20620524019E+02 -0.40393088284E+02  0.58574498140E+02  0.00000000000E+00 0.  1.
<mgrwt>
<rscale>  0 0.57165425E+03</rscale>
<asrwt>0</asrwt>
<pdfrwt beam="1">  1        1 0.38077484E+00 0.57165425E+03</pdfrwt>
<pdfrwt beam="2">  1       -2 0.31028304E-01 0.57165425E+03</pdfrwt>
<totfact> 0.12893251E+01</totfact>
</mgrwt>
</event>
<event>
12    3  0.2422421E-007  0.7935450E+03  0.7818608E-02  0.9569408E-01
         -4   -1    0    0    0  501 -0.00000000000E+00  0.00000000000E+00  0.17885361112E+04  0.17885361112E+04  0.00000000000E+00 0.  1.
          3   -1    0    0  501    0  0.00000000000E+00 -0.00000000000E+00 -0.37980589581E+03  0.37980589581E+03  0.00000000000E+00 0. -1.
        -24    2    1    2    0    0  0.68419013700E+03  0.11899281912E+02  0.87406061415E+03  0.11128436635E+04  0.78621407205E+02 0.  0.
    5000000    2    1    2    0    0 -0.68419013700E+03 -0.11899281912E+02  0.53466960124E+03  0.10554983435E+04  0.59995619359E+03 0.  0.
        -24    2    4    4    0    0 -0.90598680662E+02  0.23239928071E+03  0.15081684574E+03  0.30234211433E+03  0.80296242301E+02 0.  0.
         24    2    4    4    0    0 -0.59359145634E+03 -0.24429856262E+03  0.38385275550E+03  0.75315622920E+03  0.88706047917E+02 0.  0.
         11    1    5    5    0    0 -0.44697735346E+02  0.84504743937E+02  0.15802914662E+02  0.96895156766E+02  0.00000000000E+00 0. -1.
        -12    1    5    5    0    0 -0.45900945316E+02  0.14789453678E+03  0.13501393108E+03  0.20544695757E+03  0.00000000000E+00 0.  1.
         13    1    3    3    0    0  0.44570612158E+03  0.44947649639E+02  0.56116241806E+03  0.71803725354E+03  0.00000000000E+00 0. -1.
        -14    1    3    3    0    0  0.23848401542E+03 -0.33048367727E+02  0.31289819609E+03  0.39480640995E+03  0.00000000000E+00 0.  1.
          2    1    6    6  502    0 -0.14102705866E+03 -0.18794715005E+02  0.89494961593E+02  0.16808099457E+03  0.00000000000E+00 0. -1.
         -1    1    6    6    0  502 -0.45256439768E+03 -0.22550384762E+03  0.29435779391E+03  0.58507523463E+03  0.00000000000E+00 0.  1.
<mgrwt>
<rscale>  0 0.79354503E+03</rscale>
<asrwt>0</asrwt>
<pdfrwt beam="1">  1        3 0.58431677E-01 0.79354503E+03</pdfrwt>
<pdfrwt beam="2">  1       -4 0.27515940E+00 0.79354503E+03</pdfrwt>
<totfact> 0.29069301E-01</totfact>
</mgrwt>
</event>
<event>
12    3  0.2422421E-007  0.1069173E+04  0.7818608E-02  0.9235770E-01
         -2   -1    0    0    0  501 -0.00000000000E+00  0.00000000000E+00  0.92854993636E+03  0.92854993636E+03  0.00000000000E+00 0.  1.
          1   -1    0    0  501    0  0.00000000000E+00 -0.00000000000E+00 -0.12752222796E+04  0.12752222796E+04  0.00000000000E+00 0. -1.
        -24    2    1    2    0    0  0.81598885821E+03  0.56818085715E+03 -0.30509831591E+03  0.10417061093E+04  0.58303795492E+02 0.  0.
    5000000    2    1    2    0    0 -0.81598885821E+03 -0.56818085715E+03 -0.41574027376E+02  0.11620661067E+04  0.60000161128E+03 0.  0.
        -24    2    4    4    0    0 -0.85180740611E+03 -0.60680443954E+03 -0.92781140905E+02  0.10530630229E+04  0.80906767743E+02 0.  0.
         24    2    4    4    0    0  0.35818547903E+02  0.38623582391E+02  0.51207113529E+02  0.10900308388E+03  0.80527972332E+02 0.  0.
         13    1    3    3    0    0  0.37051550419E+03  0.22278823449E+03 -0.13186146793E+03  0.45199975995E+03  0.00000000000E+00 0. -1.
        -14    1    3    3    0    0  0.44547335402E+03  0.34539262266E+03 -0.17323684798E+03  0.58970634931E+03  0.00000000000E+00 0.  1.
         13    1    5    5    0    0 -0.58644456636E+03 -0.40457750915E+03 -0.99399265845E+02  0.71936110847E+03  0.00000000000E+00 0. -1.
        -14    1    5    5    0    0 -0.26536283975E+03 -0.20222693039E+03  0.66181249401E+01  0.33370191440E+03  0.00000000000E+00 0.  1.
          4    1    6    6  502    0  0.49504896300E+02 -0.57039442583E+01  0.26205138939E+02  0.56302566945E+02  0.00000000000E+00 0. -1.
         -3    1    6    6    0  502 -0.13686348397E+02  0.44327526650E+02  0.25001974590E+02  0.52700516931E+02  0.00000000000E+00 0.  1.
<mgrwt>
<rscale>  0 0.10691732E+04</rscale>
<asrwt>0</asrwt>
<pdfrwt beam="1">  1        1 0.19618804E+00 0.10691732E+04</pdfrwt>
<pdfrwt beam="2">  1       -2 0.14285384E+00 0.10691732E+04</pdfrwt>
<totfact> 0.27863538E+00</totfact>
</mgrwt>
</event>
<event>
12    3  0.2422421E-007  0.1110466E+04  0.7818608E-02  0.9195050E-01
          1   -1    0    0  501    0  0.00000000000E+00  0.00000000000E+00  0.27438448706E+04  0.27438448706E+04  0.00000000000E+00 0. -1.
         -2   -1    0    0    0  501 -0.00000000000E+00 -0.00000000000E+00 -0.52280056656E+03  0.52280056656E+03  0.00000000000E+00 0.  1.
        -24    2    1    2    0    0  0.10371615387E+04 -0.39232992460E+03  0.12663241186E+04  0.16851250457E+04  0.80267174688E+02 0.  0.
    5000000    2    1    2    0    0 -0.10371615387E+04  0.39232992460E+03  0.95472018549E+03  0.15815203915E+04  0.60007440297E+03 0.  0.
        -24    2    4    4    0    0 -0.30149845690E+03  0.12164022314E+03  0.66016948262E+03  0.74028901371E+03  0.80662349564E+02 0.  0.
         24    2    4    4    0    0 -0.73566308176E+03  0.27068970146E+03  0.29455070287E+03  0.84123137778E+03  0.80231104067E+02 0.  0.
         11    1    5    5    0    0 -0.26878215937E+02  0.18607734101E+02  0.13357668523E+03  0.13751878816E+03  0.00000000000E+00 0. -1.
        -12    1    5    5    0    0 -0.27462024097E+03  0.10303248904E+03  0.52659279739E+03  0.60277022555E+03  0.00000000000E+00 0.  1.
         13    1    3    3    0    0  0.78268889202E+03 -0.32570962249E+03  0.93572949733E+03  0.12626473585E+04  0.00000000000E+00 0. -1.
        -14    1    3    3    0    0  0.25447264664E+03 -0.66620302112E+02  0.33059462126E+03  0.42247768716E+03  0.00000000000E+00 0.  1.
          2    1    6    6  502    0 -0.34639890762E+02  0.84233460643E+01 -0.30080180226E+01  0.35776011004E+02  0.00000000000E+00 0. -1.
         -1    1    6    6    0  502 -0.70102319100E+03  0.26226635539E+03  0.29755872090E+03  0.80545536678E+03  0.00000000000E+00 0.  1.
<mgrwt>
<rscale>  0 0.11104662E+04</rscale>
<asrwt>0</asrwt>
<pdfrwt beam="1">  1        1 0.42212997E+00 0.11104662E+04</pdfrwt>
<pdfrwt beam="2">  1       -2 0.80430858E-01 0.11104662E+04</pdfrwt>
<totfact> 0.10990969E+00</totfact>
</mgrwt>
</event>
<event>
12    3  0.2422421E-007  0.8544812E+03  0.7818608E-02  0.9484342E-01
          1   -1    0    0  501    0  0.00000000000E+00  0.00000000000E+00  0.90313853984E+03  0.90313853984E+03  0.00000000000E+00 0. -1.
         -4   -1    0    0    0  501 -0.00000000000E+00 -0.00000000000E+00 -0.95644618679E+03  0.95644618679E+03  0.00000000000E+00 0.  1.
        -24    2    1    2    0    0  0.53023554554E+03  0.53438604905E+03  0.32691369589E+03  0.82450785997E+03  0.78882592617E+02 0.  0.
    5000000    2    1    2    0    0 -0.53023554554E+03 -0.53438604905E+03 -0.38022134283E+03  0.10350768667E+04  0.60008138378E+03 0.  0.
        -24    2    4    4    0    0  0.10822968170E+03 -0.18852112989E+02 -0.22152499735E+02  0.13613690655E+03  0.77288148597E+02 0.  0.
         24    2    4    4    0    0 -0.63846522725E+03 -0.51553393606E+03 -0.35806884310E+03  0.89893996011E+03  0.80415606999E+02 0.  0.
         11    1    3    3    0    0  0.28439222650E+03  0.32198781466E+03  0.21876673471E+03  0.48209332655E+03  0.00000000000E+00 0. -1.
        -12    1    3    3    0    0  0.24584331904E+03  0.21239823439E+03  0.10814696118E+03  0.34241453343E+03  0.00000000000E+00 0.  1.
         13    1    5    5    0    0  0.47457253455E+01  0.21908820874E+02  0.13541065587E+01  0.22457781407E+02  0.00000000000E+00 0. -1.
        -14    1    5    5    0    0  0.10348395636E+03 -0.40760933863E+02 -0.23506606294E+02  0.11367912514E+03  0.00000000000E+00 0.  1.
          2    1    6    6  502    0 -0.38316114470E+03 -0.29739652740E+03 -0.16939649691E+03  0.51376291271E+03  0.00000000000E+00 0. -1.
         -1    1    6    6    0  502 -0.25530408255E+03 -0.21813740867E+03 -0.18867234618E+03  0.38517704740E+03  0.00000000000E+00 0.  1.
<mgrwt>
<rscale>  0 0.85448116E+03</rscale>
<asrwt>0</asrwt>
<pdfrwt beam="1">  1        1 0.13894439E+00 0.85448116E+03</pdfrwt>
<pdfrwt beam="2">  1       -4 0.14714557E+00 0.85448116E+03</pdfrwt>
<totfact> 0.27203774E+00</totfact>
</mgrwt>
</event>
<event>
12    3  0.2422421E-007  0.1252885E+04  0.7818608E-02  0.9067785E-01
         -2   -1    0    0    0  501 -0.00000000000E+00  0.00000000000E+00  0.26330801613E+04  0.26330801613E+04  0.00000000000E+00 0.  1.
          1   -1    0    0  501    0  0.00000000000E+00 -0.00000000000E+00 -0.10475350861E+04  0.10475350861E+04  0.00000000000E+00 0. -1.
        -24    2    1    2    0    0  0.48226687040E+03 -0.11049491187E+04  0.19422013476E+04  0.22872981127E+04  0.78055700317E+02 0.  0.
    5000000    2    1    2    0    0 -0.48226687040E+03  0.11049491187E+04 -0.35665627242E+03  0.13933171348E+04  0.60052897698E+03 0.  0.
        -24    2    4    4    0    0 -0.49094478149E+03  0.54229885775E+03 -0.37338509572E+03  0.82514386098E+03  0.79568410930E+02 0.  0.
         24    2    4    4    0    0  0.86779110935E+01  0.56265026095E+03  0.16728823295E+02  0.56817327379E+03  0.76748897286E+02 0.  0.
         13    1    5    5    0    0 -0.20649288147E+03  0.19180369390E+03 -0.17756061412E+03  0.33310019330E+03  0.00000000000E+00 0. -1.
        -14    1    5    5    0    0 -0.28445190003E+03  0.35049516385E+03 -0.19582448159E+03  0.49204366768E+03  0.00000000000E+00 0.  1.
         13    1    3    3    0    0  0.11281722313E+03 -0.32526163425E+03  0.51116749980E+03  0.61629138352E+03  0.00000000000E+00 0. -1.
        -14    1    3    3    0    0  0.36944964727E+03 -0.77968748445E+03  0.14310338478E+04  0.16710067292E+04  0.00000000000E+00 0.  1.
          4    1    6    6  502    0 -0.23194970258E+02  0.17624290610E+03  0.29750523760E+02  0.18023501951E+03  0.00000000000E+00 0. -1.
         -3    1    6    6    0  502  0.31872881352E+02  0.38640735485E+03 -0.13021700465E+02  0.38793825428E+03  0.00000000000E+00 0.  1.
<mgrwt>
<rscale>  0 0.12528852E+04</rscale>
<asrwt>0</asrwt>
<pdfrwt beam="1">  1        1 0.16115924E+00 0.12528852E+04</pdfrwt>
<pdfrwt beam="2">  1       -2 0.40508925E+00 0.12528852E+04</pdfrwt>
<totfact> 0.82170736E-02</totfact>
</mgrwt>
</event>
<event>
12    3  0.2422421E-007  0.5737919E+03  0.7818608E-02  0.9961323E-01
         -2   -1    0    0    0  501 -0.00000000000E+00  0.00000000000E+00  0.90686026574E+03  0.90686026574E+03  0.00000000000E+00 0.  1.
          1   -1    0    0  501    0  0.00000000000E+00 -0.00000000000E+00 -0.48044132891E+03  0.48044132891E+03  0.00000000000E+00 0. -1.
        -24    2    1    2    0    0 -0.13639163393E+03  0.44897142070E+03 -0.65448892838E+02  0.48056040759E+03  0.80478154485E+02 0.  0.
    5000000    2    1    2    0    0  0.13639163393E+03 -0.44897142070E+03  0.49186782967E+03  0.90674118707E+03  0.60005633407E+03 0.  0.
        -24    2    4    4    0    0 -0.17545751335E+03 -0.20113654298E+03  0.40423966436E+03  0.49094795097E+03  0.79868244102E+02 0.  0.
         24    2    4    4    0    0  0.31184914728E+03 -0.24783487772E+03  0.87628165312E+02  0.41579323610E+03  0.80828847290E+02 0.  0.
         11    1    3    3    0    0 -0.19217857874E+02  0.12449351628E+03  0.13397552609E+02  0.12667855411E+03  0.00000000000E+00 0. -1.
        -12    1    3    3    0    0 -0.11717377606E+03  0.32447790442E+03 -0.78846445447E+02  0.35388185347E+03  0.00000000000E+00 0.  1.
         13    1    5    5    0    0 -0.18081340957E+03 -0.20277718127E+03  0.38717050080E+03  0.47298316145E+03  0.00000000000E+00 0. -1.
        -14    1    5    5    0    0  0.53558962207E+01  0.16406382877E+01  0.17069163551E+02  0.17964789524E+02  0.00000000000E+00 0.  1.
          2    1    6    6  502    0  0.93807050729E+02 -0.58362933018E+02 -0.98674725136E+01  0.11092051988E+03  0.00000000000E+00 0. -1.
         -1    1    6    6    0  502  0.21804209655E+03 -0.18947194471E+03  0.97495637826E+02  0.30487271622E+03  0.00000000000E+00 0.  1.
<mgrwt>
<rscale>  0 0.57379190E+03</rscale>
<asrwt>0</asrwt>
<pdfrwt beam="1">  1        1 0.73914051E-01 0.57379190E+03</pdfrwt>
<pdfrwt beam="2">  1       -2 0.13951696E+00 0.57379190E+03</pdfrwt>
<totfact> 0.15403820E+01</totfact>
</mgrwt>
</event>
<event>
12    3  0.2422421E-007  0.1110739E+04  0.7818608E-02  0.9194788E-01
          1   -1    0    0  501    0  0.00000000000E+00  0.00000000000E+00  0.14323808051E+04  0.14323808051E+04  0.00000000000E+00 0. -1.
         -2   -1    0    0    0  501 -0.00000000000E+00 -0.00000000000E+00 -0.94583394806E+03  0.94583394806E+03  0.00000000000E+00 0.  1.
        -24    2    1    2    0    0 -0.87366887129E+03 -0.64334405149E+03  0.24129128331E+03  0.11143776375E+04  0.80169635003E+02 0.  0.
    5000000    2    1    2    0    0  0.87366887129E+03  0.64334405149E+03  0.24525557374E+03  0.12638371156E+04  0.59995424255E+03 0.  0.
        -24    2    4    4    0    0  0.36460685402E+03  0.92576480039E+02  0.32767669627E+03  0.50511696322E+03  0.79136379750E+02 0.  0.
         24    2    4    4    0    0  0.50906201728E+03  0.55076757145E+03 -0.82421122525E+02  0.75872015242E+03  0.79837165878E+02 0.  0.
         13    1    3    3    0    0 -0.34988992425E+03 -0.24585790022E+03  0.56281935968E+02  0.43131974510E+03  0.00000000000E+00 0. -1.
        -14    1    3    3    0    0 -0.52377894704E+03 -0.39748615127E+03  0.18500934735E+03  0.68305789243E+03  0.00000000000E+00 0.  1.
         13    1    5    5    0    0  0.90046501913E+02  0.53753895077E+02  0.11515696474E+03  0.15575294627E+03  0.00000000000E+00 0. -1.
        -14    1    5    5    0    0  0.27456035211E+03  0.38822584961E+02  0.21251973153E+03  0.34936401695E+03  0.00000000000E+00 0.  1.
          4    1    6    6  502    0  0.21291617291E+03  0.28859483961E+03 -0.44443324792E+02  0.36137997627E+03  0.00000000000E+00 0. -1.
         -3    1    6    6    0  502  0.29614584437E+03  0.26217273184E+03 -0.37977797733E+02  0.39734017614E+03  0.00000000000E+00 0.  1.
<mgrwt>
<rscale>  0 0.11107386E+04</rscale>
<asrwt>0</asrwt>
<pdfrwt beam="1">  1        1 0.22036628E+00 0.11107386E+04</pdfrwt>
<pdfrwt beam="2">  1       -2 0.14551292E+00 0.11107386E+04</pdfrwt>
<totfact> 0.20457089E+00</totfact>
</mgrwt>
</event>
<event>
12    3  0.2422421E-007  0.1303558E+04  0.7818608E-02  0.9026748E-01
         -2   -1    0    0    0  501 -0.00000000000E+00  0.00000000000E+00  0.13440204093E+04  0.13440204093E+04  0.00000000000E+00 0.  1.
          1   -1    0    0  501    0  0.00000000000E+00 -0.00000000000E+00 -0.15913996836E+04  0.15913996836E+04  0.00000000000E+00 0. -1.
        -24    2    1    2    0    0 -0.10161110066E+04 -0.70751605216E+03  0.53698236320E+03  0.13519461604E+04  0.79673210104E+02 0.  0.
    5000000    2    1    2    0    0  0.10161110066E+04  0.70751605216E+03 -0.78436163753E+03  0.15834739325E+04  0.59925451564E+03 0.  0.
        -24    2    4    4    0    0  0.37709799418E+03  0.60918781540E+03 -0.46532206037E+03  0.85782191191E+03  0.77595882906E+02 0.  0.
         24    2    4    4    0    0  0.63901301243E+03  0.98328236763E+02 -0.31903957716E+03  0.72565202054E+03  0.82331834213E+02 0.  0.
         13    1    3    3    0    0 -0.48315828605E+03 -0.37144884302E+03  0.29407672327E+03  0.67668108554E+03  0.00000000000E+00 0. -1.
        -14    1    3    3    0    0 -0.53295272057E+03 -0.33606720914E+03  0.24290563994E+03  0.67526507486E+03  0.00000000000E+00 0.  1.
         13    1    5    5    0    0  0.64246988981E+02  0.16443105456E+03 -0.12553724312E+03  0.21662143640E+03  0.00000000000E+00 0. -1.
        -14    1    5    5    0    0  0.31285100520E+03  0.44475676084E+03 -0.33978481725E+03  0.64120047552E+03  0.00000000000E+00 0.  1.
          2    1    6    6  502    0  0.32462685494E+03  0.33935808946E+02 -0.20316005031E+03  0.38445837242E+03  0.00000000000E+00 0. -1.
         -1    1    6    6    0  502  0.31438615749E+03  0.64392427817E+02 -0.11587952685E+03  0.34119364813E+03  0.00000000000E+00 0.  1.
<mgrwt>
<rscale>  0 0.13035583E+04</rscale>
<asrwt>0</asrwt>
<pdfrwt beam="1">  1        1 0.24483072E+00 0.13035583E+04</pdfrwt>
<pdfrwt beam="2">  1       -2 0.20677237E+00 0.13035583E+04</pdfrwt>
<totfact> 0.57357435E-01</totfact>
</mgrwt>
</event>
<event>
12    3  0.2422421E-007  0.6998416E+03  0.7818608E-02  0.9717503E-01
          1   -1    0    0  501    0  0.00000000000E+00  0.00000000000E+00  0.14563727650E+04  0.14563727650E+04  0.00000000000E+00 0. -1.
         -2   -1    0    0    0  501 -0.00000000000E+00 -0.00000000000E+00 -0.35464722572E+03  0.35464722572E+03  0.00000000000E+00 0.  1.
        -24    2    1    2    0    0 -0.58600569719E+03  0.69974265689E+02  0.47036530156E+03  0.75892425722E+03  0.80146342969E+02 0.  0.
    5000000    2    1    2    0    0  0.58600569719E+03 -0.69974265689E+02  0.63136023777E+03  0.10520957335E+04  0.59999217304E+03 0.  0.
        -24    2    4    4    0    0 -0.54384514887E+02 -0.13024057957E+03  0.25548961257E+03  0.30273371189E+03  0.80327293965E+02 0.  0.
         24    2    4    4    0    0  0.64039021208E+03  0.60266313886E+02  0.37587062520E+03  0.74936202165E+03  0.80827348708E+02 0.  0.
         11    1    5    5    0    0 -0.71366574213E+02 -0.12613053903E+03  0.22737552682E+03  0.26963258518E+03  0.00000000000E+00 0. -1.
        -12    1    5    5    0    0  0.16982059326E+02 -0.41100405421E+01  0.28114085745E+02  0.33101126710E+02  0.00000000000E+00 0.  1.
         13    1    3    3    0    0 -0.49759677196E+03  0.55769616297E+02  0.43273845287E+03  0.66179707325E+03  0.00000000000E+00 0. -1.
        -14    1    3    3    0    0 -0.88408925225E+02  0.14204649392E+02  0.37626848690E+02  0.97127183971E+02  0.00000000000E+00 0.  1.
          2    1    6    6  502    0  0.44360408997E+03  0.74154033725E+02  0.23962603501E+03  0.50961166197E+03  0.00000000000E+00 0. -1.
         -1    1    6    6    0  502  0.19678612210E+03 -0.13887719839E+02  0.13624459019E+03  0.23975035969E+03  0.00000000000E+00 0.  1.
<mgrwt>
<rscale>  0 0.69984164E+03</rscale>
<asrwt>0</asrwt>
<pdfrwt beam="1">  1        1 0.22405734E+00 0.69984164E+03</pdfrwt>
<pdfrwt beam="2">  1       -2 0.54561113E-01 0.69984164E+03</pdfrwt>
<totfact> 0.20166303E+01</totfact>
</mgrwt>
</event>
<event>
12    3  0.2422421E-007  0.7036449E+03  0.7818608E-02  0.9711019E-01
         -2   -1    0    0    0  501 -0.00000000000E+00  0.00000000000E+00  0.81518490794E+03  0.81518490794E+03  0.00000000000E+00 0.  1.
          1   -1    0    0  501    0  0.00000000000E+00 -0.00000000000E+00 -0.79075128799E+03  0.79075128799E+03  0.00000000000E+00 0. -1.
        -24    2    1    2    0    0  0.64031900311E+03 -0.10683762152E+03 -0.21780667598E+03  0.68935939795E+03  0.79711531947E+02 0.  0.
    5000000    2    1    2    0    0 -0.64031900311E+03  0.10683762152E+03  0.24224029592E+03  0.91657679798E+03  0.60000830205E+03 0.  0.
        -24    2    4    4    0    0 -0.50207848021E+03 -0.87494328029E+02 -0.65014989021E+02  0.51976255564E+03  0.78664526395E+02 0.  0.
         24    2    4    4    0    0 -0.13824052289E+03  0.19433194955E+03  0.30725528494E+03  0.39681424235E+03  0.78615418467E+02 0.  0.
         11    1    3    3    0    0  0.48005729750E+03 -0.11313746181E+03 -0.15325454568E+03  0.51647076385E+03  0.00000000000E+00 0. -1.
        -12    1    3    3    0    0  0.16026170561E+03  0.62998402859E+01 -0.64552130296E+02  0.17288863409E+03  0.00000000000E+00 0.  1.
         13    1    5    5    0    0 -0.46127970618E+03 -0.82322901225E+02 -0.81228571434E+02  0.47555662988E+03  0.00000000000E+00 0. -1.
        -14    1    5    5    0    0 -0.40798774030E+02 -0.51714268038E+01  0.16213582413E+02  0.44205925758E+02  0.00000000000E+00 0.  1.
          4    1    6    6  502    0 -0.59112869964E+02  0.12708060182E+03  0.12883709801E+03  0.19037544111E+03  0.00000000000E+00 0. -1.
         -3    1    6    6    0  502 -0.79127652928E+02  0.67251347734E+02  0.17841818693E+03  0.20643880124E+03  0.00000000000E+00 0.  1.
<mgrwt>
<rscale>  0 0.70364491E+03</rscale>
<asrwt>0</asrwt>
<pdfrwt beam="1">  1        1 0.12165404E+00 0.70364491E+03</pdfrwt>
<pdfrwt beam="2">  1       -2 0.12541306E+00 0.70364491E+03</pdfrwt>
<totfact> 0.96406511E+00</totfact>
</mgrwt>
</event>
<event>
12    3  0.2422421E-007  0.4622382E+03  0.7818608E-02  0.1024134E+00
          1   -1    0    0  501    0  0.00000000000E+00  0.00000000000E+00  0.82244385837E+03  0.82244385837E+03  0.00000000000E+00 0. -1.
         -2   -1    0    0    0  501 -0.00000000000E+00 -0.00000000000E+00 -0.29004151741E+03  0.29004151741E+03  0.00000000000E+00 0.  1.
        -24    2    1    2    0    0 -0.25145619639E+03  0.12114554933E+03  0.53216100413E+02  0.29542843731E+03  0.80867455767E+02 0.  0.
    5000000    2    1    2    0    0  0.25145619639E+03 -0.12114554933E+03  0.47918624055E+03  0.81705693847E+03  0.60004676880E+03 0.  0.
        -24    2    4    4    0    0  0.41946748855E+03 -0.17508580123E+03  0.28418060301E+03  0.54179263606E+03  0.78566109848E+02 0.  0.
         24    2    4    4    0    0 -0.16801129216E+03  0.53940251906E+02  0.19500563754E+03  0.27526430241E+03  0.81276641413E+02 0.  0.
         11    1    5    5    0    0  0.25232749505E+03 -0.96777561048E+02  0.12373202610E+03  0.29722832194E+03  0.00000000000E+00 0. -1.
        -12    1    5    5    0    0  0.16713999350E+03 -0.78308240185E+02  0.16044857691E+03  0.24456431412E+03  0.00000000000E+00 0.  1.
         13    1    3    3    0    0 -0.30455286616E+01  0.20521519429E+02  0.12811060890E+02  0.24383012235E+02  0.00000000000E+00 0. -1.
        -14    1    3    3    0    0 -0.24841066773E+03  0.10062402990E+03  0.40405039523E+02  0.27104542507E+03  0.00000000000E+00 0.  1.
          2    1    6    6  502    0 -0.18255709278E+02 -0.65245928192E+01 -0.31394407860E+01  0.19639178219E+02  0.00000000000E+00 0. -1.
         -1    1    6    6    0  502 -0.14975558289E+03  0.60464844726E+02  0.19814507833E+03  0.25562512419E+03  0.00000000000E+00 0.  1.
<mgrwt>
<rscale>  0 0.46223818E+03</rscale>
<asrwt>0</asrwt>
<pdfrwt beam="1">  1        1 0.12652982E+00 0.46223818E+03</pdfrwt>
<pdfrwt beam="2">  1       -2 0.44621772E-01 0.46223818E+03</pdfrwt>
<totfact> 0.92067647E+01</totfact>
</mgrwt>
</event>
<event>
12    3  0.2422421E-007  0.3699119E+03  0.7818608E-02  0.1054727E+00
          1   -1    0    0  501    0  0.00000000000E+00  0.00000000000E+00  0.29324852846E+03  0.29324852846E+03  0.00000000000E+00 0. -1.
         -2   -1    0    0    0  501 -0.00000000000E+00 -0.00000000000E+00 -0.95961728234E+03  0.95961728234E+03  0.00000000000E+00 0.  1.
        -24    2    1    2    0    0  0.18751073566E+03  0.19791669832E+03  0.44109015000E+02  0.28372108518E+03  0.64967326504E+02 0.  0.
    5000000    2    1    2    0    0 -0.18751073566E+03 -0.19791669832E+03 -0.71047776889E+03  0.96914472561E+03  0.60010960969E+03 0.  0.
        -24    2    4    4    0    0 -0.27342546901E+03 -0.46919182293E+02 -0.65111201931E+02  0.29600855874E+03  0.80116798845E+02 0.  0.
         24    2    4    4    0    0  0.85914733359E+02 -0.15099751603E+03 -0.64536656695E+03  0.67313616687E+03  0.80204128035E+02 0.  0.
         11    1    5    5    0    0 -0.23460803542E+03 -0.18513145160E+02 -0.74805804345E+02  0.24694042843E+03  0.00000000000E+00 0. -1.
        -12    1    5    5    0    0 -0.38817433590E+02 -0.28406037133E+02  0.96946024139E+01  0.49068130310E+02  0.00000000000E+00 0.  1.
         13    1    3    3    0    0  0.43313799861E+02  0.49192254911E+02  0.39484781847E+02  0.76518044925E+02  0.00000000000E+00 0. -1.
        -14    1    3    3    0    0  0.14419693579E+03  0.14872444341E+03  0.46242331530E+01  0.20720304026E+03  0.00000000000E+00 0.  1.
          2    1    6    6  502    0  0.92788293069E+02 -0.11866525015E+03 -0.58739935914E+03  0.60640672493E+03  0.00000000000E+00 0. -1.
         -1    1    6    6    0  502 -0.68735597099E+01 -0.32332265880E+02 -0.57967207818E+02  0.66729441944E+02  0.00000000000E+00 0.  1.
<mgrwt>
<rscale>  0 0.36991189E+03</rscale>
<asrwt>0</asrwt>
<pdfrwt beam="1">  1        1 0.45115158E-01 0.36991189E+03</pdfrwt>
<pdfrwt beam="2">  1       -2 0.14763343E+00 0.36991189E+03</pdfrwt>
<totfact> 0.26031134E+01</totfact>
</mgrwt>
</event>
<event>
12    3  0.2422421E-007  0.5246071E+03  0.7818608E-02  0.1007548E+00
         -2   -1    0    0    0  501 -0.00000000000E+00  0.00000000000E+00  0.95611481321E+03  0.95611481321E+03  0.00000000000E+00 0.  1.
          1   -1    0    0  501    0  0.00000000000E+00 -0.00000000000E+00 -0.33124924013E+03  0.33124924013E+03  0.00000000000E+00 0. -1.
        -24    2    1    2    0    0  0.49534260841E+02  0.36507534258E+03  0.39669087017E+03  0.54745058617E+03  0.81270222501E+02 0.  0.
    5000000    2    1    2    0    0 -0.49534260841E+02 -0.36507534258E+03  0.22817470291E+03  0.73991346718E+03  0.59972876794E+03 0.  0.
        -24    2    4    4    0    0  0.25185917535E+03 -0.13711152982E+03  0.18498256025E+03  0.35028804349E+03  0.79060419906E+02 0.  0.
         24    2    4    4    0    0 -0.30139343619E+03 -0.22796381276E+03  0.43192142662E+02  0.38962542369E+03  0.84480212422E+02 0.  0.
         13    1    5    5    0    0  0.18557388140E+03 -0.58460088068E+02  0.12369486694E+03  0.23055512891E+03  0.00000000000E+00 0. -1.
        -14    1    5    5    0    0  0.66285293944E+02 -0.78651441755E+02  0.61287693306E+02  0.11973291458E+03  0.00000000000E+00 0.  1.
         13    1    3    3    0    0  0.37528807305E+02  0.32067032756E+03  0.30158515379E+03  0.44180479325E+03  0.00000000000E+00 0. -1.
        -14    1    3    3    0    0  0.12005453537E+02  0.44405015026E+02  0.95105716375E+02  0.10564579292E+03  0.00000000000E+00 0.  1.
          4    1    6    6  502    0 -0.23048040739E+03 -0.13894533709E+03  0.36709070530E+01  0.26914772978E+03  0.00000000000E+00 0. -1.
         -3    1    6    6    0  502 -0.70913028799E+02 -0.89018475675E+02  0.39521235609E+02  0.12047769391E+03  0.00000000000E+00 0.  1.
<mgrwt>
<rscale>  0 0.52460714E+03</rscale>
<asrwt>0</asrwt>
<pdfrwt beam="1">  1        1 0.50961422E-01 0.52460714E+03</pdfrwt>
<pdfrwt beam="2">  1       -2 0.14709459E+00 0.52460714E+03</pdfrwt>
<totfact> 0.22044678E+01</totfact>
</mgrwt>
</event>
<event>
12    3  0.2422421E-007  0.1174235E+04  0.7818608E-02  0.9135713E-01
         -2   -1    0    0    0  501 -0.00000000000E+00  0.00000000000E+00  0.15818291345E+04  0.15818291345E+04  0.00000000000E+00 0.  1.
          1   -1    0    0  501    0  0.00000000000E+00 -0.00000000000E+00 -0.96176526632E+03  0.96176526632E+03  0.00000000000E+00 0. -1.
        -24    2    1    2    0    0 -0.91888847268E+03  0.70622718116E+03  0.29085794009E+03  0.11975926706E+04  0.80727980249E+02 0.  0.
    5000000    2    1    2    0    0  0.91888847268E+03 -0.70622718116E+03  0.32920592808E+03  0.13460017302E+04  0.60019268401E+03 0.  0.
        -24    2    4    4    0    0  0.84074455811E+03 -0.57050578007E+03  0.46829993424E+03  0.11217089850E+04  0.81227837703E+02 0.  0.
         24    2    4    4    0    0  0.78143914572E+02 -0.13572140110E+03 -0.13909400616E+03  0.22429274515E+03  0.80207997584E+02 0.  0.
         11    1    5    5    0    0  0.58220406068E+03 -0.39276155973E+03  0.28185880918E+03  0.75674804221E+03  0.00000000000E+00 0. -1.
        -12    1    5    5    0    0  0.25854049743E+03 -0.17774422033E+03  0.18644112507E+03  0.36496094282E+03  0.00000000000E+00 0.  1.
         13    1    3    3    0    0 -0.56019173361E+03  0.40987176793E+03  0.13688852322E+03  0.70749424898E+03  0.00000000000E+00 0. -1.
        -14    1    3    3    0    0 -0.35869673907E+03  0.29635541323E+03  0.15396941687E+03  0.49009842165E+03  0.00000000000E+00 0.  1.
          2    1    6    6  502    0  0.60107829014E+02 -0.32698745435E+02 -0.35516226870E+02  0.77094496774E+02  0.00000000000E+00 0. -1.
         -1    1    6    6    0  502  0.18036085559E+02 -0.10302265566E+03 -0.10357777929E+03  0.14719824838E+03  0.00000000000E+00 0.  1.
<mgrwt>
<rscale>  0 0.11742348E+04</rscale>
<asrwt>0</asrwt>
<pdfrwt beam="1">  1        1 0.14796389E+00 0.11742348E+04</pdfrwt>
<pdfrwt beam="2">  1       -2 0.24335833E+00 0.11742348E+04</pdfrwt>
<totfact> 0.98385208E-01</totfact>
</mgrwt>
</event>
<event>
12    3  0.2724758E-007  0.8189696E+03  0.7818608E-02  0.9532958E-01
          1   -1    0    0  501    0  0.00000000000E+00  0.00000000000E+00  0.18370099775E+04  0.18370099775E+04  0.00000000000E+00 0. -1.
         -2   -1    0    0    0  501 -0.00000000000E+00 -0.00000000000E+00 -0.47257073591E+03  0.47257073591E+03  0.00000000000E+00 0.  1.
        -24    2    1    2    0    0 -0.75820280238E+03 -0.26991325384E+03  0.87928518828E+03  0.11946353273E+04  0.79287255370E+02 0.  0.
    5000000    2    1    2    0    0  0.75820280238E+03  0.26991325384E+03  0.48515405330E+03  0.11149453861E+04  0.60000342027E+03 0.  0.
        -24    2    4    4    0    0  0.36370138551E+03  0.19190351495E+03  0.55833164522E+03  0.69849157133E+03  0.83967805113E+02 0.  0.
         24    2    4    4    0    0  0.39450141687E+03  0.78009738891E+02 -0.73177591918E+02  0.41645381473E+03  0.79761723730E+02 0.  0.
         13    1    5    5    0    0  0.34329254156E+02  0.50756261336E+02  0.76432255706E+02  0.97962163451E+02  0.00000000000E+00 0. -1.
        -14    1    5    5    0    0  0.32937213136E+03  0.14114725361E+03  0.48189938951E+03  0.60052940788E+03  0.00000000000E+00 0.  1.
         13    1    3    3    0    0 -0.43634067899E+03 -0.11530120137E+03  0.47416033545E+03  0.65461101342E+03  0.00000000000E+00 0. -1.
        -14    1    3    3    0    0 -0.32186212339E+03 -0.15461205247E+03  0.40512485283E+03  0.54002431392E+03  0.00000000000E+00 0.  1.
          2    1    6    6  502    0  0.13297084359E+03  0.65183083488E+02 -0.29272281276E+02  0.15095345663E+03  0.00000000000E+00 0. -1.
         -1    1    6    6    0  502  0.26153057328E+03  0.12826655403E+02 -0.43905310642E+02  0.26550035810E+03  0.00000000000E+00 0.  1.
<mgrwt>
<rscale>  0 0.81896956E+03</rscale>
<asrwt>0</asrwt>
<pdfrwt beam="1">  1        1 0.28261692E+00 0.81896956E+03</pdfrwt>
<pdfrwt beam="2">  1       -2 0.72703191E-01 0.81896956E+03</pdfrwt>
<totfact> 0.59415292E+00</totfact>
</mgrwt>
</event>
<event>
12    3  0.2422421E-007  0.5406504E+03  0.7818608E-02  0.1003681E+00
          1   -1    0    0  501    0  0.00000000000E+00  0.00000000000E+00  0.87160367214E+03  0.87160367214E+03  0.00000000000E+00 0. -1.
         -2   -1    0    0    0  501 -0.00000000000E+00 -0.00000000000E+00 -0.44465927476E+03  0.44465927476E+03  0.00000000000E+00 0.  1.
        -24    2    1    2    0    0 -0.43751104281E+03  0.17251434670E+03  0.22622897987E+03  0.52791884497E+03  0.79634434365E+02 0.  0.
    5000000    2    1    2    0    0  0.43751104281E+03 -0.17251434670E+03  0.20071541751E+03  0.78834410193E+03  0.60001885956E+03 0.  0.
        -24    2    4    4    0    0 -0.13453813104E+02  0.49100526687E+02 -0.14443314301E+03  0.17345661755E+03  0.81451817441E+02 0.  0.
         24    2    4    4    0    0  0.45096485592E+03 -0.22161487338E+03  0.34514856052E+03  0.61488748438E+03  0.80477551133E+02 0.  0.
         13    1    5    5    0    0  0.24189241524E+02 -0.97690641808E+01 -0.35980987816E+02  0.44443059129E+02  0.00000000000E+00 0. -1.
        -14    1    5    5    0    0 -0.37643054628E+02  0.58869590868E+02 -0.10845215519E+03  0.12901355842E+03  0.00000000000E+00 0.  1.
         13    1    3    3    0    0 -0.32455491207E+03  0.90378060531E+02  0.16997444765E+03  0.37735314711E+03  0.00000000000E+00 0. -1.
        -14    1    3    3    0    0 -0.11295613074E+03  0.82136286166E+02  0.56254532225E+02  0.15056569786E+03  0.00000000000E+00 0.  1.
          2    1    6    6  502    0  0.38555900338E+03 -0.21877654144E+03  0.29643308177E+03  0.53328368824E+03  0.00000000000E+00 0. -1.
         -1    1    6    6    0  502  0.65405852539E+02 -0.28383319414E+01  0.48715478755E+02  0.81603796143E+02  0.00000000000E+00 0.  1.
<mgrwt>
<rscale>  0 0.54065040E+03</rscale>
<asrwt>0</asrwt>
<pdfrwt beam="1">  1        1 0.13409287E+00 0.54065040E+03</pdfrwt>
<pdfrwt beam="2">  1       -2 0.68409119E-01 0.54065040E+03</pdfrwt>
<totfact> 0.34354014E+01</totfact>
</mgrwt>
</event>
<event>
12    3  0.2422421E-007  0.5402909E+03  0.7818608E-02  0.1003767E+00
          1   -1    0    0  501    0  0.00000000000E+00  0.00000000000E+00  0.22478403777E+04  0.22478403777E+04  0.00000000000E+00 0. -1.
         -2   -1    0    0    0  501 -0.00000000000E+00 -0.00000000000E+00 -0.15917180285E+03  0.15917180285E+03  0.00000000000E+00 0.  1.
        -24    2    1    2    0    0  0.35350129726E+02  0.38817590592E+03  0.12106030437E+04  0.12744123736E+04  0.81467802509E+02 0.  0.
    5000000    2    1    2    0    0 -0.35350129726E+02 -0.38817590592E+03  0.87806553117E+03  0.11325998070E+04  0.59987755435E+03 0.  0.
        -24    2    4    4    0    0 -0.29210674892E+03 -0.16418073131E+03  0.56826483346E+03  0.66464613658E+03  0.80919099272E+02 0.  0.
         24    2    4    4    0    0  0.25675661920E+03 -0.22399517461E+03  0.30980069771E+03  0.46795367043E+03  0.83104546306E+02 0.  0.
         11    1    3    3    0    0  0.26735260666E+02  0.24507786100E+03  0.63373877213E+03  0.68000203192E+03  0.00000000000E+00 0. -1.
        -12    1    3    3    0    0  0.86148690600E+01  0.14309804493E+03  0.57686427157E+03  0.59441034163E+03  0.00000000000E+00 0.  1.
         13    1    5    5    0    0 -0.13780900486E+03 -0.11646277334E+03  0.25755398947E+03  0.31446614586E+03  0.00000000000E+00 0. -1.
        -14    1    5    5    0    0 -0.15429774406E+03 -0.47717957969E+02  0.31071084399E+03  0.35017999073E+03  0.00000000000E+00 0.  1.
          4    1    6    6  502    0  0.17556238075E+03 -0.19537068763E+03  0.25381485055E+03  0.36525858440E+03  0.00000000000E+00 0. -1.
         -3    1    6    6    0  502  0.81194238449E+02 -0.28624486982E+02  0.55985847159E+02  0.10269508603E+03  0.00000000000E+00 0.  1.
<mgrwt>
<rscale>  0 0.54029089E+03</rscale>
<asrwt>0</asrwt>
<pdfrwt beam="1">  1        1 0.34582157E+00 0.54029089E+03</pdfrwt>
<pdfrwt beam="2">  1       -2 0.24487971E-01 0.54029089E+03</pdfrwt>
<totfact> 0.28378646E+01</totfact>
</mgrwt>
</event>
<event>
12    3  0.2422421E-007  0.5286578E+03  0.7818608E-02  0.1006558E+00
         -2   -1    0    0    0  501 -0.00000000000E+00  0.00000000000E+00  0.13650535741E+04  0.13650535741E+04  0.00000000000E+00 0.  1.
          1   -1    0    0  501    0  0.00000000000E+00 -0.00000000000E+00 -0.35209857923E+03  0.35209857923E+03  0.00000000000E+00 0. -1.
        -24    2    1    2    0    0 -0.19190108770E+03  0.48039297362E+03  0.14721753606E+03  0.54363026438E+03  0.79103886526E+02 0.  0.
    5000000    2    1    2    0    0  0.19190108770E+03 -0.48039297362E+03  0.86573745884E+03  0.11735218890E+04  0.60004069838E+03 0.  0.
        -24    2    4    4    0    0  0.11596101566E+03 -0.32548747065E+03  0.91137237394E+03  0.97784028404E+03  0.78631841000E+02 0.  0.
         24    2    4    4    0    0  0.75940072041E+02 -0.15490550297E+03 -0.45634915093E+02  0.19568160494E+03  0.80287829987E+02 0.  0.
         11    1    5    5    0    0  0.45960450223E+02 -0.11380607577E+03  0.22686369157E+03  0.25793665971E+03  0.00000000000E+00 0. -1.
        -12    1    5    5    0    0  0.70000565434E+02 -0.21168139488E+03  0.68450868236E+03  0.71990362433E+03  0.00000000000E+00 0.  1.
         13    1    3    3    0    0 -0.15196303877E+03  0.27805010698E+03  0.81751789485E+02  0.32724300180E+03  0.00000000000E+00 0. -1.
        -14    1    3    3    0    0 -0.39938048930E+02  0.20234286664E+03  0.65465746580E+02  0.21638726258E+03  0.00000000000E+00 0.  1.
          4    1    6    6  502    0  0.75448896969E+02 -0.67899478119E+02 -0.37835051663E+02  0.10832528014E+03  0.00000000000E+00 0. -1.
         -3    1    6    6    0  502  0.49117507205E+00 -0.87006024848E+02 -0.77998634293E+01  0.87356324798E+02  0.00000000000E+00 0.  1.
<mgrwt>
<rscale>  0 0.52865782E+03</rscale>
<asrwt>0</asrwt>
<pdfrwt beam="1">  1        1 0.54169013E-01 0.52865782E+03</pdfrwt>
<pdfrwt beam="2">  1       -2 0.21000824E+00 0.52865782E+03</pdfrwt>
<totfact> 0.74987150E+00</totfact>
</mgrwt>
</event>
<event>
12    3  0.2422421E-007  0.1052744E+04  0.7818608E-02  0.9252516E-01
         -2   -1    0    0    0  501 -0.00000000000E+00  0.00000000000E+00  0.41303408706E+03  0.41303408706E+03  0.00000000000E+00 0.  1.
          1   -1    0    0  501    0  0.00000000000E+00 -0.00000000000E+00 -0.36419535527E+04  0.36419535527E+04  0.00000000000E+00 0. -1.
        -24    2    1    2    0    0  0.91676610009E+03 -0.35762778651E+03 -0.53061110381E+03  0.11208526430E+04  0.80029918489E+02 0.  0.
    5000000    2    1    2    0    0 -0.91676610009E+03  0.35762778651E+03 -0.26983083618E+04  0.29341349968E+04  0.59993536969E+03 0.  0.
        -24    2    4    4    0    0 -0.11601968234E+03  0.27832054628E+03 -0.10948679580E+04  0.11383389892E+04  0.78466016108E+02 0.  0.
         24    2    4    4    0    0 -0.80074641775E+03  0.79307240234E+02 -0.16034404038E+04  0.17957960076E+04  0.79860555534E+02 0.  0.
         13    1    3    3    0    0  0.72148095793E+03 -0.25231981483E+03 -0.38880057630E+03  0.85753480964E+03  0.00000000000E+00 0. -1.
        -14    1    3    3    0    0  0.19528514216E+03 -0.10530797168E+03 -0.14181052752E+03  0.26331783336E+03  0.00000000000E+00 0.  1.
         13    1    5    5    0    0 -0.12798425601E+03  0.25094337273E+03 -0.99135607455E+03  0.10306014810E+04  0.00000000000E+00 0. -1.
        -14    1    5    5    0    0  0.11964573666E+02  0.27377173546E+02 -0.10351188343E+03  0.10773750816E+03  0.00000000000E+00 0.  1.
          2    1    6    6  502    0 -0.58383994746E+03  0.89036087419E+02 -0.12092118062E+04  0.13457301740E+04  0.00000000000E+00 0. -1.
         -1    1    6    6    0  502 -0.21690647029E+03 -0.97288471846E+01 -0.39422859768E+03  0.45006583357E+03  0.00000000000E+00 0.  1.
<mgrwt>
<rscale>  0 0.10527435E+04</rscale>
<asrwt>0</asrwt>
<pdfrwt beam="1">  1        1 0.56030054E+00 0.10527435E+04</pdfrwt>
<pdfrwt beam="2">  1       -2 0.63543706E-01 0.10527435E+04</pdfrwt>
<totfact> 0.39937737E-01</totfact>
</mgrwt>
</event>
<event>
12    3  0.2422421E-007  0.7217742E+03  0.7818608E-02  0.9680703E-01
          1   -1    0    0  501    0  0.00000000000E+00  0.00000000000E+00  0.23026115352E+04  0.23026115352E+04  0.00000000000E+00 0. -1.
         -2   -1    0    0    0  501 -0.00000000000E+00 -0.00000000000E+00 -0.63155698020E+03  0.63155698020E+03  0.00000000000E+00 0.  1.
        -24    2    1    2    0    0 -0.66964885390E+02 -0.63023900831E+03 -0.35361871957E+03  0.72944231331E+03  0.73173671155E+02 0.  0.
    5000000    2    1    2    0    0  0.66964885390E+02  0.63023900831E+03  0.20246732746E+04  0.22047262021E+04  0.59985852824E+03 0.  0.
        -24    2    4    4    0    0 -0.20934717401E+03  0.24989689740E+03  0.12576991330E+04  0.13015933482E+04  0.77868070105E+02 0.  0.
         24    2    4    4    0    0  0.27631205940E+03  0.38034211091E+03  0.76697414162E+03  0.90313285392E+03  0.79944620965E+02 0.  0.
         11    1    3    3    0    0 -0.22723468931E+02 -0.40391662634E+03 -0.19175571864E+03  0.44769995835E+03  0.00000000000E+00 0. -1.
        -12    1    3    3    0    0 -0.44241416459E+02 -0.22632238197E+03 -0.16186300093E+03  0.28174235496E+03  0.00000000000E+00 0.  1.
         13    1    5    5    0    0 -0.20464445736E+03  0.20749038281E+03  0.11289475933E+04  0.11659563806E+04  0.00000000000E+00 0. -1.
        -14    1    5    5    0    0 -0.47027166521E+01  0.42406514588E+02  0.12875153962E+03  0.13563696760E+03  0.00000000000E+00 0.  1.
          4    1    6    6  502    0  0.26899049438E+03  0.34125654424E+03  0.67294776683E+03  0.80104345196E+03  0.00000000000E+00 0. -1.
         -3    1    6    6    0  502  0.73215650192E+01  0.39085566671E+02  0.94026374789E+02  0.10208940196E+03  0.00000000000E+00 0.  1.
<mgrwt>
<rscale>  0 0.72177419E+03</rscale>
<asrwt>0</asrwt>
<pdfrwt beam="1">  1        1 0.35424792E+00 0.72177419E+03</pdfrwt>
<pdfrwt beam="2">  1       -2 0.97162613E-01 0.72177419E+03</pdfrwt>
<totfact> 0.15218243E+00</totfact>
</mgrwt>
</event>
<event>
12    3  0.2422421E-007  0.1496873E+04  0.7818608E-02  0.8886535E-01
         -2   -1    0    0    0  501 -0.00000000000E+00  0.00000000000E+00  0.18059186317E+04  0.18059186317E+04  0.00000000000E+00 0.  1.
          1   -1    0    0  501    0  0.00000000000E+00 -0.00000000000E+00 -0.13919187383E+04  0.13919187383E+04  0.00000000000E+00 0. -1.
        -24    2    1    2    0    0  0.92583697197E+03  0.11208631916E+04  0.67278000904E+03  0.16039234466E+04  0.80181601371E+02 0.  0.
    5000000    2    1    2    0    0 -0.92583697197E+03 -0.11208631916E+04 -0.25878011557E+03  0.15939139234E+04  0.60007170748E+03 0.  0.
        -24    2    4    4    0    0  0.45223374522E+02 -0.16076232618E+03 -0.11713737169E+03  0.21894938431E+03  0.79548663871E+02 0.  0.
         24    2    4    4    0    0 -0.97106034649E+03 -0.96010086539E+03 -0.14164274388E+03  0.13749645391E+04  0.75584049931E+02 0.  0.
         13    1    3    3    0    0  0.37477978262E+03  0.49653956067E+03  0.25602504986E+03  0.67272598205E+03  0.00000000000E+00 0. -1.
        -14    1    3    3    0    0  0.55105718935E+03  0.62432363090E+03  0.41675495918E+03  0.93119746458E+03  0.00000000000E+00 0.  1.
         13    1    5    5    0    0  0.34021846413E+02 -0.45598973449E+02 -0.38588504909E+01  0.57023180726E+02  0.00000000000E+00 0. -1.
        -14    1    5    5    0    0  0.11201528109E+02 -0.11516335273E+03 -0.11327852120E+03  0.16192620359E+03  0.00000000000E+00 0.  1.
          2    1    6    6  502    0 -0.72675900630E+03 -0.69037099256E+03 -0.76970674876E+02  0.10053433470E+04  0.00000000000E+00 0. -1.
         -1    1    6    6    0  502 -0.24430134020E+03 -0.26972987283E+03 -0.64672069009E+02  0.36962119207E+03  0.00000000000E+00 0.  1.
<mgrwt>
<rscale>  0 0.14968733E+04</rscale>
<asrwt>0</asrwt>
<pdfrwt beam="1">  1        1 0.21414134E+00 0.14968733E+04</pdfrwt>
<pdfrwt beam="2">  1       -2 0.27783364E+00 0.14968733E+04</pdfrwt>
<totfact> 0.27962523E-01</totfact>
</mgrwt>
</event>
<event>
12    3  0.2422421E-007  0.4255184E+03  0.7818608E-02  0.1035285E+00
          1   -1    0    0  501    0  0.00000000000E+00  0.00000000000E+00  0.18557459211E+04  0.18557459211E+04  0.00000000000E+00 0. -1.
         -2   -1    0    0    0  501 -0.00000000000E+00 -0.00000000000E+00 -0.10384079787E+03  0.10384079787E+03  0.00000000000E+00 0.  1.
        -24    2    1    2    0    0  0.17590295870E+02 -0.21992928043E+03  0.38706359414E+03  0.45244879457E+03  0.78824989095E+02 0.  0.
    5000000    2    1    2    0    0 -0.17590295870E+02  0.21992928043E+03  0.13648415291E+04  0.15071379244E+04  0.59999501390E+03 0.  0.
        -24    2    4    4    0    0  0.25376391330E+02 -0.19629572047E+03  0.48035201742E+03  0.52547543275E+03  0.78806082768E+02 0.  0.
         24    2    4    4    0    0 -0.42966687201E+02  0.41622500090E+03  0.88448951167E+03  0.98166249163E+03  0.79057976490E+02 0.  0.
         13    1    3    3    0    0  0.13712811596E+02 -0.18295047378E+03  0.36675347115E+03  0.41008173046E+03  0.00000000000E+00 0. -1.
        -14    1    3    3    0    0  0.38774842745E+01 -0.36978806657E+02  0.20310122990E+02  0.42367064118E+02  0.00000000000E+00 0.  1.
         13    1    5    5    0    0 -0.19177382201E+02 -0.70493950560E+02  0.23605295046E+03  0.24709950318E+03  0.00000000000E+00 0. -1.
        -14    1    5    5    0    0  0.44553773531E+02 -0.12580176990E+03  0.24429906696E+03  0.27837592957E+03  0.00000000000E+00 0.  1.
          4    1    6    6  502    0 -0.26853742127E+02  0.45727025697E+02  0.14503081195E+03  0.15442156831E+03  0.00000000000E+00 0. -1.
         -3    1    6    6    0  502 -0.16112945074E+02  0.37049797520E+03  0.73945869972E+03  0.82724092332E+03  0.00000000000E+00 0.  1.
<mgrwt>
<rscale>  0 0.42551837E+03</rscale>
<asrwt>0</asrwt>
<pdfrwt beam="1">  1        1 0.28549935E+00 0.42551837E+03</pdfrwt>
<pdfrwt beam="2">  1       -2 0.15975509E-01 0.42551837E+03</pdfrwt>
<totfact> 0.11041327E+02</totfact>
</mgrwt>
</event>
<event>
12    3  0.2422421E-007  0.5567254E+03  0.7818608E-02  0.9999491E-01
         -2   -1    0    0    0  501 -0.00000000000E+00  0.00000000000E+00  0.10898224259E+04  0.10898224259E+04  0.00000000000E+00 0.  1.
          1   -1    0    0  501    0  0.00000000000E+00 -0.00000000000E+00 -0.53395119244E+03  0.53395119244E+03  0.00000000000E+00 0. -1.
        -24    2    1    2    0    0  0.46054378757E+03 -0.10364287511E+03 -0.22743710271E+03  0.52996952297E+03  0.79357632000E+02 0.  0.
    5000000    2    1    2    0    0 -0.46054378757E+03  0.10364287511E+03  0.78330833616E+03  0.10938040954E+04  0.59999418639E+03 0.  0.
        -24    2    4    4    0    0 -0.51252261634E+03  0.22630889025E+02  0.31092566920E+03  0.60513377389E+03  0.79501717833E+02 0.  0.
         24    2    4    4    0    0  0.51978828775E+02  0.81011986083E+02  0.47238266696E+03  0.48867032147E+03  0.79928458707E+02 0.  0.
         11    1    5    5    0    0 -0.15692827184E+03 -0.24404656931E+02  0.73622751208E+02  0.17504964804E+03  0.00000000000E+00 0. -1.
        -12    1    5    5    0    0 -0.35559434450E+03  0.47035545955E+02  0.23730291799E+03  0.43008412585E+03  0.00000000000E+00 0.  1.
         13    1    3    3    0    0  0.27276956002E+03 -0.54197044786E+02 -0.17593557830E+03  0.32908035531E+03  0.00000000000E+00 0. -1.
        -14    1    3    3    0    0  0.18777422754E+03 -0.49445830321E+02 -0.51501524416E+02  0.20088916766E+03  0.00000000000E+00 0.  1.
          4    1    6    6  502    0 -0.18621133417E+02  0.37270244311E+01  0.10328385714E+03  0.10501520113E+03  0.00000000000E+00 0. -1.
         -1    1    6    6    0  502  0.70599962192E+02  0.77284961652E+02  0.36909880981E+03  0.38365512034E+03  0.00000000000E+00 0.  1.
<mgrwt>
<rscale>  0 0.55672544E+03</rscale>
<asrwt>0</asrwt>
<pdfrwt beam="1">  1        1 0.82146338E-01 0.55672544E+03</pdfrwt>
<pdfrwt beam="2">  1       -2 0.16766499E+00 0.55672544E+03</pdfrwt>
<totfact> 0.82059497E+00</totfact>
</mgrwt>
</event>
<event>
12    3  0.2422421E-007  0.5640496E+03  0.7818608E-02  0.9982933E-01
         -2   -1    0    0    0  501 -0.00000000000E+00  0.00000000000E+00  0.16908333759E+03  0.16908333759E+03  0.00000000000E+00 0.  1.
          1   -1    0    0  501    0  0.00000000000E+00 -0.00000000000E+00 -0.19663910646E+04  0.19663910646E+04  0.00000000000E+00 0. -1.
        -24    2    1    2    0    0  0.19015354225E+03 -0.36621002504E+03 -0.59749806644E+03  0.73199805550E+03  0.92461136628E+02 0.  0.
    5000000    2    1    2    0    0 -0.19015354225E+03  0.36621002504E+03 -0.11998096606E+04  0.14034763467E+04  0.59994539921E+03 0.  0.
        -24    2    4    4    0    0 -0.38881639675E+03  0.28130411194E+03 -0.92125755118E+03  0.10416250967E+04  0.77182723132E+02 0.  0.
         24    2    4    4    0    0  0.19866285450E+03  0.84905913100E+02 -0.27855210939E+03  0.36185124996E+03  0.81664592159E+02 0.  0.
         13    1    3    3    0    0  0.19294957428E+03 -0.30128300134E+03 -0.51152259106E+03  0.62422459602E+03  0.00000000000E+00 0. -1.
        -14    1    3    3    0    0 -0.27960320283E+01 -0.64927023701E+02 -0.85975475389E+02  0.10777345949E+03  0.00000000000E+00 0.  1.
         13    1    5    5    0    0 -0.41390124958E+02  0.61888791214E+02 -0.12196373922E+03  0.14289338196E+03  0.00000000000E+00 0. -1.
        -14    1    5    5    0    0 -0.34742627179E+03  0.21941532073E+03 -0.79929381196E+03  0.89873171477E+03  0.00000000000E+00 0.  1.
          2    1    6    6  502    0  0.11044508304E+03  0.69302472295E+02 -0.21698890905E+03  0.25315042106E+03  0.00000000000E+00 0. -1.
         -1    1    6    6    0  502  0.88217771459E+02  0.15603440805E+02 -0.61563200344E+02  0.10870082890E+03  0.00000000000E+00 0.  1.
<mgrwt>
<rscale>  0 0.56404964E+03</rscale>
<asrwt>0</asrwt>
<pdfrwt beam="1">  1        1 0.30252170E+00 0.56404964E+03</pdfrwt>
<pdfrwt beam="2">  1       -2 0.26012821E-01 0.56404964E+03</pdfrwt>
<totfact> 0.39004226E+01</totfact>
</mgrwt>
</event>
<event>
12    3  0.2422421E-007  0.1152751E+04  0.7818608E-02  0.9155249E-01
          1   -1    0    0  501    0  0.00000000000E+00  0.00000000000E+00  0.54849016157E+03  0.54849016157E+03  0.00000000000E+00 0. -1.
         -2   -1    0    0    0  501 -0.00000000000E+00 -0.00000000000E+00 -0.27188797507E+04  0.27188797507E+04  0.00000000000E+00 0.  1.
        -24    2    1    2    0    0  0.59027443909E+03  0.97040545480E+03 -0.12246388503E+04  0.16722136722E+04  0.80296896695E+02 0.  0.
    5000000    2    1    2    0    0 -0.59027443909E+03 -0.97040545480E+03 -0.94575073883E+03  0.15951562401E+04  0.59997359122E+03 0.  0.
        -24    2    4    4    0    0 -0.53418575975E+03 -0.69858523499E+03 -0.96365771014E+03  0.13071659446E+04  0.81675381171E+02 0.  0.
         24    2    4    4    0    0 -0.56088679343E+02 -0.27182021980E+03  0.17906971309E+02  0.28799029551E+03  0.74736730214E+02 0.  0.
         11    1    5    5    0    0 -0.32168109883E+03 -0.36659959442E+03 -0.56811645426E+03  0.74875249420E+03  0.00000000000E+00 0. -1.
        -12    1    5    5    0    0 -0.21250466091E+03 -0.33198564058E+03 -0.39554125588E+03  0.55841345038E+03  0.00000000000E+00 0.  1.
         11    1    3    3    0    0  0.38012425184E+03  0.55336989346E+03 -0.74172707458E+03  0.10004357745E+04  0.00000000000E+00 0. -1.
        -12    1    3    3    0    0  0.21015018725E+03  0.41703556134E+03 -0.48291177568E+03  0.67177789761E+03  0.00000000000E+00 0.  1.
          4    1    6    6  502    0 -0.17711535029E+02 -0.22034232167E+03 -0.10011301543E+01  0.22105528596E+03  0.00000000000E+00 0. -1.
         -3    1    6    6    0  502 -0.38377144315E+02 -0.51477898135E+02  0.18908101464E+02  0.66935009547E+02  0.00000000000E+00 0.  1.
<mgrwt>
<rscale>  0 0.11527511E+04</rscale>
<asrwt>0</asrwt>
<pdfrwt beam="1">  1        1 0.84383101E-01 0.11527511E+04</pdfrwt>
<pdfrwt beam="2">  1       -2 0.41828920E+00 0.11527511E+04</pdfrwt>
<totfact> 0.19217810E-01</totfact>
</mgrwt>
</event>
<event>
12    3  0.2422421E-007  0.1041001E+04  0.7818608E-02  0.9264684E-01
          1   -1    0    0  501    0  0.00000000000E+00  0.00000000000E+00  0.93711807968E+03  0.93711807968E+03  0.00000000000E+00 0. -1.
         -2   -1    0    0    0  501 -0.00000000000E+00 -0.00000000000E+00 -0.14169747112E+04  0.14169747112E+04  0.00000000000E+00 0.  1.
        -24    2    1    2    0    0 -0.66023181121E+03  0.79710950534E+03 -0.51225586325E+03  0.11573064289E+04  0.75249538285E+02 0.  0.
    5000000    2    1    2    0    0  0.66023181121E+03 -0.79710950534E+03  0.32399231689E+02  0.11967863620E+04  0.59996523064E+03 0.  0.
        -24    2    4    4    0    0  0.44346134185E+03 -0.44076994740E+03 -0.25978779924E+03  0.68129923757E+03  0.75781542805E+02 0.  0.
         24    2    4    4    0    0  0.21677046936E+03 -0.35633955793E+03  0.29218703093E+03  0.51548712441E+03  0.79914938875E+02 0.  0.
         11    1    5    5    0    0  0.16363647346E+03 -0.21036347016E+03 -0.92806308205E+02  0.28221037519E+03  0.00000000000E+00 0. -1.
        -12    1    5    5    0    0  0.27982486839E+03 -0.23040647725E+03 -0.16698149104E+03  0.39908886238E+03  0.00000000000E+00 0.  1.
         13    1    3    3    0    0 -0.13945034912E+03  0.14205818727E+03 -0.71717694725E+02  0.21159006635E+03  0.00000000000E+00 0. -1.
        -14    1    3    3    0    0 -0.52078146208E+03  0.65505131806E+03 -0.44053816852E+03  0.94571636259E+03  0.00000000000E+00 0.  1.
          2    1    6    6  502    0  0.47270042064E+02 -0.75392954455E+02  0.25243568958E+02  0.92497525544E+02  0.00000000000E+00 0. -1.
         -1    1    6    6    0  502  0.16950042730E+03 -0.28094660348E+03  0.26694346197E+03  0.42298959887E+03  0.00000000000E+00 0.  1.
<mgrwt>
<rscale>  0 0.10410011E+04</rscale>
<asrwt>0</asrwt>
<pdfrwt beam="1">  1        1 0.14417201E+00 0.10410011E+04</pdfrwt>
<pdfrwt beam="2">  1       -2 0.21799611E+00 0.10410011E+04</pdfrwt>
<totfact> 0.15040447E+00</totfact>
</mgrwt>
</event>
<event>
12    3  0.2422421E-007  0.1012454E+04  0.7818608E-02  0.9294990E-01
         -2   -1    0    0    0  501 -0.00000000000E+00  0.00000000000E+00  0.13904176980E+04  0.13904176980E+04  0.00000000000E+00 0.  1.
          1   -1    0    0  501    0  0.00000000000E+00 -0.00000000000E+00 -0.91751841174E+03  0.91751841174E+03  0.00000000000E+00 0. -1.
        -24    2    1    2    0    0 -0.93509293697E+03 -0.37507539748E+03 -0.74923634481E+02  0.10136361628E+04  0.82245759091E+02 0.  0.
    5000000    2    1    2    0    0  0.93509293697E+03  0.37507539748E+03  0.54782292070E+03  0.12942999469E+04  0.60001837107E+03 0.  0.
        -24    2    4    4    0    0  0.64843416788E+03  0.20696062024E+03  0.46103663955E+02  0.68723615375E+03  0.82875899981E+02 0.  0.
         24    2    4    4    0    0  0.28665876909E+03  0.16811477724E+03  0.50171925675E+03  0.60706379318E+03  0.79802306827E+02 0.  0.
         11    1    5    5    0    0  0.29483700418E+03  0.11017386880E+03  0.59784214529E+02  0.32037679802E+03  0.00000000000E+00 0. -1.
        -12    1    5    5    0    0  0.35359716370E+03  0.96786751433E+02 -0.13680550574E+02  0.36685935574E+03  0.00000000000E+00 0.  1.
         13    1    3    3    0    0 -0.66550039235E+03 -0.29693658804E+03 -0.29842378069E+02  0.72935086005E+03  0.00000000000E+00 0. -1.
        -14    1    3    3    0    0 -0.26959254462E+03 -0.78138809445E+02 -0.45081256411E+02  0.28428530271E+03  0.00000000000E+00 0.  1.
          4    1    6    6  502    0  0.20952264559E+03  0.14016129860E+03  0.31751582520E+03  0.40541488366E+03  0.00000000000E+00 0. -1.
         -3    1    6    6    0  502  0.77136123504E+02  0.27953478640E+02  0.18420343154E+03  0.20164890952E+03  0.00000000000E+00 0.  1.
<mgrwt>
<rscale>  0 0.10124539E+04</rscale>
<asrwt>0</asrwt>
<pdfrwt beam="1">  1        1 0.14115668E+00 0.10124539E+04</pdfrwt>
<pdfrwt beam="2">  1       -2 0.21391042E+00 0.10124539E+04</pdfrwt>
<totfact> 0.16616558E+00</totfact>
</mgrwt>
</event>
<event>
12    3  0.2422421E-007  0.1097172E+04  0.7818608E-02  0.9207952E-01
         -2   -1    0    0    0  501 -0.00000000000E+00  0.00000000000E+00  0.14482249399E+04  0.14482249399E+04  0.00000000000E+00 0.  1.
          1   -1    0    0  501    0  0.00000000000E+00 -0.00000000000E+00 -0.10496851023E+04  0.10496851023E+04  0.00000000000E+00 0. -1.
        -24    2    1    2    0    0 -0.82328935854E+03  0.64962220124E+03  0.68659526532E+03  0.12558193087E+04  0.76516047225E+02 0.  0.
    5000000    2    1    2    0    0  0.82328935854E+03 -0.64962220124E+03 -0.28805542770E+03  0.12420907336E+04  0.59999924059E+03 0.  0.
        -24    2    4    4    0    0  0.23221171849E+03 -0.47078497600E+03  0.50166466972E+02  0.53347317202E+03  0.80722828408E+02 0.  0.
         24    2    4    4    0    0  0.59107764005E+03 -0.17883722524E+03 -0.33822189468E+03  0.70861756153E+03  0.79932901707E+02 0.  0.
         11    1    3    3    0    0 -0.36890735612E+03  0.30533191833E+03  0.35710702102E+03  0.59736558506E+03  0.00000000000E+00 0. -1.
        -12    1    3    3    0    0 -0.45438200242E+03  0.34429028291E+03  0.32948824431E+03  0.65845372364E+03  0.00000000000E+00 0.  1.
         13    1    5    5    0    0  0.15184238989E+03 -0.34613206923E+03  0.68161604424E+02  0.38406968773E+03  0.00000000000E+00 0. -1.
        -14    1    5    5    0    0  0.80369328600E+02 -0.12465290677E+03 -0.17995137452E+02  0.14940348429E+03  0.00000000000E+00 0.  1.
          4    1    6    6  502    0  0.60472588575E+02 -0.32633707572E+02 -0.63155264450E+02  0.93329953748E+02  0.00000000000E+00 0. -1.
         -3    1    6    6    0  502  0.53060505147E+03 -0.14620351767E+03 -0.27506663023E+03  0.61528760778E+03  0.00000000000E+00 0.  1.
<mgrwt>
<rscale>  0 0.10971722E+04</rscale>
<asrwt>0</asrwt>
<pdfrwt beam="1">  1        1 0.16149002E+00 0.10971722E+04</pdfrwt>
<pdfrwt beam="2">  1       -2 0.22280384E+00 0.10971722E+04</pdfrwt>
<totfact> 0.11366385E+00</totfact>
</mgrwt>
</event>
<event>
12    3  0.2422421E-007  0.5984868E+03  0.7818608E-02  0.9908550E-01
         -2   -1    0    0    0  501 -0.00000000000E+00  0.00000000000E+00  0.25363272035E+03  0.25363272035E+03  0.00000000000E+00 0.  1.
          1   -1    0    0  501    0  0.00000000000E+00 -0.00000000000E+00 -0.17062317122E+04  0.17062317122E+04  0.00000000000E+00 0. -1.
        -24    2    1    2    0    0 -0.31437944038E+03  0.40945311345E+03 -0.63072009651E+03  0.81880412206E+03  0.78396846346E+02 0.  0.
    5000000    2    1    2    0    0  0.31437944038E+03 -0.40945311345E+03 -0.82187889536E+03  0.11410603105E+04  0.60003952282E+03 0.  0.
        -24    2    4    4    0    0  0.25358358758E+03 -0.77203715899E+01 -0.63239331453E+03  0.68570176850E+03  0.76820381707E+02 0.  0.
         24    2    4    4    0    0  0.60795852799E+02 -0.40173274186E+03 -0.18948558083E+03  0.45535854201E+03  0.79757663196E+02 0.  0.
         11    1    3    3    0    0 -0.11747803112E+03  0.11812906081E+03 -0.15764055116E+03  0.22936021053E+03  0.00000000000E+00 0. -1.
        -12    1    3    3    0    0 -0.19690140926E+03  0.29132405264E+03 -0.47307954536E+03  0.58944391154E+03  0.00000000000E+00 0.  1.
         13    1    5    5    0    0  0.14874669062E+03 -0.42295920602E+02 -0.37499735557E+03  0.40563227134E+03  0.00000000000E+00 0. -1.
        -14    1    5    5    0    0  0.10483689696E+03  0.34575549012E+02 -0.25739595895E+03  0.28006949716E+03  0.00000000000E+00 0.  1.
          4    1    6    6  502    0  0.61707967468E+02 -0.15293462327E+03 -0.84685459147E+02  0.18538743009E+03  0.00000000000E+00 0. -1.
         -3    1    6    6    0  502 -0.91211466917E+00 -0.24879811859E+03 -0.10480012168E+03  0.26997111192E+03  0.00000000000E+00 0.  1.
<mgrwt>
<rscale>  0 0.59848684E+03</rscale>
<asrwt>0</asrwt>
<pdfrwt beam="1">  1        1 0.26249719E+00 0.59848684E+03</pdfrwt>
<pdfrwt beam="2">  1       -2 0.39020417E-01 0.59848684E+03</pdfrwt>
<totfact> 0.27094302E+01</totfact>
</mgrwt>
</event>
<event>
12    3  0.2422421E-007  0.1400609E+04  0.7818608E-02  0.8953378E-01
         -2   -1    0    0    0  501 -0.00000000000E+00  0.00000000000E+00  0.18220886928E+04  0.18220886928E+04  0.00000000000E+00 0.  1.
          1   -1    0    0  501    0  0.00000000000E+00 -0.00000000000E+00 -0.11887643536E+04  0.11887643536E+04  0.00000000000E+00 0. -1.
        -24    2    1    2    0    0  0.13824124143E+04 -0.64472671659E+02  0.57664865941E+03  0.15014177413E+04  0.80689211751E+02 0.  0.
    5000000    2    1    2    0    0 -0.13824124143E+04  0.64472671659E+02  0.56675679807E+02  0.15094353050E+04  0.59996833141E+03 0.  0.
        -24    2    4    4    0    0 -0.73599215981E+03 -0.96362572440E+02  0.28731975220E+03  0.79989611927E+03  0.79441531580E+02 0.  0.
         24    2    4    4    0    0 -0.64642025453E+03  0.16083524410E+03 -0.23064407240E+03  0.70953918577E+03  0.80759190224E+02 0.  0.
         13    1    3    3    0    0  0.12731458846E+04 -0.46918407749E+02  0.54953982059E+03  0.13874782142E+04  0.00000000000E+00 0. -1.
        -14    1    3    3    0    0  0.10926652973E+03 -0.17554263910E+02  0.27108838821E+02  0.11393952714E+03  0.00000000000E+00 0.  1.
         13    1    5    5    0    0 -0.60738056614E+03 -0.10915982913E+03  0.24367692849E+03  0.66347981574E+03  0.00000000000E+00 0. -1.
        -14    1    5    5    0    0 -0.12861159367E+03  0.12797256686E+02  0.43642823716E+02  0.13641630353E+03  0.00000000000E+00 0.  1.
          2    1    6    6  502    0 -0.22830133920E+03  0.93358638930E+02 -0.67993891772E+02  0.25585250881E+03  0.00000000000E+00 0. -1.
         -1    1    6    6    0  502 -0.41811891533E+03  0.67476605169E+02 -0.16265018062E+03  0.45368667697E+03  0.00000000000E+00 0.  1.
<mgrwt>
<rscale>  0 0.14006086E+04</rscale>
<asrwt>0</asrwt>
<pdfrwt beam="1">  1        1 0.18288682E+00 0.14006086E+04</pdfrwt>
<pdfrwt beam="2">  1       -2 0.28032134E+00 0.14006086E+04</pdfrwt>
<totfact> 0.38252467E-01</totfact>
</mgrwt>
</event>
<event>
12    3  0.2422421E-007  0.7810633E+03  0.7818608E-02  0.9587839E-01
         -2   -1    0    0    0  501 -0.00000000000E+00  0.00000000000E+00  0.35705932832E+03  0.35705932832E+03  0.00000000000E+00 0.  1.
          1   -1    0    0  501    0  0.00000000000E+00 -0.00000000000E+00 -0.17465251798E+04  0.17465251798E+04  0.00000000000E+00 0. -1.
        -24    2    1    2    0    0  0.64044423886E+03  0.20024411893E+03 -0.62187589441E+03  0.92065239245E+03  0.10297897565E+03 0.  0.
    5000000    2    1    2    0    0 -0.64044423886E+03 -0.20024411893E+03 -0.76758995708E+03  0.11829321157E+04  0.59988958804E+03 0.  0.
        -24    2    4    4    0    0 -0.50400254129E+03 -0.39049854828E+03 -0.63001517276E+03  0.90018783008E+03  0.83134431374E+02 0.  0.
         24    2    4    4    0    0 -0.13644169757E+03  0.19025442935E+03 -0.13757478432E+03  0.28274428560E+03  0.78768172751E+02 0.  0.
         11    1    3    3    0    0  0.37226707416E+03  0.65136403364E+02 -0.32624057076E+03  0.49925788482E+03  0.00000000000E+00 0. -1.
        -12    1    3    3    0    0  0.26817716470E+03  0.13510771557E+03 -0.29563532365E+03  0.42139450763E+03  0.00000000000E+00 0.  1.
         13    1    5    5    0    0 -0.49848204944E+03 -0.36895074839E+03 -0.60075262939E+03  0.86343079055E+03  0.00000000000E+00 0. -1.
        -14    1    5    5    0    0 -0.55204918479E+01 -0.21547799890E+02 -0.29262543375E+02  0.36757039531E+02  0.00000000000E+00 0.  1.
          2    1    6    6  502    0 -0.12682701910E+03  0.13426638236E+03 -0.12901812796E+03  0.22529587557E+03  0.00000000000E+00 0. -1.
         -1    1    6    6    0  502 -0.96146784696E+01  0.55988046986E+02 -0.85566563601E+01  0.57448410034E+02  0.00000000000E+00 0.  1.
<mgrwt>
<rscale>  0 0.78106334E+03</rscale>
<asrwt>0</asrwt>
<pdfrwt beam="1">  1        1 0.26869618E+00 0.78106334E+03</pdfrwt>
<pdfrwt beam="2">  1       -2 0.54932205E-01 0.78106334E+03</pdfrwt>
<totfact> 0.12506915E+01</totfact>
</mgrwt>
</event>
<event>
12    3  0.2422421E-007  0.4485459E+03  0.7818608E-02  0.1028157E+00
         -4   -1    0    0    0  501 -0.00000000000E+00  0.00000000000E+00  0.19027161608E+04  0.19027161608E+04  0.00000000000E+00 0.  1.
          3   -1    0    0  501    0  0.00000000000E+00 -0.00000000000E+00 -0.56182860606E+03  0.56182860606E+03  0.00000000000E+00 0. -1.
        -24    2    1    2    0    0  0.36242971407E+03  0.78439293436E+02  0.16510674005E+04  0.16940744721E+04  0.79729137756E+02 0.  0.
    5000000    2    1    2    0    0 -0.36242971407E+03 -0.78439293436E+02 -0.31017984580E+03  0.77047029478E+03  0.59992075977E+03 0.  0.
        -24    2    4    4    0    0 -0.26171101688E+03  0.11786093872E+03  0.85104376321E+02  0.31050198222E+03  0.82370315447E+02 0.  0.
         24    2    4    4    0    0 -0.10071869719E+03 -0.19630023215E+03 -0.39528422212E+03  0.45996831255E+03  0.81505798490E+02 0.  0.
         13    1    5    5    0    0 -0.93637405923E+01  0.22727686906E+02 -0.69416867962E+01  0.25542404068E+02  0.00000000000E+00 0. -1.
        -14    1    5    5    0    0 -0.25234727628E+03  0.95133251811E+02  0.92046063117E+02  0.28495957816E+03  0.00000000000E+00 0.  1.
         13    1    3    3    0    0  0.93312647937E+02  0.52120712761E+01  0.28864492901E+03  0.30339794165E+03  0.00000000000E+00 0. -1.
        -14    1    3    3    0    0  0.26911706613E+03  0.73227222160E+02  0.13624224715E+04  0.13906765304E+04  0.00000000000E+00 0.  1.
          2    1    6    6  502    0 -0.21186363157E+02 -0.29407314698E+01 -0.15424471478E+02  0.26370896947E+02  0.00000000000E+00 0. -1.
         -1    1    6    6    0  502 -0.79532334035E+02 -0.19335950068E+03 -0.37985975065E+03  0.43359741561E+03  0.00000000000E+00 0.  1.
<mgrwt>
<rscale>  0 0.44854585E+03</rscale>
<asrwt>0</asrwt>
<pdfrwt beam="1">  1        3 0.86435171E-01 0.44854585E+03</pdfrwt>
<pdfrwt beam="2">  1       -4 0.29272556E+00 0.44854585E+03</pdfrwt>
<totfact> 0.10067393E-01</totfact>
</mgrwt>
</event>
<event>
12    3  0.2422421E-007  0.4655072E+03  0.7818608E-02  0.1023196E+00
         -2   -1    0    0    0  501 -0.00000000000E+00  0.00000000000E+00  0.21730447776E+04  0.21730447776E+04  0.00000000000E+00 0.  1.
          1   -1    0    0  501    0  0.00000000000E+00 -0.00000000000E+00 -0.11211870308E+03  0.11211870308E+03  0.00000000000E+00 0. -1.
        -24    2    1    2    0    0 -0.27762636948E+03  0.11110915706E+03  0.52627359600E+03  0.61053799709E+03  0.79819184650E+02 0.  0.
    5000000    2    1    2    0    0  0.27762636948E+03 -0.11110915706E+03  0.15346524785E+04  0.16746254835E+04  0.59982550345E+03 0.  0.
        -24    2    4    4    0    0 -0.16311569824E+03  0.16748248109E+01  0.24313801926E+03  0.30300205222E+03  0.78003917787E+02 0.  0.
         24    2    4    4    0    0  0.44074206772E+03 -0.11278398187E+03  0.12915144592E+04  0.13716234313E+04  0.79796253866E+02 0.  0.
         11    1    5    5    0    0 -0.81940611370E+02  0.26284139041E+02  0.72814535397E+02  0.11272566842E+03  0.00000000000E+00 0. -1.
        -12    1    5    5    0    0 -0.81175086870E+02 -0.24609314230E+02  0.17032348386E+03  0.19027638380E+03  0.00000000000E+00 0.  1.
         13    1    3    3    0    0 -0.34769989543E+02  0.37514199589E+02  0.53829313736E+02  0.74255386074E+02  0.00000000000E+00 0. -1.
        -14    1    3    3    0    0 -0.24285637994E+03  0.73594957466E+02  0.47244428226E+03  0.53628261102E+03  0.00000000000E+00 0.  1.
          4    1    6    6  502    0  0.20693662682E+03 -0.61213718095E+02  0.49728879268E+03  0.54209411556E+03  0.00000000000E+00 0. -1.
         -3    1    6    6    0  502  0.23380544091E+03 -0.51570263771E+02  0.79422566655E+03  0.82952931576E+03  0.00000000000E+00 0.  1.
<mgrwt>
<rscale>  0 0.46550716E+03</rscale>
<asrwt>0</asrwt>
<pdfrwt beam="1">  1        1 0.17249033E-01 0.46550716E+03</pdfrwt>
<pdfrwt beam="2">  1       -2 0.33431455E+00 0.46550716E+03</pdfrwt>
<totfact> 0.59558263E+00</totfact>
</mgrwt>
</event>
<event>
12    3  0.2422421E-007  0.3443424E+03  0.7818608E-02  0.1064961E+00
         -2   -1    0    0    0  501 -0.00000000000E+00  0.00000000000E+00  0.97794874234E+03  0.97794874234E+03  0.00000000000E+00 0.  1.
          1   -1    0    0  501    0  0.00000000000E+00 -0.00000000000E+00 -0.38316319680E+03  0.38316319680E+03  0.00000000000E+00 0. -1.
        -24    2    1    2    0    0  0.20533079395E+03 -0.48995649979E+02 -0.22793690978E+03  0.32121876080E+03  0.81639137586E+02 0.  0.
    5000000    2    1    2    0    0 -0.20533079395E+03  0.48995649979E+02  0.82272245532E+03  0.10398931783E+04  0.59995356086E+03 0.  0.
        -24    2    4    4    0    0 -0.21853099780E+03  0.20462385879E+03  0.14378415539E+03  0.33867027838E+03  0.66309528202E+02 0.  0.
         24    2    4    4    0    0  0.13200203850E+02 -0.15562820881E+03  0.67893829993E+03  0.70122289995E+03  0.79761867743E+02 0.  0.
         11    1    3    3    0    0  0.85658532514E+02 -0.60429595514E+02 -0.12332065690E+03  0.16185519647E+03  0.00000000000E+00 0. -1.
        -12    1    3    3    0    0  0.11967226144E+03  0.11433945534E+02 -0.10461625289E+03  0.15936356433E+03  0.00000000000E+00 0.  1.
         13    1    5    5    0    0 -0.12432546022E+03  0.15828885507E+03  0.10236350304E+03  0.22581069163E+03  0.00000000000E+00 0. -1.
        -14    1    5    5    0    0 -0.94205537581E+02  0.46335003716E+02  0.41420652354E+02  0.11285958675E+03  0.00000000000E+00 0.  1.
          4    1    6    6  502    0  0.18062008877E+02 -0.10769688687E+03  0.59051082437E+03  0.60052301314E+03  0.00000000000E+00 0. -1.
         -1    1    6    6    0  502 -0.48618050270E+01 -0.47931321940E+02  0.88427475559E+02  0.10069988682E+03  0.00000000000E+00 0.  1.
<mgrwt>
<rscale>  0 0.34434238E+03</rscale>
<asrwt>0</asrwt>
<pdfrwt beam="1">  1        1 0.58948184E-01 0.34434238E+03</pdfrwt>
<pdfrwt beam="2">  1       -2 0.15045365E+00 0.34434238E+03</pdfrwt>
<totfact> 0.17663547E+01</totfact>
</mgrwt>
</event>
<event>
12    3  0.2422421E-007  0.1716905E+04  0.7818608E-02  0.8751781E-01
          1   -1    0    0  501    0  0.00000000000E+00  0.00000000000E+00  0.40852704539E+04  0.40852704539E+04  0.00000000000E+00 0. -1.
         -2   -1    0    0    0  501 -0.00000000000E+00 -0.00000000000E+00 -0.12051093024E+04  0.12051093024E+04  0.00000000000E+00 0.  1.
        -24    2    1    2    0    0 -0.76633795738E+03 -0.15342469237E+04 -0.18539009563E+03  0.17268850218E+04  0.81085774981E+02 0.  0.
    5000000    2    1    2    0    0  0.76633795738E+03  0.15342469237E+04  0.30655512471E+04  0.35634947345E+04  0.59975227082E+03 0.  0.
        -24    2    4    4    0    0  0.19372543680E+03  0.38324646399E+03  0.13453337653E+04  0.14144854431E+04  0.80241709011E+02 0.  0.
         24    2    4    4    0    0  0.57261252058E+03  0.11510004597E+04  0.17202174818E+04  0.21490092914E+04  0.80034945637E+02 0.  0.
         11    1    5    5    0    0  0.96212142866E+02  0.13932924224E+03  0.63318535493E+03  0.65543352667E+03  0.00000000000E+00 0. -1.
        -12    1    5    5    0    0  0.97513293936E+02  0.24391722175E+03  0.71214841032E+03  0.75905191646E+03  0.00000000000E+00 0.  1.
         13    1    3    3    0    0 -0.47481447514E+03 -0.87864576865E+03 -0.83950192856E+02  0.10022548615E+04  0.00000000000E+00 0. -1.
        -14    1    3    3    0    0 -0.29152348224E+03 -0.65560115509E+03 -0.10143990277E+03  0.72463016024E+03  0.00000000000E+00 0.  1.
          4    1    6    6  502    0  0.17544343854E+03  0.34855202557E+03  0.46210593213E+03  0.60482295522E+03  0.00000000000E+00 0. -1.
         -3    1    6    6    0  502  0.39716908204E+03  0.80244843418E+03  0.12581115497E+04  0.15441863362E+04  0.00000000000E+00 0.  1.
<mgrwt>
<rscale>  0 0.17169050E+04</rscale>
<asrwt>0</asrwt>
<pdfrwt beam="1">  1        1 0.62850314E+00 0.17169050E+04</pdfrwt>
<pdfrwt beam="2">  1       -2 0.18540143E+00 0.17169050E+04</pdfrwt>
<totfact> 0.10917768E-02</totfact>
</mgrwt>
</event>
<event>
12    3  0.2422421E-007  0.4304380E+03  0.7818608E-02  0.1033722E+00
          1   -1    0    0  501    0  0.00000000000E+00  0.00000000000E+00  0.57427383375E+03  0.57427383375E+03  0.00000000000E+00 0. -1.
         -2   -1    0    0    0  501 -0.00000000000E+00 -0.00000000000E+00 -0.63214262737E+03  0.63214262737E+03  0.00000000000E+00 0.  1.
        -24    2    1    2    0    0 -0.35425380722E+03 -0.85683937780E+02  0.24047202801E+03  0.44380043722E+03  0.79338103710E+02 0.  0.
    5000000    2    1    2    0    0  0.35425380722E+03  0.85683937780E+02 -0.29834082163E+03  0.76261602390E+03  0.59978200784E+03 0.  0.
        -24    2    4    4    0    0 -0.22042382347E+02 -0.77275219253E+02  0.12451282852E+03  0.16820742730E+03  0.79579947240E+02 0.  0.
         24    2    4    4    0    0  0.37629618957E+03  0.16295915703E+03 -0.42285365014E+03  0.59440859660E+03  0.79761275871E+02 0.  0.
         13    1    5    5    0    0 -0.13991467667E+02 -0.53527597476E+02  0.13108752796E+03  0.14228459103E+03  0.00000000000E+00 0. -1.
        -14    1    5    5    0    0 -0.80509146794E+01 -0.23747621777E+02 -0.65746994427E+01  0.25922836264E+02  0.00000000000E+00 0.  1.
         13    1    3    3    0    0 -0.21804275680E+03 -0.39757478900E+02  0.10118853371E+03  0.24364404421E+03  0.00000000000E+00 0. -1.
        -14    1    3    3    0    0 -0.13621105042E+03 -0.45926458879E+02  0.13928349430E+03  0.20015639302E+03  0.00000000000E+00 0.  1.
          4    1    6    6  502    0  0.34420784567E+03  0.16729899058E+03 -0.40584246066E+03  0.55783160196E+03  0.00000000000E+00 0. -1.
         -1    1    6    6    0  502  0.32088343900E+02 -0.43398335439E+01 -0.17011189480E+02  0.36576994641E+02  0.00000000000E+00 0.  1.
<mgrwt>
<rscale>  0 0.43043803E+03</rscale>
<asrwt>0</asrwt>
<pdfrwt beam="1">  1        1 0.88349821E-01 0.43043803E+03</pdfrwt>
<pdfrwt beam="2">  1       -2 0.97252712E-01 0.43043803E+03</pdfrwt>
<totfact> 0.29672879E+01</totfact>
</mgrwt>
</event>
<event>
12    3  0.2422421E-007  0.8087196E+03  0.7818608E-02  0.9547481E-01
          1   -1    0    0  501    0  0.00000000000E+00  0.00000000000E+00  0.60118973108E+03  0.60118973108E+03  0.00000000000E+00 0. -1.
         -2   -1    0    0    0  501 -0.00000000000E+00 -0.00000000000E+00 -0.17189249752E+04  0.17189249752E+04  0.00000000000E+00 0.  1.
        -24    2    1    2    0    0  0.68147596652E+03 -0.38277166978E+03  0.56640870327E+02  0.78707867366E+03  0.73218892454E+02 0.  0.
    5000000    2    1    2    0    0 -0.68147596652E+03  0.38277166978E+03 -0.11743761145E+04  0.15330360327E+04  0.60009713800E+03 0.  0.
        -24    2    4    4    0    0 -0.69318210614E+03  0.35268638373E+03 -0.69298392940E+03  0.10439797815E+04  0.69122645721E+02 0.  0.
         24    2    4    4    0    0  0.11706139614E+02  0.30085286042E+02 -0.48139218508E+03  0.48905625120E+03  0.79971387617E+02 0.  0.
         11    1    3    3    0    0  0.14265243390E+03 -0.98191671736E+02 -0.13459385726E+02  0.17370226354E+03  0.00000000000E+00 0. -1.
        -12    1    3    3    0    0  0.53882353262E+03 -0.28457999804E+03  0.70100256053E+02  0.61337641012E+03  0.00000000000E+00 0.  1.
         11    1    5    5    0    0 -0.92462752270E+02  0.63429953776E+02 -0.12695138358E+03  0.16937937710E+03  0.00000000000E+00 0. -1.
        -12    1    5    5    0    0 -0.60071935387E+03  0.28925642996E+03 -0.56603254582E+03  0.87460040436E+03  0.00000000000E+00 0.  1.
          2    1    6    6  502    0 -0.10621252003E+02  0.31917126996E+02 -0.76791540039E+02  0.83835879022E+02  0.00000000000E+00 0. -1.
         -1    1    6    6    0  502  0.22327391618E+02 -0.18318409541E+01 -0.40460064504E+03  0.40522037217E+03  0.00000000000E+00 0.  1.
<mgrwt>
<rscale>  0 0.80871958E+03</rscale>
<asrwt>0</asrwt>
<pdfrwt beam="1">  1        1 0.92490728E-01 0.80871958E+03</pdfrwt>
<pdfrwt beam="2">  1       -2 0.26444999E+00 0.80871958E+03</pdfrwt>
<totfact> 0.16144246E+00</totfact>
</mgrwt>
</event>
<event>
12    3  0.2422421E-007  0.5793192E+03  0.7818608E-02  0.9949266E-01
         -2   -1    0    0    0  501 -0.00000000000E+00  0.00000000000E+00  0.17041319103E+03  0.17041319103E+03  0.00000000000E+00 0.  1.
          1   -1    0    0  501    0  0.00000000000E+00 -0.00000000000E+00 -0.20605903503E+04  0.20605903503E+04  0.00000000000E+00 0. -1.
        -24    2    1    2    0    0  0.30751199004E+03 -0.29863742582E+03 -0.55687485228E+03  0.70735658549E+03  0.80596537199E+02 0.  0.
    5000000    2    1    2    0    0 -0.30751199004E+03  0.29863742582E+03 -0.13333023070E+04  0.15236469559E+04  0.60004755490E+03 0.  0.
        -24    2    4    4    0    0 -0.25566180756E+03 -0.12851143726E+03 -0.53690717819E+03  0.61484618364E+03  0.88816452271E+02 0.  0.
         24    2    4    4    0    0 -0.51850182482E+02  0.42714886308E+03 -0.79639512885E+03  0.90880077226E+03  0.80802535540E+02 0.  0.
         13    1    5    5    0    0 -0.47751510640E+01  0.15837417868E+01 -0.62052207490E+02  0.62255817079E+02  0.00000000000E+00 0. -1.
        -14    1    5    5    0    0 -0.25088665649E+03 -0.13009517904E+03 -0.47485497070E+03  0.55259036656E+03  0.00000000000E+00 0.  1.
         13    1    3    3    0    0  0.30693504431E+03 -0.27551813747E+03 -0.53491229877E+03  0.67546319876E+03  0.00000000000E+00 0. -1.
        -14    1    3    3    0    0  0.57694573101E+00 -0.23119288355E+02 -0.21962553509E+02  0.31893386729E+02  0.00000000000E+00 0.  1.
          2    1    6    6  502    0 -0.67069296537E+02  0.30285140091E+03 -0.60849094656E+03  0.68299230861E+03  0.00000000000E+00 0. -1.
         -1    1    6    6    0  502  0.15219114055E+02  0.12429746218E+03 -0.18790418228E+03  0.22580846365E+03  0.00000000000E+00 0.  1.
<mgrwt>
<rscale>  0 0.57931916E+03</rscale>
<asrwt>0</asrwt>
<pdfrwt beam="1">  1        1 0.31701388E+00 0.57931916E+03</pdfrwt>
<pdfrwt beam="2">  1       -2 0.26217416E-01 0.57931916E+03</pdfrwt>
<totfact> 0.33217079E+01</totfact>
</mgrwt>
</event>
<event>
12    3  0.2422421E-007  0.8833191E+03  0.7818608E-02  0.9446677E-01
         -2   -1    0    0    0  501 -0.00000000000E+00  0.00000000000E+00  0.14730133968E+04  0.14730133968E+04  0.00000000000E+00 0.  1.
          1   -1    0    0  501    0  0.00000000000E+00 -0.00000000000E+00 -0.80540791984E+03  0.80540791984E+03  0.00000000000E+00 0. -1.
        -24    2    1    2    0    0 -0.82361405839E+03  0.29755842430E+03 -0.20768222427E+03  0.90265257844E+03  0.69055325954E+02 0.  0.
    5000000    2    1    2    0    0  0.82361405839E+03 -0.29755842430E+03  0.87528770124E+03  0.13757687382E+04  0.59977489780E+03 0.  0.
        -24    2    4    4    0    0  0.23988369384E+03 -0.55425660040E+02 -0.38430724247E+02  0.26195920845E+03  0.80805420383E+02 0.  0.
         24    2    4    4    0    0  0.58373036455E+03 -0.24213276426E+03  0.91371842548E+03  0.11138095298E+04  0.79504046947E+02 0.  0.
         11    1    3    3    0    0 -0.27885876716E+03  0.86110925167E+02 -0.99666857240E+02  0.30840036622E+03  0.00000000000E+00 0. -1.
        -12    1    3    3    0    0 -0.54475529123E+03  0.21144749913E+03 -0.10801536703E+03  0.59425221222E+03  0.00000000000E+00 0.  1.
         13    1    5    5    0    0  0.16206938540E+03 -0.74051693804E+02 -0.36711825372E+02  0.18192827477E+03  0.00000000000E+00 0. -1.
        -14    1    5    5    0    0  0.77814308436E+02  0.18626033764E+02 -0.17188988746E+01  0.80030933673E+02  0.00000000000E+00 0.  1.
          4    1    6    6  502    0  0.19738224429E+03 -0.91529710302E+02  0.38076699764E+03  0.43854411947E+03  0.00000000000E+00 0. -1.
         -3    1    6    6    0  502  0.38634812026E+03 -0.15060305396E+03  0.53295142784E+03  0.67526541029E+03  0.00000000000E+00 0.  1.
<mgrwt>
<rscale>  0 0.88331910E+03</rscale>
<asrwt>0</asrwt>
<pdfrwt beam="1">  1        1 0.12390891E+00 0.88331910E+03</pdfrwt>
<pdfrwt beam="2">  1       -2 0.22661745E+00 0.88331910E+03</pdfrwt>
<totfact> 0.17443465E+00</totfact>
</mgrwt>
</event>
<event>
12    3  0.2422421E-007  0.4497199E+03  0.7818608E-02  0.1027806E+00
          1   -1    0    0  501    0  0.00000000000E+00  0.00000000000E+00  0.62388144711E+03  0.62388144711E+03  0.00000000000E+00 0. -1.
         -2   -1    0    0    0  501 -0.00000000000E+00 -0.00000000000E+00 -0.35244315985E+03  0.35244315985E+03  0.00000000000E+00 0.  1.
        -24    2    1    2    0    0 -0.22914656029E+03 -0.13427856230E+03  0.38327117320E+02  0.28004433875E+03  0.80106088174E+02 0.  0.
    5000000    2    1    2    0    0  0.22914656029E+03  0.13427856230E+03  0.23311116995E+03  0.69628026821E+03  0.59993876017E+03 0.  0.
        -24    2    4    4    0    0  0.21692852802E+03 -0.18919316262E+03  0.17713677243E+02  0.29937277920E+03  0.80363222371E+02 0.  0.
         24    2    4    4    0    0  0.12218032263E+02  0.32347172492E+03  0.21539749271E+03  0.39690748901E+03  0.79726017302E+02 0.  0.
         11    1    5    5    0    0  0.21208991821E+03 -0.16044206706E+03  0.13576926440E+01  0.26594291421E+03  0.00000000000E+00 0. -1.
        -12    1    5    5    0    0  0.48386098131E+01 -0.28751095562E+02  0.16355984599E+02  0.33429864988E+02  0.00000000000E+00 0.  1.
         11    1    3    3    0    0 -0.10583562016E+03 -0.10819564445E+03  0.19335400796E+02  0.15258221946E+03  0.00000000000E+00 0. -1.
        -12    1    3    3    0    0 -0.12331094012E+03 -0.26082917852E+02  0.18991716524E+02  0.12746211929E+03  0.00000000000E+00 0.  1.
          2    1    6    6  502    0  0.27723830790E+02  0.13340813410E+03  0.12869768644E+03  0.18742848111E+03  0.00000000000E+00 0. -1.
         -1    1    6    6    0  502 -0.15505798527E+02  0.19006359082E+03  0.86699806265E+02  0.20947900790E+03  0.00000000000E+00 0.  1.
<mgrwt>
<rscale>  0 0.44971986E+03</rscale>
<asrwt>0</asrwt>
<pdfrwt beam="1">  1        1 0.95981761E-01 0.44971986E+03</pdfrwt>
<pdfrwt beam="2">  1       -2 0.54222025E-01 0.44971986E+03</pdfrwt>
<totfact> 0.94402972E+01</totfact>
</mgrwt>
</event>
<event>
12    3  0.2422421E-007  0.1797336E+04  0.7818608E-02  0.8707717E-01
         -2   -1    0    0    0  501 -0.00000000000E+00  0.00000000000E+00  0.20065499310E+04  0.20065499310E+04  0.00000000000E+00 0.  1.
          1   -1    0    0  501    0  0.00000000000E+00 -0.00000000000E+00 -0.17792193258E+04  0.17792193258E+04  0.00000000000E+00 0. -1.
        -24    2    1    2    0    0 -0.72570508290E+03  0.15898538366E+04 -0.46937697498E+03  0.18109774103E+04  0.71002442577E+02 0.  0.
    5000000    2    1    2    0    0  0.72570508290E+03 -0.15898538366E+04  0.69670758017E+03  0.19747918465E+04  0.60009857153E+03 0.  0.
        -24    2    4    4    0    0  0.24091407140E+03 -0.11834333564E+04  0.44490710356E+03  0.12895119023E+04  0.79652473727E+02 0.  0.
         24    2    4    4    0    0  0.48479101151E+03 -0.40642048019E+03  0.25180047660E+03  0.68527994415E+03  0.77493162849E+02 0.  0.
         11    1    3    3    0    0 -0.83551201989E+02  0.23586223656E+03 -0.55127084479E+02  0.25622410782E+03  0.00000000000E+00 0. -1.
        -12    1    3    3    0    0 -0.64215388091E+03  0.13539916000E+04 -0.41424989051E+03  0.15547533025E+04  0.00000000000E+00 0.  1.
         13    1    5    5    0    0  0.44583006609E+02 -0.34973935546E+03  0.10317907069E+03  0.36735702234E+03  0.00000000000E+00 0. -1.
        -14    1    5    5    0    0  0.19633106479E+03 -0.83369400096E+03  0.34172803287E+03  0.92215487999E+03  0.00000000000E+00 0.  1.
          4    1    6    6  502    0  0.16135081414E+03 -0.91944187845E+02  0.86017783249E+02  0.20466283966E+03  0.00000000000E+00 0. -1.
         -3    1    6    6    0  502  0.32344019737E+03 -0.31447629234E+03  0.16578269335E+03  0.48061710450E+03  0.00000000000E+00 0.  1.
<mgrwt>
<rscale>  0 0.17973361E+04</rscale>
<asrwt>0</asrwt>
<pdfrwt beam="1">  1        1 0.27372605E+00 0.17973361E+04</pdfrwt>
<pdfrwt beam="2">  1       -2 0.30869999E+00 0.17973361E+04</pdfrwt>
<totfact> 0.94475527E-02</totfact>
</mgrwt>
</event>
<event>
12    3  0.2422421E-007  0.1307772E+04  0.7818608E-02  0.9023425E-01
          1   -1    0    0  501    0  0.00000000000E+00  0.00000000000E+00  0.19706770933E+04  0.19706770933E+04  0.00000000000E+00 0. -1.
         -2   -1    0    0    0  501 -0.00000000000E+00 -0.00000000000E+00 -0.17926982256E+04  0.17926982256E+04  0.00000000000E+00 0.  1.
        -24    2    1    2    0    0  0.12314811183E+04 -0.24929378679E+03 -0.12462174404E+04  0.17715860778E+04  0.82256825847E+02 0.  0.
    5000000    2    1    2    0    0 -0.12314811183E+04  0.24929378679E+03  0.14241963080E+04  0.19917892411E+04  0.60016341137E+03 0.  0.
        -24    2    4    4    0    0 -0.57468946950E+02  0.16735784226E+03  0.10107417213E+03  0.21919710030E+03  0.80746846858E+02 0.  0.
         24    2    4    4    0    0 -0.11740121714E+04  0.81935944530E+02  0.13231221359E+04  0.17725921408E+04  0.80078921579E+02 0.  0.
         11    1    3    3    0    0  0.94757689265E+03 -0.15713827880E+03 -0.93921798678E+03  0.13434004737E+04  0.00000000000E+00 0. -1.
        -12    1    3    3    0    0  0.28390422566E+03 -0.92155507986E+02 -0.30699945359E+03  0.42818560404E+03  0.00000000000E+00 0.  1.
         13    1    5    5    0    0 -0.45739812926E+02  0.87044605862E+02  0.12603042511E+02  0.99134910988E+02  0.00000000000E+00 0. -1.
        -14    1    5    5    0    0 -0.11729134024E+02  0.80313236398E+02  0.88471129616E+02  0.12006218931E+03  0.00000000000E+00 0.  1.
          2    1    6    6  502    0 -0.11317591311E+03  0.13917525629E+02  0.95911589828E+02  0.14900173788E+03  0.00000000000E+00 0. -1.
         -1    1    6    6    0  502 -0.10608362583E+04  0.68018418900E+02  0.12272105461E+04  0.16235904030E+04  0.00000000000E+00 0.  1.
<mgrwt>
<rscale>  0 0.13077716E+04</rscale>
<asrwt>0</asrwt>
<pdfrwt beam="1">  1        1 0.30318109E+00 0.13077716E+04</pdfrwt>
<pdfrwt beam="2">  1       -2 0.27579973E+00 0.13077716E+04</pdfrwt>
<totfact> 0.11779132E-01</totfact>
</mgrwt>
</event>
<event>
12    3  0.2422421E-007  0.7514745E+03  0.7818608E-02  0.9633040E-01
          1   -1    0    0  501    0  0.00000000000E+00  0.00000000000E+00  0.12198130194E+04  0.12198130194E+04  0.00000000000E+00 0. -1.
         -2   -1    0    0    0  501 -0.00000000000E+00 -0.00000000000E+00 -0.91641837449E+03  0.91641837449E+03  0.00000000000E+00 0.  1.
        -24    2    1    2    0    0  0.74428711546E+03 -0.41348831343E+02 -0.48809978013E+03  0.89442989819E+03  0.78041087392E+02 0.  0.
    5000000    2    1    2    0    0 -0.74428711546E+03  0.41348831343E+02  0.79149442501E+03  0.12418014957E+04  0.59994540896E+03 0.  0.
        -24    2    4    4    0    0 -0.11982486410E+03 -0.24394447581E+02 -0.79545660574E+02  0.16498503030E+03  0.77067898494E+02 0.  0.
         24    2    4    4    0    0 -0.62446225136E+03  0.65743278924E+02  0.87104008558E+03  0.10768164654E+04  0.80917163207E+02 0.  0.
         11    1    5    5    0    0 -0.37294476468E+02 -0.10888810842E+01 -0.69184100692E+02  0.78603456830E+02  0.00000000000E+00 0. -1.
        -12    1    5    5    0    0 -0.82530387628E+02 -0.23305566497E+02 -0.10361559881E+02  0.86381573469E+02  0.00000000000E+00 0.  1.
         13    1    3    3    0    0  0.59283050249E+03 -0.18323214735E+01 -0.39332950200E+03  0.71144884512E+03  0.00000000000E+00 0. -1.
        -14    1    3    3    0    0  0.15145661297E+03 -0.39516509870E+02 -0.94770278129E+02  0.18298105307E+03  0.00000000000E+00 0.  1.
          4    1    6    6  502    0 -0.11804959612E+03 -0.10010262966E+02  0.12780890117E+03  0.17427285425E+03  0.00000000000E+00 0. -1.
         -3    1    6    6    0  502 -0.50641265524E+03  0.75753541891E+02  0.74323118441E+03  0.90254361112E+03  0.00000000000E+00 0.  1.
<mgrwt>
<rscale>  0 0.75147447E+03</rscale>
<asrwt>0</asrwt>
<pdfrwt beam="1">  1        1 0.18766354E+00 0.75147447E+03</pdfrwt>
<pdfrwt beam="2">  1       -2 0.14098744E+00 0.75147447E+03</pdfrwt>
<totfact> 0.32890709E+00</totfact>
</mgrwt>
</event>
<event>
12    3  0.2422421E-007  0.2962336E+03  0.7818608E-02  0.1087139E+00
          1   -1    0    0  501    0  0.00000000000E+00  0.00000000000E+00  0.35333983165E+03  0.35333983165E+03  0.00000000000E+00 0. -1.
         -2   -1    0    0    0  501 -0.00000000000E+00 -0.00000000000E+00 -0.51759412923E+03  0.51759412923E+03  0.00000000000E+00 0.  1.
        -24    2    1    2    0    0 -0.84747989706E+02 -0.13904111693E+03  0.86769489005E+02  0.20048679386E+03  0.78430582911E+02 0.  0.
    5000000    2    1    2    0    0  0.84747989706E+02  0.13904111693E+03 -0.25102378659E+03  0.67044716702E+03  0.59997650652E+03 0.  0.
        -24    2    4    4    0    0 -0.10518417172E+03 -0.72956856462E+02 -0.33211319651E+03  0.36410708957E+03  0.76735809755E+02 0.  0.
         24    2    4    4    0    0  0.18993216142E+03  0.21199797339E+03  0.81089409919E+02  0.30634007744E+03  0.79065694103E+02 0.  0.
         13    1    3    3    0    0 -0.51476490890E+02 -0.44979865882E+02  0.14919978989E+00  0.68359635091E+02  0.00000000000E+00 0. -1.
        -14    1    3    3    0    0 -0.33271498816E+02 -0.94061251043E+02  0.86620289215E+02  0.13212715877E+03  0.00000000000E+00 0.  1.
         13    1    5    5    0    0 -0.74800697954E+02 -0.61222911333E+02 -0.14555702078E+03  0.17472903475E+03  0.00000000000E+00 0. -1.
        -14    1    5    5    0    0 -0.30383473762E+02 -0.11733945128E+02 -0.18655617573E+03  0.18937805483E+03  0.00000000000E+00 0.  1.
          2    1    6    6  502    0  0.18218929849E+03  0.15981857298E+03  0.71912785620E+02  0.25279708363E+03  0.00000000000E+00 0. -1.
         -1    1    6    6    0  502  0.77428629284E+01  0.52179400407E+02  0.91766242998E+01  0.53542993816E+02  0.00000000000E+00 0.  1.
<mgrwt>
<rscale>  0 0.29623358E+03</rscale>
<asrwt>0</asrwt>
<pdfrwt beam="1">  1        1 0.54359974E-01 0.29623358E+03</pdfrwt>
<pdfrwt beam="2">  1       -2 0.79629866E-01 0.29623358E+03</pdfrwt>
<totfact> 0.90562940E+01</totfact>
</mgrwt>
</event>
<event>
12    3  0.2422421E-007  0.6698198E+03  0.7818608E-02  0.9770283E-01
         -2   -1    0    0    0  501 -0.00000000000E+00  0.00000000000E+00  0.45278305120E+03  0.45278305120E+03  0.00000000000E+00 0.  1.
          1   -1    0    0  501    0  0.00000000000E+00 -0.00000000000E+00 -0.16341766036E+04  0.16341766036E+04  0.00000000000E+00 0. -1.
        -24    2    1    2    0    0  0.63066973526E+03 -0.10718612655E+03 -0.10027193706E+04  0.11919046818E+04  0.77184543390E+02 0.  0.
    5000000    2    1    2    0    0 -0.63066973526E+03  0.10718612655E+03 -0.17867418183E+03  0.89505497299E+03  0.59997146659E+03 0.  0.
        -24    2    4    4    0    0 -0.13566552911E+03  0.13052334735E+03 -0.31459782819E+03  0.37494798446E+03  0.78566644058E+02 0.  0.
         24    2    4    4    0    0 -0.49500420615E+03 -0.23337220801E+02  0.13592364636E+03  0.52010698853E+03  0.80388132794E+02 0.  0.
         11    1    5    5    0    0 -0.12384420048E+03  0.74533120619E+02 -0.19891845829E+03  0.24588844037E+03  0.00000000000E+00 0. -1.
        -12    1    5    5    0    0 -0.11821328635E+02  0.55990226732E+02 -0.11567936990E+03  0.12905954409E+03  0.00000000000E+00 0.  1.
         13    1    3    3    0    0  0.41973569678E+03 -0.45462463454E+02 -0.70688328735E+03  0.82336436204E+03  0.00000000000E+00 0. -1.
        -14    1    3    3    0    0  0.21093403848E+03 -0.61723663096E+02 -0.29583608325E+03  0.36854031981E+03  0.00000000000E+00 0.  1.
          4    1    6    6  502    0 -0.43517473226E+03 -0.14432543068E+02  0.91154894853E+02  0.44485341491E+03  0.00000000000E+00 0. -1.
         -3    1    6    6    0  502 -0.59829473887E+02 -0.89046777334E+01  0.44768751504E+02  0.75253573619E+02  0.00000000000E+00 0.  1.
<mgrwt>
<rscale>  0 0.66981983E+03</rscale>
<asrwt>0</asrwt>
<pdfrwt beam="1">  1        1 0.25141178E+00 0.66981983E+03</pdfrwt>
<pdfrwt beam="2">  1       -2 0.69658932E-01 0.66981983E+03</pdfrwt>
<totfact> 0.91301644E+00</totfact>
</mgrwt>
</event>
<event>
12    3  0.2422421E-007  0.6620871E+03  0.7818608E-02  0.9784359E-01
          1   -1    0    0  501    0  0.00000000000E+00  0.00000000000E+00  0.17606682245E+04  0.17606682245E+04  0.00000000000E+00 0. -1.
         -2   -1    0    0    0  501 -0.00000000000E+00 -0.00000000000E+00 -0.29756460757E+03  0.29756460757E+03  0.00000000000E+00 0.  1.
        -24    2    1    2    0    0 -0.16107900099E+03 -0.50950613852E+03  0.22629101538E+03  0.58328991580E+03  0.58962297217E+02 0.  0.
    5000000    2    1    2    0    0  0.16107900099E+03  0.50950613852E+03  0.12368126015E+04  0.14749429162E+04  0.60017351252E+03 0.  0.
        -24    2    4    4    0    0  0.34894139994E+03  0.47095861907E+03  0.97999107474E+03  0.11447433790E+04  0.80577762324E+02 0.  0.
         24    2    4    4    0    0 -0.18786239895E+03  0.38547519447E+02  0.25682152677E+03  0.33019953721E+03  0.79348885092E+02 0.  0.
         11    1    5    5    0    0  0.15184381103E+03  0.16558132479E+03  0.43643419294E+03  0.49086507600E+03  0.00000000000E+00 0. -1.
        -12    1    5    5    0    0  0.19709758890E+03  0.30537729428E+03  0.54355688180E+03  0.65387830303E+03  0.00000000000E+00 0.  1.
         13    1    3    3    0    0 -0.31682463079E+02 -0.15728376165E+03  0.45504177076E+02  0.16677107147E+03  0.00000000000E+00 0. -1.
        -14    1    3    3    0    0 -0.12939653791E+03 -0.35222237687E+03  0.18078683830E+03  0.41651884434E+03  0.00000000000E+00 0.  1.
          4    1    6    6  502    0 -0.39333284747E+02 -0.15549725960E+02  0.23537165125E+02  0.48403506160E+02  0.00000000000E+00 0. -1.
         -3    1    6    6    0  502 -0.14852911420E+03  0.54097245407E+02  0.23328436165E+03  0.28179603105E+03  0.00000000000E+00 0.  1.
<mgrwt>
<rscale>  0 0.66208707E+03</rscale>
<asrwt>0</asrwt>
<pdfrwt beam="1">  1        1 0.27087203E+00 0.66208707E+03</pdfrwt>
<pdfrwt beam="2">  1       -2 0.45779171E-01 0.66208707E+03</pdfrwt>
<totfact> 0.18030448E+01</totfact>
</mgrwt>
</event>
<event>
12    3  0.2422421E-007  0.9574868E+03  0.7818608E-02  0.9356442E-01
          1   -1    0    0  501    0  0.00000000000E+00  0.00000000000E+00  0.22392373240E+04  0.22392373240E+04  0.00000000000E+00 0. -1.
         -4   -1    0    0    0  501 -0.00000000000E+00 -0.00000000000E+00 -0.47378421636E+03  0.47378421636E+03  0.00000000000E+00 0.  1.
        -24    2    1    2    0    0 -0.82326589013E+03  0.27161569758E+03  0.12904178757E+04  0.15566698158E+04  0.80627590179E+02 0.  0.
    5000000    2    1    2    0    0  0.82326589013E+03 -0.27161569758E+03  0.47503523192E+03  0.11563517246E+04  0.59995752049E+03 0.  0.
        -24    2    4    4    0    0  0.36347335285E+03  0.17248112583E+03  0.18037805259E+03  0.44818866662E+03  0.80462550526E+02 0.  0.
         24    2    4    4    0    0  0.45979253729E+03 -0.44409682341E+03  0.29465717933E+03  0.70816305798E+03  0.77723210472E+02 0.  0.
         11    1    5    5    0    0  0.25763191645E+03  0.15619501935E+03  0.11360582697E+03  0.32198970847E+03  0.00000000000E+00 0. -1.
        -12    1    5    5    0    0  0.10584143640E+03  0.16286106475E+02  0.66772225621E+02  0.12619895815E+03  0.00000000000E+00 0.  1.
         13    1    3    3    0    0 -0.63720144419E+03  0.21951956157E+03  0.94205838737E+03  0.11583127918E+04  0.00000000000E+00 0. -1.
        -14    1    3    3    0    0 -0.18606444594E+03  0.52096136013E+02  0.34835948835E+03  0.39835702398E+03  0.00000000000E+00 0.  1.
          2    1    6    6  502    0  0.75074548080E+02 -0.80626503262E+02  0.83916324307E+02  0.13848743727E+03  0.00000000000E+00 0. -1.
         -1    1    6    6    0  502  0.38471798921E+03 -0.36347032014E+03  0.21074085502E+03  0.56967562070E+03  0.00000000000E+00 0.  1.
<mgrwt>
<rscale>  0 0.95748675E+03</rscale>
<asrwt>0</asrwt>
<pdfrwt beam="1">  1        1 0.34449804E+00 0.95748675E+03</pdfrwt>
<pdfrwt beam="2">  1       -4 0.72889881E-01 0.95748675E+03</pdfrwt>
<totfact> 0.17173263E+00</totfact>
</mgrwt>
</event>
<event>
12    3  0.2422421E-007  0.1490398E+04  0.7818608E-02  0.8890863E-01
          1   -1    0    0  501    0  0.00000000000E+00  0.00000000000E+00  0.24159572778E+04  0.24159572778E+04  0.00000000000E+00 0. -1.
         -2   -1    0    0    0  501 -0.00000000000E+00 -0.00000000000E+00 -0.11909885112E+04  0.11909885112E+04  0.00000000000E+00 0.  1.
        -24    2    1    2    0    0  0.13229437979E+04  0.64824275697E+03 -0.17781071602E+03  0.14860844641E+04  0.80196131792E+02 0.  0.
    5000000    2    1    2    0    0 -0.13229437979E+04 -0.64824275697E+03  0.14027794827E+04  0.21208613249E+04  0.59988625416E+03 0.  0.
        -24    2    4    4    0    0 -0.77330037828E+03 -0.21197951324E+03  0.41457336778E+03  0.90629724472E+03  0.81085321971E+02 0.  0.
         24    2    4    4    0    0 -0.54964341958E+03 -0.43626324373E+03  0.98820611491E+03  0.12145640801E+04  0.78619798171E+02 0.  0.
         11    1    5    5    0    0 -0.15634670810E+03 -0.21767265861E+02  0.11033867684E+03  0.19259473150E+03  0.00000000000E+00 0. -1.
        -12    1    5    5    0    0 -0.61695367019E+03 -0.19021224738E+03  0.30423469093E+03  0.71370251322E+03  0.00000000000E+00 0.  1.
         13    1    3    3    0    0  0.37554029146E+03  0.22476094973E+03 -0.51220755298E+02  0.44064902225E+03  0.00000000000E+00 0. -1.
        -14    1    3    3    0    0  0.94740350640E+03  0.42348180723E+03 -0.12658996072E+03  0.10454354419E+04  0.00000000000E+00 0.  1.
          2    1    6    6  502    0 -0.32079896715E+03 -0.26487839755E+03  0.64961116142E+03  0.77140599158E+03  0.00000000000E+00 0. -1.
         -1    1    6    6    0  502 -0.22884445243E+03 -0.17138484618E+03  0.33859495350E+03  0.44315808854E+03  0.00000000000E+00 0.  1.
<mgrwt>
<rscale>  0 0.14903981E+04</rscale>
<asrwt>0</asrwt>
<pdfrwt beam="1">  1        1 0.37168573E+00 0.14903981E+04</pdfrwt>
<pdfrwt beam="2">  1       -2 0.18322900E+00 0.14903981E+04</pdfrwt>
<totfact> 0.22093115E-01</totfact>
</mgrwt>
</event>
<event>
12    3  0.2422421E-007  0.4527544E+03  0.7818608E-02  0.1026904E+00
         -2   -1    0    0    0  501 -0.00000000000E+00  0.00000000000E+00  0.29322882403E+03  0.29322882403E+03  0.00000000000E+00 0.  1.
          1   -1    0    0  501    0  0.00000000000E+00 -0.00000000000E+00 -0.94832543873E+03  0.94832543873E+03  0.00000000000E+00 0. -1.
        -24    2    1    2    0    0 -0.29797209148E+03  0.65634566291E+02 -0.19868430412E+02  0.31601679387E+03  0.79853590337E+02 0.  0.
    5000000    2    1    2    0    0  0.29797209148E+03 -0.65634566291E+02 -0.63522818429E+03  0.92553746889E+03  0.60000791379E+03 0.  0.
        -24    2    4    4    0    0  0.23052859323E+03  0.20616379552E+03 -0.52201726489E+03  0.61129172560E+03  0.74354596760E+02 0.  0.
         24    2    4    4    0    0  0.67443498243E+02 -0.27179836181E+03 -0.11321091939E+03  0.31424574329E+03  0.86664294657E+02 0.  0.
         11    1    5    5    0    0  0.51648090068E+02  0.87469076062E+02 -0.13818866394E+03  0.17150647602E+03  0.00000000000E+00 0. -1.
        -12    1    5    5    0    0  0.17888050316E+03  0.11869471946E+03 -0.38382860095E+03  0.43978524958E+03  0.00000000000E+00 0.  1.
         13    1    3    3    0    0 -0.16422055959E+03  0.35760503951E+02  0.28930393395E+02  0.17054082648E+03  0.00000000000E+00 0. -1.
        -14    1    3    3    0    0 -0.13375153188E+03  0.29874062341E+02 -0.48798823807E+02  0.14547596738E+03  0.00000000000E+00 0.  1.
          2    1    6    6  502    0  0.72587411120E+02 -0.21133380356E+03 -0.54921988684E+02  0.23010287617E+03  0.00000000000E+00 0. -1.
         -1    1    6    6    0  502 -0.51439128777E+01 -0.60464558244E+02 -0.58288930707E+02  0.84142867115E+02  0.00000000000E+00 0.  1.
<mgrwt>
<rscale>  0 0.45275444E+03</rscale>
<asrwt>0</asrwt>
<pdfrwt beam="1">  1        1 0.14589622E+00 0.45275444E+03</pdfrwt>
<pdfrwt beam="2">  1       -2 0.45112127E-01 0.45275444E+03</pdfrwt>
<totfact> 0.71340714E+01</totfact>
</mgrwt>
</event>
<event>
12    3  0.2422421E-007  0.1205153E+04  0.7818608E-02  0.9108358E-01
          1   -1    0    0  501    0  0.00000000000E+00  0.00000000000E+00  0.17099435737E+04  0.17099435737E+04  0.00000000000E+00 0. -1.
         -2   -1    0    0    0  501 -0.00000000000E+00 -0.00000000000E+00 -0.90967694066E+03  0.90967694066E+03  0.00000000000E+00 0.  1.
        -24    2    1    2    0    0 -0.86220048487E+02 -0.11482025775E+04  0.61654630860E+03  0.13083435580E+04  0.76357446078E+02 0.  0.
    5000000    2    1    2    0    0  0.86220048487E+02  0.11482025775E+04  0.18372032440E+03  0.13112769563E+04  0.59990919549E+03 0.  0.
        -24    2    4    4    0    0  0.28756758739E+03  0.78779670998E+03 -0.22534906741E+02  0.84284616524E+03  0.81012731476E+02 0.  0.
         24    2    4    4    0    0 -0.20134753891E+03  0.36040586748E+03  0.20625523114E+03  0.46843079104E+03  0.80330348483E+02 0.  0.
         11    1    5    5    0    0  0.23262301320E+03  0.65592381984E+03 -0.48517140030E+02  0.69764133807E+03  0.00000000000E+00 0. -1.
        -12    1    5    5    0    0  0.54944574197E+02  0.13187289014E+03  0.25982233288E+02  0.14520482717E+03  0.00000000000E+00 0.  1.
         13    1    3    3    0    0 -0.20446001746E+02 -0.56835570941E+03  0.33954990286E+03  0.66237480926E+03  0.00000000000E+00 0. -1.
        -14    1    3    3    0    0 -0.65774046741E+02 -0.57984686805E+03  0.27699640574E+03  0.64596874878E+03  0.00000000000E+00 0.  1.
          4    1    6    6  502    0 -0.20764602267E+03  0.35226511542E+03  0.19451501932E+03  0.45281748532E+03  0.00000000000E+00 0. -1.
         -3    1    6    6    0  502  0.62984837679E+01  0.81407520564E+01  0.11740211820E+02  0.15613305717E+02  0.00000000000E+00 0.  1.
<mgrwt>
<rscale>  0 0.12051527E+04</rscale>
<asrwt>0</asrwt>
<pdfrwt beam="1">  1        1 0.26306824E+00 0.12051527E+04</pdfrwt>
<pdfrwt beam="2">  1       -2 0.13995030E+00 0.12051527E+04</pdfrwt>
<totfact> 0.14448343E+00</totfact>
</mgrwt>
</event>
<event>
12    3  0.2422421E-007  0.9803979E+03  0.7818608E-02  0.9330309E-01
          1   -1    0    0  501    0  0.00000000000E+00  0.00000000000E+00  0.70120440667E+03  0.70120440667E+03  0.00000000000E+00 0. -1.
         -2   -1    0    0    0  501 -0.00000000000E+00 -0.00000000000E+00 -0.13805414001E+04  0.13805414001E+04  0.00000000000E+00 0.  1.
        -24    2    1    2    0    0  0.88268798846E+03 -0.10754405433E+03 -0.25760530062E+03  0.92909793304E+03  0.78477192035E+02 0.  0.
    5000000    2    1    2    0    0 -0.88268798846E+03  0.10754405433E+03 -0.42173169284E+03  0.11526478738E+04  0.60002974222E+03 0.  0.
        -24    2    4    4    0    0 -0.59260956531E+03 -0.21088382920E+03 -0.23494044052E+03  0.67606103722E+03  0.78761850826E+02 0.  0.
         24    2    4    4    0    0 -0.29007842315E+03  0.31842788353E+03 -0.18679125233E+03  0.47658683654E+03  0.81867162128E+02 0.  0.
         11    1    5    5    0    0 -0.32148567464E+02 -0.24704416392E+02 -0.31791367427E+02  0.51522127500E+02  0.00000000000E+00 0. -1.
        -12    1    5    5    0    0 -0.56046099785E+03 -0.18617941280E+03 -0.20314907309E+03  0.62453890972E+03  0.00000000000E+00 0.  1.
         13    1    3    3    0    0  0.66559760477E+03 -0.11497012738E+03 -0.19503398588E+03  0.70304804766E+03  0.00000000000E+00 0. -1.
        -14    1    3    3    0    0  0.21709038369E+03  0.74260730481E+01 -0.62571314741E+02  0.22604988538E+03  0.00000000000E+00 0.  1.
          4    1    6    6  502    0 -0.17041410115E+02 -0.64818351168E+00 -0.15502258720E+02  0.23046687961E+02  0.00000000000E+00 0. -1.
         -3    1    6    6    0  502 -0.27303701303E+03  0.31907606704E+03 -0.17128899361E+03  0.45354014858E+03  0.00000000000E+00 0.  1.
<mgrwt>
<rscale>  0 0.98039790E+03</rscale>
<asrwt>0</asrwt>
<pdfrwt beam="1">  1        1 0.10787760E+00 0.98039790E+03</pdfrwt>
<pdfrwt beam="2">  1       -2 0.21239098E+00 0.98039790E+03</pdfrwt>
<totfact> 0.26318767E+00</totfact>
</mgrwt>
</event>
<event>
12    3  0.2422421E-007  0.5932074E+03  0.7818608E-02  0.9919600E-01
         -2   -1    0    0    0  501 -0.00000000000E+00  0.00000000000E+00  0.51592149895E+03  0.51592149895E+03  0.00000000000E+00 0.  1.
          1   -1    0    0  501    0  0.00000000000E+00 -0.00000000000E+00 -0.71190430832E+03  0.71190430832E+03  0.00000000000E+00 0. -1.
        -24    2    1    2    0    0 -0.38343949343E+03 -0.24161399054E+03 -0.70787699292E+02  0.46550288457E+03  0.79239331318E+02 0.  0.
    5000000    2    1    2    0    0  0.38343949343E+03  0.24161399054E+03 -0.12519511008E+03  0.76232292270E+03  0.60004937909E+03 0.  0.
        -24    2    4    4    0    0  0.63406143250E+02  0.37823257939E+03 -0.30771721553E+02  0.39307892007E+03  0.80522763494E+02 0.  0.
         24    2    4    4    0    0  0.32003335018E+03 -0.13661858885E+03 -0.94423388524E+02  0.36924400263E+03  0.79620180425E+02 0.  0.
         13    1    3    3    0    0 -0.24469922956E+03 -0.13215088962E+03 -0.88637048277E+01  0.27824474089E+03  0.00000000000E+00 0. -1.
        -14    1    3    3    0    0 -0.13874026387E+03 -0.10946310092E+03 -0.61923994464E+02  0.18725814368E+03  0.00000000000E+00 0.  1.
         13    1    5    5    0    0  0.21110706810E+02  0.12283122943E+03 -0.48165480614E+02  0.13361544218E+03  0.00000000000E+00 0. -1.
        -14    1    5    5    0    0  0.42295436440E+02  0.25540134997E+03  0.17393759062E+02  0.25946347790E+03  0.00000000000E+00 0.  1.
          2    1    6    6  502    0  0.25189357038E+03 -0.11125742447E+03 -0.10705645667E+03  0.29544825302E+03  0.00000000000E+00 0. -1.
         -1    1    6    6    0  502  0.68139779795E+02 -0.25361164380E+02  0.12633068142E+02  0.73795749606E+02  0.00000000000E+00 0.  1.
<mgrwt>
<rscale>  0 0.59320740E+03</rscale>
<asrwt>0</asrwt>
<pdfrwt beam="1">  1        1 0.10952374E+00 0.59320740E+03</pdfrwt>
<pdfrwt beam="2">  1       -2 0.79372539E-01 0.59320740E+03</pdfrwt>
<totfact> 0.33858950E+01</totfact>
</mgrwt>
</event>
<event>
12    3  0.2422421E-007  0.6709761E+03  0.7818608E-02  0.9768196E-01
          1   -1    0    0  501    0  0.00000000000E+00  0.00000000000E+00  0.33008278745E+04  0.33008278745E+04  0.00000000000E+00 0. -1.
         -2   -1    0    0    0  501 -0.00000000000E+00 -0.00000000000E+00 -0.20927678581E+03  0.20927678581E+03  0.00000000000E+00 0.  1.
        -24    2    1    2    0    0  0.50719959164E+03  0.40274858202E+03  0.68194820808E+03  0.94381448420E+03  0.79212221276E+02 0.  0.
    5000000    2    1    2    0    0 -0.50719959164E+03 -0.40274858202E+03  0.24096028806E+04  0.25662901761E+04  0.60016779293E+03 0.  0.
        -24    2    4    4    0    0 -0.37718188538E+03 -0.18725386402E+03  0.21625521834E+04  0.22045067669E+04  0.76733010840E+02 0.  0.
         24    2    4    4    0    0 -0.13001770626E+03 -0.21549471800E+03  0.24705069715E+03  0.36178340919E+03  0.80688355899E+02 0.  0.
         11    1    5    5    0    0 -0.18236163675E+03 -0.13318686671E+03  0.11553979698E+04  0.11772590949E+04  0.00000000000E+00 0. -1.
        -12    1    5    5    0    0 -0.19482024863E+03 -0.54066997314E+02  0.10071542137E+04  0.10272476720E+04  0.00000000000E+00 0.  1.
         13    1    3    3    0    0  0.33303854256E+03  0.21522978951E+03  0.41871899917E+03  0.57668373775E+03  0.00000000000E+00 0. -1.
        -14    1    3    3    0    0  0.17416104908E+03  0.18751879252E+03  0.26322920891E+03  0.36713074645E+03  0.00000000000E+00 0.  1.
          4    1    6    6  502    0 -0.24972833259E+02 -0.10932816343E+03  0.80309796762E+02  0.13793459746E+03  0.00000000000E+00 0. -1.
         -3    1    6    6    0  502 -0.10504487300E+03 -0.10616655457E+03  0.16674090039E+03  0.22384881174E+03  0.00000000000E+00 0.  1.
<mgrwt>
<rscale>  0 0.67097605E+03</rscale>
<asrwt>0</asrwt>
<pdfrwt beam="1">  1        1 0.50781963E+00 0.67097605E+03</pdfrwt>
<pdfrwt beam="2">  1       -2 0.32196431E-01 0.67097605E+03</pdfrwt>
<totfact> 0.30728260E+00</totfact>
</mgrwt>
</event>
<event>
12    3  0.2422421E-007  0.6993597E+03  0.7818608E-02  0.9718328E-01
         -2   -1    0    0    0  501 -0.00000000000E+00  0.00000000000E+00  0.46196009285E+03  0.46196009285E+03  0.00000000000E+00 0.  1.
          1   -1    0    0  501    0  0.00000000000E+00 -0.00000000000E+00 -0.16820057691E+04  0.16820057691E+04  0.00000000000E+00 0. -1.
        -24    2    1    2    0    0  0.67556892126E+03  0.74906694610E+02 -0.83469719138E+02  0.68997331875E+03  0.84211675590E+02 0.  0.
    5000000    2    1    2    0    0 -0.67556892126E+03 -0.74906694610E+02 -0.11365759571E+04  0.14539925432E+04  0.60023747728E+03 0.  0.
        -24    2    4    4    0    0 -0.12510673004E+03 -0.77222661271E+02 -0.77013633641E+03  0.78792033828E+03  0.78060550164E+02 0.  0.
         24    2    4    4    0    0 -0.55046219122E+03  0.23159666610E+01 -0.36643962069E+03  0.66607220492E+03  0.79750855086E+02 0.  0.
         11    1    5    5    0    0 -0.33015874883E+02 -0.64510928069E+02 -0.29460865287E+03  0.30339078131E+03  0.00000000000E+00 0. -1.
        -12    1    5    5    0    0 -0.92090855154E+02 -0.12711733203E+02 -0.47552768354E+03  0.48452955697E+03  0.00000000000E+00 0.  1.
         13    1    3    3    0    0  0.36650417662E+03  0.61365169891E+02 -0.82297342561E+02  0.38060983717E+03  0.00000000000E+00 0. -1.
        -14    1    3    3    0    0  0.30906474464E+03  0.13541524720E+02 -0.11723765769E+01  0.30936348159E+03  0.00000000000E+00 0.  1.
          4    1    6    6  502    0 -0.23594192171E+03 -0.21375232722E+02 -0.11859305080E+03  0.26493358167E+03  0.00000000000E+00 0. -1.
         -3    1    6    6    0  502 -0.31452026951E+03  0.23691199383E+02 -0.24784656989E+03  0.40113862326E+03  0.00000000000E+00 0.  1.
<mgrwt>
<rscale>  0 0.69935970E+03</rscale>
<asrwt>0</asrwt>
<pdfrwt beam="1">  1        1 0.25877011E+00 0.69935970E+03</pdfrwt>
<pdfrwt beam="2">  1       -2 0.71070785E-01 0.69935970E+03</pdfrwt>
<totfact> 0.80769597E+00</totfact>
</mgrwt>
</event>
<event>
12    3  0.2422421E-007  0.1419771E+04  0.7818608E-02  0.8939631E-01
         -2   -1    0    0    0  501 -0.00000000000E+00  0.00000000000E+00  0.61113933897E+03  0.61113933897E+03  0.00000000000E+00 0.  1.
          1   -1    0    0  501    0  0.00000000000E+00 -0.00000000000E+00 -0.33418133624E+04  0.33418133624E+04  0.00000000000E+00 0. -1.
        -24    2    1    2    0    0  0.13536728415E+04 -0.11443111125E+03 -0.14886817452E+04  0.20169087443E+04  0.78885382567E+02 0.  0.
    5000000    2    1    2    0    0 -0.13536728415E+04  0.11443111125E+03 -0.12419922783E+04  0.19360439570E+04  0.60016393035E+03 0.  0.
        -24    2    4    4    0    0 -0.92241110823E+02  0.17582851550E+03 -0.24318290061E+03  0.32393990700E+03  0.79843915293E+02 0.  0.
         24    2    4    4    0    0 -0.12614317307E+04 -0.61397404255E+02 -0.99880937765E+03  0.16121040500E+04  0.79244197635E+02 0.  0.
         13    1    3    3    0    0  0.23071559773E+03 -0.47200738380E+02 -0.27465295222E+03  0.36178977446E+03  0.00000000000E+00 0. -1.
        -14    1    3    3    0    0  0.11229572438E+04 -0.67230372870E+02 -0.12140287929E+04  0.16551189699E+04  0.00000000000E+00 0.  1.
         13    1    5    5    0    0 -0.22060592975E+02  0.12554277058E+03 -0.15188844638E+03  0.19828705745E+03  0.00000000000E+00 0. -1.
        -14    1    5    5    0    0 -0.70180517848E+02  0.50285744922E+02 -0.91294454222E+02  0.12565284955E+03  0.00000000000E+00 0.  1.
          4    1    6    6  502    0 -0.44790813089E+03 -0.58780708353E+02 -0.34547284433E+03  0.56870761518E+03  0.00000000000E+00 0. -1.
         -3    1    6    6    0  502 -0.81352359978E+03 -0.26166959017E+01 -0.65333653332E+03  0.10433964349E+04  0.00000000000E+00 0.  1.
<mgrwt>
<rscale>  0 0.14197707E+04</rscale>
<asrwt>0</asrwt>
<pdfrwt beam="1">  1        1 0.51412514E+00 0.14197707E+04</pdfrwt>
<pdfrwt beam="2">  1       -2 0.94021436E-01 0.14197707E+04</pdfrwt>
<totfact> 0.26973910E-01</totfact>
</mgrwt>
</event>
<event>
12    3  0.2422421E-007  0.1364809E+04  0.7818608E-02  0.8979693E-01
          1   -1    0    0  501    0  0.00000000000E+00  0.00000000000E+00  0.24840820970E+04  0.24840820970E+04  0.00000000000E+00 0. -1.
         -2   -1    0    0    0  501 -0.00000000000E+00 -0.00000000000E+00 -0.80816714578E+03  0.80816714578E+03  0.00000000000E+00 0.  1.
        -24    2    1    2    0    0 -0.92360805676E+03  0.98585490065E+03  0.73364940991E+03  0.15392906028E+04  0.78818625148E+02 0.  0.
    5000000    2    1    2    0    0  0.92360805676E+03 -0.98585490065E+03  0.94226554129E+03  0.17529586399E+04  0.60003159525E+03 0.  0.
        -24    2    4    4    0    0  0.22332750170E+03 -0.42257249552E+03  0.63746644681E+03  0.80056773867E+03  0.78118796721E+02 0.  0.
         24    2    4    4    0    0  0.70028055506E+03 -0.56328240513E+03  0.30479909448E+03  0.95239090125E+03  0.80411548051E+02 0.  0.
         11    1    3    3    0    0 -0.62404153133E+03  0.70521963979E+03  0.53852503823E+03  0.10847911273E+04  0.00000000000E+00 0. -1.
        -12    1    3    3    0    0 -0.29956652543E+03  0.28063526086E+03  0.19512437168E+03  0.45449947549E+03  0.00000000000E+00 0.  1.
         13    1    5    5    0    0  0.22408767785E+03 -0.41983228817E+03  0.61352606911E+03  0.77645906205E+03  0.00000000000E+00 0. -1.
        -14    1    5    5    0    0 -0.76017615081E+00 -0.27402073515E+01  0.23940377699E+02  0.24108676622E+02  0.00000000000E+00 0.  1.
          4    1    6    6  502    0  0.27045957468E+03 -0.21527717569E+03  0.15877430240E+03  0.38039705968E+03  0.00000000000E+00 0. -1.
         -3    1    6    6    0  502  0.42982098038E+03 -0.34800522944E+03  0.14602479209E+03  0.57199384157E+03  0.00000000000E+00 0.  1.
<mgrwt>
<rscale>  0 0.13648091E+04</rscale>
<asrwt>0</asrwt>
<pdfrwt beam="1">  1        1 0.38216647E+00 0.13648091E+04</pdfrwt>
<pdfrwt beam="2">  1       -2 0.12433341E+00 0.13648091E+04</pdfrwt>
<totfact> 0.57145066E-01</totfact>
</mgrwt>
</event>
<event>
12    3  0.2422421E-007  0.1207247E+04  0.7818608E-02  0.9106536E-01
         -2   -1    0    0    0  501 -0.00000000000E+00  0.00000000000E+00  0.13454577964E+04  0.13454577964E+04  0.00000000000E+00 0.  1.
          1   -1    0    0  501    0  0.00000000000E+00 -0.00000000000E+00 -0.11401573723E+04  0.11401573723E+04  0.00000000000E+00 0. -1.
        -24    2    1    2    0    0  0.10306902798E+04 -0.52887792623E+03  0.21476443777E+03  0.11809038866E+04  0.79849307289E+02 0.  0.
    5000000    2    1    2    0    0 -0.10306902798E+04  0.52887792623E+03 -0.94640136739E+01  0.13047112821E+04  0.60012302770E+03 0.  0.
        -24    2    4    4    0    0 -0.70001937516E+02 -0.73717946427E+02  0.99224465399E+02  0.16266109795E+03  0.79237184280E+02 0.  0.
         24    2    4    4    0    0 -0.96068834229E+03  0.60259587266E+03 -0.10868847907E+03  0.11420501842E+04  0.80134642279E+02 0.  0.
         13    1    3    3    0    0  0.35673804985E+03 -0.17147919707E+03  0.36446066095E+02  0.39748643621E+03  0.00000000000E+00 0. -1.
        -14    1    3    3    0    0  0.67395222995E+03 -0.35739872916E+03  0.17831837168E+03  0.78341745037E+03  0.00000000000E+00 0.  1.
         13    1    5    5    0    0  0.10921417801E+02 -0.19014165804E+02 -0.19685872782E+01  0.22015703575E+02  0.00000000000E+00 0. -1.
        -14    1    5    5    0    0 -0.80923355317E+02 -0.54703780623E+02  0.10119305268E+03  0.14064539438E+03  0.00000000000E+00 0.  1.
          4    1    6    6  502    0 -0.31031097500E+03  0.23407464812E+03 -0.55423644015E+02  0.39262656865E+03  0.00000000000E+00 0. -1.
         -3    1    6    6    0  502 -0.65037736729E+03  0.36852122454E+03 -0.53264835057E+02  0.74942361550E+03  0.00000000000E+00 0.  1.
<mgrwt>
<rscale>  0 0.12072475E+04</rscale>
<asrwt>0</asrwt>
<pdfrwt beam="1">  1        1 0.17540883E+00 0.12072475E+04</pdfrwt>
<pdfrwt beam="2">  1       -2 0.20699351E+00 0.12072475E+04</pdfrwt>
<totfact> 0.12096974E+00</totfact>
</mgrwt>
</event>
<event>
12    3  0.2422421E-007  0.1389831E+04  0.7818608E-02  0.8961212E-01
          1   -1    0    0  501    0  0.00000000000E+00  0.00000000000E+00  0.17750438322E+04  0.17750438322E+04  0.00000000000E+00 0. -1.
         -2   -1    0    0    0  501 -0.00000000000E+00 -0.00000000000E+00 -0.19862526972E+04  0.19862526972E+04  0.00000000000E+00 0.  1.
        -24    2    1    2    0    0  0.11525055554E+04  0.76718498391E+03  0.10938676265E+04  0.17662984622E+04  0.80137498452E+02 0.  0.
    5000000    2    1    2    0    0 -0.11525055554E+04 -0.76718498391E+03 -0.13050764915E+04  0.19949980671E+04  0.59995898555E+03 0.  0.
        -24    2    4    4    0    0 -0.58346352307E+03 -0.31424017881E+03 -0.99994065568E+03  0.12022715944E+04  0.79994368500E+02 0.  0.
         24    2    4    4    0    0 -0.56904203229E+03 -0.45294480510E+03 -0.30513583584E+03  0.79272647274E+03  0.79621299207E+02 0.  0.
         11    1    5    5    0    0 -0.53342533002E+03 -0.30595850478E+03 -0.94532562358E+03  0.11277383225E+04  0.00000000000E+00 0. -1.
        -12    1    5    5    0    0 -0.50038193049E+02 -0.82816740279E+01 -0.54615032103E+02  0.74533271899E+02  0.00000000000E+00 0.  1.
         11    1    3    3    0    0  0.12335764564E+03  0.79276293353E+02  0.85929874746E+02  0.16995817956E+03  0.00000000000E+00 0. -1.
        -12    1    3    3    0    0  0.10291479097E+04  0.68790869056E+03  0.10079377518E+04  0.15963402827E+04  0.00000000000E+00 0.  1.
          2    1    6    6  502    0 -0.39111778989E+03 -0.34383989916E+03 -0.24501763305E+03  0.57552814208E+03  0.00000000000E+00 0. -1.
         -1    1    6    6    0  502 -0.17792424240E+03 -0.10910490594E+03 -0.60118202796E+02  0.21719833066E+03  0.00000000000E+00 0.  1.
<mgrwt>
<rscale>  0 0.13898313E+04</rscale>
<asrwt>0</asrwt>
<pdfrwt beam="1">  1        1 0.27308366E+00 0.13898313E+04</pdfrwt>
<pdfrwt beam="2">  1       -2 0.30557734E+00 0.13898313E+04</pdfrwt>
<totfact> 0.10417934E-01</totfact>
</mgrwt>
</event>
<event>
12    3  0.2422421E-007  0.4728755E+03  0.7818608E-02  0.1021112E+00
         -2   -1    0    0    0  501 -0.00000000000E+00  0.00000000000E+00  0.44713727472E+03  0.44713727472E+03  0.00000000000E+00 0.  1.
          1   -1    0    0  501    0  0.00000000000E+00 -0.00000000000E+00 -0.13432340945E+04  0.13432340945E+04  0.00000000000E+00 0. -1.
        -24    2    1    2    0    0 -0.24212813717E+03 -0.38632469619E+03  0.16290263242E+03  0.49070401260E+03  0.79877122152E+02 0.  0.
    5000000    2    1    2    0    0  0.24212813717E+03  0.38632469619E+03 -0.10589994522E+04  0.12996673566E+04  0.59981879965E+03 0.  0.
        -24    2    4    4    0    0  0.10360111240E+03  0.83843084207E+02 -0.91461896655E+03  0.92764044704E+03  0.78905587625E+02 0.  0.
         24    2    4    4    0    0  0.13852702477E+03  0.30248161198E+03 -0.14438048568E+03  0.37202690960E+03  0.82906179784E+02 0.  0.
         11    1    3    3    0    0 -0.28198883309E+02 -0.10695784910E+03  0.47666871423E+02  0.12044620847E+03  0.00000000000E+00 0. -1.
        -12    1    3    3    0    0 -0.21392925386E+03 -0.27936684709E+03  0.11523576099E+03  0.37025780413E+03  0.00000000000E+00 0.  1.
         13    1    5    5    0    0  0.10139036891E+03  0.55232743451E+02 -0.55522418044E+03  0.56710188979E+03  0.00000000000E+00 0. -1.
        -14    1    5    5    0    0  0.22107434955E+01  0.28610340756E+02 -0.35939478610E+03  0.36053855725E+03  0.00000000000E+00 0.  1.
          4    1    6    6  502    0  0.93685777860E+02  0.12591912178E+03 -0.39568754367E+02  0.16185900199E+03  0.00000000000E+00 0. -1.
         -3    1    6    6    0  502  0.44841246909E+02  0.17656249019E+03 -0.10481173131E+03  0.21016790761E+03  0.00000000000E+00 0.  1.
<mgrwt>
<rscale>  0 0.47287550E+03</rscale>
<asrwt>0</asrwt>
<pdfrwt beam="1">  1        1 0.20665140E+00 0.47287550E+03</pdfrwt>
<pdfrwt beam="2">  1       -2 0.68790349E-01 0.47287550E+03</pdfrwt>
<totfact> 0.15328224E+01</totfact>
</mgrwt>
</event>
<event>
12    3  0.2422421E-007  0.5253244E+03  0.7818608E-02  0.1007372E+00
          1   -1    0    0  501    0  0.00000000000E+00  0.00000000000E+00  0.14327254960E+04  0.14327254960E+04  0.00000000000E+00 0. -1.
         -2   -1    0    0    0  501 -0.00000000000E+00 -0.00000000000E+00 -0.33373734431E+03  0.33373734431E+03  0.00000000000E+00 0.  1.
        -24    2    1    2    0    0 -0.19708333070E+03 -0.45662227257E+03  0.12730295178E+03  0.52082166961E+03  0.87769191414E+02 0.  0.
    5000000    2    1    2    0    0  0.19708333070E+03  0.45662227257E+03  0.97168519994E+03  0.12456411707E+04  0.60008670987E+03 0.  0.
        -24    2    4    4    0    0  0.28054534509E+02  0.28889263658E+03  0.70621494577E+02  0.31026164313E+03  0.83838411984E+02 0.  0.
         24    2    4    4    0    0  0.16902879619E+03  0.16772963599E+03  0.90106370536E+03  0.93537952758E+03  0.79467570608E+02 0.  0.
         11    1    5    5    0    0  0.43904500621E+02  0.24500701426E+03  0.34574869879E+02  0.25129955002E+03  0.00000000000E+00 0. -1.
        -12    1    5    5    0    0 -0.15849966112E+02  0.43885622326E+02  0.36046624698E+02  0.58962093117E+02  0.00000000000E+00 0.  1.
         11    1    3    3    0    0 -0.18756031543E+03 -0.34512136366E+03  0.10676338379E+03  0.40704551060E+03  0.00000000000E+00 0. -1.
        -12    1    3    3    0    0 -0.95230152692E+01 -0.11150090891E+03  0.20539567986E+02  0.11377615902E+03  0.00000000000E+00 0.  1.
          4    1    6    6  502    0  0.11028737202E+03  0.54953692016E+02  0.47733430932E+03  0.49298200327E+03  0.00000000000E+00 0. -1.
         -3    1    6    6    0  502  0.58741424164E+02  0.11277594397E+03  0.42372939604E+03  0.44239752432E+03  0.00000000000E+00 0.  1.
<mgrwt>
<rscale>  0 0.52532438E+03</rscale>
<asrwt>0</asrwt>
<pdfrwt beam="1">  1        1 0.22041930E+00 0.52532438E+03</pdfrwt>
<pdfrwt beam="2">  1       -2 0.51344208E-01 0.52532438E+03</pdfrwt>
<totfact> 0.24327398E+01</totfact>
</mgrwt>
</event>
<event>
12    3  0.2422421E-007  0.8913272E+03  0.7818608E-02  0.9436488E-01
         -2   -1    0    0    0  501 -0.00000000000E+00  0.00000000000E+00  0.62427386161E+03  0.62427386161E+03  0.00000000000E+00 0.  1.
          1   -1    0    0  501    0  0.00000000000E+00 -0.00000000000E+00 -0.13893113733E+04  0.13893113733E+04  0.00000000000E+00 0. -1.
        -24    2    1    2    0    0  0.76882703513E+03  0.21178756760E+03 -0.60203188288E+03  0.10023736151E+04  0.79758964564E+02 0.  0.
    5000000    2    1    2    0    0 -0.76882703513E+03 -0.21178756760E+03 -0.16300562884E+03  0.10112116199E+04  0.60002426735E+03 0.  0.
        -24    2    4    4    0    0 -0.37682892830E+03 -0.38999962954E+03 -0.16740152672E+03  0.57321243339E+03  0.80308594848E+02 0.  0.
         24    2    4    4    0    0 -0.39199810683E+03  0.17821206194E+03  0.43958978745E+01  0.43799918649E+03  0.80011928267E+02 0.  0.
         11    1    5    5    0    0 -0.31903000302E+03 -0.28405393698E+03 -0.12166037053E+03  0.44414865496E+03  0.00000000000E+00 0. -1.
        -12    1    5    5    0    0 -0.57798925274E+02 -0.10594569256E+03 -0.45741156185E+02  0.12906377844E+03  0.00000000000E+00 0.  1.
         13    1    3    3    0    0  0.31662829580E+03  0.11225655986E+03 -0.21452565625E+03  0.39859286261E+03  0.00000000000E+00 0. -1.
        -14    1    3    3    0    0  0.45219873933E+03  0.99531007735E+02 -0.38750622663E+03  0.60378075245E+03  0.00000000000E+00 0.  1.
          4    1    6    6  502    0 -0.15622690350E+03  0.35377118259E+02  0.22440532022E+02  0.16174660228E+03  0.00000000000E+00 0. -1.
         -3    1    6    6    0  502 -0.23577120334E+03  0.14283494368E+03 -0.18044634148E+02  0.27625258421E+03  0.00000000000E+00 0.  1.
<mgrwt>
<rscale>  0 0.89132724E+03</rscale>
<asrwt>0</asrwt>
<pdfrwt beam="1">  1        1 0.21374021E+00 0.89132724E+03</pdfrwt>
<pdfrwt beam="2">  1       -2 0.96042133E-01 0.89132724E+03</pdfrwt>
<totfact> 0.63073871E+00</totfact>
</mgrwt>
</event>
<event>
12    3  0.2422421E-007  0.1076561E+04  0.7818608E-02  0.9228343E-01
         -2   -1    0    0    0  501 -0.00000000000E+00  0.00000000000E+00  0.50728865632E+03  0.50728865632E+03  0.00000000000E+00 0.  1.
          1   -1    0    0  501    0  0.00000000000E+00 -0.00000000000E+00 -0.27364717095E+04  0.27364717095E+04  0.00000000000E+00 0. -1.
        -24    2    1    2    0    0 -0.99750858430E+03  0.11250998826E+03 -0.16636652637E+04  0.19446561769E+04  0.78890198885E+02 0.  0.
    5000000    2    1    2    0    0  0.99750858430E+03 -0.11250998826E+03 -0.56551778941E+03  0.12991041889E+04  0.60014952316E+03 0.  0.
        -24    2    4    4    0    0  0.30361687231E+02 -0.16678918356E+03 -0.15797837653E+03  0.24515412763E+03  0.80018216926E+02 0.  0.
         24    2    4    4    0    0  0.96714689707E+03  0.54279195303E+02 -0.40753941288E+03  0.10539500612E+04  0.80018791195E+02 0.  0.
         11    1    3    3    0    0 -0.48767283981E+03  0.60313079230E+02 -0.88992241112E+03  0.10165748197E+04  0.00000000000E+00 0. -1.
        -12    1    3    3    0    0 -0.50983574449E+03  0.52196909027E+02 -0.77374285261E+03  0.92808135723E+03  0.00000000000E+00 0.  1.
         13    1    5    5    0    0  0.28988192780E+02 -0.27337558319E+02 -0.69150813316E+02  0.79809099718E+02  0.00000000000E+00 0. -1.
        -14    1    5    5    0    0  0.13734944503E+01 -0.13945162524E+03 -0.88827563213E+02  0.16534502791E+03  0.00000000000E+00 0.  1.
          2    1    6    6  502    0  0.20827582024E+03  0.32091290642E+02 -0.11719551448E+03  0.24112954370E+03  0.00000000000E+00 0. -1.
         -1    1    6    6    0  502  0.75887107683E+03  0.22187904661E+02 -0.29034389840E+03  0.81282051752E+03  0.00000000000E+00 0.  1.
<mgrwt>
<rscale>  0 0.10765609E+04</rscale>
<asrwt>0</asrwt>
<pdfrwt beam="1">  1        1 0.42099564E+00 0.10765609E+04</pdfrwt>
<pdfrwt beam="2">  1       -2 0.78044409E-01 0.10765609E+04</pdfrwt>
<totfact> 0.11959110E+00</totfact>
</mgrwt>
</event>
<event>
12    3  0.2422421E-007  0.1782588E+04  0.7818608E-02  0.8715614E-01
         -2   -1    0    0    0  501 -0.00000000000E+00  0.00000000000E+00  0.15881472612E+04  0.15881472612E+04  0.00000000000E+00 0.  1.
          1   -1    0    0  501    0  0.00000000000E+00 -0.00000000000E+00 -0.27281487917E+04  0.27281487917E+04  0.00000000000E+00 0. -1.
        -24    2    1    2    0    0  0.49929547121E+03  0.17061650635E+04 -0.15905479628E+04  0.23867106293E+04  0.79054502841E+02 0.  0.
    5000000    2    1    2    0    0 -0.49929547121E+03 -0.17061650635E+04  0.45054643228E+03  0.19295854236E+04  0.60001052303E+03 0.  0.
        -24    2    4    4    0    0 -0.23200699964E+02 -0.88819593798E+02  0.18759174051E+03  0.22137400246E+03  0.73407051007E+02 0.  0.
         24    2    4    4    0    0 -0.47609477124E+03 -0.16173454697E+04  0.26295469178E+03  0.17082114211E+04  0.79802817688E+02 0.  0.
         11    1    3    3    0    0  0.30009621727E+03  0.88790583311E+03 -0.82694853578E+03  0.12499113524E+04  0.00000000000E+00 0. -1.
        -12    1    3    3    0    0  0.19919925393E+03  0.81825923042E+03 -0.76359942700E+03  0.11367992769E+04  0.00000000000E+00 0.  1.
         11    1    5    5    0    0  0.74359191671E+01 -0.53063364030E+01  0.85407022491E+02  0.85894176698E+02  0.00000000000E+00 0. -1.
        -12    1    5    5    0    0 -0.30636619131E+02 -0.83513257395E+02  0.10218471802E+03  0.13547982576E+03  0.00000000000E+00 0.  1.
          4    1    6    6  502    0 -0.26628727207E+03 -0.10344648912E+04  0.17817016737E+03  0.10829455808E+04  0.00000000000E+00 0. -1.
         -3    1    6    6    0  502 -0.20980749917E+03 -0.58288057855E+03  0.84784524410E+02  0.62526584038E+03  0.00000000000E+00 0.  1.
<mgrwt>
<rscale>  0 0.17825876E+04</rscale>
<asrwt>0</asrwt>
<pdfrwt beam="1">  1        1 0.41971519E+00 0.17825876E+04</pdfrwt>
<pdfrwt beam="2">  1       -2 0.24433035E+00 0.17825876E+04</pdfrwt>
<totfact> 0.52073207E-02</totfact>
</mgrwt>
</event>
<event>
12    3  0.2422421E-007  0.3843825E+03  0.7818608E-02  0.1049326E+00
          1   -1    0    0  501    0  0.00000000000E+00  0.00000000000E+00  0.21480487294E+04  0.21480487294E+04  0.00000000000E+00 0. -1.
         -2   -1    0    0    0  501 -0.00000000000E+00 -0.00000000000E+00 -0.13848104027E+03  0.13848104027E+03  0.00000000000E+00 0.  1.
        -24    2    1    2    0    0 -0.31919359264E+03 -0.18489042355E+03  0.84705332196E+03  0.92731563797E+03  0.79661432798E+02 0.  0.
    5000000    2    1    2    0    0  0.31919359264E+03  0.18489042355E+03  0.11625143671E+04  0.13592141317E+04  0.59996198515E+03 0.  0.
        -24    2    4    4    0    0  0.19261516068E+03  0.73579870623E+02  0.37495934283E+02  0.21922047200E+03  0.64320080603E+02 0.  0.
         24    2    4    4    0    0  0.12657843196E+03  0.11131055293E+03  0.11250184329E+04  0.11399936597E+04  0.74208700325E+02 0.  0.
         11    1    3    3    0    0 -0.12128991541E+03 -0.27209976302E+02  0.27312717989E+03  0.30008345970E+03  0.00000000000E+00 0. -1.
        -12    1    3    3    0    0 -0.19790367723E+03 -0.15768044725E+03  0.57392614206E+03  0.62723217827E+03  0.00000000000E+00 0.  1.
         13    1    5    5    0    0  0.17607525007E+03  0.80109895980E+02  0.46981816040E+02  0.19906627078E+03  0.00000000000E+00 0. -1.
        -14    1    5    5    0    0  0.16539910609E+02 -0.65300253572E+01 -0.94858817562E+01  0.20154201220E+02  0.00000000000E+00 0.  1.
          2    1    6    6  502    0  0.53308227524E+02  0.88752924431E+02  0.75933046079E+03  0.76635605132E+03  0.00000000000E+00 0. -1.
         -1    1    6    6    0  502  0.73270204433E+02  0.22557628501E+02  0.36568797207E+03  0.37363760836E+03  0.00000000000E+00 0.  1.
<mgrwt>
<rscale>  0 0.38438248E+03</rscale>
<asrwt>0</asrwt>
<pdfrwt beam="1">  1        1 0.33046901E+00 0.38438248E+03</pdfrwt>
<pdfrwt beam="2">  1       -2 0.21304777E-01 0.38438248E+03</pdfrwt>
<totfact> 0.43658191E+01</totfact>
</mgrwt>
</event>
<event>
12    3  0.2422421E-007  0.7060758E+03  0.7818608E-02  0.9706898E-01
         -2   -1    0    0    0  501 -0.00000000000E+00  0.00000000000E+00  0.54671564604E+03  0.54671564604E+03  0.00000000000E+00 0.  1.
          1   -1    0    0  501    0  0.00000000000E+00 -0.00000000000E+00 -0.17291701191E+04  0.17291701191E+04  0.00000000000E+00 0. -1.
        -24    2    1    2    0    0  0.46178082103E+03  0.41702894067E+03 -0.12604624878E+04  0.14080387993E+04  0.81565391744E+02 0.  0.
    5000000    2    1    2    0    0 -0.46178082103E+03 -0.41702894067E+03  0.78008014718E+02  0.86784696588E+03  0.59993203098E+03 0.  0.
        -24    2    4    4    0    0  0.57942727105E+02  0.39170879888E+02  0.13270757319E+03  0.16956438968E+03  0.79051026635E+02 0.  0.
         24    2    4    4    0    0 -0.51972354814E+03 -0.45619982056E+03 -0.54699558468E+02  0.69828257619E+03  0.79847803674E+02 0.  0.
         11    1    5    5    0    0  0.71508409084E+02  0.25993094351E+02  0.67643475554E+02  0.10180733426E+03  0.00000000000E+00 0. -1.
        -12    1    5    5    0    0 -0.13565681979E+02  0.13177785537E+02  0.65064097632E+02  0.67757055425E+02  0.00000000000E+00 0.  1.
         13    1    3    3    0    0  0.41752730451E+03  0.36916501052E+03 -0.10653322454E+04  0.12023080504E+04  0.00000000000E+00 0. -1.
        -14    1    3    3    0    0  0.44253516521E+02  0.47863930156E+02 -0.19513024242E+03  0.20573074890E+03  0.00000000000E+00 0.  1.
          4    1    6    6  502    0 -0.40245282824E+03 -0.38775054125E+03 -0.25765591452E+02  0.55944850246E+03  0.00000000000E+00 0. -1.
         -3    1    6    6    0  502 -0.11727071990E+03 -0.68449279312E+02 -0.28933967016E+02  0.13883407374E+03  0.00000000000E+00 0.  1.
<mgrwt>
<rscale>  0 0.70607577E+03</rscale>
<asrwt>0</asrwt>
<pdfrwt beam="1">  1        1 0.26602617E+00 0.70607577E+03</pdfrwt>
<pdfrwt beam="2">  1       -2 0.84110101E-01 0.70607577E+03</pdfrwt>
<totfact> 0.51522216E+00</totfact>
</mgrwt>
</event>
<event>
12    3  0.2422421E-007  0.1025939E+04  0.7818608E-02  0.9280544E-01
         -2   -1    0    0    0  501 -0.00000000000E+00  0.00000000000E+00  0.18214932409E+04  0.18214932409E+04  0.00000000000E+00 0.  1.
          1   -1    0    0  501    0  0.00000000000E+00 -0.00000000000E+00 -0.69148223750E+03  0.69148223750E+03  0.00000000000E+00 0. -1.
        -24    2    1    2    0    0 -0.41630490301E+03  0.86213192543E+03  0.69478336768E+02  0.96336628780E+03  0.81646408835E+02 0.  0.
    5000000    2    1    2    0    0  0.41630490301E+03 -0.86213192543E+03  0.10605326666E+04  0.15496091906E+04  0.59998156428E+03 0.  0.
        -24    2    4    4    0    0 -0.11573648291E+02 -0.56618775695E+03  0.73418382494E+03  0.93051637496E+03  0.78309065881E+02 0.  0.
         24    2    4    4    0    0  0.42787855130E+03 -0.29594416848E+03  0.32634884169E+03  0.61909281564E+03  0.78162282373E+02 0.  0.
         11    1    3    3    0    0 -0.16692134387E+03  0.43907500636E+03  0.38027425703E+02  0.47127028482E+03  0.00000000000E+00 0. -1.
        -12    1    3    3    0    0 -0.24938355914E+03  0.42305691907E+03  0.31450911066E+02  0.49209600298E+03  0.00000000000E+00 0.  1.
         11    1    5    5    0    0 -0.29930319375E+02 -0.13836621052E+03  0.15074213581E+03  0.20679512504E+03  0.00000000000E+00 0. -1.
        -12    1    5    5    0    0  0.18356671083E+02 -0.42782154643E+03  0.58344168913E+03  0.72372124992E+03  0.00000000000E+00 0.  1.
          4    1    6    6  502    0  0.75024385311E+02 -0.37352628355E+02  0.23543637842E+02  0.87052743318E+02  0.00000000000E+00 0. -1.
         -1    1    6    6    0  502  0.35285416599E+03 -0.25859154013E+03  0.30280520385E+03  0.53204007232E+03  0.00000000000E+00 0.  1.
<mgrwt>
<rscale>  0 0.10259393E+04</rscale>
<asrwt>0</asrwt>
<pdfrwt beam="1">  1        1 0.10638188E+00 0.10259393E+04</pdfrwt>
<pdfrwt beam="2">  1       -2 0.28022973E+00 0.10259393E+04</pdfrwt>
<totfact> 0.10235703E+00</totfact>
</mgrwt>
</event>
<event>
12    3  0.2422421E-007  0.8786479E+03  0.7818608E-02  0.9452673E-01
          1   -1    0    0  501    0  0.00000000000E+00  0.00000000000E+00  0.31693430812E+04  0.31693430812E+04  0.00000000000E+00 0. -1.
         -2   -1    0    0    0  501 -0.00000000000E+00 -0.00000000000E+00 -0.32180726921E+03  0.32180726921E+03  0.00000000000E+00 0.  1.
        -24    2    1    2    0    0  0.56393441255E+03 -0.54820433834E+03  0.47882900277E+03  0.92421379352E+03  0.79648628454E+02 0.  0.
    5000000    2    1    2    0    0 -0.56393441255E+03  0.54820433834E+03  0.23687068093E+04  0.25669365569E+04  0.59986775281E+03 0.  0.
        -24    2    4    4    0    0 -0.65761790530E+02  0.45566809094E+03  0.13120390537E+04  0.13922293312E+04  0.69985783104E+02 0.  0.
         24    2    4    4    0    0 -0.49817262202E+03  0.92536247395E+02  0.10566677555E+04  0.11747072258E+04  0.81556129707E+02 0.  0.
         11    1    5    5    0    0 -0.72486569075E+02  0.43630215725E+03  0.12136588794E+04  0.12917359446E+04  0.00000000000E+00 0. -1.
        -12    1    5    5    0    0  0.67247785447E+01  0.19365933696E+02  0.98380174341E+02  0.10049338654E+03  0.00000000000E+00 0.  1.
         11    1    3    3    0    0  0.24365084485E+03 -0.22571956913E+03  0.24757532980E+03  0.41425668614E+03  0.00000000000E+00 0. -1.
        -12    1    3    3    0    0  0.32028356770E+03 -0.32248476921E+03  0.23125367296E+03  0.50995710738E+03  0.00000000000E+00 0.  1.
          4    1    6    6  502    0 -0.27919321076E+03  0.34417351962E+02  0.50001350504E+03  0.57371326311E+03  0.00000000000E+00 0. -1.
         -3    1    6    6    0  502 -0.21897941126E+03  0.58118895433E+02  0.55665425051E+03  0.60099396268E+03  0.00000000000E+00 0.  1.
<mgrwt>
<rscale>  0 0.87864794E+03</rscale>
<asrwt>0</asrwt>
<pdfrwt beam="1">  1        1 0.48759122E+00 0.87864794E+03</pdfrwt>
<pdfrwt beam="2">  1       -2 0.49508813E-01 0.87864794E+03</pdfrwt>
<totfact> 0.15950122E+00</totfact>
</mgrwt>
</event>
<event>
12    3  0.2422421E-007  0.1082084E+04  0.7818608E-02  0.9222832E-01
          1   -1    0    0  501    0  0.00000000000E+00  0.00000000000E+00  0.21408863299E+04  0.21408863299E+04  0.00000000000E+00 0. -1.
         -2   -1    0    0    0  501 -0.00000000000E+00 -0.00000000000E+00 -0.10476785616E+04  0.10476785616E+04  0.00000000000E+00 0.  1.
        -24    2    1    2    0    0 -0.56344028463E+03 -0.88593792957E+03  0.15684132033E+04  0.18892664549E+04  0.84004713668E+02 0.  0.
    5000000    2    1    2    0    0  0.56344028463E+03  0.88593792957E+03 -0.47520543494E+03  0.12992984367E+04  0.60000437724E+03 0.  0.
        -24    2    4    4    0    0  0.17847261832E+03  0.54410779584E+02 -0.29932258581E+03  0.36273689135E+03  0.84681955260E+02 0.  0.
         24    2    4    4    0    0  0.38496766631E+03  0.83152714999E+03 -0.17588284913E+03  0.93656154531E+03  0.81087892228E+02 0.  0.
         13    1    3    3    0    0 -0.33606472426E+03 -0.54641788828E+03  0.88566111188E+03  0.10935756090E+04  0.00000000000E+00 0. -1.
        -14    1    3    3    0    0 -0.22737556037E+03 -0.33952004129E+03  0.68275209139E+03  0.79569084586E+03  0.00000000000E+00 0.  1.
         13    1    5    5    0    0  0.97796798216E+02  0.61410190952E+02 -0.12303392455E+03  0.16873876818E+03  0.00000000000E+00 0. -1.
        -14    1    5    5    0    0  0.80675820109E+02 -0.69994113681E+01 -0.17628866125E+03  0.19399812318E+03  0.00000000000E+00 0.  1.
          4    1    6    6  502    0  0.13420202809E+03  0.23726598949E+03 -0.82718173329E+02  0.28486423137E+03  0.00000000000E+00 0. -1.
         -3    1    6    6    0  502  0.25076563822E+03  0.59426116049E+03 -0.93164675805E+02  0.65169731394E+03  0.00000000000E+00 0.  1.
<mgrwt>
<rscale>  0 0.10820838E+04</rscale>
<asrwt>0</asrwt>
<pdfrwt beam="1">  1        1 0.32936713E+00 0.10820838E+04</pdfrwt>
<pdfrwt beam="2">  1       -2 0.16118132E+00 0.10820838E+04</pdfrwt>
<totfact> 0.51420157E-01</totfact>
</mgrwt>
</event>
<event>
12    3  0.2422421E-007  0.6708446E+03  0.7818608E-02  0.9768433E-01
         -2   -1    0    0    0  501 -0.00000000000E+00  0.00000000000E+00  0.67949293306E+03  0.67949293306E+03  0.00000000000E+00 0.  1.
          1   -1    0    0  501    0  0.00000000000E+00 -0.00000000000E+00 -0.22237684096E+04  0.22237684096E+04  0.00000000000E+00 0. -1.
        -24    2    1    2    0    0  0.50597769537E+03 -0.38000053700E+03  0.41345128259E+03  0.76011010589E+03  0.80072302759E+02 0.  0.
    5000000    2    1    2    0    0 -0.50597769537E+03  0.38000053700E+03 -0.19577267591E+04  0.21431512368E+04  0.59999110325E+03 0.  0.
        -24    2    4    4    0    0 -0.36944954636E+01  0.14727079180E+03 -0.11409698128E+04  0.11531691474E+04  0.79275679527E+02 0.  0.
         24    2    4    4    0    0 -0.50228319990E+03  0.23272974520E+03 -0.81675694631E+03  0.98998208937E+03  0.80753208709E+02 0.  0.
         11    1    3    3    0    0  0.42145232437E+03 -0.34187270761E+03  0.32854122058E+03  0.63438028307E+03  0.00000000000E+00 0. -1.
        -12    1    3    3    0    0  0.84525371000E+02 -0.38127829390E+02  0.84910062001E+02  0.12572982282E+03  0.00000000000E+00 0.  1.
         13    1    5    5    0    0  0.37967254129E+01  0.12295641175E+03 -0.10816597861E+04  0.10886324389E+04  0.00000000000E+00 0. -1.
        -14    1    5    5    0    0 -0.74912208764E+01  0.24314380048E+02 -0.59310026760E+02  0.64536708481E+02  0.00000000000E+00 0.  1.
          2    1    6    6  502    0 -0.36768761119E+03  0.13580843581E+03 -0.53860876801E+03  0.66613625906E+03  0.00000000000E+00 0. -1.
         -1    1    6    6    0  502 -0.13459558872E+03  0.96921309390E+02 -0.27814817830E+03  0.32384583031E+03  0.00000000000E+00 0.  1.
<mgrwt>
<rscale>  0 0.67084462E+03</rscale>
<asrwt>0</asrwt>
<pdfrwt beam="1">  1        1 0.34211821E+00 0.67084462E+03</pdfrwt>
<pdfrwt beam="2">  1       -2 0.10453738E+00 0.67084462E+03</pdfrwt>
<totfact> 0.14606262E+00</totfact>
</mgrwt>
</event>
<event>
12    3  0.2422421E-007  0.5331246E+03  0.7818608E-02  0.1005477E+00
         -2   -1    0    0    0  501 -0.00000000000E+00  0.00000000000E+00  0.14491465629E+04  0.14491465629E+04  0.00000000000E+00 0.  1.
          1   -1    0    0  501    0  0.00000000000E+00 -0.00000000000E+00 -0.44096680864E+03  0.44096680864E+03  0.00000000000E+00 0. -1.
        -24    2    1    2    0    0  0.33046006748E+03 -0.17157901213E+03  0.11129338328E+04  0.11762151761E+04  0.78849290648E+02 0.  0.
    5000000    2    1    2    0    0 -0.33046006748E+03  0.17157901213E+03 -0.10475407855E+03  0.71389819545E+03  0.60002833508E+03 0.  0.
        -24    2    4    4    0    0 -0.39489918680E+03 -0.95602701954E+02 -0.10865916626E+03  0.42808148445E+03  0.79760256728E+02 0.  0.
         24    2    4    4    0    0  0.64439119329E+02  0.26718171408E+03  0.39050877102E+01  0.28581671101E+03  0.78342033050E+02 0.  0.
         11    1    5    5    0    0 -0.22160768905E+02 -0.10814791798E+02 -0.28172018413E+02  0.37439578277E+02  0.00000000000E+00 0. -1.
        -12    1    5    5    0    0 -0.37273841790E+03 -0.84787910156E+02 -0.80487147846E+02  0.39064190617E+03  0.00000000000E+00 0.  1.
         11    1    3    3    0    0  0.70715659568E+02 -0.52323196919E+02  0.36710298055E+03  0.37749572153E+03  0.00000000000E+00 0. -1.
        -12    1    3    3    0    0  0.25974440791E+03 -0.11925581521E+03  0.74583085227E+03  0.79871945457E+03  0.00000000000E+00 0.  1.
          2    1    6    6  502    0  0.79314393826E+02  0.17448223026E+03  0.81373573374E+01  0.19183596724E+03  0.00000000000E+00 0. -1.
         -1    1    6    6    0  502 -0.14875274497E+02  0.92699483822E+02 -0.42322696272E+01  0.93980743764E+02  0.00000000000E+00 0.  1.
<mgrwt>
<rscale>  0 0.53312460E+03</rscale>
<asrwt>0</asrwt>
<pdfrwt beam="1">  1        1 0.67841048E-01 0.53312460E+03</pdfrwt>
<pdfrwt beam="2">  1       -2 0.22294562E+00 0.53312460E+03</pdfrwt>
<totfact> 0.46294111E+00</totfact>
</mgrwt>
</event>
<event>
12    3  0.2422421E-007  0.4249963E+03  0.7818608E-02  0.1035452E+00
         -2   -1    0    0    0  501 -0.00000000000E+00  0.00000000000E+00  0.14441856144E+03  0.14441856144E+03  0.00000000000E+00 0.  1.
          1   -1    0    0  501    0  0.00000000000E+00 -0.00000000000E+00 -0.14406150922E+04  0.14406150922E+04  0.00000000000E+00 0. -1.
        -24    2    1    2    0    0 -0.18034692774E+02  0.22241149963E+03 -0.56863822386E+03  0.61600692147E+03  0.79517119863E+02 0.  0.
    5000000    2    1    2    0    0  0.18034692774E+02 -0.22241149963E+03 -0.72755830693E+03  0.96902673220E+03  0.59989965196E+03 0.  0.
        -24    2    4    4    0    0 -0.12192067510E+03  0.16270826957E+03 -0.19170884092E+03  0.29058791089E+03  0.79689536730E+02 0.  0.
         24    2    4    4    0    0  0.13995536788E+03 -0.38511976921E+03 -0.53584946601E+03  0.67843882131E+03  0.72386755738E+02 0.  0.
         11    1    5    5    0    0 -0.10985184503E+03  0.13854712218E+03 -0.19517887293E+03  0.26335816935E+03  0.00000000000E+00 0. -1.
        -12    1    5    5    0    0 -0.12068830068E+02  0.24161147390E+02  0.34700320121E+01  0.27229741545E+02  0.00000000000E+00 0.  1.
         11    1    3    3    0    0 -0.48526873853E+02  0.14970201370E+03 -0.40015993611E+03  0.42999247070E+03  0.00000000000E+00 0. -1.
        -12    1    3    3    0    0  0.30492181080E+02  0.72709485932E+02 -0.16847828775E+03  0.18601445077E+03  0.00000000000E+00 0.  1.
          2    1    6    6  502    0  0.48581802299E+02 -0.15173344369E+03 -0.26668476029E+03  0.31065091472E+03  0.00000000000E+00 0. -1.
         -1    1    6    6    0  502  0.91373565577E+02 -0.23338632552E+03 -0.26916470572E+03  0.36778790659E+03  0.00000000000E+00 0.  1.
<mgrwt>
<rscale>  0 0.42499628E+03</rscale>
<asrwt>0</asrwt>
<pdfrwt beam="1">  1        1 0.22163309E+00 0.42499628E+03</pdfrwt>
<pdfrwt beam="2">  1       -2 0.22218240E-01 0.42499628E+03</pdfrwt>
<totfact> 0.11833035E+02</totfact>
</mgrwt>
</event>
<event>
12    3  0.3426025E-007  0.7734319E+03  0.7818608E-02  0.9599290E-01
          1   -1    0    0  501    0  0.00000000000E+00  0.00000000000E+00  0.24703251737E+04  0.24703251737E+04  0.00000000000E+00 0. -1.
         -4   -1    0    0    0  501 -0.00000000000E+00 -0.00000000000E+00 -0.67556125904E+03  0.67556125904E+03  0.00000000000E+00 0.  1.
        -24    2    1    2    0    0 -0.13562790534E+03 -0.75794874967E+03 -0.30368608582E+03  0.83149451067E+03  0.79225290965E+02 0.  0.
    5000000    2    1    2    0    0  0.13562790534E+03  0.75794874967E+03  0.20984500005E+04  0.23143919221E+04  0.60003027306E+03 0.  0.
        -24    2    4    4    0    0  0.67867668497E+02  0.44186539292E+03  0.47375466571E+03  0.65625268196E+03  0.79831406168E+02 0.  0.
         24    2    4    4    0    0  0.67760236843E+02  0.31608335674E+03  0.16246953348E+04  0.16581392401E+04  0.72736996362E+02 0.  0.
         13    1    3    3    0    0 -0.38918437840E+02 -0.43999893629E+03 -0.17201961042E+03  0.47403001499E+03  0.00000000000E+00 0. -1.
        -14    1    3    3    0    0 -0.96709467501E+02 -0.31794981338E+03 -0.13166647540E+03  0.35746449569E+03  0.00000000000E+00 0.  1.
         13    1    5    5    0    0  0.20634083099E+02  0.21646322285E+03  0.17549434554E+03  0.27942862693E+03  0.00000000000E+00 0. -1.
        -14    1    5    5    0    0  0.47233585399E+02  0.22540217008E+03  0.29826032017E+03  0.37682405504E+03  0.00000000000E+00 0.  1.
          2    1    6    6  502    0  0.69914949654E+00  0.70325774949E+02  0.50220400232E+03  0.50710458821E+03  0.00000000000E+00 0. -1.
         -1    1    6    6    0  502  0.67061087347E+02  0.24575758180E+03  0.11224913325E+04  0.11510346519E+04  0.00000000000E+00 0.  1.
<mgrwt>
<rscale>  0 0.77343189E+03</rscale>
<asrwt>0</asrwt>
<pdfrwt beam="1">  1        1 0.38005002E+00 0.77343189E+03</pdfrwt>
<pdfrwt beam="2">  1       -4 0.10393250E+00 0.77343189E+03</pdfrwt>
<totfact> 0.53486121E-01</totfact>
</mgrwt>
</event>
<event>
12    3  0.2422421E-007  0.1915387E+04  0.7818608E-02  0.8647235E-01
          1   -1    0    0  501    0  0.00000000000E+00  0.00000000000E+00  0.22087627566E+04  0.22087627566E+04  0.00000000000E+00 0. -1.
         -2   -1    0    0    0  501 -0.00000000000E+00 -0.00000000000E+00 -0.19197168077E+04  0.19197168077E+04  0.00000000000E+00 0.  1.
        -24    2    1    2    0    0  0.29293949723E+02  0.19129679686E+04  0.77364858214E+03  0.20657551692E+04  0.92237226017E+02 0.  0.
    5000000    2    1    2    0    0 -0.29293949723E+02 -0.19129679686E+04 -0.48460263328E+03  0.20627243952E+04  0.59973963846E+03 0.  0.
        -24    2    4    4    0    0 -0.31756053126E+02 -0.89184846190E+03 -0.52343328935E+03  0.10377314719E+04  0.80635435360E+02 0.  0.
         24    2    4    4    0    0  0.24621034023E+01 -0.10211195067E+04  0.38830656077E+02  0.10249929233E+04  0.80072242684E+02 0.  0.
         13    1    5    5    0    0  0.65658338407E+01 -0.21296150578E+03 -0.16212500759E+03  0.26773164027E+03  0.00000000000E+00 0. -1.
        -14    1    5    5    0    0 -0.38321886966E+02 -0.67888695612E+03 -0.36130828177E+03  0.76999983161E+03  0.00000000000E+00 0.  1.
         13    1    3    3    0    0  0.34454590743E+02  0.11854833374E+04  0.43434362510E+03  0.12630171205E+04  0.00000000000E+00 0. -1.
        -14    1    3    3    0    0 -0.51606410201E+01  0.72748463124E+03  0.33930495703E+03  0.80273804867E+03  0.00000000000E+00 0.  1.
          4    1    6    6  502    0  0.38264145886E+02 -0.33004908987E+03  0.12306182893E+02  0.33248757679E+03  0.00000000000E+00 0. -1.
         -1    1    6    6    0  502 -0.35802042484E+02 -0.69107041683E+03  0.26524473184E+02  0.69250534651E+03  0.00000000000E+00 0.  1.
<mgrwt>
<rscale>  0 0.19153871E+04</rscale>
<asrwt>0</asrwt>
<pdfrwt beam="1">  1        1 0.33980966E+00 0.19153871E+04</pdfrwt>
<pdfrwt beam="2">  1       -2 0.29534105E+00 0.19153871E+04</pdfrwt>
<totfact> 0.57340716E-02</totfact>
</mgrwt>
</event>
<event>
12    3  0.2422421E-007  0.4540378E+03  0.7818608E-02  0.1026525E+00
          1   -1    0    0  501    0  0.00000000000E+00  0.00000000000E+00  0.84045927816E+03  0.84045927816E+03  0.00000000000E+00 0. -1.
         -2   -1    0    0    0  501 -0.00000000000E+00 -0.00000000000E+00 -0.51476828662E+03  0.51476828662E+03  0.00000000000E+00 0.  1.
        -24    2    1    2    0    0 -0.13902757057E+03  0.34106716656E+03  0.50366533851E+03  0.62909956035E+03  0.80199788840E+02 0.  0.
    5000000    2    1    2    0    0  0.13902757057E+03 -0.34106716656E+03 -0.17797434698E+03  0.72612800443E+03  0.59994294158E+03 0.  0.
        -24    2    4    4    0    0 -0.37303489911E+02 -0.33425755308E+03  0.12338479897E+03  0.36772377427E+03  0.82929508594E+02 0.  0.
         24    2    4    4    0    0  0.17633106048E+03 -0.68096134860E+01 -0.30135914595E+03  0.35840423016E+03  0.80605481381E+02 0.  0.
         11    1    5    5    0    0 -0.54637866415E+02 -0.23789629582E+03  0.60888633148E+02  0.25156981070E+03  0.00000000000E+00 0. -1.
        -12    1    5    5    0    0  0.17334376504E+02 -0.96361257258E+02  0.62496165819E+02  0.11615396356E+03  0.00000000000E+00 0.  1.
         13    1    3    3    0    0 -0.49503390179E+02  0.21030723485E+03  0.32522577692E+03  0.39045041253E+03  0.00000000000E+00 0. -1.
        -14    1    3    3    0    0 -0.89524180387E+02  0.13075993171E+03  0.17843956159E+03  0.23864914782E+03  0.00000000000E+00 0.  1.
          4    1    6    6  502    0  0.32145606731E+02 -0.31800604410E+02 -0.97351479919E+02  0.10734024928E+03  0.00000000000E+00 0. -1.
         -3    1    6    6    0  502  0.14418545375E+03  0.24990990924E+02 -0.20400766603E+03  0.25106398089E+03  0.00000000000E+00 0.  1.
<mgrwt>
<rscale>  0 0.45403779E+03</rscale>
<asrwt>0</asrwt>
<pdfrwt beam="1">  1        1 0.12930143E+00 0.45403779E+03</pdfrwt>
<pdfrwt beam="2">  1       -2 0.79195121E-01 0.45403779E+03</pdfrwt>
<totfact> 0.26755809E+01</totfact>
</mgrwt>
</event>
<event>
12    3  0.2422421E-007  0.6510442E+03  0.7818608E-02  0.9804822E-01
          1   -1    0    0  501    0  0.00000000000E+00  0.00000000000E+00  0.29760782907E+04  0.29760782907E+04  0.00000000000E+00 0. -1.
         -2   -1    0    0    0  501 -0.00000000000E+00 -0.00000000000E+00 -0.20815027417E+03  0.20815027417E+03  0.00000000000E+00 0.  1.
        -24    2    1    2    0    0  0.32914488528E+03 -0.42215386352E+03  0.37001678339E+03  0.65509790994E+03  0.75436142755E+02 0.  0.
    5000000    2    1    2    0    0 -0.32914488528E+03  0.42215386352E+03  0.23979112332E+04  0.25291306550E+04  0.59997778929E+03 0.  0.
        -24    2    4    4    0    0 -0.46584408450E+03  0.41986213072E+03  0.16925496826E+04  0.18062945097E+04  0.68414235446E+02 0.  0.
         24    2    4    4    0    0  0.13669919922E+03  0.22917327986E+01  0.70536155054E+03  0.72283614528E+03  0.79153350133E+02 0.  0.
         11    1    3    3    0    0  0.20288258813E+03 -0.24233259191E+03  0.26063608621E+03  0.40965546390E+03  0.00000000000E+00 0. -1.
        -12    1    3    3    0    0  0.12626229715E+03 -0.17982127161E+03  0.10938069718E+03  0.24544244604E+03  0.00000000000E+00 0.  1.
         13    1    5    5    0    0 -0.27060225823E+03  0.27897126173E+03  0.98508451349E+03  0.10589816078E+04  0.00000000000E+00 0. -1.
        -14    1    5    5    0    0 -0.19524182627E+03  0.14089086899E+03  0.70746516915E+03  0.74731290183E+03  0.00000000000E+00 0.  1.
          2    1    6    6  502    0  0.10352728166E+03  0.47320637342E+01  0.32733078711E+03  0.34334492083E+03  0.00000000000E+00 0. -1.
         -1    1    6    6    0  502  0.33171917561E+02 -0.24403309356E+01  0.37803076343E+03  0.37949122444E+03  0.00000000000E+00 0.  1.
<mgrwt>
<rscale>  0 0.65104415E+03</rscale>
<asrwt>0</asrwt>
<pdfrwt beam="1">  1        1 0.45785817E+00 0.65104415E+03</pdfrwt>
<pdfrwt beam="2">  1       -2 0.32023121E-01 0.65104415E+03</pdfrwt>
<totfact> 0.53752430E+00</totfact>
</mgrwt>
</event>
<event>
12    3  0.2422421E-007  0.6361590E+03  0.7818608E-02  0.9833103E-01
          1   -1    0    0  501    0  0.00000000000E+00  0.00000000000E+00  0.88759830122E+03  0.88759830122E+03  0.00000000000E+00 0. -1.
         -2   -1    0    0    0  501 -0.00000000000E+00 -0.00000000000E+00 -0.58387788552E+03  0.58387788552E+03  0.00000000000E+00 0.  1.
        -24    2    1    2    0    0  0.18218173567E+03  0.53224762775E+03  0.31428440620E+03  0.64907919581E+03  0.77790696043E+02 0.  0.
    5000000    2    1    2    0    0 -0.18218173567E+03 -0.53224762775E+03 -0.10563990495E+02  0.82239699093E+03  0.59978953870E+03 0.  0.
        -24    2    4    4    0    0 -0.98822811746E+02 -0.57275551581E+03 -0.17944025710E+03  0.61346199826E+03  0.79510932721E+02 0.  0.
         24    2    4    4    0    0 -0.83358923925E+02  0.40507888060E+02  0.16887626661E+03  0.20893499267E+03  0.80901412508E+02 0.  0.
         11    1    5    5    0    0 -0.79092286252E+01 -0.27047683396E+03 -0.93909992464E+02  0.28642513907E+03  0.00000000000E+00 0. -1.
        -12    1    5    5    0    0 -0.90913583121E+02 -0.30227868185E+03 -0.85530264641E+02  0.32703685918E+03  0.00000000000E+00 0.  1.
         13    1    3    3    0    0  0.51459566172E+02  0.23877984542E+03  0.10646385109E+03  0.26645534920E+03  0.00000000000E+00 0. -1.
        -14    1    3    3    0    0  0.13072216950E+03  0.29346778233E+03  0.20782055511E+03  0.38262384661E+03  0.00000000000E+00 0.  1.
          2    1    6    6  502    0 -0.38281099400E+02  0.60209352938E+02  0.11986326410E+03  0.13949125719E+03  0.00000000000E+00 0. -1.
         -1    1    6    6    0  502 -0.45077824526E+02 -0.19701464878E+02  0.49013002510E+02  0.69443735479E+02  0.00000000000E+00 0.  1.
<mgrwt>
<rscale>  0 0.63615902E+03</rscale>
<asrwt>0</asrwt>
<pdfrwt beam="1">  1        1 0.13655358E+00 0.63615902E+03</pdfrwt>
<pdfrwt beam="2">  1       -2 0.89827367E-01 0.63615902E+03</pdfrwt>
<totfact> 0.17943845E+01</totfact>
</mgrwt>
</event>
<event>
12    3  0.2422421E-007  0.8683796E+03  0.7818608E-02  0.9465995E-01
          1   -1    0    0  501    0  0.00000000000E+00  0.00000000000E+00  0.22004243206E+04  0.22004243206E+04  0.00000000000E+00 0. -1.
         -2   -1    0    0    0  501 -0.00000000000E+00 -0.00000000000E+00 -0.52749925989E+03  0.52749925989E+03  0.00000000000E+00 0.  1.
        -24    2    1    2    0    0  0.84964069880E+03 -0.10516779799E+03  0.13790980043E+03  0.87079847044E+03  0.79506479465E+02 0.  0.
    5000000    2    1    2    0    0 -0.84964069880E+03  0.10516779799E+03  0.15350152603E+04  0.18571251101E+04  0.59974348041E+03 0.  0.
        -24    2    4    4    0    0 -0.51040930706E+03 -0.31942385276E+02  0.13321913010E+04  0.14291625440E+04  0.78955290684E+02 0.  0.
         24    2    4    4    0    0 -0.33923139174E+03  0.13711018327E+03  0.20282395928E+03  0.42796256607E+03  0.90206762519E+02 0.  0.
         11    1    3    3    0    0  0.45271413693E+03 -0.23607122223E+02  0.49282543689E+02  0.45600017007E+03  0.00000000000E+00 0. -1.
        -12    1    3    3    0    0  0.39692656187E+03 -0.81560675768E+02  0.88627256737E+02  0.41479830036E+03  0.00000000000E+00 0.  1.
         13    1    5    5    0    0 -0.64443878291E+02 -0.14141070873E+02  0.11308482300E+03  0.13092425493E+03  0.00000000000E+00 0. -1.
        -14    1    5    5    0    0 -0.44596542877E+03 -0.17801314403E+02  0.12191064780E+04  0.12982382891E+04  0.00000000000E+00 0.  1.
          2    1    6    6  502    0 -0.94156874012E+02  0.36186263220E+02  0.12452187260E+02  0.10163670369E+03  0.00000000000E+00 0. -1.
         -1    1    6    6    0  502 -0.24507451773E+03  0.10092392005E+03  0.19037177202E+03  0.32632586238E+03  0.00000000000E+00 0.  1.
<mgrwt>
<rscale>  0 0.86837963E+03</rscale>
<asrwt>0</asrwt>
<pdfrwt beam="1">  1        1 0.33852681E+00 0.86837963E+03</pdfrwt>
<pdfrwt beam="2">  1       -2 0.81153734E-01 0.86837963E+03</pdfrwt>
<totfact> 0.26317831E+00</totfact>
</mgrwt>
</event>
<event>
12    3  0.2422421E-007  0.1372558E+04  0.7818608E-02  0.8973925E-01
         -2   -1    0    0    0  501 -0.00000000000E+00  0.00000000000E+00  0.35539446397E+04  0.35539446397E+04  0.00000000000E+00 0.  1.
          1   -1    0    0  501    0  0.00000000000E+00 -0.00000000000E+00 -0.66484841251E+03  0.66484841251E+03  0.00000000000E+00 0. -1.
        -24    2    1    2    0    0 -0.95822768732E+03 -0.90373016717E+03  0.47187584560E+03  0.14013951984E+04  0.79455476556E+02 0.  0.
    5000000    2    1    2    0    0  0.95822768732E+03  0.90373016717E+03  0.24172203816E+04  0.28173978538E+04  0.59987313445E+03 0.  0.
        -24    2    4    4    0    0  0.73925516288E+03  0.33878993078E+03  0.11446088397E+04  0.14054413248E+04  0.62121724519E+02 0.  0.
         24    2    4    4    0    0  0.21897252443E+03  0.56494023639E+03  0.12726115419E+04  0.14119565290E+04  0.83514464666E+02 0.  0.
         11    1    3    3    0    0 -0.75507454457E+03 -0.66637795611E+03  0.36609369298E+03  0.10715510908E+04  0.00000000000E+00 0. -1.
        -12    1    3    3    0    0 -0.20315314275E+03 -0.23735221107E+03  0.10578215262E+03  0.32984410760E+03  0.00000000000E+00 0.  1.
         11    1    5    5    0    0  0.83092716542E+02  0.17920448118E+02  0.12744231680E+03  0.15318970630E+03  0.00000000000E+00 0. -1.
        -12    1    5    5    0    0  0.65616244634E+03  0.32086948266E+03  0.10171665229E+04  0.12522516185E+04  0.00000000000E+00 0.  1.
          2    1    6    6  502    0  0.12206688674E+03  0.21652367345E+03  0.56615769720E+03  0.61831817384E+03  0.00000000000E+00 0. -1.
         -1    1    6    6    0  502  0.96905637693E+02  0.34841656294E+03  0.70645384474E+03  0.79363835511E+03  0.00000000000E+00 0.  1.
<mgrwt>
<rscale>  0 0.13725585E+04</rscale>
<asrwt>0</asrwt>
<pdfrwt beam="1">  1        1 0.10228437E+00 0.13725585E+04</pdfrwt>
<pdfrwt beam="2">  1       -2 0.54676070E+00 0.13725585E+04</pdfrwt>
<totfact> 0.21749011E-02</totfact>
</mgrwt>
</event>
<event>
12    3  0.2422421E-007  0.2521819E+04  0.7818608E-02  0.8395253E-01
         -2   -1    0    0    0  501 -0.00000000000E+00  0.00000000000E+00  0.17332484622E+04  0.17332484622E+04  0.00000000000E+00 0.  1.
          1   -1    0    0  501    0  0.00000000000E+00 -0.00000000000E+00 -0.37528452264E+04  0.37528452264E+04  0.00000000000E+00 0. -1.
        -24    2    1    2    0    0 -0.14489062464E+03  0.25077126074E+04 -0.87365341982E+03  0.26606924615E+04  0.79989136041E+02 0.  0.
    5000000    2    1    2    0    0  0.14489062464E+03 -0.25077126074E+04 -0.11459433444E+04  0.28254012271E+04  0.60007510432E+03 0.  0.
        -24    2    4    4    0    0  0.21597551596E+03 -0.12673269097E+04 -0.85762745467E+03  0.15474732437E+04  0.79910383962E+02 0.  0.
         24    2    4    4    0    0 -0.71084891320E+02 -0.12403856977E+04 -0.28831588974E+03  0.12779279834E+04  0.79775544467E+02 0.  0.
         11    1    5    5    0    0  0.83752941523E+02 -0.57938368545E+03 -0.34615642541E+03  0.68009137697E+03  0.00000000000E+00 0. -1.
        -12    1    5    5    0    0  0.13222257443E+03 -0.68794322426E+03 -0.51147102926E+03  0.86738186675E+03  0.00000000000E+00 0.  1.
         13    1    3    3    0    0 -0.12593611324E+03  0.15634831262E+04 -0.56161996211E+03  0.16660601347E+04  0.00000000000E+00 0. -1.
        -14    1    3    3    0    0 -0.18954511397E+02  0.94422948123E+03 -0.31203345772E+03  0.99463232677E+03  0.00000000000E+00 0.  1.
          2    1    6    6  502    0 -0.84116304479E+02 -0.85546133541E+03 -0.18730026749E+03  0.87975623855E+03  0.00000000000E+00 0. -1.
         -1    1    6    6    0  502  0.13031413159E+02 -0.38492436232E+03 -0.10101562225E+03  0.39817174482E+03  0.00000000000E+00 0.  1.
<mgrwt>
<rscale>  0 0.25218194E+04</rscale>
<asrwt>0</asrwt>
<pdfrwt beam="1">  1        1 0.57736080E+00 0.25218194E+04</pdfrwt>
<pdfrwt beam="2">  1       -2 0.26665361E+00 0.25218194E+04</pdfrwt>
<totfact> 0.58413749E-03</totfact>
</mgrwt>
</event>
<event>
12    3  0.2422421E-007  0.1146669E+04  0.7818608E-02  0.9160862E-01
          1   -1    0    0  501    0  0.00000000000E+00  0.00000000000E+00  0.13565330918E+04  0.13565330918E+04  0.00000000000E+00 0. -1.
         -2   -1    0    0    0  501 -0.00000000000E+00 -0.00000000000E+00 -0.10720821641E+04  0.10720821641E+04  0.00000000000E+00 0.  1.
        -24    2    1    2    0    0  0.10497947773E+04 -0.35503150553E+03 -0.88491732105E+02  0.11145777626E+04  0.79601243066E+02 0.  0.
    5000000    2    1    2    0    0 -0.10497947773E+04  0.35503150553E+03  0.37294265979E+03  0.13140374932E+04  0.59957640196E+03 0.  0.
        -24    2    4    4    0    0 -0.10143665169E+04  0.22004885143E+03  0.45317476875E+03  0.11352289317E+04  0.77565642343E+02 0.  0.
         24    2    4    4    0    0 -0.35428260423E+02  0.13498265409E+03 -0.80232108962E+02  0.17880856149E+03  0.77844921550E+02 0.  0.
         13    1    3    3    0    0  0.80595331162E+03 -0.30488716895E+03 -0.55840502263E+02  0.86350164331E+03  0.00000000000E+00 0. -1.
        -14    1    3    3    0    0  0.24384146566E+03 -0.50144336578E+02 -0.32651229842E+02  0.25107611929E+03  0.00000000000E+00 0.  1.
         13    1    5    5    0    0 -0.18202130359E+03  0.99126191307E+01  0.73367428810E+02  0.19650138571E+03  0.00000000000E+00 0. -1.
        -14    1    5    5    0    0 -0.83234521328E+03  0.21013623230E+03  0.37980733994E+03  0.93872754602E+03  0.00000000000E+00 0.  1.
          2    1    6    6  502    0 -0.68689957265E+01  0.77082460256E+02 -0.83904054248E+02  0.11414367745E+03  0.00000000000E+00 0. -1.
         -1    1    6    6    0  502 -0.28559264696E+02  0.57900193837E+02  0.36719452865E+01  0.64664884045E+02  0.00000000000E+00 0.  1.
<mgrwt>
<rscale>  0 0.11466695E+04</rscale>
<asrwt>0</asrwt>
<pdfrwt beam="1">  1        1 0.20869740E+00 0.11466695E+04</pdfrwt>
<pdfrwt beam="2">  1       -2 0.16493572E+00 0.11466695E+04</pdfrwt>
<totfact> 0.16431138E+00</totfact>
</mgrwt>
</event>
<event>
12    3  0.2422421E-007  0.2682595E+04  0.7818608E-02  0.8340674E-01
          1   -1    0    0  501    0  0.00000000000E+00  0.00000000000E+00  0.26258015509E+04  0.26258015509E+04  0.00000000000E+00 0. -1.
         -2   -1    0    0    0  501 -0.00000000000E+00 -0.00000000000E+00 -0.28151979697E+04  0.28151979697E+04  0.00000000000E+00 0.  1.
        -24    2    1    2    0    0  0.20439318081E+04  0.16870536398E+04 -0.52599076369E+03  0.27029147713E+04  0.72627527115E+02 0.  0.
    5000000    2    1    2    0    0 -0.20439318081E+04 -0.16870536398E+04  0.33659434490E+03  0.27380847493E+04  0.60000426802E+03 0.  0.
        -24    2    4    4    0    0 -0.74262848948E+03 -0.27881690122E+03  0.13219310855E+03  0.80815724675E+03  0.80044860738E+02 0.  0.
         24    2    4    4    0    0 -0.13013033186E+04 -0.14082367386E+04  0.20440123635E+03  0.19299275025E+04  0.79493778242E+02 0.  0.
         11    1    5    5    0    0 -0.35680875096E+03 -0.92968838465E+02  0.50063104885E+02  0.37210482953E+03  0.00000000000E+00 0. -1.
        -12    1    5    5    0    0 -0.38581973852E+03 -0.18584806276E+03  0.82130003669E+02  0.43605241722E+03  0.00000000000E+00 0.  1.
         11    1    3    3    0    0  0.51477433644E+03  0.39560666192E+03 -0.15086630021E+03  0.66652673536E+03  0.00000000000E+00 0. -1.
        -12    1    3    3    0    0  0.15291574716E+04  0.12914469779E+04 -0.37512446349E+03  0.20363880359E+04  0.00000000000E+00 0.  1.
          2    1    6    6  502    0 -0.11191460212E+04 -0.12058224281E+04  0.20294515910E+03  0.16576134297E+04  0.00000000000E+00 0. -1.
         -1    1    6    6    0  502 -0.18215729745E+03 -0.20241431051E+03  0.14560772436E+01  0.27231407285E+03  0.00000000000E+00 0.  1.
<mgrwt>
<rscale>  0 0.26825950E+04</rscale>
<asrwt>0</asrwt>
<pdfrwt beam="1">  1        1 0.40396947E+00 0.26825950E+04</pdfrwt>
<pdfrwt beam="2">  1       -2 0.43310738E+00 0.26825950E+04</pdfrwt>
<totfact> 0.35765618E-03</totfact>
</mgrwt>
</event>
<event>
12    3  0.2422421E-007  0.1311218E+04  0.7818608E-02  0.9020716E-01
         -2   -1    0    0    0  501 -0.00000000000E+00  0.00000000000E+00  0.13509540982E+04  0.13509540982E+04  0.00000000000E+00 0.  1.
          1   -1    0    0  501    0  0.00000000000E+00 -0.00000000000E+00 -0.15810739722E+04  0.15810739722E+04  0.00000000000E+00 0. -1.
        -24    2    1    2    0    0  0.10742170919E+04 -0.69038817588E+03 -0.68287776670E+03  0.14502915128E+04  0.80282214767E+02 0.  0.
    5000000    2    1    2    0    0 -0.10742170919E+04  0.69038817588E+03  0.45275789271E+03  0.14817365576E+04  0.59997943538E+03 0.  0.
        -24    2    4    4    0    0 -0.75226608539E+03  0.24788301214E+03  0.47836040564E+03  0.92853825914E+03  0.77487870431E+02 0.  0.
         24    2    4    4    0    0 -0.32195100649E+03  0.44250516374E+03 -0.25602512931E+02  0.55319829848E+03  0.76873911369E+02 0.  0.
         13    1    3    3    0    0  0.37388335173E+03 -0.20985606590E+03 -0.19763547805E+03  0.47211027449E+03  0.00000000000E+00 0. -1.
        -14    1    3    3    0    0  0.70033374015E+03 -0.48053210998E+03 -0.48524228865E+03  0.97818123832E+03  0.00000000000E+00 0.  1.
         13    1    5    5    0    0 -0.33999295206E+02 -0.46272545973E+01  0.24544068843E+02  0.42187378148E+02  0.00000000000E+00 0. -1.
        -14    1    5    5    0    0 -0.71826679018E+03  0.25251026674E+03  0.45381633680E+03  0.88635088099E+03  0.00000000000E+00 0.  1.
          4    1    6    6  502    0 -0.67076780138E+02  0.12151626319E+03 -0.35275209357E+02  0.14321255898E+03  0.00000000000E+00 0. -1.
         -3    1    6    6    0  502 -0.25487422635E+03  0.32098890055E+03  0.96726964269E+01  0.40998573950E+03  0.00000000000E+00 0.  1.
<mgrwt>
<rscale>  0 0.13112182E+04</rscale>
<asrwt>0</asrwt>
<pdfrwt beam="1">  1        1 0.24324215E+00 0.13112182E+04</pdfrwt>
<pdfrwt beam="2">  1       -2 0.20783909E+00 0.13112182E+04</pdfrwt>
<totfact> 0.57335674E-01</totfact>
</mgrwt>
</event>
<event>
12    3  0.2422421E-007  0.7779551E+03  0.7818608E-02  0.9592486E-01
          1   -1    0    0  501    0  0.00000000000E+00  0.00000000000E+00  0.89167025477E+03  0.89167025477E+03  0.00000000000E+00 0. -1.
         -2   -1    0    0    0  501 -0.00000000000E+00 -0.00000000000E+00 -0.80721933228E+03  0.80721933228E+03  0.00000000000E+00 0.  1.
        -24    2    1    2    0    0 -0.55322201904E+03 -0.48893527389E+03  0.84326064507E+02  0.74751815342E+03  0.80995062339E+02 0.  0.
    5000000    2    1    2    0    0  0.55322201904E+03  0.48893527389E+03  0.12485798125E+00  0.95137143363E+03  0.59999607059E+03 0.  0.
        -24    2    4    4    0    0  0.10597220916E+03  0.29925233826E+03 -0.23792113177E+03  0.40450289861E+03  0.78956057236E+02 0.  0.
         24    2    4    4    0    0  0.44724980988E+03  0.18968293563E+03  0.23804598975E+03  0.54686853502E+03  0.79920540854E+02 0.  0.
         11    1    5    5    0    0  0.85391746431E+02  0.12751344191E+03 -0.98675525022E+02  0.18245078094E+03  0.00000000000E+00 0. -1.
        -12    1    5    5    0    0  0.20580462734E+02  0.17173889635E+03 -0.13924560674E+03  0.22205211767E+03  0.00000000000E+00 0.  1.
         13    1    3    3    0    0 -0.25689714265E+03 -0.19807565816E+03  0.29844653127E+01  0.32440563388E+03  0.00000000000E+00 0. -1.
        -14    1    3    3    0    0 -0.29632487639E+03 -0.29085961573E+03  0.81341599194E+02  0.42311251954E+03  0.00000000000E+00 0.  1.
          2    1    6    6  502    0  0.66105482320E+02  0.53774651266E+02  0.21351911841E+02  0.87849599036E+02  0.00000000000E+00 0. -1.
         -1    1    6    6    0  502  0.38114432756E+03  0.13590828436E+03  0.21669407791E+03  0.45901893598E+03  0.00000000000E+00 0.  1.
<mgrwt>
<rscale>  0 0.77795513E+03</rscale>
<asrwt>0</asrwt>
<pdfrwt beam="1">  1        1 0.13718004E+00 0.77795513E+03</pdfrwt>
<pdfrwt beam="2">  1       -2 0.12418759E+00 0.77795513E+03</pdfrwt>
<totfact> 0.80523287E+00</totfact>
</mgrwt>
</event>
<event>
12    3  0.2422421E-007  0.5250691E+03  0.7818608E-02  0.1007435E+00
         -2   -1    0    0    0  501 -0.00000000000E+00  0.00000000000E+00  0.10675157521E+04  0.10675157521E+04  0.00000000000E+00 0.  1.
          1   -1    0    0  501    0  0.00000000000E+00 -0.00000000000E+00 -0.33317235037E+03  0.33317235037E+03  0.00000000000E+00 0. -1.
        -24    2    1    2    0    0 -0.21651783243E+03  0.35020993545E+03  0.46209161974E+03  0.62374656717E+03  0.77486414105E+02 0.  0.
    5000000    2    1    2    0    0  0.21651783243E+03 -0.35020993545E+03  0.27225178198E+03  0.77694153530E+03  0.59999178814E+03 0.  0.
        -24    2    4    4    0    0 -0.10154378927E+03  0.52639751342E+02 -0.69036106357E+02  0.15534582423E+03  0.79273302975E+02 0.  0.
         24    2    4    4    0    0  0.31806162169E+03 -0.40284968679E+03  0.34128788834E+03  0.62159571107E+03  0.80328948407E+02 0.  0.
         13    1    3    3    0    0 -0.16392760917E+03  0.22772275231E+03  0.26597625307E+03  0.38661774424E+03  0.00000000000E+00 0. -1.
        -14    1    3    3    0    0 -0.52590223260E+02  0.12248718313E+03  0.19611536668E+03  0.23712882292E+03  0.00000000000E+00 0.  1.
         13    1    5    5    0    0 -0.34573201655E+02  0.54025147541E+01 -0.64361216722E+02  0.73258853774E+02  0.00000000000E+00 0. -1.
        -14    1    5    5    0    0 -0.66970587611E+02  0.47237236588E+02 -0.46748896358E+01  0.82086970456E+02  0.00000000000E+00 0.  1.
          4    1    6    6  502    0  0.15751812684E+03 -0.26213132948E+03  0.19207186919E+03  0.36113210480E+03  0.00000000000E+00 0. -1.
         -3    1    6    6    0  502  0.16054349485E+03 -0.14071835731E+03  0.14921601915E+03  0.26046360627E+03  0.00000000000E+00 0.  1.
<mgrwt>
<rscale>  0 0.52506907E+03</rscale>
<asrwt>0</asrwt>
<pdfrwt beam="1">  1        1 0.51257285E-01 0.52506907E+03</pdfrwt>
<pdfrwt beam="2">  1       -2 0.16423319E+00 0.52506907E+03</pdfrwt>
<totfact> 0.16316365E+01</totfact>
</mgrwt>
</event>
<event>
12    3  0.2422421E-007  0.4503468E+03  0.7818608E-02  0.1027619E+00
         -2   -1    0    0    0  501 -0.00000000000E+00  0.00000000000E+00  0.24435632339E+03  0.24435632339E+03  0.00000000000E+00 0.  1.
          1   -1    0    0  501    0  0.00000000000E+00 -0.00000000000E+00 -0.13796415015E+04  0.13796415015E+04  0.00000000000E+00 0. -1.
        -24    2    1    2    0    0  0.33080176194E+03  0.11458085105E+02 -0.55720966017E+02  0.34534379380E+03  0.81218325797E+02 0.  0.
    5000000    2    1    2    0    0 -0.33080176194E+03 -0.11458085105E+02 -0.10795642121E+04  0.12786540311E+04  0.59994678913E+03 0.  0.
        -24    2    4    4    0    0 -0.19979866360E+03  0.22041916846E+03 -0.23291135167E+03  0.38760498773E+03  0.86520592746E+02 0.  0.
         24    2    4    4    0    0 -0.13100309834E+03 -0.23187725357E+03 -0.84665286046E+03  0.89104904341E+03  0.78857207222E+02 0.  0.
         11    1    3    3    0    0  0.17788122329E+03 -0.20811974330E+02 -0.60342878870E+02  0.18898711836E+03  0.00000000000E+00 0. -1.
        -12    1    3    3    0    0  0.15292053865E+03  0.32270059435E+02  0.46219128533E+01  0.15635667545E+03  0.00000000000E+00 0.  1.
         11    1    5    5    0    0 -0.83874475047E+02  0.77676385065E+02 -0.14252131172E+03  0.18270433124E+03  0.00000000000E+00 0. -1.
        -12    1    5    5    0    0 -0.11592418855E+03  0.14274278340E+03 -0.90390039956E+02  0.20490065648E+03  0.00000000000E+00 0.  1.
          4    1    6    6  502    0 -0.34747129276E+02 -0.44563799113E+02 -0.29912682282E+03  0.30441772503E+03  0.00000000000E+00 0. -1.
         -3    1    6    6    0  502 -0.96255969066E+02 -0.18731345446E+03 -0.54752603764E+03  0.58663131838E+03  0.00000000000E+00 0.  1.
<mgrwt>
<rscale>  0 0.45034680E+03</rscale>
<asrwt>0</asrwt>
<pdfrwt beam="1">  1        1 0.21225254E+00 0.45034680E+03</pdfrwt>
<pdfrwt beam="2">  1       -2 0.37593281E-01 0.45034680E+03</pdfrwt>
<totfact> 0.49536783E+01</totfact>
</mgrwt>
</event>
<event>
12    3  0.2422421E-007  0.7536527E+03  0.7818608E-02  0.9629637E-01
         -2   -1    0    0    0  501 -0.00000000000E+00  0.00000000000E+00  0.12770391189E+04  0.12770391189E+04  0.00000000000E+00 0.  1.
          1   -1    0    0  501    0  0.00000000000E+00 -0.00000000000E+00 -0.56750793935E+03  0.56750793935E+03  0.00000000000E+00 0. -1.
        -24    2    1    2    0    0 -0.16642437528E+03  0.61533225042E+03  0.72532204619E+03  0.96896644838E+03  0.80455306210E+02 0.  0.
    5000000    2    1    2    0    0  0.16642437528E+03 -0.61533225042E+03 -0.15790866662E+02  0.87558060985E+03  0.60005099933E+03 0.  0.
        -24    2    4    4    0    0  0.31312482204E+03 -0.62890029063E+03 -0.34503704743E+02  0.70769035245E+03  0.77925602789E+02 0.  0.
         24    2    4    4    0    0 -0.14670044676E+03  0.13568040215E+02  0.18712838081E+02  0.16789025741E+03  0.78306164688E+02 0.  0.
         13    1    5    5    0    0  0.12023713964E+03 -0.17383855681E+03 -0.29450160520E+02  0.21341069687E+03  0.00000000000E+00 0. -1.
        -14    1    5    5    0    0  0.19288768240E+03 -0.45506173382E+03 -0.50535442231E+01  0.49427965557E+03  0.00000000000E+00 0.  1.
         13    1    3    3    0    0 -0.96324717765E+02  0.21092709921E+03  0.27297013436E+03  0.35816391036E+03  0.00000000000E+00 0. -1.
        -14    1    3    3    0    0 -0.70099657514E+02  0.40440515121E+03  0.45235191183E+03  0.61080253802E+03  0.00000000000E+00 0.  1.
          2    1    6    6  502    0 -0.58065330120E+02  0.35500599738E+02 -0.16496316968E+02  0.70028591426E+02  0.00000000000E+00 0. -1.
         -1    1    6    6    0  502 -0.88635116643E+02 -0.21932559524E+02  0.35209155050E+02  0.97861665982E+02  0.00000000000E+00 0.  1.
<mgrwt>
<rscale>  0 0.75365275E+03</rscale>
<asrwt>0</asrwt>
<pdfrwt beam="1">  1        1 0.87308914E-01 0.75365275E+03</pdfrwt>
<pdfrwt beam="2">  1       -2 0.19646756E+00 0.75365275E+03</pdfrwt>
<totfact> 0.46715425E+00</totfact>
</mgrwt>
</event>
<event>
12    3  0.2422421E-007  0.2046536E+04  0.7818608E-02  0.8585167E-01
         -2   -1    0    0    0  501 -0.00000000000E+00  0.00000000000E+00  0.24280102397E+04  0.24280102397E+04  0.00000000000E+00 0.  1.
          1   -1    0    0  501    0  0.00000000000E+00 -0.00000000000E+00 -0.18425101288E+04  0.18425101288E+04  0.00000000000E+00 0. -1.
        -24    2    1    2    0    0  0.11279542400E+04 -0.16708729322E+04  0.76918114228E+03  0.21591787727E+04  0.79474649431E+02 0.  0.
    5000000    2    1    2    0    0 -0.11279542400E+04  0.16708729322E+04 -0.18368103137E+03  0.21113415959E+04  0.59993957210E+03 0.  0.
        -24    2    4    4    0    0 -0.84532082644E+03  0.82609633521E+03  0.54697300998E+02  0.11858646146E+04  0.79250455613E+02 0.  0.
         24    2    4    4    0    0 -0.28263341356E+03  0.84477659696E+03 -0.23837833237E+03  0.92547698129E+03  0.78449144814E+02 0.  0.
         11    1    5    5    0    0 -0.30228552156E+03  0.34840600598E+03  0.13776822598E+02  0.46146839804E+03  0.00000000000E+00 0. -1.
        -12    1    5    5    0    0 -0.54303530488E+03  0.47769032923E+03  0.40920478400E+02  0.72439621654E+03  0.00000000000E+00 0.  1.
         13    1    3    3    0    0  0.90999378024E+03 -0.13000017706E+04  0.58534446842E+03  0.16913667344E+04  0.00000000000E+00 0. -1.
        -14    1    3    3    0    0  0.21796045975E+03 -0.37087116156E+03  0.18383667386E+03  0.46781203826E+03  0.00000000000E+00 0.  1.
          2    1    6    6  502    0 -0.22903525886E+03  0.72510287520E+03 -0.22837088065E+03  0.79396762438E+03  0.00000000000E+00 0. -1.
         -1    1    6    6    0  502 -0.53598154690E+02  0.11967372176E+03 -0.10007451724E+02  0.13150935691E+03  0.00000000000E+00 0.  1.
<mgrwt>
<rscale>  0 0.20465363E+04</rscale>
<asrwt>0</asrwt>
<pdfrwt beam="1">  1        1 0.28346310E+00 0.20465363E+04</pdfrwt>
<pdfrwt beam="2">  1       -2 0.37354004E+00 0.20465363E+04</pdfrwt>
<totfact> 0.32610231E-02</totfact>
</mgrwt>
</event>
<event>
12    3  0.2422421E-007  0.6811356E+03  0.7818608E-02  0.9750048E-01
          1   -1    0    0  501    0  0.00000000000E+00  0.00000000000E+00  0.21161630866E+04  0.21161630866E+04  0.00000000000E+00 0. -1.
         -2   -1    0    0    0  501 -0.00000000000E+00 -0.00000000000E+00 -0.30149332196E+03  0.30149332196E+03  0.00000000000E+00 0.  1.
        -24    2    1    2    0    0 -0.15050367961E+03 -0.54148029203E+03  0.19212257525E+03  0.59855955705E+03  0.74230688950E+02 0.  0.
    5000000    2    1    2    0    0  0.15050367961E+03  0.54148029203E+03  0.16225471894E+04  0.18190968515E+04  0.60050121497E+03 0.  0.
        -24    2    4    4    0    0  0.35957823381E+03  0.27450971010E+03  0.10907951366E+04  0.11835038238E+04  0.78709489461E+02 0.  0.
         24    2    4    4    0    0 -0.20907455420E+03  0.26697058193E+03  0.53175205275E+03  0.63559302769E+03  0.78948023513E+02 0.  0.
         11    1    5    5    0    0  0.87032527754E+02  0.73380556207E+02  0.36941275929E+03  0.38655549878E+03  0.00000000000E+00 0. -1.
        -12    1    5    5    0    0  0.27254570606E+03  0.20112915389E+03  0.72138237734E+03  0.79694832503E+03  0.00000000000E+00 0.  1.
         11    1    3    3    0    0 -0.28179723954E+02 -0.73004842942E+02  0.16867753663E+01  0.78272914512E+02  0.00000000000E+00 0. -1.
        -12    1    3    3    0    0 -0.12232395566E+03 -0.46847544908E+03  0.19043579989E+03  0.52028664254E+03  0.00000000000E+00 0.  1.
          4    1    6    6  502    0 -0.11238766432E+03  0.83948518133E+02  0.23739022782E+03  0.27573984306E+03  0.00000000000E+00 0. -1.
         -3    1    6    6    0  502 -0.96686889875E+02  0.18302206379E+03  0.29436182493E+03  0.35985318463E+03  0.00000000000E+00 0.  1.
<mgrwt>
<rscale>  0 0.68113563E+03</rscale>
<asrwt>0</asrwt>
<pdfrwt beam="1">  1        1 0.32556354E+00 0.68113563E+03</pdfrwt>
<pdfrwt beam="2">  1       -2 0.46383589E-01 0.68113563E+03</pdfrwt>
<totfact> 0.10142970E+01</totfact>
</mgrwt>
</event>
<event>
12    3  0.2422421E-007  0.8095097E+03  0.7818608E-02  0.9546353E-01
          1   -1    0    0  501    0  0.00000000000E+00  0.00000000000E+00  0.55766217793E+03  0.55766217793E+03  0.00000000000E+00 0. -1.
         -2   -1    0    0    0  501 -0.00000000000E+00 -0.00000000000E+00 -0.12751614791E+04  0.12751614791E+04  0.00000000000E+00 0.  1.
        -24    2    1    2    0    0 -0.46696536248E+03 -0.56526495204E+03 -0.35732800334E+03  0.81924943551E+03  0.76845428231E+02 0.  0.
    5000000    2    1    2    0    0  0.46696536248E+03  0.56526495204E+03 -0.36017129784E+03  0.10135742215E+04  0.60002351870E+03 0.  0.
        -24    2    4    4    0    0  0.46807180403E+03  0.62880980747E+03 -0.42253639103E+03  0.89427602962E+03  0.81851253589E+02 0.  0.
         24    2    4    4    0    0 -0.11064415423E+01 -0.63544855432E+02  0.62365093185E+02  0.11929819191E+03  0.79394463781E+02 0.  0.
         13    1    3    3    0    0 -0.11993639010E+03 -0.18050884870E+03 -0.13571436971E+03  0.25570798242E+03  0.00000000000E+00 0. -1.
        -14    1    3    3    0    0 -0.34702897238E+03 -0.38475610334E+03 -0.22161363363E+03  0.56354145308E+03  0.00000000000E+00 0.  1.
         13    1    5    5    0    0  0.46475704652E+03  0.62856590486E+03 -0.41287479030E+03  0.88405870931E+03  0.00000000000E+00 0. -1.
        -14    1    5    5    0    0  0.33147575077E+01  0.24390261704E+00 -0.96616007242E+01  0.10217320313E+02  0.00000000000E+00 0.  1.
          4    1    6    6  502    0 -0.16999540738E+01 -0.81314395198E+02  0.60610237080E+02  0.10143234962E+03  0.00000000000E+00 0. -1.
         -3    1    6    6    0  502  0.59351253144E+00  0.17769539766E+02  0.17548561048E+01  0.17865842286E+02  0.00000000000E+00 0.  1.
<mgrwt>
<rscale>  0 0.80950966E+03</rscale>
<asrwt>0</asrwt>
<pdfrwt beam="1">  1        1 0.85794182E-01 0.80950966E+03</pdfrwt>
<pdfrwt beam="2">  1       -2 0.19617869E+00 0.80950966E+03</pdfrwt>
<totfact> 0.47776900E+00</totfact>
</mgrwt>
</event>
<event>
12    3  0.2422421E-007  0.4329681E+03  0.7818608E-02  0.1032926E+00
          3   -1    0    0  501    0  0.00000000000E+00  0.00000000000E+00  0.74606447746E+03  0.74606447746E+03  0.00000000000E+00 0. -1.
         -4   -1    0    0    0  501 -0.00000000000E+00 -0.00000000000E+00 -0.29471351135E+03  0.29471351135E+03  0.00000000000E+00 0.  1.
        -24    2    1    2    0    0 -0.23952567303E+03  0.10456717663E+03  0.20664923122E+03  0.34224821019E+03  0.78250176667E+02 0.  0.
    5000000    2    1    2    0    0  0.23952567303E+03 -0.10456717663E+03  0.24470173489E+03  0.69852977862E+03  0.59979835786E+03 0.  0.
        -24    2    4    4    0    0  0.26923527861E+03  0.16584574850E+03  0.25658708440E+03  0.41460355895E+03  0.77889226918E+02 0.  0.
         24    2    4    4    0    0 -0.29709605576E+02 -0.27041292513E+03 -0.11885349507E+02  0.28392621967E+03  0.80417821074E+02 0.  0.
         13    1    5    5    0    0  0.61818080094E+02  0.35379729417E+02  0.19975969745E+02  0.73974587848E+02  0.00000000000E+00 0. -1.
        -14    1    5    5    0    0  0.20741719851E+03  0.13046601908E+03  0.23661111466E+03  0.34062897110E+03  0.00000000000E+00 0.  1.
         13    1    3    3    0    0 -0.16634645817E+03  0.46836768958E+02  0.96420715608E+02  0.19789335883E+03  0.00000000000E+00 0. -1.
        -14    1    3    3    0    0 -0.73179214862E+02  0.57730407673E+02  0.11022851561E+03  0.14435485136E+03  0.00000000000E+00 0.  1.
          4    1    6    6  502    0 -0.44676916251E+02 -0.72429036683E+02 -0.54143546728E+01  0.85271961611E+02  0.00000000000E+00 0. -1.
         -3    1    6    6    0  502  0.14967310675E+02 -0.19798388844E+03 -0.64709948343E+01  0.19865425806E+03  0.00000000000E+00 0.  1.
<mgrwt>
<rscale>  0 0.43296814E+03</rscale>
<asrwt>0</asrwt>
<pdfrwt beam="1">  1        3 0.11477915E+00 0.43296814E+03</pdfrwt>
<pdfrwt beam="2">  1       -4 0.45340540E-01 0.43296814E+03</pdfrwt>
<totfact> 0.67072993E+00</totfact>
</mgrwt>
</event>
<event>
12    3  0.2422421E-007  0.5249138E+03  0.7818608E-02  0.1007473E+00
          1   -1    0    0  501    0  0.00000000000E+00  0.00000000000E+00  0.57735759361E+03  0.57735759361E+03  0.00000000000E+00 0. -1.
         -2   -1    0    0    0  501 -0.00000000000E+00 -0.00000000000E+00 -0.60498518535E+03  0.60498518535E+03  0.00000000000E+00 0.  1.
        -24    2    1    2    0    0 -0.42463586837E+03  0.28223977623E+02  0.56746438286E+02  0.44191081621E+03  0.10465561433E+03 0.  0.
    5000000    2    1    2    0    0  0.42463586837E+03 -0.28223977623E+02 -0.84374030021E+02  0.74043196275E+03  0.60000691738E+03 0.  0.
        -24    2    4    4    0    0  0.37084025033E+02  0.16656926248E+03 -0.21095215897E+03  0.28229934850E+03  0.77920245560E+02 0.  0.
         24    2    4    4    0    0  0.38755184333E+03 -0.19479324011E+03  0.12657812895E+03  0.45813261425E+03  0.75648078969E+02 0.  0.
         11    1    5    5    0    0  0.16993438000E+02  0.20197856821E+02 -0.82174533525E+02  0.86309815868E+02  0.00000000000E+00 0. -1.
        -12    1    5    5    0    0  0.20090587032E+02  0.14637140566E+03 -0.12877762545E+03  0.19598953263E+03  0.00000000000E+00 0.  1.
         13    1    3    3    0    0 -0.39825159055E+03  0.19915679557E+01  0.37490276884E+02  0.40001727035E+03  0.00000000000E+00 0. -1.
        -14    1    3    3    0    0 -0.26384277819E+02  0.26232409668E+02  0.19256161403E+02  0.41893545863E+02  0.00000000000E+00 0.  1.
          2    1    6    6  502    0  0.16109177371E+03 -0.40205460629E+02  0.43687179575E+02  0.17168461865E+03  0.00000000000E+00 0. -1.
         -1    1    6    6    0  502  0.22646006963E+03 -0.15458777948E+03  0.82890949378E+02  0.28644799561E+03  0.00000000000E+00 0.  1.
<mgrwt>
<rscale>  0 0.52491377E+03</rscale>
<asrwt>0</asrwt>
<pdfrwt beam="1">  1        1 0.88824245E-01 0.52491377E+03</pdfrwt>
<pdfrwt beam="2">  1       -2 0.93074645E-01 0.52491377E+03</pdfrwt>
<totfact> 0.32225196E+01</totfact>
</mgrwt>
</event>
<event>
12    3  0.2422421E-007  0.6912017E+03  0.7818608E-02  0.9732398E-01
         -2   -1    0    0    0  501 -0.00000000000E+00  0.00000000000E+00  0.10044444042E+04  0.10044444042E+04  0.00000000000E+00 0.  1.
          1   -1    0    0  501    0  0.00000000000E+00 -0.00000000000E+00 -0.74663007712E+03  0.74663007712E+03  0.00000000000E+00 0. -1.
        -24    2    1    2    0    0 -0.34117457595E+02 -0.58174974856E+03 -0.37908148856E+03  0.69971027080E+03  0.79340514419E+02 0.  0.
    5000000    2    1    2    0    0  0.34117457595E+02  0.58174974856E+03  0.63689581561E+03  0.10513642105E+04  0.60011136659E+03 0.  0.
        -24    2    4    4    0    0  0.27814847183E+03  0.27645107741E+03  0.47331873662E+03  0.62012461312E+03  0.82049611752E+02 0.  0.
         24    2    4    4    0    0 -0.24403101424E+03  0.30529867115E+03  0.16357707899E+03  0.43123959738E+03  0.80322568784E+02 0.  0.
         13    1    5    5    0    0  0.27693636212E+03  0.28183135491E+03  0.46614660982E+03  0.61107718262E+03  0.00000000000E+00 0. -1.
        -14    1    5    5    0    0  0.12121097082E+01 -0.53802774991E+01  0.71721267971E+01  0.90474305029E+01  0.00000000000E+00 0.  1.
         13    1    3    3    0    0 -0.40017220567E+02 -0.23182606345E+03 -0.11873177045E+03  0.26351837688E+03  0.00000000000E+00 0. -1.
        -14    1    3    3    0    0  0.58997629719E+01 -0.34992368511E+03 -0.26034971811E+03  0.43619189392E+03  0.00000000000E+00 0.  1.
          2    1    6    6  502    0 -0.25961475302E+02  0.75038205733E+02  0.52617914971E+02  0.95254267596E+02  0.00000000000E+00 0. -1.
         -1    1    6    6    0  502 -0.21806953893E+03  0.23026046542E+03  0.11095916402E+03  0.33598532978E+03  0.00000000000E+00 0.  1.
<mgrwt>
<rscale>  0 0.69120169E+03</rscale>
<asrwt>0</asrwt>
<pdfrwt beam="1">  1        1 0.11486617E+00 0.69120169E+03</pdfrwt>
<pdfrwt beam="2">  1       -2 0.15452991E+00 0.69120169E+03</pdfrwt>
<totfact> 0.61625110E+00</totfact>
</mgrwt>
</event>
<event>
12    3  0.2422421E-007  0.1447700E+04  0.7818608E-02  0.8919997E-01
         -2   -1    0    0    0  501 -0.00000000000E+00  0.00000000000E+00  0.21512794783E+04  0.21512794783E+04  0.00000000000E+00 0.  1.
          1   -1    0    0  501    0  0.00000000000E+00 -0.00000000000E+00 -0.17273666988E+04  0.17273666988E+04  0.00000000000E+00 0. -1.
        -24    2    1    2    0    0 -0.32578885684E+03 -0.14014303769E+04 -0.10106991997E+04  0.17601501548E+04  0.80437644641E+02 0.  0.
    5000000    2    1    2    0    0  0.32578885684E+03  0.14014303769E+04  0.14346119791E+04  0.21184960223E+04  0.59980695684E+03 0.  0.
        -24    2    4    4    0    0  0.32242556775E+03  0.11631641733E+04  0.14216572090E+04  0.18666492750E+04  0.79756850912E+02 0.  0.
         24    2    4    4    0    0  0.33632890914E+01  0.23826620358E+03  0.12954770134E+02  0.25184674731E+03  0.80478957348E+02 0.  0.
         11    1    5    5    0    0  0.18581405147E+03  0.74277494856E+03  0.95191973364E+03  0.12216352423E+04  0.00000000000E+00 0. -1.
        -12    1    5    5    0    0  0.13661151628E+03  0.42038922476E+03  0.46973747536E+03  0.64501403274E+03  0.00000000000E+00 0.  1.
         11    1    3    3    0    0 -0.12376913656E+03 -0.48283697047E+03 -0.30583502518E+03  0.58479517940E+03  0.00000000000E+00 0. -1.
        -12    1    3    3    0    0 -0.20201972028E+03 -0.91859340643E+03 -0.70486417449E+03  0.11753549754E+04  0.00000000000E+00 0.  1.
          2    1    6    6  502    0 -0.33967547522E+02  0.11705123074E+03 -0.12382209202E+02  0.12250756714E+03  0.00000000000E+00 0. -1.
         -1    1    6    6    0  502  0.37330836613E+02  0.12121497285E+03  0.25336979335E+02  0.12933918017E+03  0.00000000000E+00 0.  1.
<mgrwt>
<rscale>  0 0.14477001E+04</rscale>
<asrwt>0</asrwt>
<pdfrwt beam="1">  1        1 0.26574872E+00 0.14477001E+04</pdfrwt>
<pdfrwt beam="2">  1       -2 0.33096608E+00 0.14477001E+04</pdfrwt>
<totfact> 0.77745425E-02</totfact>
</mgrwt>
</event>
<event>
12    3  0.2422421E-007  0.1036165E+04  0.7818608E-02  0.9269745E-01
          1   -1    0    0  501    0  0.00000000000E+00  0.00000000000E+00  0.13508338516E+04  0.13508338516E+04  0.00000000000E+00 0. -1.
         -2   -1    0    0    0  501 -0.00000000000E+00 -0.00000000000E+00 -0.95831152225E+03  0.95831152225E+03  0.00000000000E+00 0.  1.
        -24    2    1    2    0    0  0.92563952524E+02  0.98151106156E+03 -0.20410483208E+03  0.10099696191E+04  0.80298192415E+02 0.  0.
    5000000    2    1    2    0    0 -0.92563952524E+02 -0.98151106156E+03  0.59662716144E+03  0.12991757548E+04  0.59996801813E+03 0.  0.
        -24    2    4    4    0    0 -0.21882304085E+03 -0.90832722661E+03  0.62903692383E+03  0.11290279102E+04  0.77940340625E+02 0.  0.
         24    2    4    4    0    0  0.12625908833E+03 -0.73183834946E+02 -0.32409762381E+02  0.17014784457E+03  0.81256785760E+02 0.  0.
         11    1    3    3    0    0  0.10214987539E+03  0.71569623938E+03 -0.14032133940E+03  0.73644129596E+03  0.00000000000E+00 0. -1.
        -12    1    3    3    0    0 -0.95859228617E+01  0.26581482218E+03 -0.63783492689E+02  0.27352832312E+03  0.00000000000E+00 0.  1.
         13    1    5    5    0    0 -0.84630819139E+02 -0.46483995003E+03  0.35188001755E+03  0.58911637343E+03  0.00000000000E+00 0. -1.
        -14    1    5    5    0    0 -0.13419222171E+03 -0.44348727658E+03  0.27715690628E+03  0.53991153679E+03  0.00000000000E+00 0.  1.
          2    1    6    6  502    0  0.63437453445E+02 -0.49363805270E+02  0.22397068002E+02  0.83442941136E+02  0.00000000000E+00 0. -1.
         -1    1    6    6    0  502  0.62821634881E+02 -0.23820029676E+02 -0.54806830383E+02  0.86704903434E+02  0.00000000000E+00 0.  1.
<mgrwt>
<rscale>  0 0.10361650E+04</rscale>
<asrwt>0</asrwt>
<pdfrwt beam="1">  1        1 0.20782059E+00 0.10361650E+04</pdfrwt>
<pdfrwt beam="2">  1       -2 0.14743254E+00 0.10361650E+04</pdfrwt>
<totfact> 0.22733593E+00</totfact>
</mgrwt>
</event>
<event>
12    3  0.2422421E-007  0.4796744E+03  0.7818608E-02  0.1019225E+00
          1   -1    0    0  501    0  0.00000000000E+00  0.00000000000E+00  0.18958905801E+04  0.18958905801E+04  0.00000000000E+00 0. -1.
         -2   -1    0    0    0  501 -0.00000000000E+00 -0.00000000000E+00 -0.19516504565E+03  0.19516504565E+03  0.00000000000E+00 0.  1.
        -24    2    1    2    0    0  0.41257767649E+03 -0.97682165798E+02  0.93573102748E+03  0.10303691042E+04  0.79409007591E+02 0.  0.
    5000000    2    1    2    0    0 -0.41257767649E+03  0.97682165798E+02  0.76499450693E+03  0.10606865215E+04  0.60006429371E+03 0.  0.
        -24    2    4    4    0    0 -0.23316961178E+03  0.19924126526E+03  0.77705717484E+03  0.83929387336E+03  0.80815860124E+02 0.  0.
         24    2    4    4    0    0 -0.17940806471E+03 -0.10155909946E+03 -0.12062667901E+02  0.22139264814E+03  0.79797821561E+02 0.  0.
         11    1    5    5    0    0 -0.21276007799E+02  0.51367722733E+02  0.97029475858E+02  0.11183036543E+03  0.00000000000E+00 0. -1.
        -12    1    5    5    0    0 -0.21189360398E+03  0.14787354253E+03  0.68002769898E+03  0.72746350793E+03  0.00000000000E+00 0.  1.
         13    1    3    3    0    0  0.57234526442E+02 -0.39459472567E+02  0.18831371753E+03  0.20073588917E+03  0.00000000000E+00 0. -1.
        -14    1    3    3    0    0  0.35534315005E+03 -0.58222693232E+02  0.74741730995E+03  0.82963321505E+03  0.00000000000E+00 0.  1.
          2    1    6    6  502    0 -0.38187011294E+02  0.54507521824E+01 -0.21118068081E+02  0.43976486108E+02  0.00000000000E+00 0. -1.
         -3    1    6    6    0  502 -0.14122105342E+03 -0.10700985165E+03  0.90554001796E+01  0.17741616203E+03  0.00000000000E+00 0.  1.
<mgrwt>
<rscale>  0 0.47967440E+03</rscale>
<asrwt>0</asrwt>
<pdfrwt beam="1">  1        1 0.29167546E+00 0.47967440E+03</pdfrwt>
<pdfrwt beam="2">  1       -2 0.30025393E-01 0.47967440E+03</pdfrwt>
<totfact> 0.33923328E+01</totfact>
</mgrwt>
</event>
<event>
12    3  0.2422421E-007  0.1196685E+04  0.7818608E-02  0.9115763E-01
          1   -1    0    0  501    0  0.00000000000E+00  0.00000000000E+00  0.74876728082E+03  0.74876728082E+03  0.00000000000E+00 0. -1.
         -2   -1    0    0    0  501 -0.00000000000E+00 -0.00000000000E+00 -0.23743239555E+04  0.23743239555E+04  0.00000000000E+00 0.  1.
        -24    2    1    2    0    0  0.60092132376E+02  0.11938782523E+04 -0.12555451047E+04  0.17354521245E+04  0.80275903328E+02 0.  0.
    5000000    2    1    2    0    0 -0.60092132376E+02 -0.11938782523E+04 -0.37001156998E+03  0.13876391119E+04  0.59973110416E+03 0.  0.
        -24    2    4    4    0    0 -0.56036525804E+02 -0.75775631965E+03 -0.51435463189E+03  0.92127190074E+03  0.82743552974E+02 0.  0.
         24    2    4    4    0    0 -0.40556065720E+01 -0.43612193262E+03  0.14434306190E+03  0.46636721115E+03  0.80278689922E+02 0.  0.
         11    1    3    3    0    0  0.23674697482E+01  0.27052095726E+03 -0.33133307343E+03  0.42774852283E+03  0.00000000000E+00 0. -1.
        -12    1    3    3    0    0  0.57724662628E+02  0.92335729501E+03 -0.92421203129E+03  0.13077036016E+04  0.00000000000E+00 0.  1.
         13    1    5    5    0    0 -0.43474440868E+02 -0.32325812553E+03 -0.17743588393E+03  0.37130760245E+03  0.00000000000E+00 0. -1.
        -14    1    5    5    0    0 -0.12562084936E+02 -0.43449819412E+03 -0.33691874796E+03  0.54996429830E+03  0.00000000000E+00 0.  1.
          2    1    6    6  502    0  0.10401105745E+02 -0.17836416870E+03  0.19885541420E+02  0.17977039365E+03  0.00000000000E+00 0. -1.
         -1    1    6    6    0  502 -0.14456712317E+02 -0.25775776392E+03  0.12445752048E+03  0.28659681750E+03  0.00000000000E+00 0.  1.
<mgrwt>
<rscale>  0 0.11966847E+04</rscale>
<asrwt>0</asrwt>
<pdfrwt beam="1">  1        1 0.11519497E+00 0.11966847E+04</pdfrwt>
<pdfrwt beam="2">  1       -2 0.36528061E+00 0.11966847E+04</pdfrwt>
<totfact> 0.26511534E-01</totfact>
</mgrwt>
</event>
<event>
12    3  0.2422421E-007  0.4388012E+03  0.7818608E-02  0.1031115E+00
          1   -1    0    0  501    0  0.00000000000E+00  0.00000000000E+00  0.37815132600E+03  0.37815132600E+03  0.00000000000E+00 0. -1.
         -2   -1    0    0    0  501 -0.00000000000E+00 -0.00000000000E+00 -0.13134150224E+04  0.13134150224E+04  0.00000000000E+00 0.  1.
        -24    2    1    2    0    0 -0.70450100495E+02  0.23576760711E+03 -0.10062011244E+04  0.10391096001E+04  0.82209957282E+02 0.  0.
    5000000    2    1    2    0    0  0.70450100495E+02 -0.23576760711E+03  0.70937427998E+02  0.65245674828E+03  0.60009841565E+03 0.  0.
        -24    2    4    4    0    0 -0.15262191972E+03  0.12025138767E+03  0.82327011314E+02  0.22463331794E+03  0.76997039687E+02 0.  0.
         24    2    4    4    0    0  0.22307202022E+03 -0.35601899478E+03 -0.11389583316E+02  0.42782343034E+03  0.79953199430E+02 0.  0.
         11    1    3    3    0    0 -0.17176479741E+02  0.18367106690E+03 -0.68816857609E+03  0.71246479309E+03  0.00000000000E+00 0. -1.
        -12    1    3    3    0    0 -0.53273620754E+02  0.52096540206E+02 -0.31803254827E+03  0.32664480698E+03  0.00000000000E+00 0.  1.
         13    1    5    5    0    0 -0.68460684009E+02  0.34688208282E+02 -0.39093180085E+01  0.76846729378E+02  0.00000000000E+00 0. -1.
        -14    1    5    5    0    0 -0.84161235712E+02  0.85563179384E+02  0.86236329323E+02  0.14778658856E+03  0.00000000000E+00 0.  1.
          2    1    6    6  502    0  0.13202442884E+02 -0.43063347312E+02 -0.23528962633E+02  0.50817009578E+02  0.00000000000E+00 0. -1.
         -1    1    6    6    0  502  0.20986957733E+03 -0.31295564746E+03  0.12139379317E+02  0.37700642077E+03  0.00000000000E+00 0.  1.
<mgrwt>
<rscale>  0 0.43880116E+03</rscale>
<asrwt>0</asrwt>
<pdfrwt beam="1">  1        1 0.58177128E-01 0.43880116E+03</pdfrwt>
<pdfrwt beam="2">  1       -2 0.20206385E+00 0.43880116E+03</pdfrwt>
<totfact> 0.77938002E+00</totfact>
</mgrwt>
</event>
<event>
12    3  0.2422421E-007  0.6645907E+03  0.7818608E-02  0.9779779E-01
         -2   -1    0    0    0  501 -0.00000000000E+00  0.00000000000E+00  0.30623481274E+03  0.30623481274E+03  0.00000000000E+00 0.  1.
          1   -1    0    0  501    0  0.00000000000E+00 -0.00000000000E+00 -0.17039357500E+04  0.17039357500E+04  0.00000000000E+00 0. -1.
        -24    2    1    2    0    0  0.49857789574E+03  0.21816667928E+03 -0.24352303822E+03  0.60008706901E+03  0.68002957103E+02 0.  0.
    5000000    2    1    2    0    0 -0.49857789574E+03 -0.21816667928E+03 -0.11541778991E+04  0.14100834937E+04  0.60002684823E+03 0.  0.
        -24    2    4    4    0    0 -0.28174190584E+03 -0.40315963347E+03 -0.85328695185E+03  0.98819268599E+03  0.80684390587E+02 0.  0.
         24    2    4    4    0    0 -0.21683598991E+03  0.18499295420E+03 -0.30089094720E+03  0.42189080775E+03  0.78843211091E+02 0.  0.
         13    1    3    3    0    0  0.32898652090E+03  0.16229837328E+03 -0.19303159002E+03  0.41452875370E+03  0.00000000000E+00 0. -1.
        -14    1    3    3    0    0  0.16959137484E+03  0.55868305996E+02 -0.50491448204E+02  0.18555831530E+03  0.00000000000E+00 0.  1.
         13    1    5    5    0    0 -0.15042736040E+03 -0.28267252686E+03 -0.54955244193E+03  0.63603461748E+03  0.00000000000E+00 0. -1.
        -14    1    5    5    0    0 -0.13131454544E+03 -0.12048710661E+03 -0.30373450992E+03  0.35215806852E+03  0.00000000000E+00 0.  1.
          2    1    6    6  502    0 -0.11880321962E+03  0.92290566567E+02 -0.10276914504E+03  0.18219015023E+03  0.00000000000E+00 0. -1.
         -1    1    6    6    0  502 -0.98032770288E+02  0.92702387628E+02 -0.19812180217E+03  0.23970065752E+03  0.00000000000E+00 0.  1.
<mgrwt>
<rscale>  0 0.66459071E+03</rscale>
<asrwt>0</asrwt>
<pdfrwt beam="1">  1        1 0.26214396E+00 0.66459071E+03</pdfrwt>
<pdfrwt beam="2">  1       -2 0.47113049E-01 0.66459071E+03</pdfrwt>
<totfact> 0.18572219E+01</totfact>
</mgrwt>
</event>
<event>
12    3  0.2422421E-007  0.6934340E+03  0.7818608E-02  0.9728527E-01
          1   -1    0    0  501    0  0.00000000000E+00  0.00000000000E+00  0.31973011259E+04  0.31973011259E+04  0.00000000000E+00 0. -1.
         -2   -1    0    0    0  501 -0.00000000000E+00 -0.00000000000E+00 -0.20816910771E+03  0.20816910771E+03  0.00000000000E+00 0.  1.
        -24    2    1    2    0    0 -0.50060297618E+02 -0.63279454096E+03  0.19272580659E+04  0.20306565382E+04  0.79418882970E+02 0.  0.
    5000000    2    1    2    0    0  0.50060297618E+02  0.63279454096E+03  0.10618739523E+04  0.13748136954E+04  0.59966777646E+03 0.  0.
        -24    2    4    4    0    0  0.74010270225E+02  0.68142148094E+03  0.63809033084E+03  0.93987555504E+03  0.79962703006E+02 0.  0.
         24    2    4    4    0    0 -0.23949972607E+02 -0.48626939978E+02  0.42378362142E+03  0.43493814037E+03  0.81488942078E+02 0.  0.
         11    1    5    5    0    0  0.60235452820E+02  0.58406630821E+03  0.50536211173E+03  0.77469518273E+03  0.00000000000E+00 0. -1.
        -12    1    5    5    0    0  0.13774817405E+02  0.97355172727E+02  0.13272821911E+03  0.16518037232E+03  0.00000000000E+00 0.  1.
         11    1    3    3    0    0 -0.30712582598E+02 -0.18022181285E+03  0.45750406383E+03  0.49267954390E+03  0.00000000000E+00 0. -1.
        -12    1    3    3    0    0 -0.19347715021E+02 -0.45257272812E+03  0.14697540021E+04  0.15379769943E+04  0.00000000000E+00 0.  1.
          2    1    6    6  502    0 -0.27545915903E+02 -0.14259721045E+02  0.45425589059E+02  0.55005465807E+02  0.00000000000E+00 0. -1.
         -1    1    6    6    0  502  0.35959432963E+01 -0.34367218933E+02  0.37835803236E+03  0.37993267456E+03  0.00000000000E+00 0.  1.
<mgrwt>
<rscale>  0 0.69343400E+03</rscale>
<asrwt>0</asrwt>
<pdfrwt beam="1">  1        1 0.49189244E+00 0.69343400E+03</pdfrwt>
<pdfrwt beam="2">  1       -2 0.32026019E-01 0.69343400E+03</pdfrwt>
<totfact> 0.36851727E+00</totfact>
</mgrwt>
</event>
<event>
12    3  0.2422421E-007  0.8966355E+03  0.7818608E-02  0.9429797E-01
          1   -1    0    0  501    0  0.00000000000E+00  0.00000000000E+00  0.13047904303E+04  0.13047904303E+04  0.00000000000E+00 0. -1.
         -2   -1    0    0    0  501 -0.00000000000E+00 -0.00000000000E+00 -0.19702846592E+04  0.19702846592E+04  0.00000000000E+00 0.  1.
        -24    2    1    2    0    0  0.32100266322E+03 -0.74198208952E+03  0.10247192688E+04  0.13077576823E+04  0.81243121465E+02 0.  0.
    5000000    2    1    2    0    0 -0.32100266322E+03  0.74198208952E+03 -0.16902134977E+04  0.19673174073E+04  0.59994664961E+03 0.  0.
        -24    2    4    4    0    0  0.72940730857E+02  0.51888411339E+03 -0.72354354554E+03  0.89692248473E+03  0.79960039816E+02 0.  0.
         24    2    4    4    0    0 -0.39394339408E+03  0.22309797613E+03 -0.96666995213E+03  0.10703949226E+04  0.79563743133E+02 0.  0.
         13    1    5    5    0    0  0.16428631389E+02  0.37632165753E+03 -0.51742669418E+03  0.64001427617E+03  0.00000000000E+00 0. -1.
        -14    1    5    5    0    0  0.56512099468E+02  0.14256245587E+03 -0.20611685136E+03  0.25690820856E+03  0.00000000000E+00 0.  1.
         13    1    3    3    0    0  0.37404032976E+02 -0.14176887966E+03  0.15119517685E+03  0.21061210417E+03  0.00000000000E+00 0. -1.
        -14    1    3    3    0    0  0.28359863024E+03 -0.60021320986E+03  0.87352409190E+03  0.10971455781E+04  0.00000000000E+00 0.  1.
          2    1    6    6  502    0 -0.11849583987E+03  0.63717711654E+02 -0.37771783184E+03  0.40096380302E+03  0.00000000000E+00 0. -1.
         -1    1    6    6    0  502 -0.27544755421E+03  0.15938026447E+03 -0.58895212029E+03  0.66943111955E+03  0.00000000000E+00 0.  1.
<mgrwt>
<rscale>  0 0.89663550E+03</rscale>
<asrwt>0</asrwt>
<pdfrwt beam="1">  1        1 0.20073699E+00 0.89663550E+03</pdfrwt>
<pdfrwt beam="2">  1       -2 0.30312072E+00 0.89663550E+03</pdfrwt>
<totfact> 0.24629234E-01</totfact>
</mgrwt>
</event>
<event>
12    3  0.2422421E-007  0.5291330E+03  0.7818608E-02  0.1006443E+00
         -2   -1    0    0    0  501 -0.00000000000E+00  0.00000000000E+00  0.23871967908E+03  0.23871967908E+03  0.00000000000E+00 0.  1.
          1   -1    0    0  501    0  0.00000000000E+00 -0.00000000000E+00 -0.12322040369E+04  0.12322040369E+04  0.00000000000E+00 0. -1.
        -24    2    1    2    0    0  0.75804540414E+02 -0.36263628474E+03 -0.35985555312E+03  0.52279055835E+03  0.81009539144E+02 0.  0.
    5000000    2    1    2    0    0 -0.75804540414E+02  0.36263628474E+03 -0.63362880467E+03  0.94813315761E+03  0.60018298801E+03 0.  0.
        -24    2    4    4    0    0 -0.11828667621E+02  0.51499365155E+03 -0.50975249764E+03  0.72918806653E+03  0.80679916949E+02 0.  0.
         24    2    4    4    0    0 -0.63975872793E+02 -0.15235736681E+03 -0.12387630703E+03  0.21894509108E+03  0.72704428651E+02 0.  0.
         11    1    3    3    0    0  0.45496399709E+02 -0.90722336897E+02 -0.64841898623E+02  0.12043644222E+03  0.00000000000E+00 0. -1.
        -12    1    3    3    0    0  0.30308140705E+02 -0.27191394784E+03 -0.29501365450E+03  0.40235411613E+03  0.00000000000E+00 0.  1.
         11    1    5    5    0    0 -0.39813871339E+01  0.36591479503E+03 -0.30858464749E+03  0.47867940559E+03  0.00000000000E+00 0. -1.
        -12    1    5    5    0    0 -0.78472804874E+01  0.14907885652E+03 -0.20116785015E+03  0.25050866094E+03  0.00000000000E+00 0.  1.
          2    1    6    6  502    0 -0.23764796804E+02 -0.94863907173E+02 -0.31088296208E+02  0.10261777922E+03  0.00000000000E+00 0. -1.
         -1    1    6    6    0  502 -0.40211075989E+02 -0.57493459640E+02 -0.92788010818E+02  0.11632731186E+03  0.00000000000E+00 0.  1.
<mgrwt>
<rscale>  0 0.52913305E+03</rscale>
<asrwt>0</asrwt>
<pdfrwt beam="1">  1        1 0.18956985E+00 0.52913305E+03</pdfrwt>
<pdfrwt beam="2">  1       -2 0.36726104E-01 0.52913305E+03</pdfrwt>
<totfact> 0.64886483E+01</totfact>
</mgrwt>
</event>
<event>
12    3  0.2422421E-007  0.8397000E+03  0.7818608E-02  0.9504267E-01
          1   -1    0    0  501    0  0.00000000000E+00  0.00000000000E+00  0.46506627032E+03  0.46506627032E+03  0.00000000000E+00 0. -1.
         -2   -1    0    0    0  501 -0.00000000000E+00 -0.00000000000E+00 -0.17018127501E+04  0.17018127501E+04  0.00000000000E+00 0.  1.
        -24    2    1    2    0    0  0.57358324120E+03 -0.47250444595E+03 -0.23712325121E+03  0.78427805508E+03  0.81280043048E+02 0.  0.
    5000000    2    1    2    0    0 -0.57358324120E+03  0.47250444595E+03 -0.99962322859E+03  0.13826009654E+04  0.60006719978E+03 0.  0.
        -24    2    4    4    0    0 -0.83650209548E+02 -0.12666098768E+03 -0.24907237440E+03  0.30176348682E+03  0.77354967089E+02 0.  0.
         24    2    4    4    0    0 -0.48993303165E+03  0.59916543363E+03 -0.75055085419E+03  0.10808374785E+04  0.76481879711E+02 0.  0.
         11    1    3    3    0    0  0.47597820258E+03 -0.35787518288E+03 -0.20900529407E+03  0.63112051845E+03  0.00000000000E+00 0. -1.
        -12    1    3    3    0    0  0.97605038613E+02 -0.11462926307E+03 -0.28117957136E+02  0.15315753664E+03  0.00000000000E+00 0.  1.
         11    1    5    5    0    0 -0.37548470825E+02 -0.88769211640E+02 -0.90018456056E+02  0.13188321738E+03  0.00000000000E+00 0. -1.
        -12    1    5    5    0    0 -0.46101738723E+02 -0.37891776039E+02 -0.15905391834E+03  0.16988026944E+03  0.00000000000E+00 0.  1.
          4    1    6    6  502    0 -0.21963157480E+03  0.32515792402E+03 -0.39755517373E+03  0.55858376307E+03  0.00000000000E+00 0. -1.
         -3    1    6    6    0  502 -0.27030145685E+03  0.27400750961E+03 -0.35299568046E+03  0.52225371547E+03  0.00000000000E+00 0.  1.
<mgrwt>
<rscale>  0 0.83969996E+03</rscale>
<asrwt>0</asrwt>
<pdfrwt beam="1">  1        1 0.71548657E-01 0.83969996E+03</pdfrwt>
<pdfrwt beam="2">  1       -2 0.26181735E+00 0.83969996E+03</pdfrwt>
<totfact> 0.23868051E+00</totfact>
</mgrwt>
</event>
<event>
12    3  0.2422421E-007  0.1169747E+04  0.7818608E-02  0.9139757E-01
          1   -1    0    0  501    0  0.00000000000E+00  0.00000000000E+00  0.23309127920E+04  0.23309127920E+04  0.00000000000E+00 0. -1.
         -2   -1    0    0    0  501 -0.00000000000E+00 -0.00000000000E+00 -0.70023067817E+03  0.70023067817E+03  0.00000000000E+00 0.  1.
        -24    2    1    2    0    0  0.74523139728E+03  0.85363149040E+03  0.28235389862E+03  0.11704899638E+04  0.79161066705E+02 0.  0.
    5000000    2    1    2    0    0 -0.74523139728E+03 -0.85363149040E+03  0.13483282152E+04  0.18606535063E+04  0.59998828132E+03 0.  0.
        -24    2    4    4    0    0 -0.28969770880E+03 -0.92493347709E+02  0.67422153297E+03  0.74387108884E+03  0.79307877533E+02 0.  0.
         24    2    4    4    0    0 -0.45553368848E+03 -0.76113814269E+03  0.67410668220E+03  0.11167824174E+04  0.77077463103E+02 0.  0.
         11    1    3    3    0    0  0.58021625906E+03  0.70516007752E+03  0.20998536299E+03  0.93701413803E+03  0.00000000000E+00 0. -1.
        -12    1    3    3    0    0  0.16501513823E+03  0.14847141288E+03  0.72368535634E+02  0.23347582581E+03  0.00000000000E+00 0.  1.
         11    1    5    5    0    0 -0.12357255980E+03  0.65443321847E+00  0.25109563395E+03  0.27985643321E+03  0.00000000000E+00 0. -1.
        -12    1    5    5    0    0 -0.16612514900E+03 -0.93147780928E+02  0.42312589902E+03  0.46401465563E+03  0.00000000000E+00 0.  1.
          2    1    6    6  502    0 -0.37396835312E+03 -0.67501640604E+03  0.58937363985E+03  0.97101017755E+03  0.00000000000E+00 0. -1.
         -1    1    6    6    0  502 -0.81565335364E+02 -0.86121736651E+02  0.84733042350E+02  0.14577223989E+03  0.00000000000E+00 0.  1.
<mgrwt>
<rscale>  0 0.11697467E+04</rscale>
<asrwt>0</asrwt>
<pdfrwt beam="1">  1        1 0.35860197E+00 0.11697467E+04</pdfrwt>
<pdfrwt beam="2">  1       -2 0.10772780E+00 0.11697467E+04</pdfrwt>
<totfact> 0.10616932E+00</totfact>
</mgrwt>
</event>
<event>
12    3  0.2422421E-007  0.4090972E+03  0.7818608E-02  0.1040674E+00
          1   -1    0    0  501    0  0.00000000000E+00  0.00000000000E+00  0.18706427608E+04  0.18706427608E+04  0.00000000000E+00 0. -1.
         -2   -1    0    0    0  501 -0.00000000000E+00 -0.00000000000E+00 -0.15418174118E+03  0.15418174118E+03  0.00000000000E+00 0.  1.
        -24    2    1    2    0    0 -0.22025226611E+02  0.20894367691E+03  0.36249621961E+02  0.22837718543E+03  0.81850675049E+02 0.  0.
    5000000    2    1    2    0    0  0.22025226611E+02 -0.20894367691E+03  0.16802113977E+04  0.17964473166E+04  0.59997504084E+03 0.  0.
        -24    2    4    4    0    0  0.11796203734E+02 -0.40639819518E+03  0.12367396705E+04  0.13043537460E+04  0.80715789649E+02 0.  0.
         24    2    4    4    0    0  0.10229022877E+02  0.19745451828E+03  0.44347172722E+03  0.49209357060E+03  0.79974931592E+02 0.  0.
         11    1    3    3    0    0 -0.93496828491E+01  0.13834634497E+03 -0.16079319821E+02  0.13959108948E+03  0.00000000000E+00 0. -1.
        -12    1    3    3    0    0 -0.12675543762E+02  0.70597331938E+02  0.52328941782E+02  0.88786095952E+02  0.00000000000E+00 0.  1.
         11    1    5    5    0    0  0.21133440711E+02 -0.24514657913E+03  0.85860590303E+03  0.89316715361E+03  0.00000000000E+00 0. -1.
        -12    1    5    5    0    0 -0.93372369775E+01 -0.16125161605E+03  0.37813376745E+03  0.41118659239E+03  0.00000000000E+00 0.  1.
          4    1    6    6  502    0 -0.11161449965E+02  0.49986153349E+02  0.20160535544E+03  0.20800940563E+03  0.00000000000E+00 0. -1.
         -3    1    6    6    0  502  0.21390472842E+02  0.14746836493E+03  0.24186637178E+03  0.28408416496E+03  0.00000000000E+00 0.  1.
<mgrwt>
<rscale>  0 0.40909723E+03</rscale>
<asrwt>0</asrwt>
<pdfrwt beam="1">  1        1 0.28779118E+00 0.40909723E+03</pdfrwt>
<pdfrwt beam="2">  1       -2 0.23720269E-01 0.40909723E+03</pdfrwt>
<totfact> 0.54712175E+01</totfact>
</mgrwt>
</event>
<event>
12    3  0.2422421E-007  0.1070470E+04  0.7818608E-02  0.9234461E-01
         -2   -1    0    0    0  501 -0.00000000000E+00  0.00000000000E+00  0.21302396324E+04  0.21302396324E+04  0.00000000000E+00 0.  1.
          1   -1    0    0  501    0  0.00000000000E+00 -0.00000000000E+00 -0.63664944850E+03  0.63664944850E+03  0.00000000000E+00 0. -1.
        -24    2    1    2    0    0 -0.10381542699E+04  0.99238287126E+02  0.10568601503E+04  0.14868734721E+04  0.78910196800E+02 0.  0.
    5000000    2    1    2    0    0  0.10381542699E+04 -0.99238287126E+02  0.43673003362E+03  0.12800156087E+04  0.60007858701E+03 0.  0.
        -24    2    4    4    0    0  0.36045685751E+03 -0.18287760657E+03  0.42568739517E+03  0.59249475972E+03  0.80417142293E+02 0.  0.
         24    2    4    4    0    0  0.67769741241E+03  0.83639319442E+02  0.11042638451E+02  0.68752084903E+03  0.79332587512E+02 0.  0.
         11    1    3    3    0    0 -0.56718130759E+03  0.28714634743E+02  0.53202206784E+03  0.77818162828E+03  0.00000000000E+00 0. -1.
        -12    1    3    3    0    0 -0.47097296233E+03  0.70523652383E+02  0.52483808241E+03  0.70869184385E+03  0.00000000000E+00 0.  1.
         11    1    5    5    0    0  0.21176995299E+03 -0.15086968682E+03  0.26679523908E+03  0.37254244723E+03  0.00000000000E+00 0. -1.
        -12    1    5    5    0    0  0.14868690452E+03 -0.32007919751E+02  0.15889215609E+03  0.21995231249E+03  0.00000000000E+00 0.  1.
          2    1    6    6  502    0  0.22677159975E+03  0.40696370343E+01 -0.25161037504E+02  0.22819947022E+03  0.00000000000E+00 0. -1.
         -1    1    6    6    0  502  0.45092581266E+03  0.79569682408E+02  0.36203675955E+02  0.45932137882E+03  0.00000000000E+00 0.  1.
<mgrwt>
<rscale>  0 0.10704704E+04</rscale>
<asrwt>0</asrwt>
<pdfrwt beam="1">  1        1 0.97946070E-01 0.10704704E+04</pdfrwt>
<pdfrwt beam="2">  1       -2 0.32772917E+00 0.10704704E+04</pdfrwt>
<totfact> 0.59225070E-01</totfact>
</mgrwt>
</event>
<event>
12    3  0.2422421E-007  0.5461744E+03  0.7818608E-02  0.1002383E+00
         -2   -1    0    0    0  501 -0.00000000000E+00  0.00000000000E+00  0.89465408407E+03  0.89465408407E+03  0.00000000000E+00 0.  1.
          1   -1    0    0  501    0  0.00000000000E+00 -0.00000000000E+00 -0.53172527202E+03  0.53172527202E+03  0.00000000000E+00 0. -1.
        -24    2    1    2    0    0  0.15116168725E+03  0.39215325634E+03  0.52371764712E+03  0.67637912387E+03  0.81083371615E+02 0.  0.
    5000000    2    1    2    0    0 -0.15116168725E+03 -0.39215325634E+03 -0.16078883508E+03  0.75000023221E+03  0.60001105547E+03 0.  0.
        -24    2    4    4    0    0  0.18413353432E+03 -0.82526079456E+02 -0.18498824214E+03  0.28549472453E+03  0.81060938523E+02 0.  0.
         24    2    4    4    0    0 -0.33529522157E+03 -0.30962717688E+03  0.24199407063E+02  0.46450550768E+03  0.82993259333E+02 0.  0.
         11    1    3    3    0    0  0.59464967107E+02  0.80621987834E+02  0.90866420434E+02  0.13525048465E+03  0.00000000000E+00 0. -1.
        -12    1    3    3    0    0  0.91696720144E+02  0.31153126850E+03  0.43285122669E+03  0.54112863922E+03  0.00000000000E+00 0.  1.
         11    1    5    5    0    0  0.12459256644E+02  0.51758856180E+01 -0.45729575197E+02  0.47678264605E+02  0.00000000000E+00 0. -1.
        -12    1    5    5    0    0  0.17167427768E+03 -0.87701965074E+02 -0.13925866694E+03  0.23781645993E+03  0.00000000000E+00 0.  1.
          2    1    6    6  502    0 -0.20745503704E+03 -0.23357140666E+03  0.39852173150E+02  0.31493077034E+03  0.00000000000E+00 0. -1.
         -1    1    6    6    0  502 -0.12784018453E+03 -0.76055770215E+02 -0.15652766088E+02  0.14957473734E+03  0.00000000000E+00 0.  1.
<mgrwt>
<rscale>  0 0.54617444E+03</rscale>
<asrwt>0</asrwt>
<pdfrwt beam="1">  1        1 0.81803888E-01 0.54617444E+03</pdfrwt>
<pdfrwt beam="2">  1       -2 0.13763909E+00 0.54617444E+03</pdfrwt>
<totfact> 0.13933267E+01</totfact>
</mgrwt>
</event>
<event>
12    3  0.2422421E-007  0.7121912E+03  0.7818608E-02  0.9696608E-01
         -2   -1    0    0    0  501 -0.00000000000E+00  0.00000000000E+00  0.38441013019E+03  0.38441013019E+03  0.00000000000E+00 0.  1.
          1   -1    0    0  501    0  0.00000000000E+00 -0.00000000000E+00 -0.14929703803E+04  0.14929703803E+04  0.00000000000E+00 0. -1.
        -24    2    1    2    0    0  0.17380964582E+03  0.57312457488E+03 -0.20417270154E+03  0.63778018672E+03  0.79971890146E+02 0.  0.
    5000000    2    1    2    0    0 -0.17380964582E+03 -0.57312457488E+03 -0.90438754854E+03  0.12396003237E+04  0.60000879438E+03 0.  0.
        -24    2    4    4    0    0 -0.36858538606E+03 -0.27547528679E+03 -0.38571967881E+03  0.60550606429E+03  0.78205516577E+02 0.  0.
         24    2    4    4    0    0  0.19477574025E+03 -0.29764928808E+03 -0.51866786973E+03  0.63409425944E+03  0.80786651590E+02 0.  0.
         13    1    3    3    0    0  0.20321848486E+02  0.16944164410E+03 -0.36630965331E+02  0.17454304885E+03  0.00000000000E+00 0. -1.
        -14    1    3    3    0    0  0.15348779733E+03  0.40368293077E+03 -0.16754173621E+03  0.46323713787E+03  0.00000000000E+00 0.  1.
         13    1    5    5    0    0 -0.25618185235E+03 -0.16012579222E+03 -0.28639385357E+03  0.41628217614E+03  0.00000000000E+00 0. -1.
        -14    1    5    5    0    0 -0.11240353371E+03 -0.11534949457E+03 -0.99325825239E+02  0.18922388816E+03  0.00000000000E+00 0.  1.
          4    1    6    6  502    0  0.13051888687E+02 -0.48971476871E+02 -0.12034483247E+03  0.13058114737E+03  0.00000000000E+00 0. -1.
         -3    1    6    6    0  502  0.18172385156E+03 -0.24867781121E+03 -0.39832303726E+03  0.50351311207E+03  0.00000000000E+00 0.  1.
<mgrwt>
<rscale>  0 0.71219123E+03</rscale>
<asrwt>0</asrwt>
<pdfrwt beam="1">  1        1 0.22968775E+00 0.71219123E+03</pdfrwt>
<pdfrwt beam="2">  1       -2 0.59140020E-01 0.71219123E+03</pdfrwt>
<totfact> 0.16061584E+01</totfact>
</mgrwt>
</event>
<event>
12    3  0.2422421E-007  0.1126556E+04  0.7818608E-02  0.9179688E-01
          1   -1    0    0  501    0  0.00000000000E+00  0.00000000000E+00  0.20446134952E+04  0.20446134952E+04  0.00000000000E+00 0. -1.
         -2   -1    0    0    0  501 -0.00000000000E+00 -0.00000000000E+00 -0.70392762479E+03  0.70392762479E+03  0.00000000000E+00 0.  1.
        -24    2    1    2    0    0  0.71987896040E+03  0.85574297482E+03  0.74954427123E+03  0.13486483386E+04  0.80709169669E+02 0.  0.
    5000000    2    1    2    0    0 -0.71987896040E+03 -0.85574297482E+03  0.59114159914E+03  0.13998927814E+04  0.59977466808E+03 0.  0.
        -24    2    4    4    0    0 -0.47038371895E+03 -0.65438974669E+03  0.11203080691E+03  0.81747008144E+03  0.78864749557E+02 0.  0.
         24    2    4    4    0    0 -0.24949524145E+03 -0.20135322814E+03  0.47911079223E+03  0.58242269992E+03  0.82934022977E+02 0.  0.
         11    1    3    3    0    0  0.45108144913E+03  0.53422521966E+03  0.42118563449E+03  0.81625265560E+03  0.00000000000E+00 0. -1.
        -12    1    3    3    0    0  0.26879751127E+03  0.32151775516E+03  0.32835863673E+03  0.53239568299E+03  0.00000000000E+00 0.  1.
         11    1    5    5    0    0 -0.28675054605E+03 -0.38768965532E+03  0.28449240195E+02  0.48305124342E+03  0.00000000000E+00 0. -1.
        -12    1    5    5    0    0 -0.18363317290E+03 -0.26670009136E+03  0.83581566720E+02  0.33441883801E+03  0.00000000000E+00 0.  1.
          4    1    6    6  502    0  0.21690290817E+01  0.36394703575E+01  0.18215188111E+02  0.18701430683E+02  0.00000000000E+00 0. -1.
         -3    1    6    6    0  502 -0.25166427053E+03 -0.20499269849E+03  0.46089560412E+03  0.56372126924E+03  0.00000000000E+00 0.  1.
<mgrwt>
<rscale>  0 0.11265565E+04</rscale>
<asrwt>0</asrwt>
<pdfrwt beam="1">  1        1 0.31455592E+00 0.11265565E+04</pdfrwt>
<pdfrwt beam="2">  1       -2 0.10829656E+00 0.11265565E+04</pdfrwt>
<totfact> 0.16477799E+00</totfact>
</mgrwt>
</event>
<event>
12    3  0.2422421E-007  0.6743352E+03  0.7818608E-02  0.9762158E-01
         -2   -1    0    0    0  501 -0.00000000000E+00  0.00000000000E+00  0.43763979548E+03  0.43763979548E+03  0.00000000000E+00 0.  1.
          1   -1    0    0  501    0  0.00000000000E+00 -0.00000000000E+00 -0.14353360862E+04  0.14353360862E+04  0.00000000000E+00 0. -1.
        -24    2    1    2    0    0 -0.50257934816E+03  0.42705686542E+03 -0.60570374478E+03  0.89907747973E+03  0.80620844794E+02 0.  0.
    5000000    2    1    2    0    0  0.50257934816E+03 -0.42705686542E+03 -0.39199254592E+03  0.97389840193E+03  0.59988029950E+03 0.  0.
        -24    2    4    4    0    0  0.24766504367E+03 -0.30072909708E+03  0.94666901722E+02  0.40455783948E+03  0.54122634020E+02 0.  0.
         24    2    4    4    0    0  0.25491430449E+03 -0.12632776834E+03 -0.48665944764E+03  0.56934056246E+03  0.79820112729E+02 0.  0.
         11    1    3    3    0    0 -0.19652799130E+03  0.12382104038E+03 -0.23944712713E+03  0.33360130111E+03  0.00000000000E+00 0. -1.
        -12    1    3    3    0    0 -0.30605135686E+03  0.30323582504E+03 -0.36625661765E+03  0.56547617863E+03  0.00000000000E+00 0.  1.
         13    1    5    5    0    0  0.13505430076E+03 -0.13535300730E+03  0.25687646800E+02  0.19292474164E+03  0.00000000000E+00 0. -1.
        -14    1    5    5    0    0  0.11261074291E+03 -0.16537608978E+03  0.68979254923E+02  0.21163309783E+03  0.00000000000E+00 0.  1.
          4    1    6    6  502    0  0.11254559739E+03 -0.97732951726E+02 -0.27227017859E+03  0.31040182263E+03  0.00000000000E+00 0. -1.
         -3    1    6    6    0  502  0.14236870710E+03 -0.28594816615E+02 -0.21438926905E+03  0.25893873983E+03  0.00000000000E+00 0.  1.
<mgrwt>
<rscale>  0 0.67433523E+03</rscale>
<asrwt>0</asrwt>
<pdfrwt beam="1">  1        1 0.22082094E+00 0.67433523E+03</pdfrwt>
<pdfrwt beam="2">  1       -2 0.67329200E-01 0.67433523E+03</pdfrwt>
<totfact> 0.13412873E+01</totfact>
</mgrwt>
</event>
<event>
12    3  0.2422421E-007  0.1508649E+04  0.7818608E-02  0.8878722E-01
         -2   -1    0    0    0  501 -0.00000000000E+00  0.00000000000E+00  0.21467938617E+04  0.21467938617E+04  0.00000000000E+00 0.  1.
          1   -1    0    0  501    0  0.00000000000E+00 -0.00000000000E+00 -0.12564863086E+04  0.12564863086E+04  0.00000000000E+00 0. -1.
        -24    2    1    2    0    0 -0.11592672767E+04 -0.95974401815E+03  0.95072775148E+03  0.17819943298E+04  0.81310115223E+02 0.  0.
    5000000    2    1    2    0    0  0.11592672767E+04  0.95974401815E+03 -0.60420198382E+02  0.16212858405E+04  0.59992330923E+03 0.  0.
        -24    2    4    4    0    0  0.74957263201E+03  0.64107471446E+03  0.23721378670E+03  0.10175262746E+04  0.79078560964E+02 0.  0.
         24    2    4    4    0    0  0.40969464467E+03  0.31866930370E+03 -0.29763398508E+03  0.60375956583E+03  0.80869012993E+02 0.  0.
         11    1    3    3    0    0 -0.43878809803E+03 -0.41084348120E+03  0.39769981756E+03  0.72075828536E+03  0.00000000000E+00 0. -1.
        -12    1    3    3    0    0 -0.72047917865E+03 -0.54890053696E+03  0.55302793392E+03  0.10612360444E+04  0.00000000000E+00 0.  1.
         11    1    5    5    0    0  0.25361085997E+03  0.26398153279E+03  0.74128624206E+02  0.37349668121E+03  0.00000000000E+00 0. -1.
        -12    1    5    5    0    0  0.49596177204E+03  0.37709318167E+03  0.16308516249E+03  0.64402959342E+03  0.00000000000E+00 0.  1.
          4    1    6    6  502    0  0.32704916590E+03  0.27795138677E+03 -0.21520809051E+03  0.48013815985E+03  0.00000000000E+00 0. -1.
         -3    1    6    6    0  502  0.82645478765E+02  0.40717916931E+02 -0.82425894573E+02  0.12362140598E+03  0.00000000000E+00 0.  1.
<mgrwt>
<rscale>  0 0.15086489E+04</rscale>
<asrwt>0</asrwt>
<pdfrwt beam="1">  1        1 0.19330559E+00 0.15086489E+04</pdfrwt>
<pdfrwt beam="2">  1       -2 0.33027598E+00 0.15086489E+04</pdfrwt>
<totfact> 0.16655624E-01</totfact>
</mgrwt>
</event>
<event>
12    3  0.2422421E-007  0.7687685E+03  0.7818608E-02  0.9606357E-01
         -2   -1    0    0    0  501 -0.00000000000E+00  0.00000000000E+00  0.17172161355E+04  0.17172161355E+04  0.00000000000E+00 0.  1.
          1   -1    0    0  501    0  0.00000000000E+00 -0.00000000000E+00 -0.45498526527E+03  0.45498526527E+03  0.00000000000E+00 0. -1.
        -24    2    1    2    0    0 -0.29996138705E+03 -0.58503043622E+03  0.10747696896E+04  0.12626094605E+04  0.82554946071E+02 0.  0.
    5000000    2    1    2    0    0  0.29996138705E+03  0.58503043622E+03  0.18746118066E+03  0.90959194027E+03  0.59998196516E+03 0.  0.
        -24    2    4    4    0    0  0.46053076201E+03  0.34039221027E+03  0.18070115357E+03  0.60584098272E+03  0.80218139270E+02 0.  0.
         24    2    4    4    0    0 -0.16056937496E+03  0.24463822595E+03  0.67600270844E+01  0.30375095755E+03  0.81169948111E+02 0.  0.
         11    1    3    3    0    0 -0.95952208352E+02 -0.26058218931E+03  0.49615186167E+03  0.56857415833E+03  0.00000000000E+00 0. -1.
        -12    1    3    3    0    0 -0.20400917870E+03 -0.32444824691E+03  0.57861782790E+03  0.69403530219E+03  0.00000000000E+00 0.  1.
         11    1    5    5    0    0  0.34543541870E+03  0.27074058467E+03  0.10424145413E+03  0.45110128956E+03  0.00000000000E+00 0. -1.
        -12    1    5    5    0    0  0.11509534331E+03  0.69651625597E+02  0.76459699449E+02  0.15473969316E+03  0.00000000000E+00 0.  1.
          4    1    6    6  502    0 -0.96115449822E+02  0.20775205290E+03  0.12632349860E+02  0.22925678058E+03  0.00000000000E+00 0. -1.
         -3    1    6    6    0  502 -0.64453925135E+02  0.36886173048E+02 -0.58723227760E+01  0.74494176968E+02  0.00000000000E+00 0.  1.
<mgrwt>
<rscale>  0 0.76876847E+03</rscale>
<asrwt>0</asrwt>
<pdfrwt beam="1">  1        1 0.69997734E-01 0.76876847E+03</pdfrwt>
<pdfrwt beam="2">  1       -2 0.26418710E+00 0.76876847E+03</pdfrwt>
<totfact> 0.24022934E+00</totfact>
</mgrwt>
</event>
<event>
12    3  0.2422421E-007  0.1113231E+04  0.7818608E-02  0.9192391E-01
         -2   -1    0    0    0  501 -0.00000000000E+00  0.00000000000E+00  0.99583706293E+03  0.99583706293E+03  0.00000000000E+00 0.  1.
          1   -1    0    0  501    0  0.00000000000E+00 -0.00000000000E+00 -0.13701996537E+04  0.13701996537E+04  0.00000000000E+00 0. -1.
        -24    2    1    2    0    0 -0.10426305033E+04  0.34409716286E+02  0.14319098392E+03  0.10560627389E+04  0.80637804932E+02 0.  0.
    5000000    2    1    2    0    0  0.10426305033E+04 -0.34409716286E+02 -0.51755357474E+03  0.13099739778E+04  0.59992309910E+03 0.  0.
        -24    2    4    4    0    0  0.77915791868E+03  0.21913322471E+03 -0.25031785651E+03  0.85100979076E+03  0.80325601591E+02 0.  0.
         24    2    4    4    0    0  0.26347258461E+03 -0.25354294099E+03 -0.26723571822E+03  0.45896418704E+03  0.74373181486E+02 0.  0.
         11    1    3    3    0    0 -0.50326587214E+03 -0.33275399479E+01  0.33693899623E+02  0.50440349866E+03  0.00000000000E+00 0. -1.
        -12    1    3    3    0    0 -0.53936463114E+03  0.37737256234E+02  0.10949708430E+03  0.55165924021E+03  0.00000000000E+00 0.  1.
         11    1    5    5    0    0  0.62865232301E+03  0.17130686109E+03 -0.23369256242E+03  0.69221528271E+03  0.00000000000E+00 0. -1.
        -12    1    5    5    0    0  0.15050559567E+03  0.47826363619E+02 -0.16625294094E+02  0.15879450805E+03  0.00000000000E+00 0.  1.
          4    1    6    6  502    0  0.22818888280E+03 -0.17723186200E+03 -0.21210879146E+03  0.35842912627E+03  0.00000000000E+00 0. -1.
         -3    1    6    6    0  502  0.35283701809E+02 -0.76311078997E+02 -0.55126926760E+02  0.10053506077E+03  0.00000000000E+00 0.  1.
<mgrwt>
<rscale>  0 0.11132307E+04</rscale>
<asrwt>0</asrwt>
<pdfrwt beam="1">  1        1 0.21079995E+00 0.11132307E+04</pdfrwt>
<pdfrwt beam="2">  1       -2 0.15320570E+00 0.11132307E+04</pdfrwt>
<totfact> 0.19718593E+00</totfact>
</mgrwt>
</event>
<event>
12    3  0.2422421E-007  0.6788566E+03  0.7818608E-02  0.9754089E-01
          1   -1    0    0  501    0  0.00000000000E+00  0.00000000000E+00  0.12430459921E+04  0.12430459921E+04  0.00000000000E+00 0. -1.
         -2   -1    0    0    0  501 -0.00000000000E+00 -0.00000000000E+00 -0.42927314734E+03  0.42927314734E+03  0.00000000000E+00 0.  1.
        -24    2    1    2    0    0  0.71000117354E+00 -0.54585059291E+03  0.42817251692E+02  0.55321135341E+03  0.79095578947E+02 0.  0.
    5000000    2    1    2    0    0 -0.71000117354E+00  0.54585059291E+03  0.77095559307E+03  0.11191077860E+04  0.60006361031E+03 0.  0.
        -24    2    4    4    0    0  0.11979285131E+03 -0.81181755071E+02  0.14134964069E+03  0.21886718419E+03  0.83560270513E+02 0.  0.
         24    2    4    4    0    0 -0.12050285248E+03  0.62703234799E+03  0.62960595238E+03  0.90024060186E+03  0.79617731042E+02 0.  0.
         11    1    5    5    0    0 -0.99820793426E+01  0.47925705711E+01  0.60551036914E+01  0.12620416847E+02  0.00000000000E+00 0. -1.
        -12    1    5    5    0    0  0.12977493065E+03 -0.85974325642E+02  0.13529453700E+03  0.20624676734E+03  0.00000000000E+00 0.  1.
         13    1    3    3    0    0  0.28221298451E+02 -0.29113927849E+03 -0.52370809432E+01  0.29255076172E+03  0.00000000000E+00 0. -1.
        -14    1    3    3    0    0 -0.27511297277E+02 -0.25471131442E+03  0.48054332635E+02  0.26066059169E+03  0.00000000000E+00 0.  1.
          2    1    6    6  502    0  0.10424929135E+01 -0.16489480734E+01 -0.35669080411E+00  0.19831917590E+01  0.00000000000E+00 0. -1.
         -1    1    6    6    0  502 -0.12154534539E+03  0.62868129606E+03  0.62996264318E+03  0.89825741010E+03  0.00000000000E+00 0.  1.
<mgrwt>
<rscale>  0 0.67885664E+03</rscale>
<asrwt>0</asrwt>
<pdfrwt beam="1">  1        1 0.19123784E+00 0.67885664E+03</pdfrwt>
<pdfrwt beam="2">  1       -2 0.66042023E-01 0.67885664E+03</pdfrwt>
<totfact> 0.19053552E+01</totfact>
</mgrwt>
</event>
<event>
12    3  0.2422421E-007  0.1289095E+04  0.7818608E-02  0.9038258E-01
         -2   -1    0    0    0  501 -0.00000000000E+00  0.00000000000E+00  0.15669705707E+04  0.15669705707E+04  0.00000000000E+00 0.  1.
          1   -1    0    0  501    0  0.00000000000E+00 -0.00000000000E+00 -0.11922047579E+04  0.11922047579E+04  0.00000000000E+00 0. -1.
        -24    2    1    2    0    0  0.12669275542E+04 -0.63032214753E+02 -0.10737534056E+03  0.12753417635E+04  0.76737620682E+02 0.  0.
    5000000    2    1    2    0    0 -0.12669275542E+04  0.63032214753E+02  0.48214115336E+03  0.14838335650E+04  0.60018619557E+03 0.  0.
        -24    2    4    4    0    0 -0.26626630162E+03  0.12349743786E+03 -0.10212780665E+03  0.32080923795E+03  0.79618576477E+02 0.  0.
         24    2    4    4    0    0 -0.10006612525E+04 -0.60465223111E+02  0.58426896002E+03  0.11630243271E+04  0.79223621581E+02 0.  0.
         11    1    3    3    0    0  0.44931910665E+03 -0.44410405188E+02 -0.87244105783E+01  0.45159280223E+03  0.00000000000E+00 0. -1.
        -12    1    3    3    0    0  0.81760844751E+03 -0.18621809565E+02 -0.98650929980E+02  0.82374896128E+03  0.00000000000E+00 0.  1.
         13    1    5    5    0    0 -0.19949456191E+03  0.12727852465E+03 -0.87879343295E+02  0.25242955858E+03  0.00000000000E+00 0. -1.
        -14    1    5    5    0    0 -0.66771739717E+02 -0.37810867841E+01 -0.14248463359E+02  0.68379679366E+02  0.00000000000E+00 0.  1.
          4    1    6    6  502    0 -0.77806021100E+03 -0.15324594098E+02  0.44093389450E+03  0.89444688743E+03  0.00000000000E+00 0. -1.
         -3    1    6    6    0  502 -0.22260104153E+03 -0.45140629013E+02  0.14333506552E+03  0.26857743964E+03  0.00000000000E+00 0.  1.
<mgrwt>
<rscale>  0 0.12890947E+04</rscale>
<asrwt>0</asrwt>
<pdfrwt beam="1">  1        1 0.18341612E+00 0.12890947E+04</pdfrwt>
<pdfrwt beam="2">  1       -2 0.24107240E+00 0.12890947E+04</pdfrwt>
<totfact> 0.66888421E-01</totfact>
</mgrwt>
</event>
<event>
12    3  0.2422421E-007  0.1653494E+04  0.7818608E-02  0.8788342E-01
         -2   -1    0    0    0  501 -0.00000000000E+00  0.00000000000E+00  0.26455214831E+04  0.26455214831E+04  0.00000000000E+00 0.  1.
          1   -1    0    0  501    0  0.00000000000E+00 -0.00000000000E+00 -0.10537677970E+04  0.10537677970E+04  0.00000000000E+00 0. -1.
        -24    2    1    2    0    0 -0.10564609933E+04 -0.12207413790E+04  0.79554726664E+03  0.18018476496E+04  0.86256328835E+02 0.  0.
    5000000    2    1    2    0    0  0.10564609933E+04  0.12207413790E+04  0.79620641951E+03  0.18974416304E+04  0.60001727788E+03 0.  0.
        -24    2    4    4    0    0  0.10869660591E+04  0.10373148235E+04  0.61256235508E+03  0.16244561582E+04  0.78153147422E+02 0.  0.
         24    2    4    4    0    0 -0.30505065749E+02  0.18342655549E+03  0.18364406443E+03  0.27298547226E+03  0.78867391031E+02 0.  0.
         11    1    3    3    0    0 -0.74499003921E+03 -0.89368999447E+03  0.53685397006E+03  0.12813680774E+04  0.00000000000E+00 0. -1.
        -12    1    3    3    0    0 -0.31147095409E+03 -0.32705138452E+03  0.25869329658E+03  0.52047957218E+03  0.00000000000E+00 0.  1.
         11    1    5    5    0    0  0.10319597415E+04  0.99823642374E+03  0.59860641349E+03  0.15555534398E+04  0.00000000000E+00 0. -1.
        -12    1    5    5    0    0  0.55006317559E+02  0.39078399762E+02  0.13955941592E+02  0.68902718415E+02  0.00000000000E+00 0.  1.
          4    1    6    6  502    0 -0.28987266697E+02  0.18450424617E+03  0.18996289156E+03  0.26639815813E+03  0.00000000000E+00 0. -1.
         -3    1    6    6    0  502 -0.15177990526E+01 -0.10776906755E+01 -0.63188271300E+01  0.65873141306E+01  0.00000000000E+00 0.  1.
<mgrwt>
<rscale>  0 0.16534938E+04</rscale>
<asrwt>0</asrwt>
<pdfrwt beam="1">  1        1 0.16211812E+00 0.16534938E+04</pdfrwt>
<pdfrwt beam="2">  1       -2 0.40700330E+00 0.16534938E+04</pdfrwt>
<totfact> 0.75133144E-02</totfact>
</mgrwt>
</event>
<event>
12    3  0.2422421E-007  0.7074845E+03  0.7818608E-02  0.9704518E-01
          1   -1    0    0  501    0  0.00000000000E+00  0.00000000000E+00  0.41284894777E+03  0.41284894777E+03  0.00000000000E+00 0. -1.
         -2   -1    0    0    0  501 -0.00000000000E+00 -0.00000000000E+00 -0.15667087387E+04  0.15667087387E+04  0.00000000000E+00 0.  1.
        -24    2    1    2    0    0  0.62808948884E+03  0.24234618680E+03 -0.68004260204E+03  0.96086982822E+03  0.87090791384E+02 0.  0.
    5000000    2    1    2    0    0 -0.62808948884E+03 -0.24234618680E+03 -0.47381718892E+03  0.10186878583E+04  0.59999511987E+03 0.  0.
        -24    2    4    4    0    0 -0.61191855316E+03 -0.24685055384E+03 -0.14521895308E+03  0.68030744482E+03  0.79687913230E+02 0.  0.
         24    2    4    4    0    0 -0.16170935681E+02  0.45043670351E+01 -0.32859823584E+03  0.33838041347E+03  0.79010854579E+02 0.  0.
         11    1    5    5    0    0 -0.33531555316E+03 -0.12035458899E+03 -0.11637993734E+03  0.37478798953E+03  0.00000000000E+00 0. -1.
        -12    1    5    5    0    0 -0.27660299999E+03 -0.12649596485E+03 -0.28839015741E+02  0.30551945529E+03  0.00000000000E+00 0.  1.
         11    1    3    3    0    0  0.29860379195E+03  0.13013736913E+03 -0.38728226843E+03  0.50605090144E+03  0.00000000000E+00 0. -1.
        -12    1    3    3    0    0  0.32948569689E+03  0.11220881767E+03 -0.29276033361E+03  0.45481892678E+03  0.00000000000E+00 0.  1.
          2    1    6    6  502    0 -0.42529891690E+02  0.23192770582E+02 -0.19342147426E+03  0.19939549393E+03  0.00000000000E+00 0. -1.
         -1    1    6    6    0  502  0.26358956009E+02 -0.18688403547E+02 -0.13517676158E+03  0.13898491954E+03  0.00000000000E+00 0.  1.
<mgrwt>
<rscale>  0 0.70748446E+03</rscale>
<asrwt>0</asrwt>
<pdfrwt beam="1">  1        1 0.63515224E-01 0.70748446E+03</pdfrwt>
<pdfrwt beam="2">  1       -2 0.24103211E+00 0.70748446E+03</pdfrwt>
<totfact> 0.38098484E+00</totfact>
</mgrwt>
</event>
<event>
12    3  0.2422421E-007  0.6677088E+03  0.7818608E-02  0.9774106E-01
          1   -1    0    0  501    0  0.00000000000E+00  0.00000000000E+00  0.21808796318E+04  0.21808796318E+04  0.00000000000E+00 0. -1.
         -2   -1    0    0    0  501 -0.00000000000E+00 -0.00000000000E+00 -0.23514248306E+03  0.23514248306E+03  0.00000000000E+00 0.  1.
        -24    2    1    2    0    0  0.59763357592E+02  0.57443092970E+03  0.62467102140E+03  0.85435955638E+03  0.78573625963E+02 0.  0.
    5000000    2    1    2    0    0 -0.59763357592E+02 -0.57443092970E+03  0.13210661273E+04  0.15616625585E+04  0.60002640093E+03 0.  0.
        -24    2    4    4    0    0 -0.25144664810E+03 -0.17360180237E+03  0.86087027644E+03  0.91698405773E+03  0.79994541368E+02 0.  0.
         24    2    4    4    0    0  0.19168329050E+03 -0.40082912733E+03  0.46019585091E+03  0.64467850075E+03  0.80147831891E+02 0.  0.
         11    1    3    3    0    0 -0.19159666235E+02  0.91852059574E+02  0.10392560509E+03  0.14001580287E+03  0.00000000000E+00 0. -1.
        -12    1    3    3    0    0  0.78923023827E+02  0.48257887013E+03  0.52074541630E+03  0.71434375351E+03  0.00000000000E+00 0.  1.
         13    1    5    5    0    0 -0.13634578395E+03 -0.84711327169E+02  0.56413506367E+03  0.58652753713E+03  0.00000000000E+00 0. -1.
        -14    1    5    5    0    0 -0.11510086414E+03 -0.88890475201E+02  0.29673521277E+03  0.33045652060E+03  0.00000000000E+00 0.  1.
          2    1    6    6  502    0  0.13117858090E+03 -0.22196282470E+03  0.31133811799E+03  0.40423599463E+03  0.00000000000E+00 0. -1.
         -1    1    6    6    0  502  0.60504709600E+02 -0.17886630263E+03  0.14885773292E+03  0.24044250612E+03  0.00000000000E+00 0.  1.
<mgrwt>
<rscale>  0 0.66770883E+03</rscale>
<asrwt>0</asrwt>
<pdfrwt beam="1">  1        1 0.33551993E+00 0.66770883E+03</pdfrwt>
<pdfrwt beam="2">  1       -2 0.36175768E-01 0.66770883E+03</pdfrwt>
<totfact> 0.14963174E+01</totfact>
</mgrwt>
</event>
<event>
12    3  0.2422421E-007  0.5655337E+03  0.7818608E-02  0.9979611E-01
         -2   -1    0    0    0  501 -0.00000000000E+00  0.00000000000E+00  0.13303495634E+04  0.13303495634E+04  0.00000000000E+00 0.  1.
          1   -1    0    0  501    0  0.00000000000E+00 -0.00000000000E+00 -0.55899682812E+03  0.55899682812E+03  0.00000000000E+00 0. -1.
        -24    2    1    2    0    0  0.44276150198E+03  0.27676048446E+03 -0.25831684770E+03  0.58830190714E+03  0.82081829560E+02 0.  0.
    5000000    2    1    2    0    0 -0.44276150198E+03 -0.27676048446E+03  0.10296695830E+04  0.13010444844E+04  0.59988597821E+03 0.  0.
        -24    2    4    4    0    0 -0.92478797247E+02  0.49730943024E+02  0.70433844748E+03  0.71655657798E+03  0.79593882970E+02 0.  0.
         24    2    4    4    0    0 -0.35028270473E+03 -0.32649142749E+03  0.32533113551E+03  0.58448790642E+03  0.80567608673E+02 0.  0.
         11    1    3    3    0    0  0.19846485911E+03  0.76899159422E+02 -0.99054410306E+02  0.23476276796E+03  0.00000000000E+00 0. -1.
        -12    1    3    3    0    0  0.24429664287E+03  0.19986132504E+03 -0.15926243739E+03  0.35353913917E+03  0.00000000000E+00 0.  1.
         11    1    5    5    0    0 -0.10128539199E+03  0.39042071422E+02  0.67951925450E+03  0.68813474785E+03  0.00000000000E+00 0. -1.
        -12    1    5    5    0    0  0.88065947448E+01  0.10688871602E+02  0.24819192987E+02  0.28421830125E+02  0.00000000000E+00 0.  1.
          2    1    6    6  502    0 -0.46032798662E+02 -0.60800715348E+02  0.86151891625E+02  0.11505604708E+03  0.00000000000E+00 0. -1.
         -1    1    6    6    0  502 -0.30424990607E+03 -0.26569071214E+03  0.23917924388E+03  0.46943185934E+03  0.00000000000E+00 0.  1.
<mgrwt>
<rscale>  0 0.56553366E+03</rscale>
<asrwt>0</asrwt>
<pdfrwt beam="1">  1        1 0.85999512E-01 0.56553366E+03</pdfrwt>
<pdfrwt beam="2">  1       -2 0.20466916E+00 0.56553366E+03</pdfrwt>
<totfact> 0.43399339E+00</totfact>
</mgrwt>
</event>
<event>
12    3  0.2422421E-007  0.3978952E+03  0.7818608E-02  0.1044511E+00
         -2   -1    0    0    0  501 -0.00000000000E+00  0.00000000000E+00  0.25419064794E+03  0.25419064794E+03  0.00000000000E+00 0.  1.
          1   -1    0    0  501    0  0.00000000000E+00 -0.00000000000E+00 -0.12230441074E+04  0.12230441074E+04  0.00000000000E+00 0. -1.
        -24    2    1    2    0    0 -0.27113909382E+03 -0.23712108115E+03 -0.54776152832E+03  0.66043195808E+03  0.79905344164E+02 0.  0.
    5000000    2    1    2    0    0  0.27113909382E+03  0.23712108115E+03 -0.42109193115E+03  0.81680279726E+03  0.60008797673E+03 0.  0.
        -24    2    4    4    0    0  0.14575836978E+02  0.43783857852E+01 -0.45244772198E+03  0.45987937592E+03  0.80922642002E+02 0.  0.
         24    2    4    4    0    0  0.25656325684E+03  0.23274269536E+03  0.31355790824E+02  0.35692342134E+03  0.80107902733E+02 0.  0.
         11    1    5    5    0    0  0.26217574497E+01 -0.33991576655E+02 -0.11216916762E+03  0.11723575845E+03  0.00000000000E+00 0. -1.
        -12    1    5    5    0    0  0.11954079528E+02  0.38369962440E+02 -0.34027855436E+03  0.34264361747E+03  0.00000000000E+00 0.  1.
         13    1    3    3    0    0 -0.23828484148E+03 -0.16838479628E+03 -0.41382314954E+03  0.50634247737E+03  0.00000000000E+00 0. -1.
        -14    1    3    3    0    0 -0.32854252334E+02 -0.68736284868E+02 -0.13393837878E+03  0.15408948071E+03  0.00000000000E+00 0.  1.
          2    1    6    6  502    0  0.13356267560E+03  0.73879555016E+02 -0.51421815235E+01  0.15272072221E+03  0.00000000000E+00 0. -1.
         -1    1    6    6    0  502  0.12300058124E+03  0.15886314035E+03  0.36497972348E+02  0.20420269913E+03  0.00000000000E+00 0.  1.
<mgrwt>
<rscale>  0 0.39789522E+03</rscale>
<asrwt>0</asrwt>
<pdfrwt beam="1">  1        1 0.18816064E+00 0.39789522E+03</pdfrwt>
<pdfrwt beam="2">  1       -2 0.39106252E-01 0.39789522E+03</pdfrwt>
<totfact> 0.59545516E+01</totfact>
</mgrwt>
</event>
<event>
12    3  0.2422421E-007  0.4006048E+03  0.7818608E-02  0.1043570E+00
          3   -1    0    0  501    0  0.00000000000E+00  0.00000000000E+00  0.30036700556E+03  0.30036700556E+03  0.00000000000E+00 0. -1.
         -4   -1    0    0    0  501 -0.00000000000E+00 -0.00000000000E+00 -0.98123891889E+03  0.98123891889E+03  0.00000000000E+00 0.  1.
        -24    2    1    2    0    0 -0.30468148735E+03 -0.20726174490E+02  0.11332304217E+02  0.31579140531E+03  0.79595273140E+02 0.  0.
    5000000    2    1    2    0    0  0.30468148735E+03  0.20726174490E+02 -0.69220421754E+03  0.96581451914E+03  0.60032543137E+03 0.  0.
        -24    2    4    4    0    0  0.17141985511E+03 -0.16226995241E+03 -0.68156463131E+03  0.72558886416E+03  0.78946494262E+02 0.  0.
         24    2    4    4    0    0  0.13326163224E+03  0.18299612690E+03 -0.10639586231E+02  0.24022565497E+03  0.79680106828E+02 0.  0.
         11    1    3    3    0    0 -0.17309388791E+03 -0.50266129734E+02  0.15100688014E+02  0.18087622455E+03  0.00000000000E+00 0. -1.
        -12    1    3    3    0    0 -0.13158759944E+03  0.29539955244E+02 -0.37683837971E+01  0.13491518076E+03  0.00000000000E+00 0.  1.
         13    1    5    5    0    0  0.66249008708E+02 -0.11075548263E+03 -0.30344907282E+03  0.32975301042E+03  0.00000000000E+00 0. -1.
        -14    1    5    5    0    0  0.10517084640E+03 -0.51514469777E+02 -0.37811555849E+03  0.39583585374E+03  0.00000000000E+00 0.  1.
          2    1    6    6  502    0  0.12906876167E+03  0.11823165936E+03 -0.10029565305E+02  0.17532273866E+03  0.00000000000E+00 0. -1.
         -1    1    6    6    0  502  0.41928705746E+01  0.64764467546E+02 -0.61002092544E+00  0.64902916311E+02  0.00000000000E+00 0.  1.
<mgrwt>
<rscale>  0 0.40060477E+03</rscale>
<asrwt>0</asrwt>
<pdfrwt beam="1">  1        3 0.46210308E-01 0.40060477E+03</pdfrwt>
<pdfrwt beam="2">  1       -4 0.15095984E+00 0.40060477E+03</pdfrwt>
<totfact> 0.30882212E+00</totfact>
</mgrwt>
</event>
<event>
12    3  0.2422421E-007  0.8880764E+03  0.7818608E-02  0.9440610E-01
         -2   -1    0    0    0  501 -0.00000000000E+00  0.00000000000E+00  0.31298640944E+03  0.31298640944E+03  0.00000000000E+00 0.  1.
          1   -1    0    0  501    0  0.00000000000E+00 -0.00000000000E+00 -0.43828942942E+04  0.43828942942E+04  0.00000000000E+00 0. -1.
        -24    2    1    2    0    0  0.67985795022E+03  0.52927658880E+03 -0.55595388222E+03  0.10284562966E+04  0.79354237441E+02 0.  0.
    5000000    2    1    2    0    0 -0.67985795022E+03 -0.52927658880E+03 -0.35139540025E+04  0.36674244070E+04  0.59982373178E+03 0.  0.
        -24    2    4    4    0    0 -0.37124497704E+03 -0.10718099908E+03 -0.24286344494E+04  0.24605684812E+04  0.82591540686E+02 0.  0.
         24    2    4    4    0    0 -0.30861297318E+03 -0.42209558971E+03 -0.10853195532E+04  0.12068559258E+04  0.71944694213E+02 0.  0.
         13    1    5    5    0    0 -0.32382664879E+02 -0.18091474193E+01 -0.38398415156E+03  0.38535144822E+03  0.00000000000E+00 0. -1.
        -14    1    5    5    0    0 -0.33886231216E+03 -0.10537185166E+03 -0.20446502978E+04  0.20752170330E+04  0.00000000000E+00 0.  1.
         13    1    3    3    0    0  0.28925819626E+03  0.21054642191E+03 -0.27553942834E+03  0.45157732057E+03  0.00000000000E+00 0. -1.
        -14    1    3    3    0    0  0.39059975397E+03  0.31873016689E+03 -0.28041445388E+03  0.57687897606E+03  0.00000000000E+00 0.  1.
          2    1    6    6  502    0 -0.99003029596E+02 -0.87589719398E+02 -0.24314120347E+03  0.27675115833E+03  0.00000000000E+00 0. -1.
         -1    1    6    6    0  502 -0.20960994359E+03 -0.33450587032E+03 -0.84217834971E+03  0.93010476746E+03  0.00000000000E+00 0.  1.
<mgrwt>
<rscale>  0 0.88807644E+03</rscale>
<asrwt>0</asrwt>
<pdfrwt beam="1">  1        1 0.67429143E+00 0.88807644E+03</pdfrwt>
<pdfrwt beam="2">  1       -2 0.48151756E-01 0.88807644E+03</pdfrwt>
<totfact> 0.16544934E-01</totfact>
</mgrwt>
</event>
<event>
12    3  0.2422421E-007  0.6297048E+03  0.7818608E-02  0.9845625E-01
         -2   -1    0    0    0  501 -0.00000000000E+00  0.00000000000E+00  0.13273784087E+04  0.13273784087E+04  0.00000000000E+00 0.  1.
          1   -1    0    0  501    0  0.00000000000E+00 -0.00000000000E+00 -0.42907481838E+03  0.42907481838E+03  0.00000000000E+00 0. -1.
        -24    2    1    2    0    0  0.99447338119E+01 -0.56270681901E+03  0.43907564603E+02  0.57039986564E+03  0.81794074362E+02 0.  0.
    5000000    2    1    2    0    0 -0.99447338119E+01  0.56270681901E+03  0.85439602569E+03  0.11860533614E+04  0.59999345454E+03 0.  0.
        -24    2    4    4    0    0  0.16251444735E+03  0.45363277831E+03  0.26218575669E+03  0.55434533568E+03  0.79773034449E+02 0.  0.
         24    2    4    4    0    0 -0.17245918116E+03  0.10907404070E+03  0.59221026900E+03  0.63170802573E+03  0.81870089366E+02 0.  0.
         11    1    5    5    0    0  0.20286312203E+02  0.84977002903E+02  0.16085115132E+02  0.88833306896E+02  0.00000000000E+00 0. -1.
        -12    1    5    5    0    0  0.14222813515E+03  0.36865577541E+03  0.24610064156E+03  0.46551202879E+03  0.00000000000E+00 0.  1.
         13    1    3    3    0    0  0.24991795494E+02 -0.43886995913E+03  0.63430296951E+02  0.44413380128E+03  0.00000000000E+00 0. -1.
        -14    1    3    3    0    0 -0.15047061682E+02 -0.12383685989E+03 -0.19522732348E+02  0.12626606436E+03  0.00000000000E+00 0.  1.
          2    1    6    6  502    0 -0.34160980763E+00  0.17707430550E+02  0.17656346315E+02  0.25008325796E+02  0.00000000000E+00 0. -1.
         -1    1    6    6    0  502 -0.17211757136E+03  0.91366610153E+02  0.57455392269E+03  0.60669969993E+03  0.00000000000E+00 0.  1.
<mgrwt>
<rscale>  0 0.62970476E+03</rscale>
<asrwt>0</asrwt>
<pdfrwt beam="1">  1        1 0.66011511E-01 0.62970476E+03</pdfrwt>
<pdfrwt beam="2">  1       -2 0.20421206E+00 0.62970476E+03</pdfrwt>
<totfact> 0.62036700E+00</totfact>
</mgrwt>
</event>
<event>
12    3  0.2422421E-007  0.7303072E+03  0.7818608E-02  0.9666762E-01
         -2   -1    0    0    0  501 -0.00000000000E+00  0.00000000000E+00  0.30685144904E+04  0.30685144904E+04  0.00000000000E+00 0.  1.
          1   -1    0    0  501    0  0.00000000000E+00 -0.00000000000E+00 -0.21309219765E+03  0.21309219765E+03  0.00000000000E+00 0. -1.
        -24    2    1    2    0    0 -0.58516257326E+03  0.37321520014E+03  0.11834627852E+04  0.13743928355E+04  0.81649737315E+02 0.  0.
    5000000    2    1    2    0    0  0.58516257326E+03 -0.37321520014E+03  0.16719595075E+04  0.19072138525E+04  0.60025932868E+03 0.  0.
        -24    2    4    4    0    0  0.42882697574E+03 -0.92897372290E+02  0.42490766694E+03  0.61706032851E+03  0.87717881286E+02 0.  0.
         24    2    4    4    0    0  0.15633559751E+03 -0.28031782785E+03  0.12470518406E+04  0.12901535240E+04  0.79617326796E+02 0.  0.
         11    1    3    3    0    0 -0.35472495155E+02  0.43647478035E+01  0.45052534864E+02  0.57507215491E+02  0.00000000000E+00 0. -1.
        -12    1    3    3    0    0 -0.54969007810E+03  0.36885045234E+03  0.11384102504E+04  0.13168856201E+04  0.00000000000E+00 0.  1.
         11    1    5    5    0    0  0.19965142766E+03 -0.17733737593E+02  0.14391390986E+03  0.24675167976E+03  0.00000000000E+00 0. -1.
        -12    1    5    5    0    0  0.22917554808E+03 -0.75163634697E+02  0.28099375708E+03  0.37030864875E+03  0.00000000000E+00 0.  1.
          4    1    6    6  502    0  0.31272253059E+02 -0.68341506354E+02  0.44118757317E+03  0.44754328284E+03  0.00000000000E+00 0. -1.
         -3    1    6    6    0  502  0.12506334445E+03 -0.21197632150E+03  0.80586426741E+03  0.84261024115E+03  0.00000000000E+00 0.  1.
<mgrwt>
<rscale>  0 0.73030722E+03</rscale>
<asrwt>0</asrwt>
<pdfrwt beam="1">  1        1 0.32783417E-01 0.73030722E+03</pdfrwt>
<pdfrwt beam="2">  1       -2 0.47207912E+00 0.73030722E+03</pdfrwt>
<totfact> 0.31756511E-01</totfact>
</mgrwt>
</event>
<event>
12    3  0.2422421E-007  0.6270161E+03  0.7818608E-02  0.9850889E-01
         -2   -1    0    0    0  501 -0.00000000000E+00  0.00000000000E+00  0.15802285522E+03  0.15802285522E+03  0.00000000000E+00 0.  1.
          1   -1    0    0  501    0  0.00000000000E+00 -0.00000000000E+00 -0.29755857555E+04  0.29755857555E+04  0.00000000000E+00 0. -1.
        -24    2    1    2    0    0 -0.49718535981E+03  0.16265088274E+03 -0.74734237545E+03  0.91561877581E+03  0.78667177413E+02 0.  0.
    5000000    2    1    2    0    0  0.49718535981E+03 -0.16265088274E+03 -0.20702205248E+04  0.22179898349E+04  0.60001441203E+03 0.  0.
        -24    2    4    4    0    0 -0.18604055467E+02 -0.20129150921E+03 -0.10424518217E+04  0.10646473326E+04  0.76835928016E+02 0.  0.
         24    2    4    4    0    0  0.51578941528E+03  0.38640626474E+02 -0.10277687031E+04  0.11533425022E+04  0.79740838969E+02 0.  0.
         11    1    3    3    0    0 -0.25683303304E+02 -0.31888934157E+01 -0.18304247204E+02  0.31699315064E+02  0.00000000000E+00 0. -1.
        -12    1    3    3    0    0 -0.47150205650E+03  0.16583977615E+03 -0.72903812825E+03  0.88391946074E+03  0.00000000000E+00 0.  1.
         11    1    5    5    0    0  0.55227930296E+01 -0.17565357189E+03 -0.94075956982E+03  0.95703356616E+03  0.00000000000E+00 0. -1.
        -12    1    5    5    0    0 -0.24126848496E+02 -0.25637937322E+02 -0.10169225186E+03  0.10761376648E+03  0.00000000000E+00 0.  1.
          2    1    6    6  502    0  0.14333859446E+03  0.16419526566E+02 -0.36976432106E+03  0.39691460876E+03  0.00000000000E+00 0. -1.
         -1    1    6    6    0  502  0.37245082081E+03  0.22221099908E+02 -0.65800438205E+03  0.75642789346E+03  0.00000000000E+00 0.  1.
<mgrwt>
<rscale>  0 0.62701609E+03</rscale>
<asrwt>0</asrwt>
<pdfrwt beam="1">  1        1 0.45778239E+00 0.62701609E+03</pdfrwt>
<pdfrwt beam="2">  1       -2 0.24311210E-01 0.62701609E+03</pdfrwt>
<totfact> 0.89513956E+00</totfact>
</mgrwt>
</event>
<event>
12    3  0.2998833E-007  0.6321107E+03  0.7818608E-02  0.9840938E-01
          1   -1    0    0  501    0  0.00000000000E+00  0.00000000000E+00  0.18282882901E+04  0.18282882901E+04  0.00000000000E+00 0. -1.
         -2   -1    0    0    0  501 -0.00000000000E+00 -0.00000000000E+00 -0.24080039120E+03  0.24080039120E+03  0.00000000000E+00 0.  1.
        -24    2    1    2    0    0 -0.43796426752E+03  0.28786151137E+03  0.66478997510E+03  0.85010087009E+03  0.77774218044E+02 0.  0.
    5000000    2    1    2    0    0  0.43796426752E+03 -0.28786151137E+03  0.92269792377E+03  0.12189878112E+04  0.59990238864E+03 0.  0.
        -24    2    4    4    0    0  0.33514475005E+03  0.88711624852E+02  0.23987179348E+03  0.42863154537E+03  0.77425890409E+02 0.  0.
         24    2    4    4    0    0  0.10281951747E+03 -0.37657313622E+03  0.68282613029E+03  0.79035626580E+03  0.77668028092E+02 0.  0.
         11    1    3    3    0    0 -0.25385737006E+03  0.17740896299E+03  0.45111392663E+03  0.54719400516E+03  0.00000000000E+00 0. -1.
        -12    1    3    3    0    0 -0.18410689746E+03  0.11045254838E+03  0.21367604847E+03  0.30290686493E+03  0.00000000000E+00 0.  1.
         13    1    5    5    0    0  0.19420732615E+03  0.36136780401E+02  0.92785066445E+02  0.21824623933E+03  0.00000000000E+00 0. -1.
        -14    1    5    5    0    0  0.14093742390E+03  0.52574844451E+02  0.14708672703E+03  0.21038530603E+03  0.00000000000E+00 0.  1.
          4    1    6    6  502    0  0.67749418324E+02 -0.30112919015E+03  0.47476471128E+03  0.56627758557E+03  0.00000000000E+00 0. -1.
         -3    1    6    6    0  502  0.35070099145E+02 -0.75443946072E+02  0.20806141902E+03  0.22407868024E+03  0.00000000000E+00 0.  1.
<mgrwt>
<rscale>  0 0.63211073E+03</rscale>
<asrwt>0</asrwt>
<pdfrwt beam="1">  1        1 0.28127511E+00 0.63211073E+03</pdfrwt>
<pdfrwt beam="2">  1       -2 0.37046215E-01 0.63211073E+03</pdfrwt>
<totfact> 0.24698298E+01</totfact>
</mgrwt>
</event>
<event>
12    3  0.2422421E-007  0.1698314E+04  0.7818608E-02  0.8762326E-01
         -2   -1    0    0    0  501 -0.00000000000E+00  0.00000000000E+00  0.11259658820E+04  0.11259658820E+04  0.00000000000E+00 0.  1.
          1   -1    0    0  501    0  0.00000000000E+00 -0.00000000000E+00 -0.26074437127E+04  0.26074437127E+04  0.00000000000E+00 0. -1.
        -24    2    1    2    0    0 -0.14434515255E+04 -0.81614698837E+03 -0.63501698136E+03  0.17774298171E+04  0.79761988728E+02 0.  0.
    5000000    2    1    2    0    0  0.14434515255E+04  0.81614698837E+03 -0.84646084935E+03  0.19559797777E+04  0.59976054231E+03 0.  0.
        -24    2    4    4    0    0  0.99891700674E+03  0.28090355350E+03 -0.35232088144E+03  0.10987124279E+04  0.79353657891E+02 0.  0.
         24    2    4    4    0    0  0.44453451877E+03  0.53524343487E+03 -0.49413996791E+03  0.85726734978E+03  0.81464889117E+02 0.  0.
         11    1    5    5    0    0  0.66953331281E+03  0.18993521904E+03 -0.19659749167E+03  0.72318795491E+03  0.00000000000E+00 0. -1.
        -12    1    5    5    0    0  0.32938369394E+03  0.90968334456E+02 -0.15572338977E+03  0.37552447300E+03  0.00000000000E+00 0.  1.
         11    1    3    3    0    0 -0.10882380896E+04 -0.59655045844E+03 -0.44215449920E+03  0.13174350801E+04  0.00000000000E+00 0. -1.
        -12    1    3    3    0    0 -0.35521343595E+03 -0.21959652993E+03 -0.19286248216E+03  0.45999473699E+03  0.00000000000E+00 0.  1.
          4    1    6    6  502    0  0.24315691666E+03  0.23040825240E+03 -0.24647499266E+03  0.41588841160E+03  0.00000000000E+00 0. -1.
         -3    1    6    6    0  502  0.20137760211E+03  0.30483518248E+03 -0.24766497524E+03  0.44137893818E+03  0.00000000000E+00 0.  1.
<mgrwt>
<rscale>  0 0.16983142E+04</rscale>
<asrwt>0</asrwt>
<pdfrwt beam="1">  1        1 0.40114518E+00 0.16983142E+04</pdfrwt>
<pdfrwt beam="2">  1       -2 0.17322552E+00 0.16983142E+04</pdfrwt>
<totfact> 0.18697618E-01</totfact>
</mgrwt>
</event>
<event>
12    3  0.2422421E-007  0.7122356E+03  0.7818608E-02  0.9696533E-01
         -2   -1    0    0    0  501 -0.00000000000E+00  0.00000000000E+00  0.34458273520E+03  0.34458273520E+03  0.00000000000E+00 0.  1.
          1   -1    0    0  501    0  0.00000000000E+00 -0.00000000000E+00 -0.16647183753E+04  0.16647183753E+04  0.00000000000E+00 0. -1.
        -24    2    1    2    0    0  0.56414445969E+03  0.28777094916E+03 -0.48468807261E+03  0.80139114742E+03  0.78956651729E+02 0.  0.
    5000000    2    1    2    0    0 -0.56414445969E+03 -0.28777094916E+03 -0.83544756751E+03  0.12079099631E+04  0.60000229193E+03 0.  0.
        -24    2    4    4    0    0 -0.77378894351E+02 -0.29187418804E+03 -0.11083635208E+03  0.33133853976E+03  0.79514124862E+02 0.  0.
         24    2    4    4    0    0 -0.48676556534E+03  0.41032388745E+01 -0.72461121543E+03  0.87657142335E+03  0.79740168853E+02 0.  0.
         11    1    3    3    0    0  0.36762089424E+03  0.21416749965E+03 -0.35971763937E+03  0.55714416434E+03  0.00000000000E+00 0. -1.
        -12    1    3    3    0    0  0.19652356545E+03  0.73603449512E+02 -0.12497043323E+03  0.24424698307E+03  0.00000000000E+00 0.  1.
         11    1    5    5    0    0 -0.58346901146E+02 -0.24287113279E+03 -0.12139678212E+03  0.27771915080E+03  0.00000000000E+00 0. -1.
        -12    1    5    5    0    0 -0.19031993205E+02 -0.49003055248E+02  0.10560430037E+02  0.53619388951E+02  0.00000000000E+00 0.  1.
          4    1    6    6  502    0 -0.35913790901E+03  0.76796555898E+00 -0.59252741266E+03  0.69287037908E+03  0.00000000000E+00 0. -1.
         -3    1    6    6    0  502 -0.12762765633E+03  0.33352733155E+01 -0.13208380277E+03  0.18370104427E+03  0.00000000000E+00 0.  1.
<mgrwt>
<rscale>  0 0.71223561E+03</rscale>
<asrwt>0</asrwt>
<pdfrwt beam="1">  1        1 0.25611052E+00 0.71223561E+03</pdfrwt>
<pdfrwt beam="2">  1       -2 0.53012729E-01 0.71223561E+03</pdfrwt>
<totfact> 0.15421196E+01</totfact>
</mgrwt>
</event>
<event>
12    3  0.2422421E-007  0.1017832E+04  0.7818608E-02  0.9289200E-01
          1   -1    0    0  501    0  0.00000000000E+00  0.00000000000E+00  0.14842818283E+04  0.14842818283E+04  0.00000000000E+00 0. -1.
         -2   -1    0    0    0  501 -0.00000000000E+00 -0.00000000000E+00 -0.79372913591E+03  0.79372913591E+03  0.00000000000E+00 0.  1.
        -24    2    1    2    0    0  0.34559195332E+03  0.89134004039E+03  0.62998868934E+03  0.11477102567E+04  0.80201114834E+02 0.  0.
    5000000    2    1    2    0    0 -0.34559195332E+03 -0.89134004039E+03  0.60564003033E+02  0.11303007075E+04  0.59999235421E+03 0.  0.
        -24    2    4    4    0    0 -0.25311865275E+03 -0.87754301786E+02  0.14107907710E+03  0.31362978211E+03  0.81795258915E+02 0.  0.
         24    2    4    4    0    0 -0.92473300568E+02 -0.80358573860E+03 -0.80515074063E+02  0.81667092539E+03  0.78532621334E+02 0.  0.
         11    1    5    5    0    0 -0.10664822296E+03 -0.33164701501E+02  0.14760296417E+02  0.11265703367E+03  0.00000000000E+00 0. -1.
        -12    1    5    5    0    0 -0.14647042980E+03 -0.54589600285E+02  0.12631878068E+03  0.20097274844E+03  0.00000000000E+00 0.  1.
         13    1    3    3    0    0  0.87543768107E+02  0.17350113902E+03  0.16007434410E+03  0.25177440739E+03  0.00000000000E+00 0. -1.
        -14    1    3    3    0    0  0.25804818522E+03  0.71783890137E+03  0.46991434524E+03  0.89593584930E+03  0.00000000000E+00 0.  1.
          2    1    6    6  502    0 -0.12483811915E+02 -0.32911460088E+03 -0.62082884615E+02  0.33515153384E+03  0.00000000000E+00 0. -1.
         -1    1    6    6    0  502 -0.79989488653E+02 -0.47447113772E+03 -0.18432189448E+02  0.48151939155E+03  0.00000000000E+00 0.  1.
<mgrwt>
<rscale>  0 0.10178320E+04</rscale>
<asrwt>0</asrwt>
<pdfrwt beam="1">  1        1 0.22835105E+00 0.10178320E+04</pdfrwt>
<pdfrwt beam="2">  1       -2 0.12211217E+00 0.10178320E+04</pdfrwt>
<totfact> 0.29833983E+00</totfact>
</mgrwt>
</event>
<event>
12    3  0.2422421E-007  0.1206887E+04  0.7818608E-02  0.9106850E-01
          1   -1    0    0  501    0  0.00000000000E+00  0.00000000000E+00  0.39831940582E+03  0.39831940582E+03  0.00000000000E+00 0. -1.
         -2   -1    0    0    0  501 -0.00000000000E+00 -0.00000000000E+00 -0.38439143189E+04  0.38439143189E+04  0.00000000000E+00 0.  1.
        -24    2    1    2    0    0 -0.10555845807E+04 -0.44412386773E+03 -0.19732241850E+04  0.22828245594E+04  0.78545959942E+02 0.  0.
    5000000    2    1    2    0    0  0.10555845807E+04  0.44412386773E+03 -0.14723707281E+04  0.19594091653E+04  0.59991991061E+03 0.  0.
        -24    2    4    4    0    0  0.76854779509E+03  0.39153795437E+02 -0.10332322170E+04  0.12908117660E+04  0.80171491992E+02 0.  0.
         24    2    4    4    0    0  0.28703678566E+03  0.40497007229E+03 -0.43913851111E+03  0.66859739926E+03  0.88255167441E+02 0.  0.
         13    1    3    3    0    0 -0.89327326486E+02 -0.38403877386E+02 -0.12762540938E+03  0.16044461404E+03  0.00000000000E+00 0. -1.
        -14    1    3    3    0    0 -0.96625725426E+03 -0.40571999034E+03 -0.18455987756E+04  0.21223799453E+04  0.00000000000E+00 0.  1.
         13    1    5    5    0    0  0.16383414549E+03 -0.11065318213E+02 -0.26636974959E+03  0.31291678126E+03  0.00000000000E+00 0. -1.
        -14    1    5    5    0    0  0.60471364960E+03  0.50219113651E+02 -0.76686246738E+03  0.97789498478E+03  0.00000000000E+00 0.  1.
          4    1    6    6  502    0  0.49070053327E+02  0.93423249691E+02 -0.52050834731E+02  0.11766504626E+03  0.00000000000E+00 0. -1.
         -3    1    6    6    0  502  0.23796673233E+03  0.31154682260E+03 -0.38708767638E+03  0.55093235299E+03  0.00000000000E+00 0.  1.
<mgrwt>
<rscale>  0 0.12068871E+04</rscale>
<asrwt>0</asrwt>
<pdfrwt beam="1">  1        1 0.61279909E-01 0.12068871E+04</pdfrwt>
<pdfrwt beam="2">  1       -2 0.59137143E+00 0.12068871E+04</pdfrwt>
<totfact> 0.27949164E-02</totfact>
</mgrwt>
</event>
<event>
12    3  0.2422421E-007  0.2233673E+04  0.7818608E-02  0.8504542E-01
         -2   -1    0    0    0  501 -0.00000000000E+00  0.00000000000E+00  0.14654157566E+04  0.14654157566E+04  0.00000000000E+00 0.  1.
          1   -1    0    0  501    0  0.00000000000E+00 -0.00000000000E+00 -0.35638067393E+04  0.35638067393E+04  0.00000000000E+00 0. -1.
        -24    2    1    2    0    0 -0.20528316510E+04 -0.80754513570E+03 -0.57172434039E+03  0.22802174875E+04  0.79222062818E+02 0.  0.
    5000000    2    1    2    0    0  0.20528316510E+04  0.80754513570E+03 -0.15266666423E+04  0.27490050084E+04  0.60005880217E+03 0.  0.
        -24    2    4    4    0    0  0.22793356661E+03 -0.45019959614E+02 -0.30640705073E+03  0.39266249178E+03  0.79486125564E+02 0.  0.
         24    2    4    4    0    0  0.18248980844E+04  0.85256509531E+03 -0.12202595915E+04  0.23563425166E+04  0.78716737538E+02 0.  0.
         11    1    3    3    0    0 -0.11719766522E+04 -0.48234017041E+03 -0.29347257553E+03  0.13008871841E+04  0.00000000000E+00 0. -1.
        -12    1    3    3    0    0 -0.88085499878E+03 -0.32520496529E+03 -0.27825176486E+03  0.97933030331E+03  0.00000000000E+00 0.  1.
         13    1    5    5    0    0  0.94625054761E+02  0.20505295434E+02 -0.11332625156E+03  0.14905437740E+03  0.00000000000E+00 0. -1.
        -14    1    5    5    0    0  0.13330851185E+03 -0.65525255048E+02 -0.19308079917E+03  0.24360811437E+03  0.00000000000E+00 0.  1.
          4    1    6    6  502    0  0.11618548396E+04  0.50227085594E+03 -0.77790431923E+03  0.14857044831E+04  0.00000000000E+00 0. -1.
         -3    1    6    6    0  502  0.66304324473E+03  0.35029423938E+03 -0.44235527231E+03  0.87063803355E+03  0.00000000000E+00 0.  1.
<mgrwt>
<rscale>  0 0.22336734E+04</rscale>
<asrwt>0</asrwt>
<pdfrwt beam="1">  1        1 0.54827795E+00 0.22336734E+04</pdfrwt>
<pdfrwt beam="2">  1       -2 0.22544858E+00 0.22336734E+04</pdfrwt>
<totfact> 0.15477995E-02</totfact>
</mgrwt>
</event>
<event>
12    3  0.2422421E-007  0.6745810E+03  0.7818608E-02  0.9761717E-01
         -2   -1    0    0    0  501 -0.00000000000E+00  0.00000000000E+00  0.50207658525E+03  0.50207658525E+03  0.00000000000E+00 0.  1.
          1   -1    0    0  501    0  0.00000000000E+00 -0.00000000000E+00 -0.93387028623E+03  0.93387028623E+03  0.00000000000E+00 0. -1.
        -24    2    1    2    0    0  0.53681404075E+03  0.12858738547E+03 -0.17987998925E+03  0.58262108643E+03  0.48851712090E+02 0.  0.
    5000000    2    1    2    0    0 -0.53681404075E+03 -0.12858738547E+03 -0.25191371173E+03  0.85332578505E+03  0.60000028936E+03 0.  0.
        -24    2    4    4    0    0 -0.25796527512E+03  0.22103626504E+03 -0.36281894283E+02  0.35097897687E+03  0.80416122257E+02 0.  0.
         24    2    4    4    0    0 -0.27884876563E+03 -0.34962365051E+03 -0.21563181745E+03  0.50234680818E+03  0.76563071409E+02 0.  0.
         13    1    5    5    0    0 -0.12949742975E+03  0.13480478719E+03  0.16119262987E+02  0.18762128237E+03  0.00000000000E+00 0. -1.
        -14    1    5    5    0    0 -0.12846784537E+03  0.86231477857E+02 -0.52401157270E+02  0.16335769450E+03  0.00000000000E+00 0.  1.
         13    1    3    3    0    0  0.85478163580E+02  0.36962986870E+01 -0.20893360330E+02  0.88072195265E+02  0.00000000000E+00 0. -1.
        -14    1    3    3    0    0  0.45133587717E+03  0.12489108678E+03 -0.15898662892E+03  0.49454889117E+03  0.00000000000E+00 0.  1.
          4    1    6    6  502    0 -0.21517672364E+03 -0.21225499245E+03 -0.14744763561E+03  0.33629452785E+03  0.00000000000E+00 0. -1.
         -3    1    6    6    0  502 -0.63672041984E+02 -0.13736865807E+03 -0.68184181839E+02  0.16605228033E+03  0.00000000000E+00 0.  1.
<mgrwt>
<rscale>  0 0.67458102E+03</rscale>
<asrwt>0</asrwt>
<pdfrwt beam="1">  1        1 0.14367235E+00 0.67458102E+03</pdfrwt>
<pdfrwt beam="2">  1       -2 0.77242552E-01 0.67458102E+03</pdfrwt>
<totfact> 0.23069949E+01</totfact>
</mgrwt>
</event>
<event>
12    3  0.2422421E-007  0.1317366E+04  0.7818608E-02  0.9015906E-01
         -2   -1    0    0    0  501 -0.00000000000E+00  0.00000000000E+00  0.99981703929E+03  0.99981703929E+03  0.00000000000E+00 0.  1.
          1   -1    0    0  501    0  0.00000000000E+00 -0.00000000000E+00 -0.18046160076E+04  0.18046160076E+04  0.00000000000E+00 0. -1.
        -24    2    1    2    0    0  0.12342266384E+04  0.24110186868E+03 -0.60179095556E+03  0.13963570697E+04  0.78836578153E+02 0.  0.
    5000000    2    1    2    0    0 -0.12342266384E+04 -0.24110186868E+03 -0.20300801278E+03  0.14080759772E+04  0.60001683163E+03 0.  0.
        -24    2    4    4    0    0 -0.10822032424E+04  0.50579395350E+01 -0.97785538929E+02  0.10895723599E+04  0.80102903055E+02 0.  0.
         24    2    4    4    0    0 -0.15202339594E+03 -0.24615980821E+03 -0.10522247385E+03  0.31850361729E+03  0.81651828690E+02 0.  0.
         11    1    5    5    0    0 -0.68170818872E+03  0.15367640494E+02 -0.24670774483E+02  0.68232753576E+03  0.00000000000E+00 0. -1.
        -12    1    5    5    0    0 -0.40049505373E+03 -0.10309700959E+02 -0.73114764446E+02  0.40724482413E+03  0.00000000000E+00 0.  1.
         13    1    3    3    0    0  0.10231421351E+04  0.19277271419E+03 -0.52955907927E+03  0.11680813184E+04  0.00000000000E+00 0. -1.
        -14    1    3    3    0    0  0.21108450330E+03  0.48329154486E+02 -0.72231876290E+02  0.22827575136E+03  0.00000000000E+00 0.  1.
          4    1    6    6  502    0 -0.30980645970E+00 -0.32426394561E+02 -0.33803376252E+02  0.46842665278E+02  0.00000000000E+00 0. -1.
         -3    1    6    6    0  502 -0.15171358948E+03 -0.21373341365E+03 -0.71419097600E+02  0.27166095201E+03  0.00000000000E+00 0.  1.
<mgrwt>
<rscale>  0 0.13173663E+04</rscale>
<asrwt>0</asrwt>
<pdfrwt beam="1">  1        1 0.27763323E+00 0.13173663E+04</pdfrwt>
<pdfrwt beam="2">  1       -2 0.15381801E+00 0.13173663E+04</pdfrwt>
<totfact> 0.95816660E-01</totfact>
</mgrwt>
</event>
<event>
12    3  0.3459126E-007  0.1001650E+04  0.7818608E-02  0.9306737E-01
         -2   -1    0    0    0  501 -0.00000000000E+00  0.00000000000E+00  0.11719225079E+04  0.11719225079E+04  0.00000000000E+00 0.  1.
          1   -1    0    0  501    0  0.00000000000E+00 -0.00000000000E+00 -0.88412532357E+03  0.88412532357E+03  0.00000000000E+00 0. -1.
        -24    2    1    2    0    0 -0.64693361594E+03  0.65585481190E+03  0.22400014554E+02  0.92505576400E+03  0.80980047737E+02 0.  0.
    5000000    2    1    2    0    0  0.64693361594E+03 -0.65585481190E+03  0.26539716975E+03  0.11309920674E+04  0.60003230011E+03 0.  0.
        -24    2    4    4    0    0  0.46270790204E+03 -0.74124055347E+03  0.18769927704E+03  0.89885085440E+03  0.95737553335E+02 0.  0.
         24    2    4    4    0    0  0.18422571390E+03  0.85385741577E+02  0.77697892717E+02  0.23214121305E+03  0.81380229387E+02 0.  0.
         11    1    3    3    0    0 -0.23102587862E+03  0.26147054667E+03 -0.25817112072E+02  0.34986615533E+03  0.00000000000E+00 0. -1.
        -12    1    3    3    0    0 -0.41590773733E+03  0.39438426523E+03  0.48217126626E+02  0.57518960868E+03  0.00000000000E+00 0.  1.
         13    1    5    5    0    0  0.18134011821E+03 -0.23060501555E+03  0.95917535533E+02  0.30864718579E+03  0.00000000000E+00 0. -1.
        -14    1    5    5    0    0  0.28136778384E+03 -0.51063553792E+03  0.91781741505E+02  0.59020366861E+03  0.00000000000E+00 0.  1.
          4    1    6    6  502    0  0.95664927517E+02  0.29479821016E+02  0.78810762104E+02  0.12740476611E+03  0.00000000000E+00 0. -1.
         -3    1    6    6    0  502  0.88560786383E+02  0.55905920561E+02 -0.11128693878E+01  0.10473644694E+03  0.00000000000E+00 0.  1.
<mgrwt>
<rscale>  0 0.10016502E+04</rscale>
<asrwt>0</asrwt>
<pdfrwt beam="1">  1        1 0.13601928E+00 0.10016502E+04</pdfrwt>
<pdfrwt beam="2">  1       -2 0.18029577E+00 0.10016502E+04</pdfrwt>
<totfact> 0.29541861E+00</totfact>
</mgrwt>
</event>
<event>
12    3  0.4548516E-007  0.8436929E+03  0.7818608E-02  0.9498841E-01
          1   -1    0    0  501    0  0.00000000000E+00  0.00000000000E+00  0.16770498889E+04  0.16770498889E+04  0.00000000000E+00 0. -1.
         -2   -1    0    0    0  501 -0.00000000000E+00 -0.00000000000E+00 -0.50359891198E+03  0.50359891198E+03  0.00000000000E+00 0.  1.
        -24    2    1    2    0    0 -0.75326996915E+03 -0.12417694905E+03  0.87791471336E+03  0.11654648044E+04  0.68836075337E+02 0.  0.
    5000000    2    1    2    0    0  0.75326996915E+03  0.12417694905E+03  0.29553626355E+03  0.10151839965E+04  0.60035098275E+03 0.  0.
        -24    2    4    4    0    0  0.59978432445E+03 -0.13536819929E+03  0.57246797833E+02  0.62275139495E+03  0.80475579022E+02 0.  0.
         24    2    4    4    0    0  0.15348564470E+03  0.25954514834E+03  0.23828946571E+03  0.39243260150E+03  0.79372224978E+02 0.  0.
         11    1    3    3    0    0 -0.22967408891E+03 -0.68466403639E+02  0.29036249830E+03  0.37649464268E+03  0.00000000000E+00 0. -1.
        -12    1    3    3    0    0 -0.52359588024E+03 -0.55710545411E+02  0.58755221506E+03  0.78897016172E+03  0.00000000000E+00 0.  1.
         13    1    5    5    0    0  0.30122851448E+03 -0.31857577209E+02  0.85379366502E+01  0.30302874373E+03  0.00000000000E+00 0. -1.
        -14    1    5    5    0    0  0.29855580996E+03 -0.10351062208E+03  0.48708861183E+02  0.31972265122E+03  0.00000000000E+00 0.  1.
          2    1    6    6  502    0  0.88803833893E+02  0.12939658516E+03  0.75335587808E+02  0.17408345113E+03  0.00000000000E+00 0. -1.
         -1    1    6    6    0  502  0.64681810811E+02  0.13014856317E+03  0.16295387790E+03  0.21834915038E+03  0.00000000000E+00 0.  1.
<mgrwt>
<rscale>  0 0.84369293E+03</rscale>
<asrwt>0</asrwt>
<pdfrwt beam="1">  1        1 0.25800767E+00 0.84369293E+03</pdfrwt>
<pdfrwt beam="2">  1       -2 0.77476757E-01 0.84369293E+03</pdfrwt>
<totfact> 0.65887896E+00</totfact>
</mgrwt>
</event>
<event>
12    3  0.2422421E-007  0.6636327E+03  0.7818608E-02  0.9781529E-01
         -2   -1    0    0    0  501 -0.00000000000E+00  0.00000000000E+00  0.74517415337E+03  0.74517415337E+03  0.00000000000E+00 0.  1.
          1   -1    0    0  501    0  0.00000000000E+00 -0.00000000000E+00 -0.60118264655E+03  0.60118264655E+03  0.00000000000E+00 0. -1.
        -24    2    1    2    0    0  0.38831359594E+03 -0.36073285110E+03  0.16820343482E+02  0.53580444683E+03  0.76732278950E+02 0.  0.
    5000000    2    1    2    0    0 -0.38831359594E+03  0.36073285110E+03  0.12717116334E+03  0.81055235310E+03  0.59992247305E+03 0.  0.
        -24    2    4    4    0    0  0.13538660661E+03  0.17831086842E+03  0.12097675886E+02  0.23857555075E+03  0.81533064513E+02 0.  0.
         24    2    4    4    0    0 -0.52370020256E+03  0.18242198268E+03  0.11507348745E+03  0.57197680234E+03  0.79849063770E+02 0.  0.
         11    1    5    5    0    0  0.13294973197E+03  0.18436448689E+03  0.29271384113E+01  0.22732017816E+03  0.00000000000E+00 0. -1.
        -12    1    5    5    0    0  0.24368746434E+01 -0.60536184758E+01  0.91705374743E+01  0.11255372595E+02  0.00000000000E+00 0.  1.
         13    1    3    3    0    0  0.10711666584E+03 -0.13787104631E+03 -0.16968121846E+02  0.17541471623E+03  0.00000000000E+00 0. -1.
        -14    1    3    3    0    0  0.28119693010E+03 -0.22286180479E+03  0.33788465328E+02  0.36038973060E+03  0.00000000000E+00 0.  1.
          4    1    6    6  502    0 -0.16813665899E+03  0.97938968187E+02  0.47928229018E+02  0.20039733712E+03  0.00000000000E+00 0. -1.
         -3    1    6    6    0  502 -0.35556354356E+03  0.84483014490E+02  0.67145258432E+02  0.37157946523E+03  0.00000000000E+00 0.  1.
<mgrwt>
<rscale>  0 0.66363273E+03</rscale>
<asrwt>0</asrwt>
<pdfrwt beam="1">  1        1 0.92489638E-01 0.66363273E+03</pdfrwt>
<pdfrwt beam="2">  1       -2 0.11464218E+00 0.66363273E+03</pdfrwt>
<totfact> 0.18256344E+01</totfact>
</mgrwt>
</event>
<event>
12    3  0.2422421E-007  0.4878574E+03  0.7818608E-02  0.1016998E+00
         -2   -1    0    0    0  501 -0.00000000000E+00  0.00000000000E+00  0.21216102395E+03  0.21216102395E+03  0.00000000000E+00 0.  1.
          1   -1    0    0  501    0  0.00000000000E+00 -0.00000000000E+00 -0.18649853503E+04  0.18649853503E+04  0.00000000000E+00 0. -1.
        -24    2    1    2    0    0 -0.30435199726E+03  0.33365389382E+03 -0.92047109108E+03  0.10282010833E+04  0.77300576315E+02 0.  0.
    5000000    2    1    2    0    0  0.30435199726E+03 -0.33365389382E+03 -0.73235323531E+03  0.10489452910E+04  0.59999158588E+03 0.  0.
        -24    2    4    4    0    0  0.29355786058E+02 -0.53762104017E+01  0.87005390836E+02  0.12096741738E+03  0.78565337259E+02 0.  0.
         24    2    4    4    0    0  0.27499621120E+03 -0.32827768341E+03 -0.81935862615E+03  0.92797787362E+03  0.80032631316E+02 0.  0.
         11    1    3    3    0    0 -0.12967962864E+03  0.19396240948E+03 -0.43272379293E+03  0.49161784279E+03  0.00000000000E+00 0. -1.
        -12    1    3    3    0    0 -0.17467236862E+03  0.13969148434E+03 -0.48774729815E+03  0.53658324052E+03  0.00000000000E+00 0.  1.
         13    1    5    5    0    0  0.54821011804E+02 -0.14431860504E+02  0.53813356161E+02  0.78163285717E+02  0.00000000000E+00 0. -1.
        -14    1    5    5    0    0 -0.25465225746E+02  0.90556501028E+01  0.33192034676E+02  0.42804131658E+02  0.00000000000E+00 0.  1.
          4    1    6    6  502    0  0.19397354111E+03 -0.17318291879E+03 -0.46495902100E+03  0.53273346921E+03  0.00000000000E+00 0. -1.
         -1    1    6    6    0  502  0.81022670092E+02 -0.15509476462E+03 -0.35439960515E+03  0.39524440440E+03  0.00000000000E+00 0.  1.
<mgrwt>
<rscale>  0 0.48785740E+03</rscale>
<asrwt>0</asrwt>
<pdfrwt beam="1">  1        1 0.28692083E+00 0.48785740E+03</pdfrwt>
<pdfrwt beam="2">  1       -2 0.32640157E-01 0.48785740E+03</pdfrwt>
<totfact> 0.30405290E+01</totfact>
</mgrwt>
</event>
<event>
12    3  0.2422421E-007  0.6684595E+03  0.7818608E-02  0.9772745E-01
         -2   -1    0    0    0  501 -0.00000000000E+00  0.00000000000E+00  0.11356364215E+04  0.11356364215E+04  0.00000000000E+00 0.  1.
          1   -1    0    0  501    0  0.00000000000E+00 -0.00000000000E+00 -0.70253478326E+03  0.70253478326E+03  0.00000000000E+00 0. -1.
        -24    2    1    2    0    0 -0.20184396299E+03 -0.62709204153E+03 -0.25658162248E+03  0.71146533095E+03  0.79770760405E+02 0.  0.
    5000000    2    1    2    0    0  0.20184396299E+03  0.62709204153E+03  0.68968326068E+03  0.11267058738E+04  0.59984807407E+03 0.  0.
        -24    2    4    4    0    0  0.48658640374E+02  0.10210460638E+03 -0.95338751830E+02  0.16668513990E+03  0.76820858728E+02 0.  0.
         24    2    4    4    0    0  0.15318532261E+03  0.52498743515E+03  0.78502201251E+03  0.96002073387E+03  0.79389540831E+02 0.  0.
         11    1    3    3    0    0 -0.96467230107E+02 -0.41102447482E+03 -0.18216293429E+03  0.45981559349E+03  0.00000000000E+00 0. -1.
        -12    1    3    3    0    0 -0.10537673288E+03 -0.21606756671E+03 -0.74418688181E+02  0.25164973747E+03  0.00000000000E+00 0.  1.
         13    1    5    5    0    0  0.37281817848E+02  0.27035564542E+02 -0.75120186721E+02  0.88112985111E+02  0.00000000000E+00 0. -1.
        -14    1    5    5    0    0  0.11376822526E+02  0.75069041835E+02 -0.20218565109E+02  0.78572154787E+02  0.00000000000E+00 0.  1.
          2    1    6    6  502    0  0.55360240052E+02  0.32545380307E+03  0.48355023270E+03  0.58549616707E+03  0.00000000000E+00 0. -1.
         -1    1    6    6    0  502  0.97825082559E+02  0.19953363208E+03  0.30147177982E+03  0.37452456680E+03  0.00000000000E+00 0.  1.
<mgrwt>
<rscale>  0 0.66845947E+03</rscale>
<asrwt>0</asrwt>
<pdfrwt beam="1">  1        1 0.10808227E+00 0.66845947E+03</pdfrwt>
<pdfrwt beam="2">  1       -2 0.17471330E+00 0.66845947E+03</pdfrwt>
<totfact> 0.48509067E+00</totfact>
</mgrwt>
</event>
<event>
12    3  0.2422421E-007  0.2481889E+04  0.7818608E-02  0.8409466E-01
          1   -1    0    0  501    0  0.00000000000E+00  0.00000000000E+00  0.36951873144E+04  0.36951873144E+04  0.00000000000E+00 0. -1.
         -2   -1    0    0    0  501 -0.00000000000E+00 -0.00000000000E+00 -0.17813445981E+04  0.17813445981E+04  0.00000000000E+00 0.  1.
        -24    2    1    2    0    0  0.19015293689E+04  0.15729468363E+04  0.15388828492E+04  0.29093669819E+04  0.79247217451E+02 0.  0.
    5000000    2    1    2    0    0 -0.19015293689E+04 -0.15729468363E+04  0.37495986714E+03  0.25671649306E+04  0.59980429199E+03 0.  0.
        -24    2    4    4    0    0 -0.17967852180E+04 -0.13959886821E+04  0.47305816841E+03  0.23253355921E+04  0.78613387882E+02 0.  0.
         24    2    4    4    0    0 -0.10474415084E+03 -0.17695815419E+03 -0.98098301277E+02  0.24182933857E+03  0.81071738678E+02 0.  0.
         11    1    5    5    0    0 -0.13529695764E+04 -0.10135647434E+04  0.33361459313E+03  0.17231189340E+04  0.00000000000E+00 0. -1.
        -12    1    5    5    0    0 -0.44381564160E+03 -0.38242393872E+03  0.13944357528E+03  0.60221665812E+03  0.00000000000E+00 0.  1.
         13    1    3    3    0    0  0.16749013798E+04  0.13704289026E+04  0.13763838412E+04  0.25647226921E+04  0.00000000000E+00 0. -1.
        -14    1    3    3    0    0  0.22662798903E+03  0.20251793369E+03  0.16249900799E+03  0.34464428978E+03  0.00000000000E+00 0.  1.
          2    1    6    6  502    0 -0.63915487429E+02 -0.37597064083E+02 -0.47431888115E+02  0.88025637011E+02  0.00000000000E+00 0. -1.
         -1    1    6    6    0  502 -0.40828663408E+02 -0.13936109011E+03 -0.50666413162E+02  0.15380370156E+03  0.00000000000E+00 0.  1.
<mgrwt>
<rscale>  0 0.24818886E+04</rscale>
<asrwt>0</asrwt>
<pdfrwt beam="1">  1        1 0.56849036E+00 0.24818886E+04</pdfrwt>
<pdfrwt beam="2">  1       -2 0.27405302E+00 0.24818886E+04</pdfrwt>
<totfact> 0.58901817E-03</totfact>
</mgrwt>
</event>
<event>
12    3  0.2422421E-007  0.5113309E+03  0.7818608E-02  0.1010863E+00
         -2   -1    0    0    0  501 -0.00000000000E+00  0.00000000000E+00  0.17746911265E+03  0.17746911265E+03  0.00000000000E+00 0.  1.
          1   -1    0    0  501    0  0.00000000000E+00 -0.00000000000E+00 -0.23057092766E+04  0.23057092766E+04  0.00000000000E+00 0. -1.
        -24    2    1    2    0    0 -0.47206961248E+01 -0.47634566219E+03 -0.57149070848E+03  0.74818129568E+03  0.79032565889E+02 0.  0.
    5000000    2    1    2    0    0  0.47206961248E+01  0.47634566219E+03 -0.15567494554E+04  0.17349970935E+04  0.59984879156E+03 0.  0.
        -24    2    4    4    0    0  0.10574463933E+03  0.32902694862E+03 -0.14821150068E+04  0.15239697017E+04  0.79862987314E+02 0.  0.
         24    2    4    4    0    0 -0.10102394321E+03  0.14731871356E+03 -0.74634448666E+02  0.21102739184E+03  0.83985824467E+02 0.  0.
         11    1    3    3    0    0 -0.30337752421E+02 -0.37367986507E+03 -0.47360299183E+03  0.60403378602E+03  0.00000000000E+00 0. -1.
        -12    1    3    3    0    0  0.25617056296E+02 -0.10266579712E+03 -0.97887716646E+02  0.14414750966E+03  0.00000000000E+00 0.  1.
         13    1    5    5    0    0  0.32443202386E+02  0.21909052017E+03 -0.86919676919E+03  0.89697059092E+03  0.00000000000E+00 0. -1.
        -14    1    5    5    0    0  0.73301436947E+02  0.10993642846E+03 -0.61291823759E+03  0.62699911079E+03  0.00000000000E+00 0.  1.
          2    1    6    6  502    0 -0.88167574907E+02  0.77665799022E+02 -0.76442706434E+02  0.14017483715E+03  0.00000000000E+00 0. -1.
         -1    1    6    6    0  502 -0.12856368301E+02  0.69652914541E+02  0.18082577680E+01  0.70852554690E+02  0.00000000000E+00 0.  1.
<mgrwt>
<rscale>  0 0.51133085E+03</rscale>
<asrwt>0</asrwt>
<pdfrwt beam="1">  1        1 0.35472448E+00 0.51133085E+03</pdfrwt>
<pdfrwt beam="2">  1       -2 0.27302943E-01 0.51133085E+03</pdfrwt>
<totfact> 0.21459106E+01</totfact>
</mgrwt>
</event>
<event>
12    3  0.2422421E-007  0.4429521E+03  0.7818608E-02  0.1029845E+00
          1   -1    0    0  501    0  0.00000000000E+00  0.00000000000E+00  0.23977648499E+03  0.23977648499E+03  0.00000000000E+00 0. -1.
         -2   -1    0    0    0  501 -0.00000000000E+00 -0.00000000000E+00 -0.20170975872E+04  0.20170975872E+04  0.00000000000E+00 0.  1.
        -24    2    1    2    0    0 -0.13543409944E+03 -0.24930140485E+03 -0.15145327474E+04  0.15430748172E+04  0.82321702131E+02 0.  0.
    5000000    2    1    2    0    0  0.13543409944E+03  0.24930140485E+03 -0.26278835476E+03  0.71379925498E+03  0.59996505837E+03 0.  0.
        -24    2    4    4    0    0 -0.17978514703E+03 -0.14162451533E+02 -0.21717823365E+03  0.29327876446E+03  0.79515875028E+02 0.  0.
         24    2    4    4    0    0  0.31521924647E+03  0.26346385638E+03 -0.45610121109E+02  0.42052049053E+03  0.77335779814E+02 0.  0.
         11    1    5    5    0    0 -0.87098134382E+02  0.77284185824E+01 -0.15961627628E+03  0.18199771735E+03  0.00000000000E+00 0. -1.
        -12    1    5    5    0    0 -0.92687012650E+02 -0.21890870115E+02 -0.57561957370E+02  0.11128104710E+03  0.00000000000E+00 0.  1.
         11    1    3    3    0    0 -0.16681343572E+02 -0.10106857303E+03 -0.42975025102E+03  0.44178999754E+03  0.00000000000E+00 0. -1.
        -12    1    3    3    0    0 -0.11875275587E+03 -0.14823283182E+03 -0.10847824964E+04  0.11012848196E+04  0.00000000000E+00 0.  1.
          2    1    6    6  502    0  0.55984113016E+02  0.49371552526E+02 -0.39056637809E+02  0.84244834061E+02  0.00000000000E+00 0. -1.
         -1    1    6    6    0  502  0.25923513346E+03  0.21409230386E+03 -0.65534832998E+01  0.33627565647E+03  0.00000000000E+00 0.  1.
<mgrwt>
<rscale>  0 0.44295206E+03</rscale>
<asrwt>0</asrwt>
<pdfrwt beam="1">  1        1 0.36888688E-01 0.44295206E+03</pdfrwt>
<pdfrwt beam="2">  1       -2 0.31032272E+00 0.44295206E+03</pdfrwt>
<totfact> 0.31125714E+00</totfact>
</mgrwt>
</event>
<event>
12    3  0.2422421E-007  0.3916025E+03  0.7818608E-02  0.1046727E+00
          1   -1    0    0  501    0  0.00000000000E+00  0.00000000000E+00  0.50364514298E+03  0.50364514298E+03  0.00000000000E+00 0. -1.
         -2   -1    0    0    0  501 -0.00000000000E+00 -0.00000000000E+00 -0.59384825350E+03  0.59384825350E+03  0.00000000000E+00 0.  1.
        -24    2    1    2    0    0 -0.13645184951E+03 -0.25559775510E+03 -0.27302830913E+03  0.40637175083E+03  0.81512101177E+02 0.  0.
    5000000    2    1    2    0    0  0.13645184951E+03  0.25559775510E+03  0.18282519861E+03  0.69112164566E+03  0.60022891983E+03 0.  0.
        -24    2    4    4    0    0 -0.11998351309E+03  0.14212559979E+03 -0.14762935817E+03  0.25050257083E+03  0.79758266466E+02 0.  0.
         24    2    4    4    0    0  0.25643536261E+03  0.11347215531E+03  0.33045455678E+03  0.44061907483E+03  0.79435066415E+02 0.  0.
         11    1    3    3    0    0 -0.13101689497E+03 -0.19117424942E+03 -0.18180354496E+03  0.29455992492E+03  0.00000000000E+00 0. -1.
        -12    1    3    3    0    0 -0.54349545390E+01 -0.64423505682E+02 -0.91224764173E+02  0.11181182591E+03  0.00000000000E+00 0.  1.
         13    1    5    5    0    0 -0.38776795091E+02  0.85196712144E+01 -0.72052249236E+01  0.40350215629E+02  0.00000000000E+00 0. -1.
        -14    1    5    5    0    0 -0.81206718004E+02  0.13360592858E+03 -0.14042413324E+03  0.21015235520E+03  0.00000000000E+00 0.  1.
          4    1    6    6  502    0  0.82901060225E+02 -0.90128253711E+00  0.10848233902E+03  0.13653503571E+03  0.00000000000E+00 0. -1.
         -3    1    6    6    0  502  0.17353430238E+03  0.11437343784E+03  0.22197221777E+03  0.30408403912E+03  0.00000000000E+00 0.  1.
<mgrwt>
<rscale>  0 0.39160252E+03</rscale>
<asrwt>0</asrwt>
<pdfrwt beam="1">  1        1 0.77483868E-01 0.39160252E+03</pdfrwt>
<pdfrwt beam="2">  1       -2 0.91361270E-01 0.39160252E+03</pdfrwt>
<totfact> 0.41280138E+01</totfact>
</mgrwt>
</event>
<event>
12    3  0.2422421E-007  0.8679257E+03  0.7818608E-02  0.9466589E-01
         -2   -1    0    0    0  501 -0.00000000000E+00  0.00000000000E+00  0.55129437067E+03  0.55129437067E+03  0.00000000000E+00 0.  1.
          1   -1    0    0  501    0  0.00000000000E+00 -0.00000000000E+00 -0.20548876193E+04  0.20548876193E+04  0.00000000000E+00 0. -1.
        -24    2    1    2    0    0 -0.58851268318E+03 -0.62350377972E+03 -0.12693325368E+04  0.15338384831E+04  0.79694803071E+02 0.  0.
    5000000    2    1    2    0    0  0.58851268318E+03  0.62350377972E+03 -0.23426071183E+03  0.10723435069E+04  0.59994864284E+03 0.  0.
        -24    2    4    4    0    0  0.45258966093E+03  0.51321056437E+03  0.90414052591E+02  0.69463755969E+03  0.78256973289E+02 0.  0.
         24    2    4    4    0    0  0.13592302225E+03  0.11029321535E+03 -0.32467476442E+03  0.37770594719E+03  0.81292180181E+02 0.  0.
         11    1    5    5    0    0  0.44078851800E+03  0.47997885922E+03  0.74389094603E+02  0.65590240150E+03  0.00000000000E+00 0. -1.
        -12    1    5    5    0    0  0.11801142931E+02  0.33231705153E+02  0.16024957988E+02  0.38735158194E+02  0.00000000000E+00 0.  1.
         13    1    3    3    0    0 -0.20401725041E+03 -0.16587898878E+03 -0.36583766837E+03  0.45052866388E+03  0.00000000000E+00 0. -1.
        -14    1    3    3    0    0 -0.38449543277E+03 -0.45762479094E+03 -0.90349486847E+03  0.10833098192E+04  0.00000000000E+00 0.  1.
          2    1    6    6  502    0  0.10237149887E+03  0.11546959092E+03 -0.29359493084E+03  0.33167926318E+03  0.00000000000E+00 0. -1.
         -1    1    6    6    0  502  0.33551523385E+02 -0.51763755688E+01 -0.31079833578E+02  0.46026684008E+02  0.00000000000E+00 0.  1.
<mgrwt>
<rscale>  0 0.86792575E+03</rscale>
<asrwt>0</asrwt>
<pdfrwt beam="1">  1        1 0.31613655E+00 0.86792575E+03</pdfrwt>
<pdfrwt beam="2">  1       -2 0.84814519E-01 0.86792575E+03</pdfrwt>
<totfact> 0.29828026E+00</totfact>
</mgrwt>
</event>
<event>
12    3  0.2422421E-007  0.1554636E+04  0.7818608E-02  0.8848912E-01
         -2   -1    0    0    0  501 -0.00000000000E+00  0.00000000000E+00  0.13886471074E+04  0.13886471074E+04  0.00000000000E+00 0.  1.
          1   -1    0    0  501    0  0.00000000000E+00 -0.00000000000E+00 -0.17641472464E+04  0.17641472464E+04  0.00000000000E+00 0. -1.
        -24    2    1    2    0    0 -0.98869575208E+03 -0.11266225085E+04 -0.27780288992E+02  0.15012309255E+04  0.78262254314E+02 0.  0.
    5000000    2    1    2    0    0  0.98869575208E+03  0.11266225085E+04 -0.34771985004E+03  0.16515634283E+04  0.59996257932E+03 0.  0.
        -24    2    4    4    0    0  0.68235137109E+03  0.34195079621E+03 -0.16483897586E+03  0.78589058699E+03  0.88985313982E+02 0.  0.
         24    2    4    4    0    0  0.30634438100E+03  0.78467171232E+03 -0.18288087418E+03  0.86567284128E+03  0.79921699864E+02 0.  0.
         11    1    3    3    0    0 -0.25298891055E+03 -0.31532011504E+03  0.22309787283E+02  0.40488009387E+03  0.00000000000E+00 0. -1.
        -12    1    3    3    0    0 -0.73570684153E+03 -0.81130239349E+03 -0.50090076275E+02  0.10963508317E+04  0.00000000000E+00 0.  1.
         11    1    5    5    0    0  0.21818050903E+03  0.86133361521E+02 -0.14649813768E+02  0.23502405734E+03  0.00000000000E+00 0. -1.
        -12    1    5    5    0    0  0.46417086206E+03  0.25581743469E+03 -0.15018916209E+03  0.55086652964E+03  0.00000000000E+00 0.  1.
          4    1    6    6  502    0  0.18843527549E+03  0.56965665405E+03 -0.14784605456E+03  0.61796036475E+03  0.00000000000E+00 0. -1.
         -1    1    6    6    0  502  0.11790910551E+03  0.21501505827E+03 -0.35034819624E+02  0.24771247653E+03  0.00000000000E+00 0.  1.
<mgrwt>
<rscale>  0 0.15546357E+04</rscale>
<asrwt>0</asrwt>
<pdfrwt beam="1">  1        1 0.27140727E+00 0.15546357E+04</pdfrwt>
<pdfrwt beam="2">  1       -2 0.21363802E+00 0.15546357E+04</pdfrwt>
<totfact> 0.38405484E-01</totfact>
</mgrwt>
</event>
<event>
12    3  0.3864112E-007  0.1101862E+04  0.7818608E-02  0.9203379E-01
          1   -1    0    0  501    0  0.00000000000E+00  0.00000000000E+00  0.10091544504E+04  0.10091544504E+04  0.00000000000E+00 0. -1.
         -2   -1    0    0    0  501 -0.00000000000E+00 -0.00000000000E+00 -0.14511285582E+04  0.14511285582E+04  0.00000000000E+00 0.  1.
        -24    2    1    2    0    0 -0.24728001712E+03 -0.10063771309E+04 -0.67638924058E+03  0.12401048322E+04  0.80095279360E+02 0.  0.
    5000000    2    1    2    0    0  0.24728001712E+03  0.10063771309E+04  0.23441513272E+03  0.12201781763E+04  0.59995165737E+03 0.  0.
        -24    2    4    4    0    0  0.41242481665E+03  0.66185702808E+03  0.26736225522E+03  0.82826497552E+03  0.79945851346E+02 0.  0.
         24    2    4    4    0    0 -0.16514479953E+03  0.34452010279E+03 -0.32947122497E+02  0.39191320083E+03  0.80892138463E+02 0.  0.
         11    1    3    3    0    0 -0.66970907695E+02 -0.39700288872E+03 -0.29272944277E+03  0.49778200329E+03  0.00000000000E+00 0. -1.
        -12    1    3    3    0    0 -0.18030910943E+03 -0.60937424214E+03 -0.38365979781E+03  0.74232282895E+03  0.00000000000E+00 0.  1.
         11    1    5    5    0    0  0.20220932379E+03  0.25775797317E+03  0.13046303410E+03  0.35263066603E+03  0.00000000000E+00 0. -1.
        -12    1    5    5    0    0  0.21021549286E+03  0.40409905491E+03  0.13689922112E+03  0.47563430949E+03  0.00000000000E+00 0.  1.
          4    1    6    6  502    0 -0.94436845910E+02  0.17561296379E+03 -0.56624165771E+02  0.20727886305E+03  0.00000000000E+00 0. -1.
         -3    1    6    6    0  502 -0.70707953617E+02  0.16890713900E+03  0.23677043274E+02  0.18463433778E+03  0.00000000000E+00 0.  1.
<mgrwt>
<rscale>  0 0.11018617E+04</rscale>
<asrwt>0</asrwt>
<pdfrwt beam="1">  1        1 0.15525453E+00 0.11018617E+04</pdfrwt>
<pdfrwt beam="2">  1       -2 0.22325055E+00 0.11018617E+04</pdfrwt>
<totfact> 0.12133037E+00</totfact>
</mgrwt>
</event>
<event>
12    3  0.2422421E-007  0.1022878E+04  0.7818608E-02  0.9283802E-01
         -2   -1    0    0    0  501 -0.00000000000E+00  0.00000000000E+00  0.20427666195E+04  0.20427666195E+04  0.00000000000E+00 0.  1.
          1   -1    0    0  501    0  0.00000000000E+00 -0.00000000000E+00 -0.99931189127E+03  0.99931189127E+03  0.00000000000E+00 0. -1.
        -24    2    1    2    0    0 -0.80620415349E+03  0.54303814422E+03  0.15187713552E+04  0.18048371191E+04  0.76909257039E+02 0.  0.
    5000000    2    1    2    0    0  0.80620415349E+03 -0.54303814422E+03 -0.47531662696E+03  0.12372413917E+04  0.59998733511E+03 0.  0.
        -24    2    4    4    0    0  0.11902767468E+02 -0.19322640371E+03  0.55302252574E+02  0.21676758452E+03  0.80322646831E+02 0.  0.
         24    2    4    4    0    0  0.79430138602E+03 -0.34981174051E+03 -0.53061887953E+03  0.10204738072E+04  0.80792637022E+02 0.  0.
         11    1    5    5    0    0  0.37771286163E+02 -0.11606065185E+03  0.58437956792E+02  0.13532087703E+03  0.00000000000E+00 0. -1.
        -12    1    5    5    0    0 -0.25868518695E+02 -0.77165751863E+02 -0.31357042182E+01  0.81446707490E+02  0.00000000000E+00 0.  1.
         11    1    3    3    0    0 -0.35084756519E+03  0.23698315788E+03  0.59155054274E+03  0.72745245599E+03  0.00000000000E+00 0. -1.
        -12    1    3    3    0    0 -0.45535658830E+03  0.30605498634E+03  0.92722081244E+03  0.10773846631E+04  0.00000000000E+00 0.  1.
          2    1    6    6  502    0  0.23823124192E+03 -0.13745063016E+03 -0.14120736685E+03  0.30917037505E+03  0.00000000000E+00 0. -1.
         -1    1    6    6    0  502  0.55607014410E+03 -0.21236111035E+03 -0.38941151269E+03  0.71130343213E+03  0.00000000000E+00 0.  1.
<mgrwt>
<rscale>  0 0.10228781E+04</rscale>
<asrwt>0</asrwt>
<pdfrwt beam="1">  1        1 0.15374029E+00 0.10228781E+04</pdfrwt>
<pdfrwt beam="2">  1       -2 0.31427179E+00 0.10228781E+04</pdfrwt>
<totfact> 0.34744820E-01</totfact>
</mgrwt>
</event>
<event>
12    3  0.2422421E-007  0.5102113E+03  0.7818608E-02  0.1011147E+00
          1   -1    0    0  501    0  0.00000000000E+00  0.00000000000E+00  0.13105489614E+04  0.13105489614E+04  0.00000000000E+00 0. -1.
         -2   -1    0    0    0  501 -0.00000000000E+00 -0.00000000000E+00 -0.30546101242E+03  0.30546101242E+03  0.00000000000E+00 0.  1.
        -24    2    1    2    0    0 -0.14259950528E+03  0.45897796512E+03  0.29455130153E+03  0.56935394780E+03  0.80050342132E+02 0.  0.
    5000000    2    1    2    0    0  0.14259950528E+03 -0.45897796512E+03  0.71053664744E+03  0.10466560260E+04  0.59969251958E+03 0.  0.
        -24    2    4    4    0    0 -0.18259154794E+01 -0.34000215720E+02 -0.89226689480E+02  0.12601594462E+03  0.82214764774E+02 0.  0.
         24    2    4    4    0    0  0.14442542076E+03 -0.42497774940E+03  0.79976333692E+03  0.92064008138E+03  0.80572791419E+02 0.  0.
         11    1    5    5    0    0  0.39900202121E+02 -0.15529370489E+02 -0.36287371397E+02  0.56124511579E+02  0.00000000000E+00 0. -1.
        -12    1    5    5    0    0 -0.41726117601E+02 -0.18470845231E+02 -0.52939318083E+02  0.69891433042E+02  0.00000000000E+00 0.  1.
         13    1    3    3    0    0 -0.53066991092E+02  0.13592676128E+03  0.13212553034E+03  0.19684853503E+03  0.00000000000E+00 0. -1.
        -14    1    3    3    0    0 -0.89532514188E+02  0.32305120384E+03  0.16242577118E+03  0.37250541277E+03  0.00000000000E+00 0.  1.
          2    1    6    6  502    0  0.49869407205E+02 -0.91539964289E+02  0.24848246261E+03  0.26946253369E+03  0.00000000000E+00 0. -1.
         -1    1    6    6    0  502  0.94556013555E+02 -0.33343778511E+03  0.55128087431E+03  0.65117754769E+03  0.00000000000E+00 0.  1.
<mgrwt>
<rscale>  0 0.51021125E+03</rscale>
<asrwt>0</asrwt>
<pdfrwt beam="1">  1        1 0.20162291E+00 0.51021125E+03</pdfrwt>
<pdfrwt beam="2">  1       -2 0.46994003E-01 0.51021125E+03</pdfrwt>
<totfact> 0.35402766E+01</totfact>
</mgrwt>
</event>
<event>
12    3  0.2422421E-007  0.7147312E+03  0.7818608E-02  0.9692366E-01
         -2   -1    0    0    0  501 -0.00000000000E+00  0.00000000000E+00  0.28120580861E+03  0.28120580861E+03  0.00000000000E+00 0.  1.
          1   -1    0    0  501    0  0.00000000000E+00 -0.00000000000E+00 -0.19770627748E+04  0.19770627748E+04  0.00000000000E+00 0. -1.
        -24    2    1    2    0    0  0.57249506201E+03  0.24315637568E+03 -0.71596378907E+03  0.95175656968E+03  0.79754633793E+02 0.  0.
    5000000    2    1    2    0    0 -0.57249506201E+03 -0.24315637568E+03 -0.97989317714E+03  0.13065120137E+04  0.59992281535E+03 0.  0.
        -24    2    4    4    0    0 -0.49832720968E+02  0.13585771468E+03 -0.40983344127E+03  0.44157514805E+03  0.78003481172E+02 0.  0.
         24    2    4    4    0    0 -0.52266234104E+03 -0.37901409036E+03 -0.57005973586E+03  0.86493686568E+03  0.79498903958E+02 0.  0.
         11    1    5    5    0    0  0.74892540545E+01  0.77592429993E+02 -0.14790659236E+03  0.16719160919E+03  0.00000000000E+00 0. -1.
        -12    1    5    5    0    0 -0.57321975022E+02  0.58265284690E+02 -0.26192684891E+03  0.27438353886E+03  0.00000000000E+00 0.  1.
         13    1    3    3    0    0  0.17237056527E+03  0.86522993087E+02 -0.17090675402E+03  0.25769547662E+03  0.00000000000E+00 0. -1.
        -14    1    3    3    0    0  0.40012449674E+03  0.15663338259E+03 -0.54505703505E+03  0.69406109305E+03  0.00000000000E+00 0.  1.
          4    1    6    6  502    0 -0.86302750162E+02 -0.84395514307E+02 -0.14202500238E+03  0.18639170803E+03  0.00000000000E+00 0. -1.
         -3    1    6    6    0  502 -0.43635959088E+03 -0.29461857605E+03 -0.42803473348E+03  0.67854515765E+03  0.00000000000E+00 0.  1.
<mgrwt>
<rscale>  0 0.71473123E+03</rscale>
<asrwt>0</asrwt>
<pdfrwt beam="1">  1        1 0.30416350E+00 0.71473123E+03</pdfrwt>
<pdfrwt beam="2">  1       -2 0.43262433E-01 0.71473123E+03</pdfrwt>
<totfact> 0.14352850E+01</totfact>
</mgrwt>
</event>
<event>
12    3  0.2422421E-007  0.1233989E+04  0.7818608E-02  0.9083615E-01
         -2   -1    0    0    0  501 -0.00000000000E+00  0.00000000000E+00  0.83336780053E+03  0.83336780053E+03  0.00000000000E+00 0.  1.
          1   -1    0    0  501    0  0.00000000000E+00 -0.00000000000E+00 -0.20530671665E+04  0.20530671665E+04  0.00000000000E+00 0. -1.
        -24    2    1    2    0    0  0.93829187071E+03  0.75695143339E+03 -0.26881753184E+03  0.12379587857E+04  0.83138333483E+02 0.  0.
    5000000    2    1    2    0    0 -0.93829187071E+03 -0.75695143339E+03 -0.95088183414E+03  0.16484761814E+04  0.59994195626E+03 0.  0.
        -24    2    4    4    0    0 -0.91083345967E+03 -0.78498740745E+03 -0.73054188897E+03  0.14092382335E+04  0.80237934525E+02 0.  0.
         24    2    4    4    0    0 -0.27458411036E+02  0.28035974059E+02 -0.22033994517E+03  0.23923794785E+03  0.84528835774E+02 0.  0.
         11    1    3    3    0    0  0.32031677135E+03  0.24899693469E+03 -0.13020889286E+03  0.42609466469E+03  0.00000000000E+00 0. -1.
        -12    1    3    3    0    0  0.61797509935E+03  0.50795449870E+03 -0.13860863898E+03  0.81186412100E+03  0.00000000000E+00 0.  1.
         13    1    5    5    0    0 -0.25215503216E+03 -0.17396907862E+03 -0.19975044946E+03  0.36571524800E+03  0.00000000000E+00 0. -1.
        -14    1    5    5    0    0 -0.65867842751E+03 -0.61101832883E+03 -0.53079143951E+03  0.10435229855E+04  0.00000000000E+00 0.  1.
          4    1    6    6  502    0 -0.29892412312E+02  0.50727835340E+00 -0.17744126806E+02  0.34765898252E+02  0.00000000000E+00 0. -1.
         -3    1    6    6    0  502  0.24340012763E+01  0.27528695706E+02 -0.20259581836E+03  0.20447204960E+03  0.00000000000E+00 0.  1.
<mgrwt>
<rscale>  0 0.12339890E+04</rscale>
<asrwt>0</asrwt>
<pdfrwt beam="1">  1        1 0.31585649E+00 0.12339890E+04</pdfrwt>
<pdfrwt beam="2">  1       -2 0.12821043E+00 0.12339890E+04</pdfrwt>
<totfact> 0.10562957E+00</totfact>
</mgrwt>
</event>
<event>
12    3  0.2422421E-007  0.1105457E+04  0.7818608E-02  0.9199890E-01
          1   -1    0    0  501    0  0.00000000000E+00  0.00000000000E+00  0.35269702529E+04  0.35269702529E+04  0.00000000000E+00 0. -1.
         -2   -1    0    0    0  501 -0.00000000000E+00 -0.00000000000E+00 -0.38744422508E+03  0.38744422508E+03  0.00000000000E+00 0.  1.
        -24    2    1    2    0    0 -0.10428094858E+04  0.16871630767E+03  0.19203503687E+04  0.21933085742E+04  0.83307543860E+02 0.  0.
    5000000    2    1    2    0    0  0.10428094858E+04 -0.16871630767E+03  0.12191756591E+04  0.17211059038E+04  0.59991618437E+03 0.  0.
        -24    2    4    4    0    0  0.54994357372E+03  0.13532817450E+03  0.33935506403E+03  0.66503694550E+03  0.79753559876E+02 0.  0.
         24    2    4    4    0    0  0.49286591204E+03 -0.30404448217E+03  0.87982059504E+03  0.10560689583E+04  0.76403604471E+02 0.  0.
         11    1    5    5    0    0  0.16785536674E+03  0.15711438529E+02  0.13223094845E+03  0.21425988232E+03  0.00000000000E+00 0. -1.
        -12    1    5    5    0    0  0.38208820698E+03  0.11961673597E+03  0.20712411558E+03  0.45077706318E+03  0.00000000000E+00 0.  1.
         13    1    3    3    0    0 -0.11315818487E+03  0.36491449601E+02  0.25811907218E+03  0.28418630530E+03  0.00000000000E+00 0. -1.
        -14    1    3    3    0    0 -0.92965130089E+03  0.13222485807E+03  0.16622312966E+04  0.19091222689E+04  0.00000000000E+00 0.  1.
          4    1    6    6  502    0  0.38284837586E+03 -0.19706105597E+03  0.64113231232E+03  0.77230601486E+03  0.00000000000E+00 0. -1.
         -3    1    6    6    0  502  0.11001753618E+03 -0.10698342620E+03  0.23868828272E+03  0.28376294341E+03  0.00000000000E+00 0.  1.
<mgrwt>
<rscale>  0 0.11054566E+04</rscale>
<asrwt>0</asrwt>
<pdfrwt beam="1">  1        1 0.54261079E+00 0.11054566E+04</pdfrwt>
<pdfrwt beam="2">  1       -2 0.59606806E-01 0.11054566E+04</pdfrwt>
<totfact> 0.55994193E-01</totfact>
</mgrwt>
</event>
<event>
12    3  0.2422421E-007  0.4466442E+03  0.7818608E-02  0.1028728E+00
          3   -1    0    0  501    0  0.00000000000E+00  0.00000000000E+00  0.14316776142E+04  0.14316776142E+04  0.00000000000E+00 0. -1.
         -4   -1    0    0    0  501 -0.00000000000E+00 -0.00000000000E+00 -0.20269874117E+03  0.20269874117E+03  0.00000000000E+00 0.  1.
        -24    2    1    2    0    0 -0.34736799913E+03 -0.11328502913E+03  0.39873219673E+03  0.54678368657E+03  0.80541980010E+02 0.  0.
    5000000    2    1    2    0    0  0.34736799913E+03  0.11328502913E+03  0.83024667633E+03  0.10875926688E+04  0.60004186943E+03 0.  0.
        -24    2    4    4    0    0  0.20370528201E+03  0.23991353611E+03  0.11865706584E+03  0.34625029469E+03  0.82191365566E+02 0.  0.
         24    2    4    4    0    0  0.14366271712E+03 -0.12662850698E+03  0.71158961049E+03  0.74134237413E+03  0.80962873288E+02 0.  0.
         11    1    5    5    0    0  0.14316331338E+03  0.21253769268E+03  0.75992130848E+02  0.26728787675E+03  0.00000000000E+00 0. -1.
        -12    1    5    5    0    0  0.60541968633E+02  0.27375843430E+02  0.42664934994E+02  0.78962417944E+02  0.00000000000E+00 0.  1.
         13    1    3    3    0    0 -0.21201109270E+03 -0.45197879059E+02  0.28102799707E+03  0.35492011332E+03  0.00000000000E+00 0. -1.
        -14    1    3    3    0    0 -0.13535690644E+03 -0.68087150071E+02  0.11770419966E+03  0.19186357325E+03  0.00000000000E+00 0.  1.
          4    1    6    6  502    0  0.25286046329E+02 -0.63035632132E+02  0.32625421344E+03  0.33324868619E+03  0.00000000000E+00 0. -1.
         -3    1    6    6    0  502  0.11837667079E+03 -0.63592874846E+02  0.38533539705E+03  0.40809368795E+03  0.00000000000E+00 0.  1.
<mgrwt>
<rscale>  0 0.44664421E+03</rscale>
<asrwt>0</asrwt>
<pdfrwt beam="1">  1        3 0.22025809E+00 0.44664421E+03</pdfrwt>
<pdfrwt beam="2">  1       -4 0.31184423E-01 0.44664421E+03</pdfrwt>
<totfact> 0.25408532E+00</totfact>
</mgrwt>
</event>
<event>
12    3  0.2934689E-007  0.1059670E+04  0.7818608E-02  0.9245417E-01
          1   -1    0    0  501    0  0.00000000000E+00  0.00000000000E+00  0.19827426249E+04  0.19827426249E+04  0.00000000000E+00 0. -1.
         -2   -1    0    0    0  501 -0.00000000000E+00 -0.00000000000E+00 -0.72710037137E+03  0.72710037137E+03  0.00000000000E+00 0.  1.
        -24    2    1    2    0    0  0.92528672287E+02  0.10511104851E+04  0.15159769918E+03  0.10690455398E+04  0.80508985938E+02 0.  0.
    5000000    2    1    2    0    0 -0.92528672287E+02 -0.10511104851E+04  0.11040445543E+04  0.16407974564E+04  0.59992258510E+03 0.  0.
        -24    2    4    4    0    0 -0.49392367656E+02 -0.66722111482E+03  0.28565419572E+03  0.73231192545E+03  0.84016751788E+02 0.  0.
         24    2    4    4    0    0 -0.43136304631E+02 -0.38388937023E+03  0.81839035859E+03  0.90848553097E+03  0.79695618429E+02 0.  0.
         11    1    3    3    0    0  0.58926271733E+02  0.40381096983E+03  0.26777374954E+02  0.40896531964E+03  0.00000000000E+00 0. -1.
        -12    1    3    3    0    0  0.33602400554E+02  0.64729951522E+03  0.12482032423E+03  0.66008022017E+03  0.00000000000E+00 0.  1.
         11    1    5    5    0    0 -0.14050550333E+02 -0.35141488990E+03  0.19364333718E+03  0.40148173663E+03  0.00000000000E+00 0. -1.
        -12    1    5    5    0    0 -0.35341817323E+02 -0.31580622491E+03  0.92010858535E+02  0.33083018882E+03  0.00000000000E+00 0.  1.
          2    1    6    6  502    0 -0.58752194527E+02 -0.18496180491E+03  0.37404637070E+03  0.42139456223E+03  0.00000000000E+00 0. -1.
         -1    1    6    6    0  502  0.15615889896E+02 -0.19892756532E+03  0.44434398789E+03  0.48709096874E+03  0.00000000000E+00 0.  1.
<mgrwt>
<rscale>  0 0.10596702E+04</rscale>
<asrwt>0</asrwt>
<pdfrwt beam="1">  1        1 0.30503733E+00 0.10596702E+04</pdfrwt>
<pdfrwt beam="2">  1       -2 0.11186160E+00 0.10596702E+04</pdfrwt>
<totfact> 0.16900458E+00</totfact>
</mgrwt>
</event>
<event>
12    3  0.2422421E-007  0.6775955E+03  0.7818608E-02  0.9756333E-01
         -2   -1    0    0    0  501 -0.00000000000E+00  0.00000000000E+00  0.10758162370E+04  0.10758162370E+04  0.00000000000E+00 0.  1.
          1   -1    0    0  501    0  0.00000000000E+00 -0.00000000000E+00 -0.65184120811E+03  0.65184120811E+03  0.00000000000E+00 0. -1.
        -24    2    1    2    0    0 -0.49551447374E+03 -0.26245677808E+03  0.66332030482E+03  0.87233552452E+03  0.80977073875E+02 0.  0.
    5000000    2    1    2    0    0  0.49551447374E+03  0.26245677808E+03 -0.23934527596E+03  0.85532192057E+03  0.59989271761E+03 0.  0.
        -24    2    4    4    0    0  0.47037853676E+03 -0.45547337377E+02 -0.24035596155E+03  0.53570476897E+03  0.76668660189E+02 0.  0.
         24    2    4    4    0    0  0.25135936979E+02  0.30800411546E+03  0.10106855880E+01  0.31961715160E+03  0.81582790142E+02 0.  0.
         11    1    3    3    0    0 -0.31209315678E+03 -0.20847809704E+03  0.43536246403E+03  0.57480929928E+03  0.00000000000E+00 0. -1.
        -12    1    3    3    0    0 -0.18342131696E+03 -0.53978681041E+02  0.22795784080E+03  0.29752622524E+03  0.00000000000E+00 0.  1.
         13    1    5    5    0    0  0.20456061713E+03 -0.53392798408E+02 -0.12693952850E+03  0.24659578443E+03  0.00000000000E+00 0. -1.
        -14    1    5    5    0    0  0.26581791963E+03  0.78454610309E+01 -0.11341643305E+03  0.28910898454E+03  0.00000000000E+00 0.  1.
          2    1    6    6  502    0  0.10022125010E+02  0.27315547350E+03 -0.23600248840E+02  0.27435620539E+03  0.00000000000E+00 0. -1.
         -1    1    6    6    0  502  0.15113811969E+02  0.34848641961E+02  0.24610934428E+02  0.45260946213E+02  0.00000000000E+00 0.  1.
<mgrwt>
<rscale>  0 0.67759551E+03</rscale>
<asrwt>0</asrwt>
<pdfrwt beam="1">  1        1 0.10028326E+00 0.67759551E+03</pdfrwt>
<pdfrwt beam="2">  1       -2 0.16551019E+00 0.67759551E+03</pdfrwt>
<totfact> 0.62913558E+00</totfact>
</mgrwt>
</event>
<event>
12    3  0.2422421E-007  0.1971771E+04  0.7818608E-02  0.8619933E-01
          1   -1    0    0  501    0  0.00000000000E+00  0.00000000000E+00  0.29472059007E+04  0.29472059007E+04  0.00000000000E+00 0. -1.
         -2   -1    0    0    0  501 -0.00000000000E+00 -0.00000000000E+00 -0.13774977700E+04  0.13774977700E+04  0.00000000000E+00 0.  1.
        -24    2    1    2    0    0 -0.17785996533E+04  0.82818776913E+03  0.58391308726E+03  0.20485087190E+04  0.78241745801E+02 0.  0.
    5000000    2    1    2    0    0  0.17785996533E+04 -0.82818776913E+03  0.98579504346E+03  0.22761949518E+04  0.59996656842E+03 0.  0.
        -24    2    4    4    0    0  0.51299655169E+03 -0.11180732506E+03  0.53204643274E+03  0.75053763581E+03  0.67579554538E+02 0.  0.
         24    2    4    4    0    0  0.12656031016E+04 -0.71638044407E+03  0.45374861072E+03  0.15256573160E+04  0.82403232079E+02 0.  0.
         11    1    3    3    0    0 -0.13684547888E+04  0.62113887009E+03  0.47805089975E+03  0.15770271614E+04  0.00000000000E+00 0. -1.
        -12    1    3    3    0    0 -0.41014486442E+03  0.20704889904E+03  0.10586218751E+03  0.47148155759E+03  0.00000000000E+00 0.  1.
         11    1    5    5    0    0  0.15060031678E+03 -0.49965444476E+02  0.12458339108E+03  0.20173750863E+03  0.00000000000E+00 0. -1.
        -12    1    5    5    0    0  0.36239623491E+03 -0.61841880585E+02  0.40746304166E+03  0.54880012717E+03  0.00000000000E+00 0.  1.
          2    1    6    6  502    0  0.99730663575E+03 -0.58514623579E+03  0.38966812247E+03  0.12201876448E+04  0.00000000000E+00 0. -1.
         -1    1    6    6    0  502  0.26829646582E+03 -0.13123420829E+03  0.64080488253E+02  0.30546967111E+03  0.00000000000E+00 0.  1.
<mgrwt>
<rscale>  0 0.19717713E+04</rscale>
<asrwt>0</asrwt>
<pdfrwt beam="1">  1        1 0.45341629E+00 0.19717713E+04</pdfrwt>
<pdfrwt beam="2">  1       -2 0.21192273E+00 0.19717713E+04</pdfrwt>
<totfact> 0.57023956E-02</totfact>
</mgrwt>
</event>
<event>
12    3  0.2422421E-007  0.7963450E+03  0.7818608E-02  0.9565323E-01
         -2   -1    0    0    0  501 -0.00000000000E+00  0.00000000000E+00  0.43732795927E+03  0.43732795927E+03  0.00000000000E+00 0.  1.
          1   -1    0    0  501    0  0.00000000000E+00 -0.00000000000E+00 -0.16416511382E+04  0.16416511382E+04  0.00000000000E+00 0. -1.
        -24    2    1    2    0    0 -0.61656575610E+03  0.31974585756E+03 -0.21979030855E+03  0.73290243970E+03  0.80296085612E+02 0.  0.
    5000000    2    1    2    0    0  0.61656575610E+03 -0.31974585756E+03 -0.98453287035E+03  0.13460766577E+04  0.60018884587E+03 0.  0.
        -24    2    4    4    0    0  0.34631423140E+03  0.12414050045E+03 -0.28947527203E+03  0.47458729544E+03  0.78056115399E+02 0.  0.
         24    2    4    4    0    0  0.27025152470E+03 -0.44388635801E+03 -0.69505759832E+03  0.87148936231E+03  0.79483697753E+02 0.  0.
         13    1    3    3    0    0 -0.32596542645E+03  0.12858226468E+03 -0.12910100251E+03  0.37343530481E+03  0.00000000000E+00 0. -1.
        -14    1    3    3    0    0 -0.29060032966E+03  0.19116359288E+03 -0.90689306047E+02  0.35946713490E+03  0.00000000000E+00 0.  1.
         13    1    5    5    0    0  0.17474145427E+03  0.95202383735E+02 -0.12397688947E+03  0.23445327643E+03  0.00000000000E+00 0. -1.
        -14    1    5    5    0    0  0.17157277713E+03  0.28938116714E+02 -0.16549838256E+03  0.24013401900E+03  0.00000000000E+00 0.  1.
          2    1    6    6  502    0  0.13325694590E+03 -0.25983673851E+03 -0.44361523431E+03  0.53109982152E+03  0.00000000000E+00 0. -1.
         -1    1    6    6    0  502  0.13699457881E+03 -0.18404961949E+03 -0.25144236402E+03  0.34038954079E+03  0.00000000000E+00 0.  1.
<mgrwt>
<rscale>  0 0.79634500E+03</rscale>
<asrwt>0</asrwt>
<pdfrwt beam="1">  1        1 0.25256171E+00 0.79634500E+03</pdfrwt>
<pdfrwt beam="2">  1       -2 0.67281224E-01 0.79634500E+03</pdfrwt>
<totfact> 0.95566751E+00</totfact>
</mgrwt>
</event>
<event>
12    3  0.2422421E-007  0.9610056E+03  0.7818608E-02  0.9352378E-01
          1   -1    0    0  501    0  0.00000000000E+00  0.00000000000E+00  0.18130293253E+04  0.18130293253E+04  0.00000000000E+00 0. -1.
         -2   -1    0    0    0  501 -0.00000000000E+00 -0.00000000000E+00 -0.73195703145E+03  0.73195703145E+03  0.00000000000E+00 0.  1.
        -24    2    1    2    0    0 -0.55048670578E+03  0.75986338792E+03  0.10779520493E+04  0.14313167558E+04  0.79114178420E+02 0.  0.
    5000000    2    1    2    0    0  0.55048670578E+03 -0.75986338792E+03  0.31202445134E+01  0.11136696009E+04  0.59985186722E+03 0.  0.
        -24    2    4    4    0    0  0.21519149074E+03 -0.51489811026E+03 -0.25481206445E+03  0.61857018227E+03  0.79198740968E+02 0.  0.
         24    2    4    4    0    0  0.33529521504E+03 -0.24496527766E+03  0.25793230896E+03  0.49509941868E+03  0.78507896929E+02 0.  0.
         11    1    3    3    0    0 -0.29311937692E+03  0.36567425132E+03  0.58685970658E+03  0.75102659235E+03  0.00000000000E+00 0. -1.
        -12    1    3    3    0    0 -0.25736732886E+03  0.39418913659E+03  0.49109234271E+03  0.68029016342E+03  0.00000000000E+00 0.  1.
         11    1    5    5    0    0  0.59180809767E+02 -0.23321700601E+03 -0.90453676449E+02  0.25704942661E+03  0.00000000000E+00 0. -1.
        -12    1    5    5    0    0  0.15601068097E+03 -0.28168110425E+03 -0.16435838800E+03  0.36152075566E+03  0.00000000000E+00 0.  1.
          4    1    6    6  502    0  0.81940706618E+02 -0.95452468179E+02  0.52638440854E+02  0.13636809942E+03  0.00000000000E+00 0. -1.
         -1    1    6    6    0  502  0.25335450842E+03 -0.14951280948E+03  0.20529386811E+03  0.35873131926E+03  0.00000000000E+00 0.  1.
<mgrwt>
<rscale>  0 0.96100555E+03</rscale>
<asrwt>0</asrwt>
<pdfrwt beam="1">  1        1 0.27892759E+00 0.96100555E+03</pdfrwt>
<pdfrwt beam="2">  1       -2 0.11260877E+00 0.96100555E+03</pdfrwt>
<totfact> 0.21914881E+00</totfact>
</mgrwt>
</event>
<event>
12    3  0.2422421E-007  0.7668962E+03  0.7818608E-02  0.9609209E-01
          1   -1    0    0  501    0  0.00000000000E+00  0.00000000000E+00  0.26426714456E+04  0.26426714456E+04  0.00000000000E+00 0. -1.
         -2   -1    0    0    0  501 -0.00000000000E+00 -0.00000000000E+00 -0.33803293299E+03  0.33803293299E+03  0.00000000000E+00 0.  1.
        -24    2    1    2    0    0 -0.32709716720E+03 -0.63365569379E+03  0.17616445772E+04  0.19021563294E+04  0.79340973464E+02 0.  0.
    5000000    2    1    2    0    0  0.32709716720E+03  0.63365569379E+03  0.54299393545E+03  0.10785480492E+04  0.59992615001E+03 0.  0.
        -24    2    4    4    0    0  0.14589992365E+03  0.81342188823E+01  0.36169973285E+03  0.39784987967E+03  0.78133710846E+02 0.  0.
         24    2    4    4    0    0  0.18119724355E+03  0.62552147490E+03  0.18129420260E+03  0.68069816955E+03  0.79830154017E+02 0.  0.
         11    1    3    3    0    0 -0.29450631367E+03 -0.60595464231E+03  0.16304826520E+04  0.17641963258E+04  0.00000000000E+00 0. -1.
        -12    1    3    3    0    0 -0.32590853527E+02 -0.27701051473E+02  0.13116192512E+03  0.13796000358E+03  0.00000000000E+00 0.  1.
         13    1    5    5    0    0  0.58069993087E+02 -0.33929339981E+02  0.17032655246E+03  0.18312416193E+03  0.00000000000E+00 0. -1.
        -14    1    5    5    0    0  0.87829930560E+02  0.42063558863E+02  0.19137318039E+03  0.21472571774E+03  0.00000000000E+00 0.  1.
          2    1    6    6  502    0  0.37965521462E+02  0.20273603139E+03  0.25148607161E+02  0.20778770822E+03  0.00000000000E+00 0. -1.
         -1    1    6    6    0  502  0.14323172209E+03  0.42278544351E+03  0.15614559544E+03  0.47291046133E+03  0.00000000000E+00 0.  1.
<mgrwt>
<rscale>  0 0.76689623E+03</rscale>
<asrwt>0</asrwt>
<pdfrwt beam="1">  1        1 0.40656482E+00 0.76689623E+03</pdfrwt>
<pdfrwt beam="2">  1       -2 0.52005068E-01 0.76689623E+03</pdfrwt>
<totfact> 0.34858782E+00</totfact>
</mgrwt>
</event>
<event>
12    3  0.2422421E-007  0.5429286E+03  0.7818608E-02  0.1003144E+00
         -2   -1    0    0    0  501 -0.00000000000E+00  0.00000000000E+00  0.21836820499E+03  0.21836820499E+03  0.00000000000E+00 0.  1.
          1   -1    0    0  501    0  0.00000000000E+00 -0.00000000000E+00 -0.14196038715E+04  0.14196038715E+04  0.00000000000E+00 0. -1.
        -24    2    1    2    0    0  0.13734352627E+03  0.36377776395E+03 -0.37448963283E+03  0.54509209930E+03  0.75401630369E+02 0.  0.
    5000000    2    1    2    0    0 -0.13734352627E+03 -0.36377776395E+03 -0.82674603372E+03  0.10928799772E+04  0.59973338625E+03 0.  0.
        -24    2    4    4    0    0  0.13873102755E+03  0.75565010514E+02 -0.30520499588E+03  0.35293044877E+03  0.80333326484E+02 0.  0.
         24    2    4    4    0    0 -0.27607455382E+03 -0.43934277447E+03 -0.52154103784E+03  0.73994952845E+03  0.79252872215E+02 0.  0.
         11    1    5    5    0    0  0.81882608201E+02  0.11765650237E+02 -0.20604226549E+03  0.22202839282E+03  0.00000000000E+00 0. -1.
        -12    1    5    5    0    0  0.56848419344E+02  0.63799360277E+02 -0.99162730389E+02  0.13090205595E+03  0.00000000000E+00 0.  1.
         13    1    3    3    0    0  0.80406431009E+02  0.13584393814E+03 -0.18549412025E+03  0.24357101289E+03  0.00000000000E+00 0. -1.
        -14    1    3    3    0    0  0.56937095265E+02  0.22793382582E+03 -0.18899551258E+03  0.30152108640E+03  0.00000000000E+00 0.  1.
          4    1    6    6  502    0 -0.86787078694E+02 -0.21188482550E+03 -0.23013605517E+03  0.32463792169E+03  0.00000000000E+00 0. -1.
         -3    1    6    6    0  502 -0.18928747513E+03 -0.22745794897E+03 -0.29140498267E+03  0.41531160676E+03  0.00000000000E+00 0.  1.
<mgrwt>
<rscale>  0 0.54292855E+03</rscale>
<asrwt>0</asrwt>
<pdfrwt beam="1">  1        1 0.21840059E+00 0.54292855E+03</pdfrwt>
<pdfrwt beam="2">  1       -2 0.33595109E-01 0.54292855E+03</pdfrwt>
<totfact> 0.56763505E+01</totfact>
</mgrwt>
</event>
<event>
12    3  0.2422421E-007  0.5086277E+03  0.7818608E-02  0.1011551E+00
          1   -1    0    0  501    0  0.00000000000E+00  0.00000000000E+00  0.20665013065E+04  0.20665013065E+04  0.00000000000E+00 0. -1.
         -2   -1    0    0    0  501 -0.00000000000E+00 -0.00000000000E+00 -0.26065892507E+03  0.26065892507E+03  0.00000000000E+00 0.  1.
        -24    2    1    2    0    0  0.38599886469E+03  0.19402176749E+03  0.75699634254E+02  0.44587831466E+03  0.80233827392E+02 0.  0.
    5000000    2    1    2    0    0 -0.38599886469E+03 -0.19402176749E+03  0.17301427472E+04  0.18812819169E+04  0.59932308102E+03 0.  0.
        -24    2    4    4    0    0 -0.45844600657E+03 -0.16645720481E+03  0.16766034065E+04  0.17479295017E+04  0.79861242204E+02 0.  0.
         24    2    4    4    0    0  0.72447141882E+02 -0.27564562685E+02  0.53539340650E+02  0.13335241525E+03  0.94382266192E+02 0.  0.
         13    1    5    5    0    0 -0.32050920832E+03 -0.89937714779E+02  0.10348097516E+04  0.10870354949E+04  0.00000000000E+00 0. -1.
        -14    1    5    5    0    0 -0.13793679825E+03 -0.76519490028E+02  0.64179365491E+03  0.66089400674E+03  0.00000000000E+00 0.  1.
         13    1    3    3    0    0  0.25693349205E+03  0.85724708832E+02  0.50437193861E+02  0.27551307694E+03  0.00000000000E+00 0. -1.
        -14    1    3    3    0    0  0.12906537264E+03  0.10829705866E+03  0.25262440393E+02  0.17036523772E+03  0.00000000000E+00 0.  1.
          2    1    6    6  502    0  0.70716225990E+02 -0.12120620791E+02 -0.58289407534E+01  0.71983821911E+02  0.00000000000E+00 0. -1.
         -3    1    6    6    0  502  0.17309158926E+01 -0.15443941894E+02  0.59368281404E+02  0.61368593335E+02  0.00000000000E+00 0.  1.
<mgrwt>
<rscale>  0 0.50862768E+03</rscale>
<asrwt>0</asrwt>
<pdfrwt beam="1">  1        1 0.31792327E+00 0.50862768E+03</pdfrwt>
<pdfrwt beam="2">  1       -2 0.40101375E-01 0.50862768E+03</pdfrwt>
<totfact> 0.15056428E+01</totfact>
</mgrwt>
</event>
<event>
12    3  0.2422421E-007  0.1299280E+04  0.7818608E-02  0.9030136E-01
          1   -1    0    0  501    0  0.00000000000E+00  0.00000000000E+00  0.22007057268E+04  0.22007057268E+04  0.00000000000E+00 0. -1.
         -2   -1    0    0    0  501 -0.00000000000E+00 -0.00000000000E+00 -0.85366619006E+03  0.85366619006E+03  0.00000000000E+00 0.  1.
        -24    2    1    2    0    0  0.12567721872E+04  0.28697305921E+03  0.85895527966E+03  0.15511433523E+04  0.80072839314E+02 0.  0.
    5000000    2    1    2    0    0 -0.12567721872E+04 -0.28697305921E+03  0.48808425710E+03  0.15032285646E+04  0.59969993168E+03 0.  0.
        -24    2    4    4    0    0 -0.10318545105E+04 -0.17522133210E+03  0.12817722280E+03  0.10573235077E+04  0.77957383049E+02 0.  0.
         24    2    4    4    0    0 -0.22491767675E+03 -0.11175172711E+03  0.35990703430E+03  0.44590505684E+03  0.78878619085E+02 0.  0.
         11    1    3    3    0    0  0.10440378477E+04  0.21385919092E+03  0.73130355187E+03  0.12924997741E+04  0.00000000000E+00 0. -1.
        -12    1    3    3    0    0  0.21273433953E+03  0.73113868294E+02  0.12765172778E+03  0.25864357823E+03  0.00000000000E+00 0.  1.
         13    1    5    5    0    0 -0.52964674432E+03 -0.12252048105E+03  0.44248659706E+02  0.54543091765E+03  0.00000000000E+00 0. -1.
        -14    1    5    5    0    0 -0.50220776615E+03 -0.52700851055E+02  0.83928563089E+02  0.51189259009E+03  0.00000000000E+00 0.  1.
          4    1    6    6  502    0 -0.68285210880E+02 -0.68685059377E+02  0.17303889192E+03  0.19830019042E+03  0.00000000000E+00 0. -1.
         -3    1    6    6    0  502 -0.15663246587E+03 -0.43066667736E+02  0.18686814238E+03  0.24760486642E+03  0.00000000000E+00 0.  1.
<mgrwt>
<rscale>  0 0.12992803E+04</rscale>
<asrwt>0</asrwt>
<pdfrwt beam="1">  1        1 0.33857011E+00 0.12992803E+04</pdfrwt>
<pdfrwt beam="2">  1       -2 0.13133326E+00 0.12992803E+04</pdfrwt>
<totfact> 0.78304912E-01</totfact>
</mgrwt>
</event>
<event>
12    3  0.2422421E-007  0.5056592E+03  0.7818608E-02  0.1012312E+00
         -4   -1    0    0    0  501 -0.00000000000E+00  0.00000000000E+00  0.45622362960E+03  0.45622362960E+03  0.00000000000E+00 0.  1.
          3   -1    0    0  501    0  0.00000000000E+00 -0.00000000000E+00 -0.71376555092E+03  0.71376555092E+03  0.00000000000E+00 0. -1.
        -24    2    1    2    0    0  0.15096767511E+03 -0.30280113677E+03  0.14036134335E+03  0.37452820015E+03  0.78040365515E+02 0.  0.
    5000000    2    1    2    0    0 -0.15096767511E+03  0.30280113677E+03 -0.39790326467E+03  0.79546098036E+03  0.59995949520E+03 0.  0.
        -24    2    4    4    0    0 -0.54346874459E+02 -0.16777913482E+03 -0.17634335164E+03  0.26063706837E+03  0.75705236922E+02 0.  0.
         24    2    4    4    0    0 -0.96620800649E+02  0.47058027158E+03 -0.22155991303E+03  0.53482391198E+03  0.78526751155E+02 0.  0.
         11    1    3    3    0    0  0.15035463114E+03 -0.23326235013E+03  0.11688262851E+03  0.30113018437E+03  0.00000000000E+00 0. -1.
        -12    1    3    3    0    0  0.61304396378E+00 -0.69538786638E+02  0.23478714842E+02  0.73398015782E+02  0.00000000000E+00 0.  1.
         13    1    5    5    0    0  0.11146388690E+01 -0.62108421640E+02 -0.22803488115E+02  0.66171727563E+02  0.00000000000E+00 0. -1.
        -14    1    5    5    0    0 -0.55461513328E+02 -0.10567071318E+03 -0.15353986353E+03  0.19446534081E+03  0.00000000000E+00 0.  1.
          4    1    6    6  502    0 -0.56771377667E+02  0.37452656760E+03 -0.20096501135E+03  0.42881240064E+03  0.00000000000E+00 0. -1.
         -3    1    6    6    0  502 -0.39849422982E+02  0.96053703988E+02 -0.20594901676E+02  0.10601151134E+03  0.00000000000E+00 0.  1.
<mgrwt>
<rscale>  0 0.50565924E+03</rscale>
<asrwt>0</asrwt>
<pdfrwt beam="1">  1        3 0.10981009E+00 0.50565924E+03</pdfrwt>
<pdfrwt beam="2">  1       -4 0.70188251E-01 0.50565924E+03</pdfrwt>
<totfact> 0.29484149E+00</totfact>
</mgrwt>
</event>
<event>
12    3  0.2422421E-007  0.5979286E+03  0.7818608E-02  0.9909713E-01
          3   -1    0    0  501    0  0.00000000000E+00  0.00000000000E+00  0.34706239133E+03  0.34706239133E+03  0.00000000000E+00 0. -1.
         -4   -1    0    0    0  501 -0.00000000000E+00 -0.00000000000E+00 -0.15285273437E+04  0.15285273437E+04  0.00000000000E+00 0.  1.
        -24    2    1    2    0    0  0.57691189654E+03  0.28988620019E+02 -0.70973502059E+03  0.91850449944E+03  0.79114092121E+02 0.  0.
    5000000    2    1    2    0    0 -0.57691189654E+03 -0.28988620019E+02 -0.47172993175E+03  0.95708523556E+03  0.59984609956E+03 0.  0.
        -24    2    4    4    0    0 -0.48648417175E+03  0.52884161639E+02 -0.58926455061E+03  0.77006846975E+03  0.79430180561E+02 0.  0.
         24    2    4    4    0    0 -0.90427724793E+02 -0.81872781658E+02  0.11753461885E+03  0.18701676581E+03  0.79249973368E+02 0.  0.
         11    1    3    3    0    0  0.52064151012E+03  0.40176728051E+02 -0.66630465815E+03  0.84654807838E+03  0.00000000000E+00 0. -1.
        -12    1    3    3    0    0  0.56270386424E+02 -0.11188108032E+02 -0.43430362433E+02  0.71956421053E+02  0.00000000000E+00 0.  1.
         13    1    5    5    0    0 -0.43215082302E+03  0.29776404347E+02 -0.48527770848E+03  0.65048860285E+03  0.00000000000E+00 0. -1.
        -14    1    5    5    0    0 -0.54333348726E+02  0.23107757292E+02 -0.10398684213E+03  0.11957986690E+03  0.00000000000E+00 0.  1.
          4    1    6    6  502    0 -0.10207387983E+02 -0.11483835766E+01  0.57377892172E+02  0.58290068317E+02  0.00000000000E+00 0. -1.
         -1    1    6    6    0  502 -0.80220336810E+02 -0.80724398081E+02  0.60156726681E+02  0.12872669750E+03  0.00000000000E+00 0.  1.
<mgrwt>
<rscale>  0 0.59792860E+03</rscale>
<asrwt>0</asrwt>
<pdfrwt beam="1">  1        3 0.53394214E-01 0.59792860E+03</pdfrwt>
<pdfrwt beam="2">  1       -4 0.23515805E+00 0.59792860E+03</pdfrwt>
<totfact> 0.62563504E-01</totfact>
</mgrwt>
</event>
<event>
12    3  0.2422421E-007  0.8096359E+03  0.7818608E-02  0.9546173E-01
         -2   -1    0    0    0  501 -0.00000000000E+00  0.00000000000E+00  0.15561951105E+04  0.15561951105E+04  0.00000000000E+00 0.  1.
          1   -1    0    0  501    0  0.00000000000E+00 -0.00000000000E+00 -0.67093053609E+03  0.67093053609E+03  0.00000000000E+00 0. -1.
        -24    2    1    2    0    0 -0.30423565186E+03 -0.65840349663E+03  0.10428025395E+04  0.12726937672E+04  0.79106210058E+02 0.  0.
    5000000    2    1    2    0    0  0.30423565186E+03  0.65840349663E+03 -0.15753796513E+03  0.95443187934E+03  0.60005625204E+03 0.  0.
        -24    2    4    4    0    0 -0.62168944136E+02  0.47189738779E+03  0.56990317059E+02  0.48375826826E+03  0.64977254901E+02 0.  0.
         24    2    4    4    0    0  0.36640459599E+03  0.18650610884E+03 -0.21452828219E+03  0.47067361108E+03  0.80463704290E+02 0.  0.
         11    1    5    5    0    0 -0.22712830124E+02  0.60622170889E+02  0.24862794289E+02  0.69347521913E+02  0.00000000000E+00 0. -1.
        -12    1    5    5    0    0 -0.39456114012E+02  0.41127521690E+03  0.32127522770E+02  0.41441074635E+03  0.00000000000E+00 0.  1.
         11    1    3    3    0    0 -0.11564883093E+03 -0.26480998896E+03  0.48334131721E+03  0.56313214371E+03  0.00000000000E+00 0. -1.
        -12    1    3    3    0    0 -0.18858682093E+03 -0.39359350767E+03  0.55946122228E+03  0.70956162350E+03  0.00000000000E+00 0.  1.
          2    1    6    6  502    0  0.16153661090E+03  0.47439035320E+02 -0.11459669337E+03  0.20365888359E+03  0.00000000000E+00 0. -1.
         -3    1    6    6    0  502  0.20486798509E+03  0.13906707352E+03 -0.99931588823E+02  0.26701472749E+03  0.00000000000E+00 0.  1.
<mgrwt>
<rscale>  0 0.80963593E+03</rscale>
<asrwt>0</asrwt>
<pdfrwt beam="1">  1        1 0.10322008E+00 0.80963593E+03</pdfrwt>
<pdfrwt beam="2">  1       -2 0.23941463E+00 0.80963593E+03</pdfrwt>
<totfact> 0.19491229E+00</totfact>
</mgrwt>
</event>
<event>
12    3  0.2422421E-007  0.4583893E+03  0.7818608E-02  0.1025249E+00
         -2   -1    0    0    0  501 -0.00000000000E+00  0.00000000000E+00  0.49714664137E+03  0.49714664137E+03  0.00000000000E+00 0.  1.
          1   -1    0    0  501    0  0.00000000000E+00 -0.00000000000E+00 -0.57823783773E+03  0.57823783773E+03  0.00000000000E+00 0. -1.
        -24    2    1    2    0    0 -0.26169051401E+03  0.11389748344E+03  0.19693632543E+03  0.35515610820E+03  0.76794420784E+02 0.  0.
    5000000    2    1    2    0    0  0.26169051401E+03 -0.11389748344E+03 -0.27802752178E+03  0.72022837089E+03  0.59997920090E+03 0.  0.
        -24    2    4    4    0    0  0.38788492134E+03 -0.21603952401E+03 -0.93350094175E+02  0.46108474132E+03  0.82201645097E+02 0.  0.
         24    2    4    4    0    0 -0.12619440733E+03  0.10214204057E+03 -0.18467742761E+03  0.25914362957E+03  0.81802466871E+02 0.  0.
         11    1    3    3    0    0 -0.26142334454E+02  0.31311960145E+02  0.67386560614E+01  0.41343318497E+02  0.00000000000E+00 0. -1.
        -12    1    3    3    0    0 -0.23554817956E+03  0.82585523294E+02  0.19019766937E+03  0.31381278971E+03  0.00000000000E+00 0.  1.
         13    1    5    5    0    0  0.38110602090E+03 -0.21865862570E+03 -0.81039910292E+02  0.44678950393E+03  0.00000000000E+00 0. -1.
        -14    1    5    5    0    0  0.67789004372E+01  0.26191016888E+01 -0.12310183883E+02  0.14295237389E+02  0.00000000000E+00 0.  1.
          4    1    6    6  502    0 -0.13329048759E+03  0.10717646256E+03 -0.18261354584E+03  0.25020162936E+03  0.00000000000E+00 0. -1.
         -3    1    6    6    0  502  0.70960802610E+01 -0.50344219904E+01 -0.20638817675E+01  0.89420002124E+01  0.00000000000E+00 0.  1.
<mgrwt>
<rscale>  0 0.45838926E+03</rscale>
<asrwt>0</asrwt>
<pdfrwt beam="1">  1        1 0.88959667E-01 0.45838926E+03</pdfrwt>
<pdfrwt beam="2">  1       -2 0.76484099E-01 0.45838926E+03</pdfrwt>
<totfact> 0.50500878E+01</totfact>
</mgrwt>
</event>
<event>
12    3  0.2422421E-007  0.1688318E+04  0.7818608E-02  0.8768055E-01
          1   -1    0    0  501    0  0.00000000000E+00  0.00000000000E+00  0.28870694497E+04  0.28870694497E+04  0.00000000000E+00 0. -1.
         -2   -1    0    0    0  501 -0.00000000000E+00 -0.00000000000E+00 -0.14064064123E+04  0.14064064123E+04  0.00000000000E+00 0.  1.
        -24    2    1    2    0    0  0.64433533697E+03  0.15297437507E+04 -0.40506774978E+03  0.17105733125E+04  0.81836458690E+02 0.  0.
    5000000    2    1    2    0    0 -0.64433533697E+03 -0.15297437507E+04  0.18857307871E+04  0.25829025495E+04  0.60010083276E+03 0.  0.
        -24    2    4    4    0    0 -0.65316842885E+03 -0.10962583141E+04  0.16345991763E+04  0.20753787504E+04  0.82892719325E+02 0.  0.
         24    2    4    4    0    0  0.88330918819E+01 -0.43348543667E+03  0.25113161085E+03  0.50752379913E+03  0.80781640254E+02 0.  0.
         11    1    3    3    0    0  0.47090017298E+03  0.11356782260E+04 -0.33602641641E+03  0.12745296224E+04  0.00000000000E+00 0. -1.
        -12    1    3    3    0    0  0.17343516399E+03  0.39406552476E+03 -0.69041333370E+02  0.43604369004E+03  0.00000000000E+00 0.  1.
         11    1    5    5    0    0 -0.48812756227E+03 -0.84696398909E+03  0.13023868061E+04  0.16284434005E+04  0.00000000000E+00 0. -1.
        -12    1    5    5    0    0 -0.16504086658E+03 -0.24929432499E+03  0.33221237015E+03  0.44693534990E+03  0.00000000000E+00 0.  1.
          4    1    6    6  502    0 -0.30147142877E+02 -0.28572518443E+03  0.17929563060E+03  0.33866599238E+03  0.00000000000E+00 0. -1.
         -3    1    6    6    0  502  0.38980234759E+02 -0.14776025224E+03  0.71835980249E+02  0.16885780675E+03  0.00000000000E+00 0.  1.
<mgrwt>
<rscale>  0 0.16883185E+04</rscale>
<asrwt>0</asrwt>
<pdfrwt beam="1">  1        1 0.44416453E+00 0.16883185E+04</pdfrwt>
<pdfrwt beam="2">  1       -2 0.21637022E+00 0.16883185E+04</pdfrwt>
<totfact> 0.60777911E-02</totfact>
</mgrwt>
</event>
<event>
12    3  0.2422421E-007  0.1125786E+04  0.7818608E-02  0.9180418E-01
         -2   -1    0    0    0  501 -0.00000000000E+00  0.00000000000E+00  0.15291835792E+04  0.15291835792E+04  0.00000000000E+00 0.  1.
          1   -1    0    0  501    0  0.00000000000E+00 -0.00000000000E+00 -0.93786053858E+03  0.93786053858E+03  0.00000000000E+00 0. -1.
        -24    2    1    2    0    0 -0.32658063193E+03 -0.10376816650E+04 -0.90707075416E+00  0.10907477251E+04  0.79319795332E+02 0.  0.
    5000000    2    1    2    0    0  0.32658063193E+03  0.10376816650E+04  0.59223011133E+03  0.13762963927E+04  0.60001425708E+03 0.  0.
        -24    2    4    4    0    0  0.40597147496E+03  0.87948185791E+03  0.65488877597E+03  0.11720086848E+04  0.80149058430E+02 0.  0.
         24    2    4    4    0    0 -0.79390843030E+02  0.15819980709E+03 -0.62658664644E+02  0.20428770784E+03  0.80481515877E+02 0.  0.
         13    1    3    3    0    0 -0.13517955740E+02 -0.18338917216E+02 -0.86947475980E+01  0.24385439259E+02  0.00000000000E+00 0. -1.
        -14    1    3    3    0    0 -0.31306267619E+03 -0.10193427478E+04  0.77876768439E+01  0.10663622858E+04  0.00000000000E+00 0.  1.
         13    1    5    5    0    0  0.23654272975E+03  0.56044514887E+03  0.45041743883E+03  0.75691947861E+03  0.00000000000E+00 0. -1.
        -14    1    5    5    0    0  0.16942874521E+03  0.31903670904E+03  0.20447133714E+03  0.41508920623E+03  0.00000000000E+00 0.  1.
          2    1    6    6  502    0 -0.64197553016E+02  0.44313697600E+02 -0.12837803896E+02  0.79055922087E+02  0.00000000000E+00 0. -1.
         -1    1    6    6    0  502 -0.15193290014E+02  0.11388610949E+03 -0.49820860748E+02  0.12523178575E+03  0.00000000000E+00 0.  1.
<mgrwt>
<rscale>  0 0.11257857E+04</rscale>
<asrwt>0</asrwt>
<pdfrwt beam="1">  1        1 0.14428624E+00 0.11257857E+04</pdfrwt>
<pdfrwt beam="2">  1       -2 0.23525901E+00 0.11257857E+04</pdfrwt>
<totfact> 0.11600331E+00</totfact>
</mgrwt>
</event>
<event>
12    3  0.2422421E-007  0.9027699E+03  0.7818608E-02  0.9422125E-01
         -2   -1    0    0    0  501 -0.00000000000E+00  0.00000000000E+00  0.48475880635E+03  0.48475880635E+03  0.00000000000E+00 0.  1.
          1   -1    0    0  501    0  0.00000000000E+00 -0.00000000000E+00 -0.21341939453E+04  0.21341939453E+04  0.00000000000E+00 0. -1.
        -24    2    1    2    0    0  0.27263389131E+03 -0.78656007366E+03 -0.12790459066E+04  0.15280056305E+04  0.76398871092E+02 0.  0.
    5000000    2    1    2    0    0 -0.27263389131E+03  0.78656007366E+03 -0.37038923234E+03  0.10909471211E+04  0.59997620747E+03 0.  0.
        -24    2    4    4    0    0  0.81156609428E+02  0.51033829406E+03 -0.36238445312E+03  0.63592939212E+03  0.77795438580E+02 0.  0.
         24    2    4    4    0    0 -0.35379050074E+03  0.27622177960E+03 -0.80047792268E+01  0.45501772902E+03  0.74235215992E+02 0.  0.
         13    1    5    5    0    0  0.26161583222E+02  0.14382575103E+03 -0.61671804432E+02  0.15866217747E+03  0.00000000000E+00 0. -1.
        -14    1    5    5    0    0  0.54995026206E+02  0.36651254303E+03 -0.30071264869E+03  0.47726721466E+03  0.00000000000E+00 0.  1.
         13    1    3    3    0    0  0.19364183452E+03 -0.63148402147E+03 -0.97476847753E+03  0.11774730631E+04  0.00000000000E+00 0. -1.
        -14    1    3    3    0    0  0.78992056788E+02 -0.15507605219E+03 -0.30427742907E+03  0.35053256744E+03  0.00000000000E+00 0.  1.
          4    1    6    6  502    0 -0.16322601564E+03  0.17147518638E+03  0.88830880033E+01  0.23690795887E+03  0.00000000000E+00 0. -1.
         -3    1    6    6    0  502 -0.19056448510E+03  0.10474659321E+03 -0.16887867230E+02  0.21810977014E+03  0.00000000000E+00 0.  1.
<mgrwt>
<rscale>  0 0.90276994E+03</rscale>
<asrwt>0</asrwt>
<pdfrwt beam="1">  1        1 0.32833752E+00 0.90276994E+03</pdfrwt>
<pdfrwt beam="2">  1       -2 0.74578279E-01 0.90276994E+03</pdfrwt>
<totfact> 0.35067156E+00</totfact>
</mgrwt>
</event>
<event>
12    3  0.2422421E-007  0.5600397E+03  0.7818608E-02  0.9991965E-01
         -2   -1    0    0    0  501 -0.00000000000E+00  0.00000000000E+00  0.18549293802E+03  0.18549293802E+03  0.00000000000E+00 0.  1.
          1   -1    0    0  501    0  0.00000000000E+00 -0.00000000000E+00 -0.24667416538E+04  0.24667416538E+04  0.00000000000E+00 0. -1.
        -24    2    1    2    0    0  0.47233258827E+02 -0.41189815959E+03 -0.15981983402E+04  0.16529996115E+04  0.79238289764E+02 0.  0.
    5000000    2    1    2    0    0 -0.47233258827E+02  0.41189815959E+03 -0.68305037561E+03  0.99923498029E+03  0.60001804606E+03 0.  0.
        -24    2    4    4    0    0  0.24150664004E+03  0.64205135854E+02 -0.18925101990E+03  0.32496204601E+03  0.85654107693E+02 0.  0.
         24    2    4    4    0    0 -0.28873989886E+03  0.34769302374E+03 -0.49379935572E+03  0.67427293428E+03  0.80901287026E+02 0.  0.
         11    1    5    5    0    0  0.18496089663E+03  0.30528972124E+02 -0.17738793300E+03  0.25808725306E+03  0.00000000000E+00 0. -1.
        -12    1    5    5    0    0  0.56545743410E+02  0.33676163730E+02 -0.11863086899E+02  0.66874792950E+02  0.00000000000E+00 0.  1.
         13    1    3    3    0    0  0.39754903011E+02 -0.33231212764E+03 -0.11492763669E+04  0.11970162780E+04  0.00000000000E+00 0. -1.
        -14    1    3    3    0    0  0.74783558160E+01 -0.79586031949E+02 -0.44892197330E+03  0.45598333347E+03  0.00000000000E+00 0.  1.
          2    1    6    6  502    0 -0.17571468683E+03  0.20046656686E+03 -0.34731396500E+03  0.43782357849E+03  0.00000000000E+00 0. -1.
         -1    1    6    6    0  502 -0.11302521203E+03  0.14722645688E+03 -0.14648539072E+03  0.23644935579E+03  0.00000000000E+00 0.  1.
<mgrwt>
<rscale>  0 0.56003969E+03</rscale>
<asrwt>0</asrwt>
<pdfrwt beam="1">  1        1 0.37949870E+00 0.56003969E+03</pdfrwt>
<pdfrwt beam="2">  1       -2 0.28537376E-01 0.56003969E+03</pdfrwt>
<totfact> 0.15277752E+01</totfact>
</mgrwt>
</event>
<event>
12    3  0.2422421E-007  0.7176394E+03  0.7818608E-02  0.9687533E-01
         -2   -1    0    0    0  501 -0.00000000000E+00  0.00000000000E+00  0.12918645513E+04  0.12918645513E+04  0.00000000000E+00 0.  1.
          1   -1    0    0  501    0  0.00000000000E+00 -0.00000000000E+00 -0.53970517727E+03  0.53970517727E+03  0.00000000000E+00 0. -1.
        -24    2    1    2    0    0 -0.10382950276E+03 -0.69218029101E+03  0.53478610956E+03  0.88437852186E+03  0.78962434393E+02 0.  0.
    5000000    2    1    2    0    0  0.10382950276E+03  0.69218029101E+03  0.21737326443E+03  0.94719120666E+03  0.60002160376E+03 0.  0.
        -24    2    4    4    0    0  0.11203081094E+03  0.54635377303E+03  0.40462060184E+03  0.69625135738E+03  0.99973863150E+02 0.  0.
         24    2    4    4    0    0 -0.82013081872E+01  0.14582651798E+03 -0.18724733741E+03  0.25093984928E+03  0.81096287137E+02 0.  0.
         11    1    5    5    0    0  0.18845805213E+02  0.30018018798E+03  0.24901972873E+03  0.39047936556E+03  0.00000000000E+00 0. -1.
        -12    1    5    5    0    0  0.93185005730E+02  0.24617358505E+03  0.15560087311E+03  0.30577199182E+03  0.00000000000E+00 0.  1.
         11    1    3    3    0    0  0.11373702707E+02 -0.12173147885E+03  0.99530307436E+02  0.15765213654E+03  0.00000000000E+00 0. -1.
        -12    1    3    3    0    0 -0.11520320546E+03 -0.57044881216E+03  0.43525580212E+03  0.72672638532E+03  0.00000000000E+00 0.  1.
          4    1    6    6  502    0 -0.42459596195E+02  0.51744172205E+02 -0.74825761113E+02  0.10039507554E+03  0.00000000000E+00 0. -1.
         -3    1    6    6    0  502  0.34258288008E+02  0.94082345779E+02 -0.11242157630E+03  0.15054477375E+03  0.00000000000E+00 0.  1.
<mgrwt>
<rscale>  0 0.71763938E+03</rscale>
<asrwt>0</asrwt>
<pdfrwt beam="1">  1        1 0.83031566E-01 0.71763938E+03</pdfrwt>
<pdfrwt beam="2">  1       -2 0.19874839E+00 0.71763938E+03</pdfrwt>
<totfact> 0.48664835E+00</totfact>
</mgrwt>
</event>
<event>
12    3  0.2422421E-007  0.5950346E+03  0.7818608E-02  0.9915762E-01
         -2   -1    0    0    0  501 -0.00000000000E+00  0.00000000000E+00  0.15510509854E+03  0.15510509854E+03  0.00000000000E+00 0.  1.
          1   -1    0    0  501    0  0.00000000000E+00 -0.00000000000E+00 -0.26757501001E+04  0.26757501001E+04  0.00000000000E+00 0. -1.
        -24    2    1    2    0    0  0.41931971579E+03  0.20456072497E+03 -0.59240486114E+03  0.75815332590E+03  0.78605545731E+02 0.  0.
    5000000    2    1    2    0    0 -0.41931971579E+03 -0.20456072497E+03 -0.19282401404E+04  0.20727018727E+04  0.60025736137E+03 0.  0.
        -24    2    4    4    0    0 -0.18475408929E+03 -0.37607678170E+03 -0.14097352257E+04  0.14729568057E+04  0.81734483657E+02 0.  0.
         24    2    4    4    0    0 -0.23456562650E+03  0.17151605672E+03 -0.51850491472E+03  0.59974506698E+03  0.80050033914E+02 0.  0.
         11    1    3    3    0    0  0.20548175927E+03  0.62472250566E+02 -0.23878039382E+03  0.32115667821E+03  0.00000000000E+00 0. -1.
        -12    1    3    3    0    0  0.21383795652E+03  0.14208847441E+03 -0.35362446732E+03  0.43699664769E+03  0.00000000000E+00 0.  1.
         13    1    5    5    0    0 -0.12758919929E+03 -0.18246516928E+03 -0.81657995004E+03  0.84638960095E+03  0.00000000000E+00 0. -1.
        -14    1    5    5    0    0 -0.57164890000E+02 -0.19361161241E+03 -0.59315527562E+03  0.62656720478E+03  0.00000000000E+00 0.  1.
          4    1    6    6  502    0 -0.13444764857E+03  0.12523576262E+03 -0.38480532109E+03  0.42642150694E+03  0.00000000000E+00 0. -1.
         -3    1    6    6    0  502 -0.10011797793E+03  0.46280294100E+02 -0.13369959363E+03  0.17332356004E+03  0.00000000000E+00 0.  1.
<mgrwt>
<rscale>  0 0.59503463E+03</rscale>
<asrwt>0</asrwt>
<pdfrwt beam="1">  1        1 0.41165386E+00 0.59503463E+03</pdfrwt>
<pdfrwt beam="2">  1       -2 0.23862323E-01 0.59503463E+03</pdfrwt>
<totfact> 0.15098357E+01</totfact>
</mgrwt>
</event>
<event>
12    3  0.2422421E-007  0.6684040E+03  0.7818608E-02  0.9772845E-01
          1   -1    0    0  501    0  0.00000000000E+00  0.00000000000E+00  0.83718989396E+03  0.83718989396E+03  0.00000000000E+00 0. -1.
         -2   -1    0    0    0  501 -0.00000000000E+00 -0.00000000000E+00 -0.75482791215E+03  0.75482791215E+03  0.00000000000E+00 0.  1.
        -24    2    1    2    0    0  0.20294403469E+03  0.61775431364E+03 -0.16099343970E+03  0.67437237256E+03  0.77798046329E+02 0.  0.
    5000000    2    1    2    0    0 -0.20294403469E+03 -0.61775431364E+03  0.24335542150E+03  0.91764543354E+03  0.60003717159E+03 0.  0.
        -24    2    4    4    0    0  0.20099002587E+02 -0.91819035956E+02  0.31284715587E+03  0.33659393037E+03  0.81162958017E+02 0.  0.
         24    2    4    4    0    0 -0.22304303728E+03 -0.52593527769E+03 -0.69491734366E+02  0.58105150317E+03  0.80222412113E+02 0.  0.
         11    1    3    3    0    0  0.19360369269E+03  0.49730209835E+03 -0.12205673152E+03  0.54743914050E+03  0.00000000000E+00 0. -1.
        -12    1    3    3    0    0  0.93403419986E+01  0.12045221529E+03 -0.38936708177E+02  0.12693323206E+03  0.00000000000E+00 0.  1.
         13    1    5    5    0    0  0.28493848603E+02 -0.20072926509E+02  0.34557495751E+02  0.49081995674E+02  0.00000000000E+00 0. -1.
        -14    1    5    5    0    0 -0.83948460159E+01 -0.71746109447E+02  0.27828966012E+03  0.28751193469E+03  0.00000000000E+00 0.  1.
          4    1    6    6  502    0 -0.40992751491E+02 -0.17688149371E+03 -0.16767874177E+01  0.18157720151E+03  0.00000000000E+00 0. -1.
         -1    1    6    6    0  502 -0.18205028578E+03 -0.34905378398E+03 -0.67814946949E+02  0.39947430167E+03  0.00000000000E+00 0.  1.
<mgrwt>
<rscale>  0 0.66840403E+03</rscale>
<asrwt>0</asrwt>
<pdfrwt beam="1">  1        1 0.12879844E+00 0.66840403E+03</pdfrwt>
<pdfrwt beam="2">  1       -2 0.11612737E+00 0.66840403E+03</pdfrwt>
<totfact> 0.10692030E+01</totfact>
</mgrwt>
</event>
<event>
12    3  0.2422421E-007  0.6126365E+03  0.7818608E-02  0.9879531E-01
         -2   -1    0    0    0  501 -0.00000000000E+00  0.00000000000E+00  0.67986153196E+03  0.67986153196E+03  0.00000000000E+00 0.  1.
          1   -1    0    0  501    0  0.00000000000E+00 -0.00000000000E+00 -0.77723185090E+03  0.77723185090E+03  0.00000000000E+00 0. -1.
        -24    2    1    2    0    0 -0.43363561913E+03 -0.29458276247E+03 -0.33490380461E+03  0.62572589655E+03  0.67479516500E+02 0.  0.
    5000000    2    1    2    0    0  0.43363561913E+03  0.29458276247E+03  0.23753348567E+03  0.83136748631E+03  0.59994240253E+03 0.  0.
        -24    2    4    4    0    0  0.52555221721E+03  0.20417944051E+03  0.24323249904E+02  0.57012545208E+03  0.80975512855E+02 0.  0.
         24    2    4    4    0    0 -0.91916598086E+02  0.90403321963E+02  0.21321023576E+03  0.26124203422E+03  0.78532631335E+02 0.  0.
         11    1    3    3    0    0 -0.26281755724E+03 -0.14900654358E+03 -0.16505879077E+03  0.34426795209E+03  0.00000000000E+00 0. -1.
        -12    1    3    3    0    0 -0.17081806188E+03 -0.14557621889E+03 -0.16984501385E+03  0.28145794446E+03  0.00000000000E+00 0.  1.
         13    1    5    5    0    0  0.24137080196E+03  0.65664508367E+02  0.41293478092E+02  0.25352878146E+03  0.00000000000E+00 0. -1.
        -14    1    5    5    0    0  0.28418141526E+03  0.13851493214E+03 -0.16970228188E+02  0.31659667062E+03  0.00000000000E+00 0.  1.
          2    1    6    6  502    0 -0.29356682525E+02  0.49936383538E+02  0.15864955272E+03  0.16889386546E+03  0.00000000000E+00 0. -1.
         -3    1    6    6    0  502 -0.62559915560E+02  0.40466938425E+02  0.54560683041E+02  0.92348168765E+02  0.00000000000E+00 0.  1.
<mgrwt>
<rscale>  0 0.61263647E+03</rscale>
<asrwt>0</asrwt>
<pdfrwt beam="1">  1        1 0.11957413E+00 0.61263647E+03</pdfrwt>
<pdfrwt beam="2">  1       -2 0.10459408E+00 0.61263647E+03</pdfrwt>
<totfact> 0.15607307E+01</totfact>
</mgrwt>
</event>
<event>
12    3  0.2422421E-007  0.7391743E+03  0.7818608E-02  0.9652489E-01
         -2   -1    0    0    0  501 -0.00000000000E+00  0.00000000000E+00  0.48889626563E+03  0.48889626563E+03  0.00000000000E+00 0.  1.
          1   -1    0    0  501    0  0.00000000000E+00 -0.00000000000E+00 -0.15353466463E+04  0.15353466463E+04  0.00000000000E+00 0. -1.
        -24    2    1    2    0    0  0.67157666475E+03 -0.11994860220E+03 -0.85339117491E+03  0.10953692538E+04  0.78450117666E+02 0.  0.
    5000000    2    1    2    0    0 -0.67157666475E+03  0.11994860220E+03 -0.19305920579E+03  0.92887365815E+03  0.60010960004E+03 0.  0.
        -24    2    4    4    0    0 -0.53880557279E+03 -0.78486110186E+02  0.84697024544E+02  0.55661797837E+03  0.78603264029E+02 0.  0.
         24    2    4    4    0    0 -0.13277109196E+03  0.19843471238E+03 -0.27775623033E+03  0.37225567978E+03  0.66492628908E+02 0.  0.
         11    1    5    5    0    0 -0.70856458991E+02 -0.32601381812E+02  0.28666925697E+02  0.83098017460E+02  0.00000000000E+00 0. -1.
        -12    1    5    5    0    0 -0.46794911380E+03 -0.45884728374E+02  0.56030098847E+02  0.47351996091E+03  0.00000000000E+00 0.  1.
         13    1    3    3    0    0  0.27346906057E+03 -0.21012816747E+02 -0.29947911549E+03  0.40609679409E+03  0.00000000000E+00 0. -1.
        -14    1    3    3    0    0  0.39810760418E+03 -0.98935785451E+02 -0.55391205943E+03  0.68927245972E+03  0.00000000000E+00 0.  1.
          2    1    6    6  502    0 -0.44746436390E+01  0.46907744788E+02 -0.35290378125E+02  0.58870788554E+02  0.00000000000E+00 0. -1.
         -1    1    6    6    0  502 -0.12829644832E+03  0.15152696760E+03 -0.24246585221E+03  0.31338489122E+03  0.00000000000E+00 0.  1.
<mgrwt>
<rscale>  0 0.73917429E+03</rscale>
<asrwt>0</asrwt>
<pdfrwt beam="1">  1        1 0.23620718E+00 0.73917429E+03</pdfrwt>
<pdfrwt beam="2">  1       -2 0.75214810E-01 0.73917429E+03</pdfrwt>
<totfact> 0.89072482E+00</totfact>
</mgrwt>
</event>
<event>
12    3  0.2422421E-007  0.3579556E+03  0.7818608E-02  0.1059396E+00
         -2   -1    0    0    0  501 -0.00000000000E+00  0.00000000000E+00  0.74268509013E+03  0.74268509013E+03  0.00000000000E+00 0.  1.
          1   -1    0    0  501    0  0.00000000000E+00 -0.00000000000E+00 -0.32736849620E+03  0.32736849620E+03  0.00000000000E+00 0. -1.
        -24    2    1    2    0    0 -0.64570703761E+02  0.28720815822E+03  0.50252612728E+02  0.30854674819E+03  0.77574923777E+02 0.  0.
    5000000    2    1    2    0    0  0.64570703761E+02 -0.28720815822E+03  0.36506398121E+03  0.76150683814E+03  0.59996920940E+03 0.  0.
        -24    2    4    4    0    0  0.11162476576E+03 -0.30912320511E+03  0.49477185112E+03  0.59934969017E+03  0.80022635452E+02 0.  0.
         24    2    4    4    0    0 -0.47054062000E+02  0.21915046890E+02 -0.12970786991E+03  0.16215714797E+03  0.82319226744E+02 0.  0.
         11    1    5    5    0    0  0.64692080517E+02 -0.73975748996E+02  0.15339936613E+03  0.18217805095E+03  0.00000000000E+00 0. -1.
        -12    1    5    5    0    0  0.46932685243E+02 -0.23514745611E+03  0.34137248499E+03  0.41717163922E+03  0.00000000000E+00 0.  1.
         11    1    3    3    0    0 -0.40651063046E+02  0.93596554612E+02 -0.14344220245E+02  0.10304649735E+03  0.00000000000E+00 0. -1.
        -12    1    3    3    0    0 -0.23919640714E+02  0.19361160360E+03  0.64596832973E+02  0.20550025083E+03  0.00000000000E+00 0.  1.
          2    1    6    6  502    0 -0.50294278467E+02  0.38807709195E+02 -0.50640504723E+02  0.81240466875E+02  0.00000000000E+00 0. -1.
         -1    1    6    6    0  502  0.32402164676E+01 -0.16892662305E+02 -0.79067365184E+02  0.80916681097E+02  0.00000000000E+00 0.  1.
<mgrwt>
<rscale>  0 0.35795561E+03</rscale>
<asrwt>0</asrwt>
<pdfrwt beam="1">  1        1 0.50364384E-01 0.35795561E+03</pdfrwt>
<pdfrwt beam="2">  1       -2 0.11425924E+00 0.35795561E+03</pdfrwt>
<totfact> 0.43011282E+01</totfact>
</mgrwt>
</event>
<event>
12    3  0.2422421E-007  0.1079423E+04  0.7818608E-02  0.9225483E-01
          1   -1    0    0  501    0  0.00000000000E+00  0.00000000000E+00  0.14294781853E+04  0.14294781853E+04  0.00000000000E+00 0. -1.
         -2   -1    0    0    0  501 -0.00000000000E+00 -0.00000000000E+00 -0.10270928088E+04  0.10270928088E+04  0.00000000000E+00 0.  1.
        -24    2    1    2    0    0 -0.68401961820E+03 -0.77458046868E+03  0.66737656098E+03  0.12326823219E+04  0.79097990729E+02 0.  0.
    5000000    2    1    2    0    0  0.68401961820E+03  0.77458046868E+03 -0.26499118444E+03  0.12238886722E+04  0.59985449370E+03 0.  0.
        -24    2    4    4    0    0  0.66482511246E+03  0.80168320784E+03 -0.35084225111E+03  0.11018727196E+04  0.79654310266E+02 0.  0.
         24    2    4    4    0    0  0.19194505732E+02 -0.27102739168E+02  0.85851066676E+02  0.12201595261E+03  0.80090570732E+02 0.  0.
         11    1    5    5    0    0  0.24109888636E+03  0.32728731804E+03 -0.10416991329E+03  0.41963916927E+03  0.00000000000E+00 0. -1.
        -12    1    5    5    0    0  0.42372622610E+03  0.47439588981E+03 -0.24667233783E+03  0.68223355033E+03  0.00000000000E+00 0.  1.
         11    1    3    3    0    0 -0.25823130996E+03 -0.29302540636E+03  0.20709318909E+03  0.44208018185E+03  0.00000000000E+00 0. -1.
        -12    1    3    3    0    0 -0.42578830824E+03 -0.48155506232E+03  0.46028337189E+03  0.79060214009E+03  0.00000000000E+00 0.  1.
          2    1    6    6  502    0 -0.29520530737E+02 -0.12251010177E+02  0.51408316723E+02  0.60533990564E+02  0.00000000000E+00 0. -1.
         -1    1    6    6    0  502  0.48715036469E+02 -0.14851728991E+02  0.34442749953E+02  0.61481962042E+02  0.00000000000E+00 0.  1.
<mgrwt>
<rscale>  0 0.10794225E+04</rscale>
<asrwt>0</asrwt>
<pdfrwt beam="1">  1        1 0.21991972E+00 0.10794225E+04</pdfrwt>
<pdfrwt beam="2">  1       -2 0.15801428E+00 0.10794225E+04</pdfrwt>
<totfact> 0.16545359E+00</totfact>
</mgrwt>
</event>
<event>
12    3  0.2422421E-007  0.1431668E+04  0.7818608E-02  0.8931209E-01
          1   -1    0    0  501    0  0.00000000000E+00  0.00000000000E+00  0.12231370256E+04  0.12231370256E+04  0.00000000000E+00 0. -1.
         -2   -1    0    0    0  501 -0.00000000000E+00 -0.00000000000E+00 -0.18149745854E+04  0.18149745854E+04  0.00000000000E+00 0.  1.
        -24    2    1    2    0    0 -0.11996687690E+04 -0.77501135155E+03 -0.30499802688E+03  0.14626428905E+04  0.80328565197E+02 0.  0.
    5000000    2    1    2    0    0  0.11996687690E+04  0.77501135155E+03 -0.28683953287E+03  0.15754687205E+04  0.59998085088E+03 0.  0.
        -24    2    4    4    0    0  0.74438835611E+03  0.52608077407E+03  0.10490897537E+03  0.92045571319E+03  0.73197139773E+02 0.  0.
         24    2    4    4    0    0  0.45528041285E+03  0.24893057749E+03 -0.39174850824E+03  0.65501300732E+03  0.79551614187E+02 0.  0.
         11    1    3    3    0    0 -0.26601434848E+03 -0.14615350362E+03 -0.39600685026E+02  0.30609262401E+03  0.00000000000E+00 0. -1.
        -12    1    3    3    0    0 -0.93365442047E+03 -0.62885784793E+03 -0.26539734186E+03  0.11565502665E+04  0.00000000000E+00 0.  1.
         13    1    5    5    0    0  0.47465599669E+03  0.36704923998E+03  0.92307417274E+02  0.60707834671E+03  0.00000000000E+00 0. -1.
        -14    1    5    5    0    0  0.26973235942E+03  0.15903153409E+03  0.12601558095E+02  0.31337736647E+03  0.00000000000E+00 0.  1.
          4    1    6    6  502    0  0.15444206382E+02  0.19597427862E+02 -0.39161673767E+02  0.46435109366E+02  0.00000000000E+00 0. -1.
         -3    1    6    6    0  502  0.43983620647E+03  0.22933314962E+03 -0.35258683447E+03  0.60857789795E+03  0.00000000000E+00 0.  1.
<mgrwt>
<rscale>  0 0.14316684E+04</rscale>
<asrwt>0</asrwt>
<pdfrwt beam="1">  1        1 0.18817493E+00 0.14316684E+04</pdfrwt>
<pdfrwt beam="2">  1       -2 0.27922686E+00 0.14316684E+04</pdfrwt>
<totfact> 0.36523839E-01</totfact>
</mgrwt>
</event>
<event>
12    3  0.2422421E-007  0.7678323E+03  0.7818608E-02  0.9607782E-01
         -4   -1    0    0    0  501 -0.00000000000E+00  0.00000000000E+00  0.18264449337E+04  0.18264449337E+04  0.00000000000E+00 0.  1.
          3   -1    0    0  501    0  0.00000000000E+00 -0.00000000000E+00 -0.43309200898E+03  0.43309200898E+03  0.00000000000E+00 0. -1.
        -24    2    1    2    0    0 -0.59519364028E+03  0.39505080369E+03  0.20210200497E+03  0.74643926924E+03  0.77496808414E+02 0.  0.
    5000000    2    1    2    0    0  0.59519364028E+03 -0.39505080369E+03  0.11912509198E+04  0.15130976735E+04  0.60005433810E+03 0.  0.
        -24    2    4    4    0    0  0.57689502861E+03 -0.44499427563E+03  0.70297356028E+03  0.10154792981E+04  0.78731181932E+02 0.  0.
         24    2    4    4    0    0  0.18298611667E+02  0.49943471938E+02  0.48827735950E+03  0.49761837539E+03  0.79875391357E+02 0.  0.
         11    1    3    3    0    0 -0.19100421908E+03  0.99881665472E+02  0.32441565636E+02  0.21797113108E+03  0.00000000000E+00 0. -1.
        -12    1    3    3    0    0 -0.40418942120E+03  0.29516913822E+03  0.16966043934E+03  0.52846813815E+03  0.00000000000E+00 0.  1.
         13    1    5    5    0    0  0.17359180087E+03 -0.95507688238E+02  0.21468953996E+03  0.29214282536E+03  0.00000000000E+00 0. -1.
        -14    1    5    5    0    0  0.40330322774E+03 -0.34948658739E+03  0.48828402032E+03  0.72333647273E+03  0.00000000000E+00 0.  1.
          4    1    6    6  502    0  0.67500610801E+01  0.66943894427E+02  0.26541785282E+03  0.27381323000E+03  0.00000000000E+00 0. -1.
         -3    1    6    6    0  502  0.11548550587E+02 -0.17000422490E+02  0.22285950668E+03  0.22380514539E+03  0.00000000000E+00 0.  1.
<mgrwt>
<rscale>  0 0.76783226E+03</rscale>
<asrwt>0</asrwt>
<pdfrwt beam="1">  1        3 0.66629541E-01 0.76783226E+03</pdfrwt>
<pdfrwt beam="2">  1       -4 0.28099152E+00 0.76783226E+03</pdfrwt>
<totfact> 0.20262107E-01</totfact>
</mgrwt>
</event>
<event>
12    3  0.2422421E-007  0.8305534E+03  0.7818608E-02  0.9516816E-01
          1   -1    0    0  501    0  0.00000000000E+00  0.00000000000E+00  0.25976771271E+04  0.25976771271E+04  0.00000000000E+00 0. -1.
         -2   -1    0    0    0  501 -0.00000000000E+00 -0.00000000000E+00 -0.27767935457E+03  0.27767935457E+03  0.00000000000E+00 0.  1.
        -24    2    1    2    0    0 -0.66218394473E+02  0.73535404540E+03  0.91298246517E+03  0.11768767473E+04  0.79821354854E+02 0.  0.
    5000000    2    1    2    0    0  0.66218394473E+02 -0.73535404540E+03  0.14070153074E+04  0.16984797344E+04  0.60000907091E+03 0.  0.
        -24    2    4    4    0    0 -0.18747439110E+03 -0.60238735080E+03  0.79521944634E+03  0.10181842791E+04  0.79423489710E+02 0.  0.
         24    2    4    4    0    0  0.25369278557E+03 -0.13296669460E+03  0.61179586102E+03  0.68029545527E+03  0.80421138822E+02 0.  0.
         11    1    3    3    0    0 -0.18822313268E+02  0.27657298041E+03  0.40453869464E+03  0.49040641150E+03  0.00000000000E+00 0. -1.
        -12    1    3    3    0    0 -0.47396081205E+02  0.45878106499E+03  0.50844377052E+03  0.68647033577E+03  0.00000000000E+00 0.  1.
         11    1    5    5    0    0 -0.15965082051E+03 -0.38723932408E+03  0.51683423413E+03  0.66525206063E+03  0.00000000000E+00 0. -1.
        -12    1    5    5    0    0 -0.27823570593E+02 -0.21514802672E+03  0.27838521222E+03  0.35293221851E+03  0.00000000000E+00 0.  1.
          4    1    6    6  502    0  0.26703866334E+02 -0.19762214419E+02  0.26828132829E+02  0.42701174539E+02  0.00000000000E+00 0. -1.
         -3    1    6    6    0  502  0.22698891924E+03 -0.11320448018E+03  0.58496772819E+03  0.63759428073E+03  0.00000000000E+00 0.  1.
<mgrwt>
<rscale>  0 0.83055342E+03</rscale>
<asrwt>0</asrwt>
<pdfrwt beam="1">  1        1 0.39964262E+00 0.83055342E+03</pdfrwt>
<pdfrwt beam="2">  1       -2 0.42719903E-01 0.83055342E+03</pdfrwt>
<totfact> 0.55063692E+00</totfact>
</mgrwt>
</event>
<event>
12    3  0.2422421E-007  0.6016257E+03  0.7818608E-02  0.9902039E-01
          1   -1    0    0  501    0  0.00000000000E+00  0.00000000000E+00  0.70263072808E+03  0.70263072808E+03  0.00000000000E+00 0. -1.
         -2   -1    0    0    0  501 -0.00000000000E+00 -0.00000000000E+00 -0.77347461542E+03  0.77347461542E+03  0.00000000000E+00 0.  1.
        -24    2    1    2    0    0  0.45911089906E+03 -0.37727229884E+03 -0.17563995541E+03  0.62499234727E+03  0.81540389360E+02 0.  0.
    5000000    2    1    2    0    0 -0.45911089906E+03  0.37727229884E+03  0.10479606807E+03  0.85111299622E+03  0.60024487615E+03 0.  0.
        -24    2    4    4    0    0 -0.19150464612E+03  0.22822411213E+03 -0.23439719359E+03  0.38722377641E+03  0.78993251675E+02 0.  0.
         24    2    4    4    0    0 -0.26760625294E+03  0.14904818672E+03  0.33919326166E+03  0.46388921981E+03  0.79452318591E+02 0.  0.
         11    1    5    5    0    0 -0.13521175663E+03  0.16457006533E+03 -0.11920511376E+03  0.24408069297E+03  0.00000000000E+00 0. -1.
        -12    1    5    5    0    0 -0.56292889493E+02  0.63654046801E+02 -0.11519207983E+03  0.14314308344E+03  0.00000000000E+00 0.  1.
         13    1    3    3    0    0  0.36622435849E+03 -0.33194087509E+03 -0.12468243585E+03  0.50975556409E+03  0.00000000000E+00 0. -1.
        -14    1    3    3    0    0  0.92886540570E+02 -0.45331423755E+02 -0.50957519560E+02  0.11523678318E+03  0.00000000000E+00 0.  1.
          4    1    6    6  502    0 -0.24485536575E+03  0.12641436886E+03  0.26176265672E+03  0.38007161331E+03  0.00000000000E+00 0. -1.
         -3    1    6    6    0  502 -0.22750887186E+02  0.22633817859E+02  0.77430604941E+02  0.83817606505E+02  0.00000000000E+00 0.  1.
<mgrwt>
<rscale>  0 0.60162566E+03</rscale>
<asrwt>0</asrwt>
<pdfrwt beam="1">  1        1 0.10809704E+00 0.60162566E+03</pdfrwt>
<pdfrwt beam="2">  1       -2 0.11899609E+00 0.60162566E+03</pdfrwt>
<totfact> 0.13351650E+01</totfact>
</mgrwt>
</event>
<event>
12    3  0.2422421E-007  0.5332428E+03  0.7818608E-02  0.1005449E+00
         -2   -1    0    0    0  501 -0.00000000000E+00  0.00000000000E+00  0.99819534539E+03  0.99819534539E+03  0.00000000000E+00 0.  1.
          1   -1    0    0  501    0  0.00000000000E+00 -0.00000000000E+00 -0.45357575986E+03  0.45357575986E+03  0.00000000000E+00 0. -1.
        -24    2    1    2    0    0 -0.27766081425E+03  0.31805441129E+03  0.57468203352E+03  0.71752042728E+03  0.79510927607E+02 0.  0.
    5000000    2    1    2    0    0  0.27766081425E+03 -0.31805441129E+03 -0.30062447985E+02  0.73425067796E+03  0.59997180850E+03 0.  0.
        -24    2    4    4    0    0  0.41074721705E+03 -0.23706306901E+03 -0.16998649331E+03  0.51005873458E+03  0.79701504459E+02 0.  0.
         24    2    4    4    0    0 -0.13308640280E+03 -0.80991342277E+02  0.13992404533E+03  0.22419194338E+03  0.80073097111E+02 0.  0.
         11    1    5    5    0    0  0.86365187814E+02 -0.28715035240E+02 -0.60489846064E+02  0.10928183926E+03  0.00000000000E+00 0. -1.
        -12    1    5    5    0    0  0.32438202924E+03 -0.20834803377E+03 -0.10949664725E+03  0.40077689532E+03  0.00000000000E+00 0.  1.
         13    1    3    3    0    0 -0.77170494054E+01 -0.30365150894E+00  0.61190985772E+00  0.77472246281E+01  0.00000000000E+00 0. -1.
        -14    1    3    3    0    0 -0.26994376485E+03  0.31835806279E+03  0.57407012366E+03  0.70977320266E+03  0.00000000000E+00 0.  1.
          4    1    6    6  502    0 -0.24482479794E+02  0.65329528506E+01  0.55853523023E+02  0.61332595934E+02  0.00000000000E+00 0. -1.
         -3    1    6    6    0  502 -0.10860392300E+03 -0.87524295128E+02  0.84070522306E+02  0.16285934745E+03  0.00000000000E+00 0.  1.
<mgrwt>
<rscale>  0 0.53324283E+03</rscale>
<asrwt>0</asrwt>
<pdfrwt beam="1">  1        1 0.69780887E-01 0.53324283E+03</pdfrwt>
<pdfrwt beam="2">  1       -2 0.15356851E+00 0.53324283E+03</pdfrwt>
<totfact> 0.13022183E+01</totfact>
</mgrwt>
</event>
<event>
12    3  0.2422421E-007  0.9468598E+03  0.7818608E-02  0.9368829E-01
         -2   -1    0    0    0  501 -0.00000000000E+00  0.00000000000E+00  0.51954948569E+03  0.51954948569E+03  0.00000000000E+00 0.  1.
          1   -1    0    0  501    0  0.00000000000E+00 -0.00000000000E+00 -0.19109706947E+04  0.19109706947E+04  0.00000000000E+00 0. -1.
        -24    2    1    2    0    0 -0.78184077008E+03  0.35543146557E+03 -0.97866592179E+03  0.13045404915E+04  0.80202188625E+02 0.  0.
    5000000    2    1    2    0    0  0.78184077008E+03 -0.35543146557E+03 -0.41275528720E+03  0.11259796889E+04  0.59988066824E+03 0.  0.
        -24    2    4    4    0    0 -0.47316244238E+02 -0.16981125997E+03 -0.70656312720E+02  0.20649957927E+03  0.81086809835E+02 0.  0.
         24    2    4    4    0    0  0.82915701431E+03 -0.18562020561E+03 -0.34209897448E+03  0.91948010959E+03  0.80347672516E+02 0.  0.
         11    1    3    3    0    0 -0.22862614517E+03  0.14288762679E+03 -0.32294655108E+03  0.42069141066E+03  0.00000000000E+00 0. -1.
        -12    1    3    3    0    0 -0.55321462490E+03  0.21254383878E+03 -0.65571937070E+03  0.88384908086E+03  0.00000000000E+00 0.  1.
         13    1    5    5    0    0  0.87457574850E+01 -0.23577477693E+02 -0.39489377194E+02  0.46816627810E+02  0.00000000000E+00 0. -1.
        -14    1    5    5    0    0 -0.56062001723E+02 -0.14623378227E+03 -0.31166935526E+02  0.15968295146E+03  0.00000000000E+00 0.  1.
          4    1    6    6  502    0  0.37873951400E+03 -0.88791418431E+02 -0.19966494751E+03  0.43725693444E+03  0.00000000000E+00 0. -1.
         -3    1    6    6    0  502  0.45041750031E+03 -0.96828787175E+02 -0.14243402698E+03  0.48222317515E+03  0.00000000000E+00 0.  1.
<mgrwt>
<rscale>  0 0.94685976E+03</rscale>
<asrwt>0</asrwt>
<pdfrwt beam="1">  1        1 0.29399549E+00 0.94685976E+03</pdfrwt>
<pdfrwt beam="2">  1       -2 0.79930690E-01 0.94685976E+03</pdfrwt>
<totfact> 0.42178104E+00</totfact>
</mgrwt>
</event>
<event>
12    3  0.2422421E-007  0.1371509E+04  0.7818608E-02  0.8974704E-01
         -2   -1    0    0    0  501 -0.00000000000E+00  0.00000000000E+00  0.56061028738E+03  0.56061028738E+03  0.00000000000E+00 0.  1.
          1   -1    0    0  501    0  0.00000000000E+00 -0.00000000000E+00 -0.44550698683E+04  0.44550698683E+04  0.00000000000E+00 0. -1.
        -24    2    1    2    0    0 -0.13329703205E+04  0.88808861926E+02 -0.72009668933E+03  0.15197533537E+04  0.80088232682E+02 0.  0.
    5000000    2    1    2    0    0  0.13329703205E+04 -0.88808861926E+02 -0.31743628916E+04  0.34959268019E+04  0.60018959336E+03 0.  0.
        -24    2    4    4    0    0  0.64851997955E+03  0.16625030198E+03 -0.20108947217E+04  0.21212230845E+04  0.87592610277E+02 0.  0.
         24    2    4    4    0    0  0.68445034091E+03 -0.25505916390E+03 -0.11634681698E+04  0.13747037175E+04  0.51231654002E+02 0.  0.
         11    1    3    3    0    0 -0.53842557957E+03 -0.88447445080E+00 -0.30574877321E+03  0.61918107153E+03  0.00000000000E+00 0. -1.
        -12    1    3    3    0    0 -0.79454474089E+03  0.89693336377E+02 -0.41434791613E+03  0.90057228220E+03  0.00000000000E+00 0.  1.
         13    1    5    5    0    0  0.24474344605E+03  0.96919764390E+02 -0.87302854596E+03  0.91185066605E+03  0.00000000000E+00 0. -1.
        -14    1    5    5    0    0  0.40377653350E+03  0.69330537586E+02 -0.11378661758E+04  0.12093724184E+04  0.00000000000E+00 0.  1.
          4    1    6    6  502    0  0.49650084935E+03 -0.20813686508E+03 -0.84348203744E+03  0.10006477879E+04  0.00000000000E+00 0. -1.
         -3    1    6    6    0  502  0.18794949156E+03 -0.46922298823E+02 -0.31998613240E+03  0.37405592955E+03  0.00000000000E+00 0.  1.
<mgrwt>
<rscale>  0 0.13715094E+04</rscale>
<asrwt>0</asrwt>
<pdfrwt beam="1">  1        1 0.68539534E+00 0.13715094E+04</pdfrwt>
<pdfrwt beam="2">  1       -2 0.86247739E-01 0.13715094E+04</pdfrwt>
<totfact> 0.36523170E-02</totfact>
</mgrwt>
</event>
<event>
12    3  0.2422421E-007  0.1226184E+04  0.7818608E-02  0.9090242E-01
          1   -1    0    0  501    0  0.00000000000E+00  0.00000000000E+00  0.33584825992E+04  0.33584825992E+04  0.00000000000E+00 0. -1.
         -2   -1    0    0    0  501 -0.00000000000E+00 -0.00000000000E+00 -0.51505823736E+03  0.51505823736E+03  0.00000000000E+00 0.  1.
        -24    2    1    2    0    0 -0.11557930344E+04  0.58242717049E+02  0.20268323012E+04  0.23353169599E+04  0.80039824685E+02 0.  0.
    5000000    2    1    2    0    0  0.11557930344E+04 -0.58242717049E+02  0.81659206067E+03  0.15382238767E+04  0.60005028860E+03 0.  0.
        -24    2    4    4    0    0  0.16314482457E+03 -0.22451829733E+03  0.23831235699E+03  0.37466466616E+03  0.80969950940E+02 0.  0.
         24    2    4    4    0    0  0.99264820981E+03  0.16627558028E+03  0.57827970368E+03  0.11635592105E+04  0.80402634767E+02 0.  0.
         13    1    3    3    0    0 -0.66176436594E+03 -0.56417510429E+01  0.11710594729E+04  0.13451186544E+04  0.00000000000E+00 0. -1.
        -14    1    3    3    0    0 -0.49402866845E+03  0.63884468092E+02  0.85577282823E+03  0.99019830541E+03  0.00000000000E+00 0.  1.
         13    1    5    5    0    0  0.13570057372E+03 -0.21498896308E+03  0.18664803679E+03  0.31539243744E+03  0.00000000000E+00 0. -1.
        -14    1    5    5    0    0  0.27444250850E+02 -0.95293342450E+01  0.51664320202E+02  0.59272228723E+02  0.00000000000E+00 0.  1.
          2    1    6    6  502    0  0.64266948638E+03  0.14308237302E+03  0.35918711900E+03  0.75000801372E+03  0.00000000000E+00 0. -1.
         -1    1    6    6    0  502  0.34997872343E+03  0.23193207261E+02  0.21909258468E+03  0.41355119681E+03  0.00000000000E+00 0.  1.
<mgrwt>
<rscale>  0 0.12261835E+04</rscale>
<asrwt>0</asrwt>
<pdfrwt beam="1">  1        1 0.51668962E+00 0.12261835E+04</pdfrwt>
<pdfrwt beam="2">  1       -2 0.79239731E-01 0.12261835E+04</pdfrwt>
<totfact> 0.39828852E-01</totfact>
</mgrwt>
</event>
<event>
12    3  0.2422421E-007  0.5282586E+03  0.7818608E-02  0.1006655E+00
          1   -1    0    0  501    0  0.00000000000E+00  0.00000000000E+00  0.15622499323E+04  0.15622499323E+04  0.00000000000E+00 0. -1.
         -2   -1    0    0    0  501 -0.00000000000E+00 -0.00000000000E+00 -0.29195712969E+03  0.29195712969E+03  0.00000000000E+00 0.  1.
        -24    2    1    2    0    0  0.61773627443E+02  0.51048719889E+03  0.73182656056E+03  0.89800249565E+03  0.80157383726E+02 0.  0.
    5000000    2    1    2    0    0 -0.61773627443E+02 -0.51048719889E+03  0.53846624210E+03  0.95620456639E+03  0.59997343076E+03 0.  0.
        -24    2    4    4    0    0  0.42967746502E+02 -0.18701020356E+03  0.56882697390E+03  0.60565039595E+03  0.80182494398E+02 0.  0.
         24    2    4    4    0    0 -0.10474137394E+03 -0.32347699533E+03 -0.30360731790E+02  0.35055417044E+03  0.79739140025E+02 0.  0.
         11    1    3    3    0    0  0.36502405454E+02  0.40498367264E+03  0.52097029626E+03  0.66087385354E+03  0.00000000000E+00 0. -1.
        -12    1    3    3    0    0  0.25271221989E+02  0.10550352625E+03  0.21085626430E+03  0.23712864210E+03  0.00000000000E+00 0.  1.
         11    1    5    5    0    0  0.14563350967E+02 -0.15166089998E+03  0.34300924544E+03  0.37532447593E+03  0.00000000000E+00 0. -1.
        -12    1    5    5    0    0  0.28404395534E+02 -0.35349303587E+02  0.22581772845E+03  0.23032592002E+03  0.00000000000E+00 0.  1.
          4    1    6    6  502    0 -0.39849656823E+02 -0.20282164255E+03  0.12305490351E+02  0.20706530112E+03  0.00000000000E+00 0. -1.
         -3    1    6    6    0  502 -0.64891717122E+02 -0.12065535278E+03 -0.42666222142E+02  0.14348886931E+03  0.00000000000E+00 0.  1.
<mgrwt>
<rscale>  0 0.52825862E+03</rscale>
<asrwt>0</asrwt>
<pdfrwt beam="1">  1        1 0.24034614E+00 0.52825862E+03</pdfrwt>
<pdfrwt beam="2">  1       -2 0.44916482E-01 0.52825862E+03</pdfrwt>
<totfact> 0.25983543E+01</totfact>
</mgrwt>
</event>
<event>
12    3  0.2422421E-007  0.8923567E+03  0.7818608E-02  0.9435187E-01
         -2   -1    0    0    0  501 -0.00000000000E+00  0.00000000000E+00  0.42407017712E+03  0.42407017712E+03  0.00000000000E+00 0.  1.
          1   -1    0    0  501    0  0.00000000000E+00 -0.00000000000E+00 -0.22660939240E+04  0.22660939240E+04  0.00000000000E+00 0. -1.
        -24    2    1    2    0    0  0.31608286479E+02 -0.88617621016E+03 -0.85620977297E+03  0.12347832767E+04  0.72713174749E+02 0.  0.
    5000000    2    1    2    0    0 -0.31608286479E+02  0.88617621016E+03 -0.98581397389E+03  0.14553808244E+04  0.59999732814E+03 0.  0.
        -24    2    4    4    0    0 -0.69094502505E+02  0.37232947247E+03 -0.82477966911E+03  0.90994387454E+03  0.65826027389E+02 0.  0.
         24    2    4    4    0    0  0.37486216026E+02  0.51384673769E+03 -0.16103430478E+03  0.54543694990E+03  0.78267060553E+02 0.  0.
         13    1    5    5    0    0 -0.33838941089E+02  0.24482695018E+03 -0.46478271515E+03  0.52641075385E+03  0.00000000000E+00 0. -1.
        -14    1    5    5    0    0 -0.35255561416E+02  0.12750252229E+03 -0.35999695396E+03  0.38353312069E+03  0.00000000000E+00 0.  1.
         13    1    3    3    0    0 -0.21467189453E+02 -0.25027725333E+03 -0.25888875957E+03  0.36072556547E+03  0.00000000000E+00 0. -1.
        -14    1    3    3    0    0  0.53075475931E+02 -0.63589895683E+03 -0.59732101341E+03  0.87405771119E+03  0.00000000000E+00 0.  1.
          4    1    6    6  502    0  0.94516515688E+01  0.31612554232E+03 -0.13565393665E+03  0.34413178109E+03  0.00000000000E+00 0. -1.
         -3    1    6    6    0  502  0.28034564458E+02  0.19772119537E+03 -0.25380368131E+02  0.20130516881E+03  0.00000000000E+00 0.  1.
<mgrwt>
<rscale>  0 0.89235667E+03</rscale>
<asrwt>0</asrwt>
<pdfrwt beam="1">  1        1 0.34862983E+00 0.89235667E+03</pdfrwt>
<pdfrwt beam="2">  1       -2 0.65241567E-01 0.89235667E+03</pdfrwt>
<totfact> 0.38337252E+00</totfact>
</mgrwt>
</event>
<event>
12    3  0.2422421E-007  0.9076101E+03  0.7818608E-02  0.9416118E-01
          1   -1    0    0  501    0  0.00000000000E+00  0.00000000000E+00  0.68992234042E+03  0.68992234042E+03  0.00000000000E+00 0. -1.
         -2   -1    0    0    0  501 -0.00000000000E+00 -0.00000000000E+00 -0.12168731056E+04  0.12168731056E+04  0.00000000000E+00 0.  1.
        -24    2    1    2    0    0 -0.76108247974E+03 -0.27677351458E+03 -0.33916785783E+03  0.88147487568E+03  0.78185684967E+02 0.  0.
    5000000    2    1    2    0    0  0.76108247974E+03  0.27677351458E+03 -0.18778290733E+03  0.10253205703E+04  0.60014142693E+03 0.  0.
        -24    2    4    4    0    0  0.54096512266E+03 -0.10787441809E+03 -0.92024693571E+02  0.56488110276E+03  0.79636436457E+02 0.  0.
         24    2    4    4    0    0  0.22011735708E+03  0.38464793267E+03 -0.95758213760E+02  0.46043946757E+03  0.80182197533E+02 0.  0.
         11    1    3    3    0    0 -0.65170400506E+03 -0.24362213110E+03 -0.26140908098E+03  0.74323923510E+03  0.00000000000E+00 0. -1.
        -12    1    3    3    0    0 -0.10937847468E+03 -0.33151383474E+02 -0.77758776849E+02  0.13823564058E+03  0.00000000000E+00 0.  1.
         13    1    5    5    0    0  0.44346341029E+03 -0.56359124862E+02 -0.76156352278E+02  0.45347098828E+03  0.00000000000E+00 0. -1.
        -14    1    5    5    0    0  0.97501712367E+02 -0.51515293232E+02 -0.15868341293E+02  0.11141011447E+03  0.00000000000E+00 0.  1.
          4    1    6    6  502    0  0.17768292270E+03  0.35210019988E+03 -0.68092305781E+02  0.40022785246E+03  0.00000000000E+00 0. -1.
         -3    1    6    6    0  502  0.42434434373E+02  0.32547732790E+02 -0.27665907979E+02  0.60211615113E+02  0.00000000000E+00 0.  1.
<mgrwt>
<rscale>  0 0.90761007E+03</rscale>
<asrwt>0</asrwt>
<pdfrwt beam="1">  1        1 0.10614190E+00 0.90761007E+03</pdfrwt>
<pdfrwt beam="2">  1       -2 0.18721125E+00 0.90761007E+03</pdfrwt>
<totfact> 0.39740356E+00</totfact>
</mgrwt>
</event>
<event>
12    3  0.2422421E-007  0.7786591E+03  0.7818608E-02  0.9591431E-01
         -2   -1    0    0    0  501 -0.00000000000E+00  0.00000000000E+00  0.10073990010E+04  0.10073990010E+04  0.00000000000E+00 0.  1.
          1   -1    0    0  501    0  0.00000000000E+00 -0.00000000000E+00 -0.64793467119E+03  0.64793467119E+03  0.00000000000E+00 0. -1.
        -24    2    1    2    0    0  0.39981883491E+03 -0.56435376595E+03  0.21408940629E+03  0.72826661233E+03  0.78662003875E+02 0.  0.
    5000000    2    1    2    0    0 -0.39981883491E+03  0.56435376595E+03  0.14537492349E+03  0.92706705981E+03  0.59997432538E+03 0.  0.
        -24    2    4    4    0    0 -0.26637866549E+03  0.63599701645E+03 -0.10814401348E+02  0.69511654412E+03  0.87294102128E+02 0.  0.
         24    2    4    4    0    0 -0.13344016943E+03 -0.71643250499E+02  0.15618932483E+03  0.23195051570E+03  0.80417052803E+02 0.  0.
         13    1    3    3    0    0  0.41728502140E+02 -0.10952338248E+03  0.34867425916E+02  0.12227991082E+03  0.00000000000E+00 0. -1.
        -14    1    3    3    0    0  0.35809033277E+03 -0.45483038347E+03  0.17922198037E+03  0.60598670151E+03  0.00000000000E+00 0.  1.
         13    1    5    5    0    0 -0.20613474544E+02  0.13709938267E+03 -0.95393263250E+01  0.13896817912E+03  0.00000000000E+00 0. -1.
        -14    1    5    5    0    0 -0.24576519094E+03  0.49889763378E+03 -0.12750750230E+01  0.55614836500E+03  0.00000000000E+00 0.  1.
          2    1    6    6  502    0  0.76390416336E+01 -0.97626127547E+01 -0.24132490519E+00  0.12398459686E+02  0.00000000000E+00 0. -1.
         -1    1    6    6    0  502 -0.14107921106E+03 -0.61880637744E+02  0.15643064974E+03  0.21955205601E+03  0.00000000000E+00 0.  1.
<mgrwt>
<rscale>  0 0.77865912E+03</rscale>
<asrwt>0</asrwt>
<pdfrwt beam="1">  1        1 0.99682257E-01 0.77865912E+03</pdfrwt>
<pdfrwt beam="2">  1       -2 0.15498446E+00 0.77865912E+03</pdfrwt>
<totfact> 0.74932860E+00</totfact>
</mgrwt>
</event>
<event>
12    3  0.2422421E-007  0.4309547E+03  0.7818608E-02  0.1033559E+00
         -2   -1    0    0    0  501 -0.00000000000E+00  0.00000000000E+00  0.23847639786E+03  0.23847639786E+03  0.00000000000E+00 0.  1.
          1   -1    0    0  501    0  0.00000000000E+00 -0.00000000000E+00 -0.83322802457E+03  0.83322802457E+03  0.00000000000E+00 0. -1.
        -24    2    1    2    0    0  0.14481337552E+03  0.17505501622E+03 -0.95495437946E+02  0.25902957519E+03  0.79760702850E+02 0.  0.
    5000000    2    1    2    0    0 -0.14481337552E+03 -0.17505501622E+03 -0.49925618877E+03  0.81267484724E+03  0.59964030292E+03 0.  0.
        -24    2    4    4    0    0 -0.36320833282E+03 -0.91995648512E+02 -0.22969032956E+03  0.44662565536E+03  0.79582260312E+02 0.  0.
         24    2    4    4    0    0  0.21839495730E+03 -0.83059367713E+02 -0.26956585920E+03  0.36604919188E+03  0.82042930767E+02 0.  0.
         13    1    3    3    0    0  0.88008517454E+02  0.52139684051E+02 -0.20801281579E+02  0.10438744710E+03  0.00000000000E+00 0. -1.
        -14    1    3    3    0    0  0.56804858062E+02  0.12291533217E+03 -0.74694156368E+02  0.15464212808E+03  0.00000000000E+00 0.  1.
         13    1    5    5    0    0 -0.14303141357E+03 -0.70097534661E+02 -0.71304912918E+02  0.17451659016E+03  0.00000000000E+00 0. -1.
        -14    1    5    5    0    0 -0.22017691924E+03 -0.21898113851E+02 -0.15838541665E+03  0.27210906520E+03  0.00000000000E+00 0.  1.
          2    1    6    6  502    0  0.14072955396E+03 -0.87763482296E+02 -0.15138429150E+03  0.22455386858E+03  0.00000000000E+00 0. -1.
         -1    1    6    6    0  502  0.77665403341E+02  0.47041145831E+01 -0.11818156771E+03  0.14149532330E+03  0.00000000000E+00 0.  1.
<mgrwt>
<rscale>  0 0.43095470E+03</rscale>
<asrwt>0</asrwt>
<pdfrwt beam="1">  1        1 0.12818893E+00 0.43095470E+03</pdfrwt>
<pdfrwt beam="2">  1       -2 0.36688676E-01 0.43095470E+03</pdfrwt>
<totfact> 0.13223830E+02</totfact>
</mgrwt>
</event>
<event>
12    3  0.2422421E-007  0.5378720E+03  0.7818608E-02  0.1004341E+00
          1   -1    0    0  501    0  0.00000000000E+00  0.00000000000E+00  0.11017335915E+04  0.11017335915E+04  0.00000000000E+00 0. -1.
         -2   -1    0    0    0  501 -0.00000000000E+00 -0.00000000000E+00 -0.63181192879E+03  0.63181192879E+03  0.00000000000E+00 0.  1.
        -24    2    1    2    0    0  0.40697638099E+03  0.82119397854E+02 -0.41106036534E+03  0.58968276228E+03  0.79885956150E+02 0.  0.
    5000000    2    1    2    0    0 -0.40697638099E+03 -0.82119397854E+02  0.88098202809E+03  0.11438627580E+04  0.59993275060E+03 0.  0.
        -24    2    4    4    0    0 -0.51033559346E+03 -0.14475456225E+03  0.48642811073E+03  0.72373888288E+03  0.76087859945E+02 0.  0.
         24    2    4    4    0    0  0.10335921246E+03  0.62635164401E+02  0.39455391735E+03  0.42012387517E+03  0.78898581552E+02 0.  0.
         11    1    3    3    0    0  0.10555228743E+03  0.17515624090E+02 -0.15814377838E+03  0.19093856894E+03  0.00000000000E+00 0. -1.
        -12    1    3    3    0    0  0.30142409356E+03  0.64603773763E+02 -0.25291658696E+03  0.39874419334E+03  0.00000000000E+00 0.  1.
         11    1    5    5    0    0 -0.14093400819E+03 -0.26768501739E+02  0.17565631175E+03  0.22679084463E+03  0.00000000000E+00 0. -1.
        -12    1    5    5    0    0 -0.36940158527E+03 -0.11798606052E+03  0.31077179899E+03  0.49694803825E+03  0.00000000000E+00 0.  1.
          2    1    6    6  502    0  0.41252054166E+02  0.31227520318E+00  0.22856014366E+03  0.23225324273E+03  0.00000000000E+00 0. -1.
         -1    1    6    6    0  502  0.62107158296E+02  0.62322889198E+02  0.16599377370E+03  0.18787063245E+03  0.00000000000E+00 0.  1.
<mgrwt>
<rscale>  0 0.53787198E+03</rscale>
<asrwt>0</asrwt>
<pdfrwt beam="1">  1        1 0.16949748E+00 0.53787198E+03</pdfrwt>
<pdfrwt beam="2">  1       -2 0.97201835E-01 0.53787198E+03</pdfrwt>
<totfact> 0.10352950E+01</totfact>
</mgrwt>
</event>
<event>
12    3  0.2422421E-007  0.5697926E+03  0.7818608E-02  0.9970138E-01
         -2   -1    0    0    0  501 -0.00000000000E+00  0.00000000000E+00  0.17464207228E+04  0.17464207228E+04  0.00000000000E+00 0.  1.
          1   -1    0    0  501    0  0.00000000000E+00 -0.00000000000E+00 -0.25577941415E+03  0.25577941415E+03  0.00000000000E+00 0. -1.
        -24    2    1    2    0    0 -0.52066470439E+03 -0.85116899336E+02  0.67292094917E+03  0.85895708506E+03  0.81535570111E+02 0.  0.
    5000000    2    1    2    0    0  0.52066470439E+03  0.85116899336E+02  0.81772035952E+03  0.11432430519E+04  0.60000122369E+03 0.  0.
        -24    2    4    4    0    0  0.50573872637E+03  0.19179889472E+02  0.25881809903E+03  0.57408144140E+03  0.80269330810E+02 0.  0.
         24    2    4    4    0    0  0.14925978026E+02  0.65937009864E+02  0.55890226049E+03  0.56916161051E+03  0.83682304072E+02 0.  0.
         13    1    5    5    0    0  0.14694903964E+03  0.14288641030E+01  0.11711369450E+03  0.18791402114E+03  0.00000000000E+00 0. -1.
        -14    1    5    5    0    0  0.35878968673E+03  0.17751025369E+02  0.14170440453E+03  0.38616742026E+03  0.00000000000E+00 0.  1.
         13    1    3    3    0    0 -0.41938182891E+03 -0.10083119074E+03  0.54597949884E+03  0.69580288919E+03  0.00000000000E+00 0. -1.
        -14    1    3    3    0    0 -0.10128287548E+03  0.15714291400E+02  0.12694145032E+03  0.16315419587E+03  0.00000000000E+00 0.  1.
          4    1    6    6  502    0  0.20569593282E+02 -0.10385178783E+02  0.24431573177E+03  0.24539995292E+03  0.00000000000E+00 0. -1.
         -3    1    6    6    0  502 -0.56436152559E+01  0.76322188647E+02  0.31458652872E+03  0.32376165759E+03  0.00000000000E+00 0.  1.
<mgrwt>
<rscale>  0 0.56979260E+03</rscale>
<asrwt>0</asrwt>
<pdfrwt beam="1">  1        1 0.39350680E-01 0.56979260E+03</pdfrwt>
<pdfrwt beam="2">  1       -2 0.26868010E+00 0.56979260E+03</pdfrwt>
<totfact> 0.49425076E+00</totfact>
</mgrwt>
</event>
<event>
12    3  0.2422421E-007  0.7464040E+03  0.7818608E-02  0.9641009E-01
          1   -1    0    0  501    0  0.00000000000E+00  0.00000000000E+00  0.57032028516E+03  0.57032028516E+03  0.00000000000E+00 0. -1.
         -2   -1    0    0    0  501 -0.00000000000E+00 -0.00000000000E+00 -0.11133906299E+04  0.11133906299E+04  0.00000000000E+00 0.  1.
        -24    2    1    2    0    0 -0.19364389901E+03 -0.64489793742E+03 -0.12870715912E+03  0.69124930488E+03  0.88706027810E+02 0.  0.
    5000000    2    1    2    0    0  0.19364389901E+03  0.64489793742E+03 -0.41436318559E+03  0.99246161016E+03  0.59990990052E+03 0.  0.
        -24    2    4    4    0    0 -0.13679697918E+03  0.12927433385E+03  0.60601085102E+02  0.21317186021E+03  0.79652266524E+02 0.  0.
         24    2    4    4    0    0  0.33044087820E+03  0.51562360357E+03 -0.47496427070E+03  0.77928974995E+03  0.81502033107E+02 0.  0.
         11    1    5    5    0    0 -0.11169729417E+03  0.13686132407E+03  0.61163312219E+02  0.18694453271E+03  0.00000000000E+00 0. -1.
        -12    1    5    5    0    0 -0.25099685010E+02 -0.75869902127E+01 -0.56222711687E+00  0.26227327493E+02  0.00000000000E+00 0.  1.
         13    1    3    3    0    0 -0.82316011672E+02 -0.36707812173E+03 -0.35942435379E+02  0.37790757057E+03  0.00000000000E+00 0. -1.
        -14    1    3    3    0    0 -0.11132788734E+03 -0.27781981569E+03 -0.92764723737E+02  0.31334173431E+03  0.00000000000E+00 0.  1.
          2    1    6    6  502    0  0.92291129527E+02  0.18771889002E+03 -0.20111551536E+03  0.29017836718E+03  0.00000000000E+00 0. -1.
         -1    1    6    6    0  502  0.23814974867E+03  0.32790471355E+03 -0.27384875534E+03  0.48911138278E+03  0.00000000000E+00 0.  1.
<mgrwt>
<rscale>  0 0.74640396E+03</rscale>
<asrwt>0</asrwt>
<pdfrwt beam="1">  1        1 0.87741582E-01 0.74640396E+03</pdfrwt>
<pdfrwt beam="2">  1       -2 0.17129087E+00 0.74640396E+03</pdfrwt>
<totfact> 0.68820311E+00</totfact>
</mgrwt>
</event>
<event>
12    3  0.2422421E-007  0.8862240E+03  0.7818608E-02  0.9442968E-01
          1   -1    0    0  501    0  0.00000000000E+00  0.00000000000E+00  0.66562588943E+03  0.66562588943E+03  0.00000000000E+00 0. -1.
         -2   -1    0    0    0  501 -0.00000000000E+00 -0.00000000000E+00 -0.15088494024E+04  0.15088494024E+04  0.00000000000E+00 0.  1.
        -24    2    1    2    0    0  0.47356884521E+03  0.71923507424E+03 -0.70534616435E+03  0.11159247291E+04  0.78792424900E+02 0.  0.
    5000000    2    1    2    0    0 -0.47356884521E+03 -0.71923507424E+03 -0.13787734858E+03  0.10585505627E+04  0.59996048820E+03 0.  0.
        -24    2    4    4    0    0 -0.21379364501E+03 -0.55764889775E+03  0.16238508793E+03  0.62420356465E+03  0.81124333756E+02 0.  0.
         24    2    4    4    0    0 -0.25977520020E+03 -0.16158617649E+03 -0.30026243650E+03  0.43434699807E+03  0.70046676472E+02 0.  0.
         11    1    5    5    0    0 -0.78050433373E+02 -0.26669662857E+03  0.11017022848E+03  0.29892547748E+03  0.00000000000E+00 0. -1.
        -12    1    5    5    0    0 -0.13574321163E+03 -0.29095226918E+03  0.52214859443E+02  0.32527808717E+03  0.00000000000E+00 0.  1.
         13    1    3    3    0    0  0.21811494496E+03  0.37460498075E+03 -0.31402251124E+03  0.53526923915E+03  0.00000000000E+00 0. -1.
        -14    1    3    3    0    0  0.25545390025E+03  0.34463009350E+03 -0.39132365310E+03  0.58065548992E+03  0.00000000000E+00 0.  1.
          4    1    6    6  502    0 -0.11704551257E+03 -0.40447018347E+02 -0.14845072237E+03  0.19332157220E+03  0.00000000000E+00 0. -1.
         -1    1    6    6    0  502 -0.14272968763E+03 -0.12113915814E+03 -0.15181171413E+03  0.24102542586E+03  0.00000000000E+00 0.  1.
<mgrwt>
<rscale>  0 0.88622397E+03</rscale>
<asrwt>0</asrwt>
<pdfrwt beam="1">  1        1 0.10240398E+00 0.88622397E+03</pdfrwt>
<pdfrwt beam="2">  1       -2 0.23213067E+00 0.88622397E+03</pdfrwt>
<totfact> 0.21643447E+00</totfact>
</mgrwt>
</event>
<event>
12    3  0.2422421E-007  0.5042542E+03  0.7818608E-02  0.1012674E+00
         -2   -1    0    0    0  501 -0.00000000000E+00  0.00000000000E+00  0.52171102334E+03  0.52171102334E+03  0.00000000000E+00 0.  1.
          1   -1    0    0  501    0  0.00000000000E+00 -0.00000000000E+00 -0.96481627187E+03  0.96481627187E+03  0.00000000000E+00 0. -1.
        -24    2    1    2    0    0  0.41415032559E+03  0.21147571827E+02  0.24102267103E+03  0.48647964023E+03  0.81257617667E+02 0.  0.
    5000000    2    1    2    0    0 -0.41415032559E+03 -0.21147571827E+02 -0.68412791956E+03  0.10000476550E+04  0.60008048623E+03 0.  0.
        -24    2    4    4    0    0 -0.26813692374E+03 -0.21071124817E+03 -0.65912054205E+03  0.74600712630E+03  0.76092730062E+02 0.  0.
         24    2    4    4    0    0 -0.14601340184E+03  0.18956367634E+03 -0.25007377513E+02  0.25404052869E+03  0.81589952681E+02 0.  0.
         13    1    5    5    0    0 -0.91145203027E+02 -0.99607365399E+02 -0.19692355759E+03  0.23876340342E+03  0.00000000000E+00 0. -1.
        -14    1    5    5    0    0 -0.17699172072E+03 -0.11110388277E+03 -0.46219698445E+03  0.50724372288E+03  0.00000000000E+00 0.  1.
         13    1    3    3    0    0  0.17690403753E+03  0.41530632982E+02  0.77111632866E+02  0.19739816588E+03  0.00000000000E+00 0. -1.
        -14    1    3    3    0    0  0.23724628806E+03 -0.20383061155E+02  0.16391103816E+03  0.28908147435E+03  0.00000000000E+00 0.  1.
          4    1    6    6  502    0 -0.57962392021E+02  0.11706319989E+03  0.18571212276E+02  0.13194059869E+03  0.00000000000E+00 0. -1.
         -3    1    6    6    0  502 -0.88051009823E+02  0.72500476447E+02 -0.43578589789E+02  0.12209992999E+03  0.00000000000E+00 0.  1.
<mgrwt>
<rscale>  0 0.50425419E+03</rscale>
<asrwt>0</asrwt>
<pdfrwt beam="1">  1        1 0.14843327E+00 0.50425419E+03</pdfrwt>
<pdfrwt beam="2">  1       -2 0.80263234E-01 0.50425419E+03</pdfrwt>
<totfact> 0.20473882E+01</totfact>
</mgrwt>
</event>
<event>
12    3  0.2422421E-007  0.1416542E+04  0.7818608E-02  0.8941931E-01
          1   -1    0    0  501    0  0.00000000000E+00  0.00000000000E+00  0.22723980380E+04  0.22723980380E+04  0.00000000000E+00 0. -1.
         -2   -1    0    0    0  501 -0.00000000000E+00 -0.00000000000E+00 -0.17003251780E+04  0.17003251780E+04  0.00000000000E+00 0.  1.
        -24    2    1    2    0    0 -0.10442780581E+04 -0.88027935766E+03 -0.10828880852E+04  0.17446381686E+04  0.75546833063E+02 0.  0.
    5000000    2    1    2    0    0  0.10442780581E+04  0.88027935766E+03  0.16549609452E+04  0.22280850474E+04  0.60004902971E+03 0.  0.
        -24    2    4    4    0    0  0.10238901495E+04  0.63125631185E+03  0.11889234269E+04  0.16932534312E+04  0.82053019296E+02 0.  0.
         24    2    4    4    0    0  0.20387908612E+02  0.24902304580E+03  0.46603751840E+03  0.53483161618E+03  0.80160744476E+02 0.  0.
         11    1    5    5    0    0  0.97543243533E+03  0.61869294671E+03  0.11486857423E+04  0.16290268054E+04  0.00000000000E+00 0. -1.
        -12    1    5    5    0    0  0.48457714173E+02  0.12563365144E+02  0.40237684588E+02  0.64226625847E+02  0.00000000000E+00 0.  1.
         13    1    3    3    0    0 -0.67095476995E+03 -0.52975474356E+03 -0.64614767640E+03  0.10716003039E+04  0.00000000000E+00 0. -1.
        -14    1    3    3    0    0 -0.37332328816E+03 -0.35052461410E+03 -0.43674040880E+03  0.67303786464E+03  0.00000000000E+00 0.  1.
          2    1    6    6  502    0  0.15809879058E+02  0.45681518523E+01  0.45496394895E+02  0.48381217798E+02  0.00000000000E+00 0. -1.
         -1    1    6    6    0  502  0.45780295534E+01  0.24445489395E+03  0.42054112350E+03  0.48645039838E+03  0.00000000000E+00 0.  1.
<mgrwt>
<rscale>  0 0.14165416E+04</rscale>
<asrwt>0</asrwt>
<pdfrwt beam="1">  1        1 0.34959970E+00 0.14165416E+04</pdfrwt>
<pdfrwt beam="2">  1       -2 0.26158849E+00 0.14165416E+04</pdfrwt>
<totfact> 0.88347744E-02</totfact>
</mgrwt>
</event>
<event>
12    3  0.2422421E-007  0.4040286E+03  0.7818608E-02  0.1042394E+00
         -2   -1    0    0    0  501 -0.00000000000E+00  0.00000000000E+00  0.10990925860E+04  0.10990925860E+04  0.00000000000E+00 0.  1.
          1   -1    0    0  501    0  0.00000000000E+00 -0.00000000000E+00 -0.14115135610E+04  0.14115135610E+04  0.00000000000E+00 0. -1.
        -24    2    1    2    0    0  0.28854381705E+03  0.15027556563E+03  0.98730457515E+03  0.10425489564E+04  0.79358190363E+02 0.  0.
    5000000    2    1    2    0    0 -0.28854381705E+03 -0.15027556563E+03 -0.12997255501E+04  0.14680571906E+04  0.60005427201E+03 0.  0.
        -24    2    4    4    0    0 -0.96346835635E+02  0.10069387658E+03 -0.10374948266E+04  0.10498251516E+04  0.79469264821E+02 0.  0.
         24    2    4    4    0    0 -0.19219698141E+03 -0.25096944220E+03 -0.26223072347E+03  0.41823203905E+03  0.78916066632E+02 0.  0.
         11    1    3    3    0    0  0.22338057050E+02  0.35002299978E+02  0.17936792189E+03  0.18411138259E+03  0.00000000000E+00 0. -1.
        -12    1    3    3    0    0  0.26620576000E+03  0.11527326565E+03  0.80793665326E+03  0.85843757380E+03  0.00000000000E+00 0.  1.
         13    1    5    5    0    0 -0.64729077209E+02  0.11920854523E+02 -0.39174969824E+03  0.39724021231E+03  0.00000000000E+00 0. -1.
        -14    1    5    5    0    0 -0.31617758426E+02  0.88773022056E+02 -0.64574512841E+03  0.65258493927E+03  0.00000000000E+00 0.  1.
          2    1    6    6  502    0 -0.65057368964E+02 -0.95477742685E+02 -0.14595882454E+03  0.18615165609E+03  0.00000000000E+00 0. -1.
         -1    1    6    6    0  502 -0.12713961245E+03 -0.15549169952E+03 -0.11627189893E+03  0.23208038296E+03  0.00000000000E+00 0.  1.
<mgrwt>
<rscale>  0 0.40402861E+03</rscale>
<asrwt>0</asrwt>
<pdfrwt beam="1">  1        1 0.21715593E+00 0.40402861E+03</pdfrwt>
<pdfrwt beam="2">  1       -2 0.16909117E+00 0.40402861E+03</pdfrwt>
<totfact> 0.16078669E+00</totfact>
</mgrwt>
</event>
<event>
12    3  0.2422421E-007  0.6830561E+03  0.7818608E-02  0.9746655E-01
         -2   -1    0    0    0  501 -0.00000000000E+00  0.00000000000E+00  0.37810229518E+03  0.37810229518E+03  0.00000000000E+00 0.  1.
          1   -1    0    0  501    0  0.00000000000E+00 -0.00000000000E+00 -0.23609209254E+04  0.23609209254E+04  0.00000000000E+00 0. -1.
        -24    2    1    2    0    0  0.44563970660E+03 -0.32168522637E+03 -0.18283004825E+04  0.19107884917E+04  0.79711182414E+02 0.  0.
    5000000    2    1    2    0    0 -0.44563970660E+03  0.32168522637E+03 -0.15451814775E+03  0.82823472895E+03  0.60001731249E+03 0.  0.
        -24    2    4    4    0    0 -0.22849773887E+03 -0.15595631393E+03 -0.44539536985E+02  0.28630935764E+03  0.58785112036E+02 0.  0.
         24    2    4    4    0    0 -0.21714196773E+03  0.47764154030E+03 -0.10997861076E+03  0.54192537131E+03  0.79345687165E+02 0.  0.
         11    1    3    3    0    0  0.72400756422E+02 -0.19585915986E+02 -0.23065773454E+03  0.24254580627E+03  0.00000000000E+00 0. -1.
        -12    1    3    3    0    0  0.37323895018E+03 -0.30209931039E+03 -0.15976427479E+04  0.16682426854E+04  0.00000000000E+00 0.  1.
         13    1    5    5    0    0 -0.58902027313E+02 -0.67577083275E+02  0.12851816818E+01  0.89653570467E+02  0.00000000000E+00 0. -1.
        -14    1    5    5    0    0 -0.16959571155E+03 -0.88379230652E+02 -0.45824718667E+02  0.19665578717E+03  0.00000000000E+00 0.  1.
          2    1    6    6  502    0  0.63155599225E+01  0.14331081007E+02 -0.77846445360E+01  0.17489050017E+02  0.00000000000E+00 0. -1.
         -3    1    6    6    0  502 -0.22345752766E+03  0.46331045929E+03 -0.10219396623E+03  0.52443632129E+03  0.00000000000E+00 0.  1.
<mgrwt>
<rscale>  0 0.68305607E+03</rscale>
<asrwt>0</asrwt>
<pdfrwt beam="1">  1        1 0.36321860E+00 0.68305607E+03</pdfrwt>
<pdfrwt beam="2">  1       -2 0.58169585E-01 0.68305607E+03</pdfrwt>
<totfact> 0.43684096E+00</totfact>
</mgrwt>
</event>
<event>
12    3  0.2422421E-007  0.1030265E+04  0.7818608E-02  0.9275960E-01
         -2   -1    0    0    0  501 -0.00000000000E+00  0.00000000000E+00  0.10036688511E+04  0.10036688511E+04  0.00000000000E+00 0.  1.
          1   -1    0    0  501    0  0.00000000000E+00 -0.00000000000E+00 -0.11069042821E+04  0.11069042821E+04  0.00000000000E+00 0. -1.
        -24    2    1    2    0    0 -0.56300239997E+03 -0.76160538676E+03  0.14757638929E+03  0.96184730315E+03  0.79730649049E+02 0.  0.
    5000000    2    1    2    0    0  0.56300239997E+03  0.76160538676E+03 -0.25081182020E+03  0.11487258301E+04  0.59970825904E+03 0.  0.
        -24    2    4    4    0    0  0.62053750369E+03  0.39092316424E+03 -0.16139305105E+03  0.75503083218E+03  0.78333433396E+02 0.  0.
         24    2    4    4    0    0 -0.57535103723E+02  0.37068222252E+03 -0.89418769150E+02  0.39369499788E+03  0.79274439903E+02 0.  0.
         13    1    5    5    0    0  0.26083163721E+03  0.19433207789E+03 -0.41291798359E+02  0.32787667206E+03  0.00000000000E+00 0. -1.
        -14    1    5    5    0    0  0.35970586647E+03  0.19659108635E+03 -0.12010125269E+03  0.42715416012E+03  0.00000000000E+00 0.  1.
         13    1    3    3    0    0 -0.28428452245E+03 -0.40289777738E+03  0.11556499330E+03  0.50645787229E+03  0.00000000000E+00 0. -1.
        -14    1    3    3    0    0 -0.27871787751E+03 -0.35870760938E+03  0.32011395994E+02  0.45538943087E+03  0.00000000000E+00 0.  1.
          4    1    6    6  502    0 -0.65160984204E+02  0.34809088177E+03 -0.65924584498E+02  0.36022113579E+03  0.00000000000E+00 0. -1.
         -3    1    6    6    0  502  0.76258804813E+01  0.22591340756E+02 -0.23494184651E+02  0.33473862082E+02  0.00000000000E+00 0.  1.
<mgrwt>
<rscale>  0 0.10302646E+04</rscale>
<asrwt>0</asrwt>
<pdfrwt beam="1">  1        1 0.17029297E+00 0.10302646E+04</pdfrwt>
<pdfrwt beam="2">  1       -2 0.15441059E+00 0.10302646E+04</pdfrwt>
<totfact> 0.30245525E+00</totfact>
</mgrwt>
</event>
<event>
12    3  0.2422421E-007  0.4115027E+03  0.7818608E-02  0.1039868E+00
         -2   -1    0    0    0  501 -0.00000000000E+00  0.00000000000E+00  0.34695491360E+03  0.34695491360E+03  0.00000000000E+00 0.  1.
          1   -1    0    0  501    0  0.00000000000E+00 -0.00000000000E+00 -0.91912169334E+03  0.91912169334E+03  0.00000000000E+00 0. -1.
        -24    2    1    2    0    0 -0.12864139238E+02 -0.36588153854E+03 -0.25486754609E+02  0.37563062460E+03  0.80087484374E+02 0.  0.
    5000000    2    1    2    0    0  0.12864139238E+02  0.36588153854E+03 -0.54668002512E+03  0.89044598234E+03  0.60000017606E+03 0.  0.
        -24    2    4    4    0    0 -0.41423382082E+02 -0.13969943183E+01 -0.49967573269E+03  0.50769129453E+03  0.79729320372E+02 0.  0.
         24    2    4    4    0    0  0.54287521320E+02  0.36727853286E+03 -0.47004292437E+02  0.38275468781E+03  0.80318689385E+02 0.  0.
         11    1    5    5    0    0 -0.16038877730E+02  0.31568508307E+02 -0.36553822531E+03  0.36724924844E+03  0.00000000000E+00 0. -1.
        -12    1    5    5    0    0 -0.25384504352E+02 -0.32965502625E+02 -0.13413750737E+03  0.14044204609E+03  0.00000000000E+00 0.  1.
         13    1    3    3    0    0 -0.48354125684E+01 -0.80355809059E+02 -0.39456306982E+02  0.89650640962E+02  0.00000000000E+00 0. -1.
        -14    1    3    3    0    0 -0.80287266696E+01 -0.28552572948E+03  0.13969552373E+02  0.28597998364E+03  0.00000000000E+00 0.  1.
          4    1    6    6  502    0  0.47615277646E+01  0.27566831816E+03 -0.35193033436E+02  0.27794647576E+03  0.00000000000E+00 0. -1.
         -3    1    6    6    0  502  0.49525993555E+02  0.91610214700E+02 -0.11811259001E+02  0.10480821206E+03  0.00000000000E+00 0.  1.
<mgrwt>
<rscale>  0 0.41150274E+03</rscale>
<asrwt>0</asrwt>
<pdfrwt beam="1">  1        1 0.14140334E+00 0.41150274E+03</pdfrwt>
<pdfrwt beam="2">  1       -2 0.53377680E-01 0.41150274E+03</pdfrwt>
<totfact> 0.53937900E+01</totfact>
</mgrwt>
</event>
<event>
12    3  0.2422421E-007  0.1517962E+04  0.7818608E-02  0.8872596E-01
          1   -1    0    0  501    0  0.00000000000E+00  0.00000000000E+00  0.13274077876E+04  0.13274077876E+04  0.00000000000E+00 0. -1.
         -2   -1    0    0    0  501 -0.00000000000E+00 -0.00000000000E+00 -0.18813202402E+04  0.18813202402E+04  0.00000000000E+00 0.  1.
        -24    2    1    2    0    0  0.67699168215E+03  0.13044905233E+04 -0.66970498772E+03  0.16170932095E+04  0.80451317702E+02 0.  0.
    5000000    2    1    2    0    0 -0.67699168215E+03 -0.13044905233E+04  0.11579253517E+03  0.15916348183E+04  0.59990017563E+03 0.  0.
        -24    2    4    4    0    0 -0.44081588661E+03 -0.12403966018E+04  0.15799575561E+03  0.13284248382E+04  0.82749720271E+02 0.  0.
         24    2    4    4    0    0 -0.23617579554E+03 -0.64093921461E+02 -0.42203220436E+02  0.26320998016E+03  0.87243020780E+02 0.  0.
         11    1    5    5    0    0 -0.27742399008E+03 -0.65803193389E+03  0.81698898142E+02  0.71878008198E+03  0.00000000000E+00 0. -1.
        -12    1    5    5    0    0 -0.16339189654E+03 -0.58236466790E+03  0.76296857467E+02  0.60964475617E+03  0.00000000000E+00 0.  1.
         13    1    3    3    0    0  0.25511133055E+03  0.44430529923E+03 -0.26821603579E+03  0.57829822043E+03  0.00000000000E+00 0. -1.
        -14    1    3    3    0    0  0.42188035161E+03  0.86018522402E+03 -0.40148895193E+03  0.10387949890E+04  0.00000000000E+00 0.  1.
          4    1    6    6  502    0 -0.18670962503E+03 -0.37713905618E+02  0.40620134756E+01  0.19052381140E+03  0.00000000000E+00 0. -1.
         -3    1    6    6    0  502 -0.49466170508E+02 -0.26380015843E+02 -0.46265233912E+02  0.72686168763E+02  0.00000000000E+00 0.  1.
<mgrwt>
<rscale>  0 0.15179617E+04</rscale>
<asrwt>0</asrwt>
<pdfrwt beam="1">  1        1 0.20421658E+00 0.15179617E+04</pdfrwt>
<pdfrwt beam="2">  1       -2 0.28943388E+00 0.15179617E+04</pdfrwt>
<totfact> 0.26352662E-01</totfact>
</mgrwt>
</event>
<event>
12    3  0.2422421E-007  0.1302587E+04  0.7818608E-02  0.9027516E-01
          1   -1    0    0  501    0  0.00000000000E+00  0.00000000000E+00  0.18543735741E+04  0.18543735741E+04  0.00000000000E+00 0. -1.
         -2   -1    0    0    0  501 -0.00000000000E+00 -0.00000000000E+00 -0.11979235218E+04  0.11979235218E+04  0.00000000000E+00 0.  1.
        -24    2    1    2    0    0 -0.67806492703E+03  0.10429809698E+04  0.10349501456E+04  0.16201786027E+04  0.79218384069E+02 0.  0.
    5000000    2    1    2    0    0  0.67806492703E+03 -0.10429809698E+04 -0.37850009322E+03  0.14321184932E+04  0.60009974955E+03 0.  0.
        -24    2    4    4    0    0  0.14952218015E+03  0.29757585717E+02 -0.10874740505E+03  0.20355740883E+03  0.79794889068E+02 0.  0.
         24    2    4    4    0    0  0.52854274688E+03 -0.10727385555E+04 -0.26975268817E+03  0.12285610844E+04  0.80438681747E+02 0.  0.
         11    1    5    5    0    0  0.10374353380E+03 -0.68411502103E+01 -0.10007872031E+03  0.14430964070E+03  0.00000000000E+00 0. -1.
        -12    1    5    5    0    0  0.45778646352E+02  0.36598735927E+02 -0.86686847407E+01  0.59247768130E+02  0.00000000000E+00 0.  1.
         13    1    3    3    0    0 -0.24276490558E+03  0.37173351463E+03  0.32064231517E+03  0.54766056965E+03  0.00000000000E+00 0. -1.
        -14    1    3    3    0    0 -0.43530002145E+03  0.67124745515E+03  0.71430783038E+03  0.10725180331E+04  0.00000000000E+00 0.  1.
          4    1    6    6  502    0  0.44019528493E+03 -0.81754204552E+03 -0.20740830572E+03  0.95140164513E+03  0.00000000000E+00 0. -1.
         -3    1    6    6    0  502  0.88347461941E+02 -0.25519650998E+03 -0.62344382448E+02  0.27715943924E+03  0.00000000000E+00 0.  1.
<mgrwt>
<rscale>  0 0.13025870E+04</rscale>
<asrwt>0</asrwt>
<pdfrwt beam="1">  1        1 0.28528824E+00 0.13025870E+04</pdfrwt>
<pdfrwt beam="2">  1       -2 0.18429593E+00 0.13025870E+04</pdfrwt>
<totfact> 0.53554168E-01</totfact>
</mgrwt>
</event>
<event>
12    3  0.2422421E-007  0.8908918E+03  0.7818608E-02  0.9437039E-01
          1   -1    0    0  501    0  0.00000000000E+00  0.00000000000E+00  0.90973571628E+03  0.90973571628E+03  0.00000000000E+00 0. -1.
         -2   -1    0    0    0  501 -0.00000000000E+00 -0.00000000000E+00 -0.91489610372E+03  0.91489610372E+03  0.00000000000E+00 0.  1.
        -24    2    1    2    0    0 -0.62699797098E+03 -0.51118245919E+03  0.61179571598E+02  0.81528347195E+03  0.80686042474E+02 0.  0.
    5000000    2    1    2    0    0  0.62699797098E+03  0.51118245919E+03 -0.66339959032E+02  0.10093483481E+04  0.59995761131E+03 0.  0.
        -24    2    4    4    0    0  0.32373234490E+03 -0.55591301125E+02 -0.12027181380E+03  0.35924628612E+03  0.81850846049E+02 0.  0.
         24    2    4    4    0    0  0.30326562608E+03  0.56677376032E+03  0.53931854769E+02  0.65010206194E+03  0.80755870584E+02 0.  0.
         11    1    5    5    0    0  0.25338567661E+03 -0.52405218327E+02 -0.57833157170E+02  0.26513257455E+03  0.00000000000E+00 0. -1.
        -12    1    5    5    0    0  0.70346668286E+02 -0.31860827981E+01 -0.62438656631E+02  0.94113711564E+02  0.00000000000E+00 0.  1.
         13    1    3    3    0    0 -0.46556635643E+03 -0.37036351277E+03  0.98241734389E+01  0.59499384721E+03  0.00000000000E+00 0. -1.
        -14    1    3    3    0    0 -0.16143161454E+03 -0.14081894642E+03  0.51355398159E+02  0.22028962473E+03  0.00000000000E+00 0.  1.
          4    1    6    6  502    0  0.16206589247E+03  0.27164568734E+03  0.64233347336E+02  0.32277338159E+03  0.00000000000E+00 0. -1.
         -3    1    6    6    0  502  0.14119973361E+03  0.29512807298E+03 -0.10301492567E+02  0.32732868035E+03  0.00000000000E+00 0.  1.
<mgrwt>
<rscale>  0 0.89089176E+03</rscale>
<asrwt>0</asrwt>
<pdfrwt beam="1">  1        1 0.13995934E+00 0.89089176E+03</pdfrwt>
<pdfrwt beam="2">  1       -2 0.14075325E+00 0.89089176E+03</pdfrwt>
<totfact> 0.55863890E+00</totfact>
</mgrwt>
</event>
<event>
12    3  0.2422421E-007  0.4973779E+03  0.7818608E-02  0.1014466E+00
          1   -1    0    0  501    0  0.00000000000E+00  0.00000000000E+00  0.85570457337E+03  0.85570457337E+03  0.00000000000E+00 0. -1.
         -2   -1    0    0    0  501 -0.00000000000E+00 -0.00000000000E+00 -0.41312549232E+03  0.41312549232E+03  0.00000000000E+00 0.  1.
        -24    2    1    2    0    0  0.37179703166E+03 -0.33740987693E+02  0.41169580660E+03  0.56147300089E+03  0.79918749704E+02 0.  0.
    5000000    2    1    2    0    0 -0.37179703166E+03  0.33740987693E+02  0.30883274453E+02  0.70735706479E+03  0.60002396074E+03 0.  0.
        -24    2    4    4    0    0  0.10640448619E+03  0.34128264822E+02 -0.13689227207E+03  0.19438632606E+03  0.80993187772E+02 0.  0.
         24    2    4    4    0    0 -0.47820151786E+03 -0.38727712838E+00  0.16777554652E+03  0.51297073873E+03  0.79457555483E+02 0.  0.
         11    1    5    5    0    0  0.51271275174E+02  0.49430955418E+02 -0.39525140543E+02  0.81451824697E+02  0.00000000000E+00 0. -1.
        -12    1    5    5    0    0  0.55133211018E+02 -0.15302690597E+02 -0.97367131524E+02  0.11293450136E+03  0.00000000000E+00 0.  1.
         13    1    3    3    0    0  0.89291543935E+02  0.25894770274E+02  0.10529986324E+03  0.14046914303E+03  0.00000000000E+00 0. -1.
        -14    1    3    3    0    0  0.28250548773E+03 -0.59635757968E+02  0.30639594335E+03  0.42100385785E+03  0.00000000000E+00 0.  1.
          2    1    6    6  502    0 -0.69753848971E+02 -0.28166690604E+02  0.21600485569E+02  0.78265847486E+02  0.00000000000E+00 0. -1.
         -1    1    6    6    0  502 -0.40844766889E+03  0.27779413476E+02  0.14617506095E+03  0.43470489125E+03  0.00000000000E+00 0.  1.
<mgrwt>
<rscale>  0 0.49737790E+03</rscale>
<asrwt>0</asrwt>
<pdfrwt beam="1">  1        1 0.13164686E+00 0.49737790E+03</pdfrwt>
<pdfrwt beam="2">  1       -2 0.63557768E-01 0.49737790E+03</pdfrwt>
<totfact> 0.41678021E+01</totfact>
</mgrwt>
</event>
<event>
12    3  0.2422421E-007  0.1263688E+04  0.7818608E-02  0.9058867E-01
         -2   -1    0    0    0  501 -0.00000000000E+00  0.00000000000E+00  0.14693699253E+04  0.14693699253E+04  0.00000000000E+00 0.  1.
          1   -1    0    0  501    0  0.00000000000E+00 -0.00000000000E+00 -0.15791238858E+04  0.15791238858E+04  0.00000000000E+00 0. -1.
        -24    2    1    2    0    0  0.11931913594E+04 -0.14642029140E+03 -0.88704614578E+03  0.14961640838E+04  0.80694356456E+02 0.  0.
    5000000    2    1    2    0    0 -0.11931913594E+04  0.14642029140E+03  0.77729218521E+03  0.15523297273E+04  0.60033317343E+03 0.  0.
        -24    2    4    4    0    0 -0.90246659788E+03  0.34766877472E+03  0.65058431398E+03  0.11682685735E+04  0.79195789182E+02 0.  0.
         24    2    4    4    0    0 -0.29072476152E+03 -0.20124848332E+03  0.12670787123E+03  0.38406115378E+03  0.80163870989E+02 0.  0.
         11    1    5    5    0    0 -0.54992524151E+03  0.20714727279E+03  0.34857077643E+03  0.68324911273E+03  0.00000000000E+00 0. -1.
        -12    1    5    5    0    0 -0.35254135637E+03  0.14052150193E+03  0.30201353754E+03  0.48501946076E+03  0.00000000000E+00 0.  1.
         13    1    3    3    0    0  0.36216494650E+03 -0.59618444246E+02 -0.22918493979E+03  0.43271647068E+03  0.00000000000E+00 0. -1.
        -14    1    3    3    0    0  0.83102641289E+03 -0.86801847155E+02 -0.65786120599E+03  0.10634476132E+04  0.00000000000E+00 0.  1.
          4    1    6    6  502    0 -0.20945815616E+03 -0.11430040571E+03  0.54179552544E+02  0.24468903907E+03  0.00000000000E+00 0. -1.
         -3    1    6    6    0  502 -0.81266605355E+02 -0.86948077612E+02  0.72528318687E+02  0.13937211471E+03  0.00000000000E+00 0.  1.
<mgrwt>
<rscale>  0 0.12636883E+04</rscale>
<asrwt>0</asrwt>
<pdfrwt beam="1">  1        1 0.24294214E+00 0.12636883E+04</pdfrwt>
<pdfrwt beam="2">  1       -2 0.22605691E+00 0.12636883E+04</pdfrwt>
<totfact> 0.44263470E-01</totfact>
</mgrwt>
</event>
<event>
12    3  0.2422421E-007  0.8822356E+03  0.7818608E-02  0.9448064E-01
         -2   -1    0    0    0  501 -0.00000000000E+00  0.00000000000E+00  0.46968503277E+03  0.46968503277E+03  0.00000000000E+00 0.  1.
          1   -1    0    0  501    0  0.00000000000E+00 -0.00000000000E+00 -0.19916880293E+04  0.19916880293E+04  0.00000000000E+00 0. -1.
        -24    2    1    2    0    0  0.48751546350E+03 -0.71772318371E+03 -0.80512293301E+03  0.11861508232E+04  0.77025596240E+02 0.  0.
    5000000    2    1    2    0    0 -0.48751546350E+03  0.71772318371E+03 -0.71688006347E+03  0.12752222388E+04  0.59956387270E+03 0.  0.
        -24    2    4    4    0    0 -0.23969207364E+02  0.17178593126E+03  0.76030304546E+02  0.20546440976E+03  0.79687435577E+02 0.  0.
         24    2    4    4    0    0 -0.46354625614E+03  0.54593725245E+03 -0.79291036802E+03  0.10697578291E+04  0.52462805693E+02 0.  0.
         11    1    3    3    0    0  0.25604380623E+03 -0.32191333303E+03 -0.34964815365E+03  0.53985225390E+03  0.00000000000E+00 0. -1.
        -12    1    3    3    0    0  0.23147165728E+03 -0.39580985068E+03 -0.45547477936E+03  0.64629856928E+03  0.00000000000E+00 0.  1.
         11    1    5    5    0    0  0.11798101802E+02  0.41299076171E+02 -0.11319133738E+02  0.44417695655E+02  0.00000000000E+00 0. -1.
        -12    1    5    5    0    0 -0.35767309166E+02  0.13048685508E+03  0.87349438284E+02  0.16104671410E+03  0.00000000000E+00 0.  1.
          2    1    6    6  502    0 -0.57007219210E+02  0.75690294580E+02 -0.13151759226E+03  0.16209787417E+03  0.00000000000E+00 0. -1.
         -3    1    6    6    0  502 -0.40653903693E+03  0.47024695787E+03 -0.66139277576E+03  0.90765995492E+03  0.00000000000E+00 0.  1.
<mgrwt>
<rscale>  0 0.88223563E+03</rscale>
<asrwt>0</asrwt>
<pdfrwt beam="1">  1        1 0.30641354E+00 0.88223563E+03</pdfrwt>
<pdfrwt beam="2">  1       -2 0.72259236E-01 0.88223563E+03</pdfrwt>
<totfact> 0.47011772E+00</totfact>
</mgrwt>
</event>
<event>
12    3  0.2422421E-007  0.7621579E+03  0.7818608E-02  0.9616467E-01
         -2   -1    0    0    0  501 -0.00000000000E+00  0.00000000000E+00  0.66275436669E+03  0.66275436669E+03  0.00000000000E+00 0.  1.
          1   -1    0    0  501    0  0.00000000000E+00 -0.00000000000E+00 -0.10589397186E+04  0.10589397186E+04  0.00000000000E+00 0. -1.
        -24    2    1    2    0    0 -0.63302421056E+03  0.26594084858E+03  0.75111266568E+02  0.69526988080E+03  0.79462687447E+02 0.  0.
    5000000    2    1    2    0    0  0.63302421056E+03 -0.26594084858E+03 -0.47129661850E+03  0.10264242045E+04  0.59998496557E+03 0.  0.
        -24    2    4    4    0    0  0.15817879927E+03 -0.30325405600E+03 -0.41017738287E+03  0.53997773256E+03  0.79667504156E+02 0.  0.
         24    2    4    4    0    0  0.47484541129E+03  0.37313207425E+02 -0.61119235634E+02  0.48644647196E+03  0.77615520673E+02 0.  0.
         13    1    5    5    0    0  0.70966248975E+02 -0.21723898138E+03 -0.27462150458E+03  0.35727573988E+03  0.00000000000E+00 0. -1.
        -14    1    5    5    0    0  0.87212550295E+02 -0.86015074624E+02 -0.13555587829E+03  0.18270199268E+03  0.00000000000E+00 0.  1.
         13    1    3    3    0    0 -0.33260751774E+03  0.18259794904E+03  0.40028376104E+02  0.38153904485E+03  0.00000000000E+00 0. -1.
        -14    1    3    3    0    0 -0.30041669282E+03  0.83342899536E+02  0.35082890464E+02  0.31373083595E+03  0.00000000000E+00 0.  1.
          4    1    6    6  502    0  0.30883710624E+03 -0.11506354708E+02 -0.28519048304E+02  0.31036444788E+03  0.00000000000E+00 0. -1.
         -3    1    6    6    0  502  0.16600830504E+03  0.48819562133E+02 -0.32600187330E+02  0.17608202408E+03  0.00000000000E+00 0.  1.
<mgrwt>
<rscale>  0 0.76215790E+03</rscale>
<asrwt>0</asrwt>
<pdfrwt beam="1">  1        1 0.16291380E+00 0.76215790E+03</pdfrwt>
<pdfrwt beam="2">  1       -2 0.10196221E+00 0.76215790E+03</pdfrwt>
<totfact> 0.96412827E+00</totfact>
</mgrwt>
</event>
<event>
12    3  0.2422421E-007  0.9273853E+03  0.7818608E-02  0.9391981E-01
         -2   -1    0    0    0  501 -0.00000000000E+00  0.00000000000E+00  0.16255011809E+04  0.16255011809E+04  0.00000000000E+00 0.  1.
          1   -1    0    0  501    0  0.00000000000E+00 -0.00000000000E+00 -0.86409782392E+03  0.86409782392E+03  0.00000000000E+00 0. -1.
        -24    2    1    2    0    0 -0.81414399054E+03 -0.39746142935E+03  0.10260234147E+04  0.13711654909E+04  0.81023025535E+02 0.  0.
    5000000    2    1    2    0    0  0.81414399054E+03  0.39746142935E+03 -0.26462005772E+03  0.11184335140E+04  0.60005310189E+03 0.  0.
        -24    2    4    4    0    0  0.47066008196E+02  0.28419880394E+01  0.13513076660E+03  0.16435941714E+03  0.80810939202E+02 0.  0.
         24    2    4    4    0    0  0.76707798234E+03  0.39461944131E+03 -0.39975082432E+03  0.95407409684E+03  0.79520602737E+02 0.  0.
         11    1    5    5    0    0  0.17420048485E+02 -0.32658272576E+02  0.24333206537E+02  0.44295889169E+02  0.00000000000E+00 0. -1.
        -12    1    5    5    0    0  0.29645959712E+02  0.35500260616E+02  0.11079756007E+03  0.12006352797E+03  0.00000000000E+00 0.  1.
         11    1    3    3    0    0 -0.43058562863E+03 -0.20618093284E+03  0.60115968552E+03  0.76766368166E+03  0.00000000000E+00 0. -1.
        -12    1    3    3    0    0 -0.38355836191E+03 -0.19128049651E+03  0.42486372921E+03  0.60350180922E+03  0.00000000000E+00 0.  1.
          4    1    6    6  502    0  0.51073523239E+03  0.22490815009E+03 -0.27721607207E+03  0.62312350638E+03  0.00000000000E+00 0. -1.
         -3    1    6    6    0  502  0.25634274995E+03  0.16971129122E+03 -0.12253475226E+03  0.33095059046E+03  0.00000000000E+00 0.  1.
<mgrwt>
<rscale>  0 0.92738531E+03</rscale>
<asrwt>0</asrwt>
<pdfrwt beam="1">  1        1 0.13293813E+00 0.92738531E+03</pdfrwt>
<pdfrwt beam="2">  1       -2 0.25007710E+00 0.92738531E+03</pdfrwt>
<totfact> 0.11088429E+00</totfact>
</mgrwt>
</event>
<event>
12    3  0.2422421E-007  0.5748618E+03  0.7818608E-02  0.9958977E-01
          1   -1    0    0  501    0  0.00000000000E+00  0.00000000000E+00  0.80060692707E+03  0.80060692707E+03  0.00000000000E+00 0. -1.
         -2   -1    0    0    0  501 -0.00000000000E+00 -0.00000000000E+00 -0.66735168650E+03  0.66735168650E+03  0.00000000000E+00 0.  1.
        -24    2    1    2    0    0 -0.25385467080E+03  0.36234837174E+03  0.46970053246E+03  0.65012558147E+03  0.79411240332E+02 0.  0.
    5000000    2    1    2    0    0  0.25385467080E+03 -0.36234837174E+03 -0.33644529189E+03  0.81783303210E+03  0.59993074398E+03 0.  0.
        -24    2    4    4    0    0  0.18435865203E+03  0.11371122571E+03  0.28959414388E+01  0.22391158312E+03  0.56653818456E+02 0.  0.
         24    2    4    4    0    0  0.69496018771E+02 -0.47605959745E+03 -0.33934123333E+03  0.59392144898E+03  0.78280125012E+02 0.  0.
         13    1    5    5    0    0  0.18511722773E+03  0.10087145765E+03  0.43748087813E+00  0.21081657990E+03  0.00000000000E+00 0. -1.
        -14    1    5    5    0    0 -0.75857569779E+00  0.12839768062E+02  0.24584605607E+01  0.13095003219E+02  0.00000000000E+00 0.  1.
         13    1    3    3    0    0 -0.22065259952E+03  0.33462969668E+03  0.44990101812E+03  0.60255749077E+03  0.00000000000E+00 0. -1.
        -14    1    3    3    0    0 -0.33202071277E+02  0.27718675061E+02  0.19799514337E+02  0.47568090693E+02  0.00000000000E+00 0.  1.
          4    1    6    6  502    0  0.72285687370E+02 -0.45208552746E+03 -0.33918807952E+03  0.56978513322E+03  0.00000000000E+00 0. -1.
         -1    1    6    6    0  502 -0.27896685990E+01 -0.23974069988E+02 -0.15315380349E+00  0.24136315766E+02  0.00000000000E+00 0.  1.
<mgrwt>
<rscale>  0 0.57486185E+03</rscale>
<asrwt>0</asrwt>
<pdfrwt beam="1">  1        1 0.12317030E+00 0.57486185E+03</pdfrwt>
<pdfrwt beam="2">  1       -2 0.10266949E+00 0.57486185E+03</pdfrwt>
<totfact> 0.15646961E+01</totfact>
</mgrwt>
</event>
<event>
12    3  0.3024743E-007  0.1420962E+04  0.7818608E-02  0.8938783E-01
          1   -1    0    0  501    0  0.00000000000E+00  0.00000000000E+00  0.15395868635E+04  0.15395868635E+04  0.00000000000E+00 0. -1.
         -2   -1    0    0    0  501 -0.00000000000E+00 -0.00000000000E+00 -0.14513663254E+04  0.14513663254E+04  0.00000000000E+00 0.  1.
        -24    2    1    2    0    0  0.11273094574E+04 -0.81551808059E+03 -0.30270909449E+03  0.14261302856E+04  0.79488635473E+02 0.  0.
    5000000    2    1    2    0    0 -0.11273094574E+04  0.81551808059E+03  0.39092963256E+03  0.15648229032E+04  0.59995698874E+03 0.  0.
        -24    2    4    4    0    0 -0.22177864130E+03  0.38490230628E+03 -0.69480849025E+02  0.45861326823E+03  0.90349268389E+02 0.  0.
         24    2    4    4    0    0 -0.90553081610E+03  0.43061577431E+03  0.46041048159E+03  0.11062096350E+04  0.79409955371E+02 0.  0.
         13    1    3    3    0    0  0.68497471300E+03 -0.47845821083E+03 -0.14440878236E+03  0.84791893091E+03  0.00000000000E+00 0. -1.
        -14    1    3    3    0    0  0.44233474440E+03 -0.33705986976E+03 -0.15830031213E+03  0.57821135472E+03  0.00000000000E+00 0.  1.
         13    1    5    5    0    0 -0.28632511635E+02  0.29632381961E+02 -0.32626853037E+02  0.52558636991E+02  0.00000000000E+00 0. -1.
        -14    1    5    5    0    0 -0.19314612967E+03  0.35526992432E+03 -0.36853995988E+02  0.40605463124E+03  0.00000000000E+00 0.  1.
          4    1    6    6  502    0 -0.27516847277E+03  0.99115957277E+02  0.11017162849E+03  0.31253711638E+03  0.00000000000E+00 0. -1.
         -3    1    6    6    0  502 -0.63036234333E+03  0.33149981703E+03  0.35023885310E+03  0.79367251861E+03  0.00000000000E+00 0.  1.
<mgrwt>
<rscale>  0 0.14209623E+04</rscale>
<asrwt>0</asrwt>
<pdfrwt beam="1">  1        1 0.23685952E+00 0.14209623E+04</pdfrwt>
<pdfrwt beam="2">  1       -2 0.22328713E+00 0.14209623E+04</pdfrwt>
<totfact> 0.48216999E-01</totfact>
</mgrwt>
</event>
<event>
12    3  0.2422421E-007  0.6810664E+03  0.7818608E-02  0.9750170E-01
         -2   -1    0    0    0  501 -0.00000000000E+00  0.00000000000E+00  0.69958485948E+03  0.69958485948E+03  0.00000000000E+00 0.  1.
          1   -1    0    0  501    0  0.00000000000E+00 -0.00000000000E+00 -0.11626818578E+04  0.11626818578E+04  0.00000000000E+00 0. -1.
        -24    2    1    2    0    0  0.66590424112E+03  0.33215137406E+02 -0.66212485461E+03  0.94319873298E+03  0.81748535786E+02 0.  0.
    5000000    2    1    2    0    0 -0.66590424112E+03 -0.33215137406E+02  0.19902785629E+03  0.91906798431E+03  0.60045163712E+03 0.  0.
        -24    2    4    4    0    0 -0.60033614829E+03 -0.88801414222E+02 -0.80992850147E+02  0.61731184794E+03  0.78897995637E+02 0.  0.
         24    2    4    4    0    0 -0.65568092830E+02  0.55586276816E+02  0.28002070644E+03  0.30175613638E+03  0.72499385108E+02 0.  0.
         11    1    5    5    0    0 -0.48094332065E+03 -0.87046440542E+02 -0.37357018789E+02  0.49018272853E+03  0.00000000000E+00 0. -1.
        -12    1    5    5    0    0 -0.11939282764E+03 -0.17549736802E+01 -0.43635831358E+02  0.12712911941E+03  0.00000000000E+00 0.  1.
         13    1    3    3    0    0  0.57311701570E+03  0.42749851029E+02 -0.60167436485E+03  0.83204729720E+03  0.00000000000E+00 0. -1.
        -14    1    3    3    0    0  0.92787225416E+02 -0.95347136228E+01 -0.60450489763E+02  0.11115143578E+03  0.00000000000E+00 0.  1.
          4    1    6    6  502    0 -0.13260935572E+02  0.10156239470E+02  0.17590410969E+03  0.17669538029E+03  0.00000000000E+00 0. -1.
         -3    1    6    6    0  502 -0.52307157258E+02  0.45430037347E+02  0.10411659675E+03  0.12506075609E+03  0.00000000000E+00 0.  1.
<mgrwt>
<rscale>  0 0.68106638E+03</rscale>
<asrwt>0</asrwt>
<pdfrwt beam="1">  1        1 0.17887413E+00 0.68106638E+03</pdfrwt>
<pdfrwt beam="2">  1       -2 0.10762844E+00 0.68106638E+03</pdfrwt>
<totfact> 0.71677362E+00</totfact>
</mgrwt>
</event>
<event>
12    3  0.2422421E-007  0.4595186E+03  0.7818608E-02  0.1024921E+00
          1   -1    0    0  501    0  0.00000000000E+00  0.00000000000E+00  0.12443064997E+04  0.12443064997E+04  0.00000000000E+00 0. -1.
         -2   -1    0    0    0  501 -0.00000000000E+00 -0.00000000000E+00 -0.17926613122E+03  0.17926613122E+03  0.00000000000E+00 0.  1.
        -24    2    1    2    0    0 -0.24058871814E+03 -0.12157560505E+03  0.39231924799E+03  0.48246567825E+03  0.78709461361E+02 0.  0.
    5000000    2    1    2    0    0  0.24058871814E+03  0.12157560505E+03  0.67272112053E+03  0.94110695270E+03  0.60038740108E+03 0.  0.
        -24    2    4    4    0    0 -0.79058788385E+02  0.27323899633E+03  0.29968373670E+03  0.42072475306E+03  0.79304064561E+02 0.  0.
         24    2    4    4    0    0  0.31964750652E+03 -0.15166339128E+03  0.37303738383E+03  0.52038219964E+03  0.80401687111E+02 0.  0.
         11    1    5    5    0    0 -0.56992728077E+02  0.20007639133E+03  0.16361936011E+03  0.26466965905E+03  0.00000000000E+00 0. -1.
        -12    1    5    5    0    0 -0.22066060308E+02  0.73162605008E+02  0.13606437659E+03  0.15605509401E+03  0.00000000000E+00 0.  1.
         11    1    3    3    0    0 -0.10442261002E+03 -0.30578986211E+02  0.10201429214E+03  0.14915117057E+03  0.00000000000E+00 0. -1.
        -12    1    3    3    0    0 -0.13616610812E+03 -0.90996618842E+02  0.29030495585E+03  0.33331450768E+03  0.00000000000E+00 0.  1.
          2    1    6    6  502    0  0.57032696960E+02 -0.62628755402E+02  0.72916888904E+02  0.11176744702E+03  0.00000000000E+00 0. -1.
         -1    1    6    6    0  502  0.26261480956E+03 -0.89034635878E+02  0.30012049492E+03  0.40861475262E+03  0.00000000000E+00 0.  1.
<mgrwt>
<rscale>  0 0.45951856E+03</rscale>
<asrwt>0</asrwt>
<pdfrwt beam="1">  1        1 0.19143176E+00 0.45951856E+03</pdfrwt>
<pdfrwt beam="2">  1       -2 0.27579406E-01 0.45951856E+03</pdfrwt>
<totfact> 0.10940929E+02</totfact>
</mgrwt>
</event>
<event>
12    3  0.2422421E-007  0.1805067E+04  0.7818608E-02  0.8703610E-01
         -2   -1    0    0    0  501 -0.00000000000E+00  0.00000000000E+00  0.89253452563E+03  0.89253452563E+03  0.00000000000E+00 0.  1.
          1   -1    0    0  501    0  0.00000000000E+00 -0.00000000000E+00 -0.36739233636E+04  0.36739233636E+04  0.00000000000E+00 0. -1.
        -24    2    1    2    0    0  0.10286654433E+04  0.14275365999E+04 -0.14118888528E+04  0.22574455314E+04  0.81344060731E+02 0.  0.
    5000000    2    1    2    0    0 -0.10286654433E+04 -0.14275365999E+04 -0.13694999852E+04  0.23090123579E+04  0.59999543443E+03 0.  0.
        -24    2    4    4    0    0 -0.15588128355E+03  0.30770937424E+01 -0.18668572240E+03  0.25628646496E+03  0.80763544424E+02 0.  0.
         24    2    4    4    0    0 -0.87278415973E+03 -0.14306136936E+04 -0.11828142628E+04  0.20527258930E+04  0.78906789634E+02 0.  0.
         11    1    5    5    0    0 -0.15400903560E+02  0.27301004686E+02 -0.21071208367E+02  0.37769412351E+02  0.00000000000E+00 0. -1.
        -12    1    5    5    0    0 -0.14048037999E+03 -0.24223910944E+02 -0.16561451403E+03  0.21851705261E+03  0.00000000000E+00 0.  1.
         13    1    3    3    0    0  0.62137020050E+03  0.82854353889E+03 -0.78597686377E+03  0.13001326672E+04  0.00000000000E+00 0. -1.
        -14    1    3    3    0    0  0.40729524277E+03  0.59899306099E+03 -0.62591198901E+03  0.95731286416E+03  0.00000000000E+00 0.  1.
          2    1    6    6  502    0 -0.48689172355E+03 -0.76315774513E+03 -0.59603495779E+03  0.10838500659E+04  0.00000000000E+00 0. -1.
         -1    1    6    6    0  502 -0.38589243618E+03 -0.66745594849E+03 -0.58677930505E+03  0.96887582708E+03  0.00000000000E+00 0.  1.
<mgrwt>
<rscale>  0 0.18050666E+04</rscale>
<asrwt>0</asrwt>
<pdfrwt beam="1">  1        1 0.56521900E+00 0.18050666E+04</pdfrwt>
<pdfrwt beam="2">  1       -2 0.13731300E+00 0.18050666E+04</pdfrwt>
<totfact> 0.55413105E-02</totfact>
</mgrwt>
</event>
<event>
12    3  0.2422421E-007  0.9048012E+03  0.7818608E-02  0.9419600E-01
          1   -1    0    0  501    0  0.00000000000E+00  0.00000000000E+00  0.12264516106E+04  0.12264516106E+04  0.00000000000E+00 0. -1.
         -2   -1    0    0    0  501 -0.00000000000E+00 -0.00000000000E+00 -0.86771363907E+03  0.86771363907E+03  0.00000000000E+00 0.  1.
        -24    2    1    2    0    0 -0.58520644709E+03 -0.66469725056E+03  0.49222454790E+03  0.10161991268E+04  0.78016915881E+02 0.  0.
    5000000    2    1    2    0    0  0.58520644709E+03  0.66469725056E+03 -0.13348657638E+03  0.10779661228E+04  0.59991939069E+03 0.  0.
        -24    2    4    4    0    0  0.12389749127E+03  0.54483775187E+02  0.18844653729E+03  0.24411130798E+03  0.75889150538E+02 0.  0.
         24    2    4    4    0    0  0.46130895582E+03  0.61021347537E+03 -0.32193311366E+03  0.83385481487E+03  0.80662781740E+02 0.  0.
         11    1    5    5    0    0  0.58240466236E+02 -0.14026167389E+02  0.64777226612E+02  0.88231368382E+02  0.00000000000E+00 0. -1.
        -12    1    5    5    0    0  0.65657025033E+02  0.68509942576E+02  0.12366931067E+03  0.15587993960E+03  0.00000000000E+00 0.  1.
         11    1    3    3    0    0 -0.48525689270E+03 -0.56116265667E+03  0.37892885223E+03  0.83304552949E+03  0.00000000000E+00 0. -1.
        -12    1    3    3    0    0 -0.99949554385E+02 -0.10353459389E+03  0.11329569567E+03  0.18315359732E+03  0.00000000000E+00 0.  1.
          2    1    6    6  502    0  0.12757816670E+03  0.11441887700E+03 -0.64280330443E+02  0.18302958480E+03  0.00000000000E+00 0. -1.
         -1    1    6    6    0  502  0.33373078912E+03  0.49579459838E+03 -0.25765278322E+03  0.65082523006E+03  0.00000000000E+00 0.  1.
<mgrwt>
<rscale>  0 0.90480119E+03</rscale>
<asrwt>0</asrwt>
<pdfrwt beam="1">  1        1 0.18868486E+00 0.90480119E+03</pdfrwt>
<pdfrwt beam="2">  1       -2 0.13349441E+00 0.90480119E+03</pdfrwt>
<totfact> 0.36682656E+00</totfact>
</mgrwt>
</event>
<event>
12    3  0.2422421E-007  0.1496768E+04  0.7818608E-02  0.8886605E-01
          1   -1    0    0  501    0  0.00000000000E+00  0.00000000000E+00  0.20190477232E+04  0.20190477232E+04  0.00000000000E+00 0. -1.
         -2   -1    0    0    0  501 -0.00000000000E+00 -0.00000000000E+00 -0.25627992089E+04  0.25627992089E+04  0.00000000000E+00 0.  1.
        -24    2    1    2    0    0 -0.97402029655E+03 -0.10707778400E+04 -0.19816187211E+04  0.24552303900E+04  0.77863928766E+02 0.  0.
    5000000    2    1    2    0    0  0.97402029655E+03  0.10707778400E+04  0.14378672355E+04  0.21266165421E+04  0.59979580628E+03 0.  0.
        -24    2    4    4    0    0  0.59113010628E+03  0.98229419779E+03  0.92169497593E+03  0.14731928293E+04  0.80242072520E+02 0.  0.
         24    2    4    4    0    0  0.38289019027E+03  0.88483642241E+02  0.51617225956E+03  0.65342371271E+03  0.78067240525E+02 0.  0.
         11    1    3    3    0    0 -0.85268726827E+03 -0.89822088851E+03 -0.16802455949E+04  0.20873671458E+04  0.00000000000E+00 0. -1.
        -12    1    3    3    0    0 -0.12133302827E+03 -0.17255695152E+03 -0.30137312624E+03  0.36786324427E+03  0.00000000000E+00 0.  1.
         13    1    5    5    0    0  0.47862726777E+03  0.82409285444E+03  0.73098833057E+03  0.12010649581E+04  0.00000000000E+00 0. -1.
        -14    1    5    5    0    0  0.11250283850E+03  0.15820134334E+03  0.19070664536E+03  0.27212787121E+03  0.00000000000E+00 0.  1.
          4    1    6    6  502    0  0.22754997128E+03  0.24138183514E+02  0.25306469119E+03  0.34117939454E+03  0.00000000000E+00 0. -1.
         -3    1    6    6    0  502  0.15534021899E+03  0.64345458728E+02  0.26310756837E+03  0.31224431817E+03  0.00000000000E+00 0.  1.
<mgrwt>
<rscale>  0 0.14967678E+04</rscale>
<asrwt>0</asrwt>
<pdfrwt beam="1">  1        1 0.31062273E+00 0.14967678E+04</pdfrwt>
<pdfrwt beam="2">  1       -2 0.39427680E+00 0.14967678E+04</pdfrwt>
<totfact> 0.19342752E-02</totfact>
</mgrwt>
</event>
<event>
12    3  0.2422421E-007  0.4283694E+03  0.7818608E-02  0.1034376E+00
         -2   -1    0    0    0  501 -0.00000000000E+00  0.00000000000E+00  0.96175300389E+03  0.96175300389E+03  0.00000000000E+00 0.  1.
          1   -1    0    0  501    0  0.00000000000E+00 -0.00000000000E+00 -0.34695170080E+03  0.34695170080E+03  0.00000000000E+00 0. -1.
        -24    2    1    2    0    0  0.33737152230E+03  0.67503235650E+02 -0.38689800058E+02  0.35716883748E+03  0.87729396226E+02 0.  0.
    5000000    2    1    2    0    0 -0.33737152230E+03 -0.67503235650E+02  0.65349110315E+03  0.95153586720E+03  0.59999471148E+03 0.  0.
        -24    2    4    4    0    0 -0.13083265367E+03  0.14944708477E+03  0.59995331293E+03  0.63686357689E+03  0.78737687623E+02 0.  0.
         24    2    4    4    0    0 -0.20653886862E+03 -0.21695032042E+03  0.53537790212E+02  0.31467229031E+03  0.80166137033E+02 0.  0.
         11    1    3    3    0    0  0.48207959891E+02  0.38529754446E+01  0.24803811938E+02  0.54351466432E+02  0.00000000000E+00 0. -1.
        -12    1    3    3    0    0  0.28916356240E+03  0.63650260206E+02 -0.63493611997E+02  0.30281737105E+03  0.00000000000E+00 0.  1.
         13    1    5    5    0    0 -0.39974968473E+02  0.74633513026E+02  0.15509357477E+03  0.17669798048E+03  0.00000000000E+00 0. -1.
        -14    1    5    5    0    0 -0.90857685198E+02  0.74813571745E+02  0.44485973817E+03  0.46016559641E+03  0.00000000000E+00 0.  1.
          2    1    6    6  502    0 -0.81603443464E+02 -0.34026764524E+02  0.10810133817E+02  0.89071890529E+02  0.00000000000E+00 0. -1.
         -1    1    6    6    0  502 -0.12493542516E+03 -0.18292355590E+03  0.42727656395E+02  0.22560039978E+03  0.00000000000E+00 0.  1.
<mgrwt>
<rscale>  0 0.42836936E+03</rscale>
<asrwt>0</asrwt>
<pdfrwt beam="1">  1        1 0.53377185E-01 0.42836936E+03</pdfrwt>
<pdfrwt beam="2">  1       -2 0.14796200E+00 0.42836936E+03</pdfrwt>
<totfact> 0.20693479E+01</totfact>
</mgrwt>
</event>
<event>
12    3  0.2422421E-007  0.2599429E+03  0.7818608E-02  0.1107178E+00
         -2   -1    0    0    0  501 -0.00000000000E+00  0.00000000000E+00  0.47841899574E+03  0.47841899574E+03  0.00000000000E+00 0.  1.
          1   -1    0    0  501    0  0.00000000000E+00 -0.00000000000E+00 -0.43621907996E+03  0.43621907996E+03  0.00000000000E+00 0. -1.
        -24    2    1    2    0    0  0.20629804724E+03 -0.71996091579E+02 -0.11068722801E+03  0.25791141248E+03  0.80773217989E+02 0.  0.
    5000000    2    1    2    0    0 -0.20629804724E+03  0.71996091579E+02  0.15288714379E+03  0.65672666322E+03  0.60014424095E+03 0.  0.
        -24    2    4    4    0    0 -0.12849523058E+02 -0.39878455872E+02  0.34161744048E+03  0.35332675452E+03  0.79886909678E+02 0.  0.
         24    2    4    4    0    0 -0.19344852419E+03  0.11187454745E+03 -0.18873029669E+03  0.30339990869E+03  0.80586188829E+02 0.  0.
         13    1    5    5    0    0  0.15590481145E+02 -0.16818999828E+02  0.22540975072E+02  0.32156452148E+02  0.00000000000E+00 0. -1.
        -14    1    5    5    0    0 -0.28440004203E+02 -0.23059456044E+02  0.31907646540E+03  0.32117030237E+03  0.00000000000E+00 0.  1.
         13    1    3    3    0    0  0.19278302346E+03 -0.85355910131E+02 -0.88384812441E+02  0.22861058724E+03  0.00000000000E+00 0. -1.
        -14    1    3    3    0    0  0.13515023790E+02  0.13359818553E+02 -0.22302415569E+02  0.29300825245E+02  0.00000000000E+00 0.  1.
          4    1    6    6  502    0 -0.12687404895E+03  0.41171184280E+02 -0.14460936388E+03  0.19673321742E+03  0.00000000000E+00 0. -1.
         -3    1    6    6    0  502 -0.66574475233E+02  0.70703363171E+02 -0.44120932806E+02  0.10666669128E+03  0.00000000000E+00 0.  1.
<mgrwt>
<rscale>  0 0.25994291E+03</rscale>
<asrwt>0</asrwt>
<pdfrwt beam="1">  1        1 0.67110628E-01 0.25994291E+03</pdfrwt>
<pdfrwt beam="2">  1       -2 0.73602922E-01 0.25994291E+03</pdfrwt>
<totfact> 0.82413899E+01</totfact>
</mgrwt>
</event>
<event>
12    3  0.3814425E-007  0.1269229E+04  0.7818608E-02  0.9054329E-01
         -2   -1    0    0    0  501 -0.00000000000E+00  0.00000000000E+00  0.10809217480E+04  0.10809217480E+04  0.00000000000E+00 0.  1.
          1   -1    0    0  501    0  0.00000000000E+00 -0.00000000000E+00 -0.16831777475E+04  0.16831777475E+04  0.00000000000E+00 0. -1.
        -24    2    1    2    0    0 -0.12175424921E+04  0.85777745576E+02 -0.68464849746E+03  0.14017572536E+04  0.80076783534E+02 0.  0.
    5000000    2    1    2    0    0  0.12175424921E+04 -0.85777745576E+02  0.82392498015E+02  0.13623422419E+04  0.59951673745E+03 0.  0.
        -24    2    4    4    0    0  0.77861567887E+03 -0.29060760299E+03  0.19855751753E+03  0.85824636694E+03  0.80415074997E+02 0.  0.
         24    2    4    4    0    0  0.43892681324E+03  0.20482985742E+03 -0.11616501952E+03  0.50409587492E+03  0.77500461166E+02 0.  0.
         11    1    3    3    0    0 -0.69015869657E+03  0.12695832566E+02 -0.36690391391E+03  0.78172801706E+03  0.00000000000E+00 0. -1.
        -12    1    3    3    0    0 -0.52738379554E+03  0.73081913010E+02 -0.31774458355E+03  0.62002923656E+03  0.00000000000E+00 0.  1.
         13    1    5    5    0    0  0.25662136105E+03 -0.88784915572E+02  0.10337708651E+03  0.29055826644E+03  0.00000000000E+00 0. -1.
        -14    1    5    5    0    0  0.52199431782E+03 -0.20182268742E+03  0.95180431022E+02  0.56768810050E+03  0.00000000000E+00 0.  1.
          4    1    6    6  502    0  0.32475378377E+03  0.14487047697E+03 -0.49831628499E+02  0.35907612894E+03  0.00000000000E+00 0. -1.
         -3    1    6    6    0  502  0.11417302947E+03  0.59959380442E+02 -0.66333391020E+02  0.14501974599E+03  0.00000000000E+00 0.  1.
<mgrwt>
<rscale>  0 0.12692291E+04</rscale>
<asrwt>0</asrwt>
<pdfrwt beam="1">  1        1 0.25895042E+00 0.12692291E+04</pdfrwt>
<pdfrwt beam="2">  1       -2 0.16629565E+00 0.12692291E+04</pdfrwt>
<totfact> 0.94103889E-01</totfact>
</mgrwt>
</event>
<event>
12    3  0.2422421E-007  0.4240110E+03  0.7818608E-02  0.1035769E+00
         -2   -1    0    0    0  501 -0.00000000000E+00  0.00000000000E+00  0.32283070308E+03  0.32283070308E+03  0.00000000000E+00 0.  1.
          1   -1    0    0  501    0  0.00000000000E+00 -0.00000000000E+00 -0.81983705477E+03  0.81983705477E+03  0.00000000000E+00 0. -1.
        -24    2    1    2    0    0  0.75459524004E+02 -0.30101667383E+03 -0.30077718371E+03  0.43941166878E+03  0.79438798637E+02 0.  0.
    5000000    2    1    2    0    0 -0.75459524004E+02  0.30101667383E+03 -0.19622916798E+03  0.70325608908E+03  0.59979835176E+03 0.  0.
        -24    2    4    4    0    0 -0.24521511697E+03  0.19963054022E+03  0.98123844142E+02  0.34014040786E+03  0.78002577452E+02 0.  0.
         24    2    4    4    0    0  0.16975559296E+03  0.10138613361E+03 -0.29435301212E+03  0.36311568122E+03  0.78186909238E+02 0.  0.
         11    1    3    3    0    0  0.89036442139E+02 -0.23260712180E+03 -0.21641451154E+03  0.32995272684E+03  0.00000000000E+00 0. -1.
        -12    1    3    3    0    0 -0.13576918135E+02 -0.68409552028E+02 -0.84362672170E+02  0.10945894194E+03  0.00000000000E+00 0.  1.
         13    1    5    5    0    0 -0.20713675236E+03  0.18389989594E+03  0.58755450818E+02  0.28315545007E+03  0.00000000000E+00 0. -1.
        -14    1    5    5    0    0 -0.38078364607E+02  0.15730644280E+02  0.39368393324E+02  0.56984957783E+02  0.00000000000E+00 0.  1.
          4    1    6    6  502    0  0.11813762890E+03  0.10662252793E+03 -0.20163745221E+03  0.25687063857E+03  0.00000000000E+00 0. -1.
         -3    1    6    6    0  502  0.51617964067E+02 -0.52363943236E+01 -0.92715559903E+02  0.10624504265E+03  0.00000000000E+00 0.  1.
<mgrwt>
<rscale>  0 0.42401104E+03</rscale>
<asrwt>0</asrwt>
<pdfrwt beam="1">  1        1 0.12612878E+00 0.42401104E+03</pdfrwt>
<pdfrwt beam="2">  1       -2 0.49666263E-01 0.42401104E+03</pdfrwt>
<totfact> 0.75071611E+01</totfact>
</mgrwt>
</event>
<event>
12    3  0.2422421E-007  0.5758681E+03  0.7818608E-02  0.9956777E-01
         -2   -1    0    0    0  501 -0.00000000000E+00  0.00000000000E+00  0.61834644924E+03  0.61834644924E+03  0.00000000000E+00 0.  1.
          1   -1    0    0  501    0  0.00000000000E+00 -0.00000000000E+00 -0.78157738410E+03  0.78157738410E+03  0.00000000000E+00 0. -1.
        -24    2    1    2    0    0 -0.52190765413E+03 -0.13013125752E+03  0.89095717726E+02  0.55521549123E+03  0.10490210279E+03 0.  0.
    5000000    2    1    2    0    0  0.52190765413E+03  0.13013125752E+03 -0.25232665259E+03  0.84470834211E+03  0.60045124698E+03 0.  0.
        -24    2    4    4    0    0  0.42922886818E+03 -0.24808663210E+01 -0.41250791722E+03  0.60087081432E+03  0.81482376980E+02 0.  0.
         24    2    4    4    0    0  0.92678785943E+02  0.13261212384E+03  0.16018126463E+03  0.24383752778E+03  0.87311910200E+02 0.  0.
         11    1    5    5    0    0  0.36303811982E+03  0.57900696906E+01 -0.30422647741E+03  0.47369183116E+03  0.00000000000E+00 0. -1.
        -12    1    5    5    0    0  0.66190748361E+02 -0.82709360116E+01 -0.10828143981E+03  0.12717898317E+03  0.00000000000E+00 0.  1.
         13    1    3    3    0    0 -0.10378138909E+03 -0.84619427789E+01  0.56652758361E+02  0.11853993515E+03  0.00000000000E+00 0. -1.
        -14    1    3    3    0    0 -0.41812626504E+03 -0.12166931474E+03  0.32442959366E+02  0.43667555608E+03  0.00000000000E+00 0.  1.
          2    1    6    6  502    0  0.10541503098E+03  0.92426310687E+02  0.13556896416E+03  0.19502280817E+03  0.00000000000E+00 0. -1.
         -1    1    6    6    0  502 -0.12736245035E+02  0.40185813150E+02  0.24612300473E+02  0.48814719611E+02  0.00000000000E+00 0.  1.
<mgrwt>
<rscale>  0 0.57586811E+03</rscale>
<asrwt>0</asrwt>
<pdfrwt beam="1">  1        1 0.12024267E+00 0.57586811E+03</pdfrwt>
<pdfrwt beam="2">  1       -2 0.95130223E-01 0.57586811E+03</pdfrwt>
<totfact> 0.19443253E+01</totfact>
</mgrwt>
</event>
<event>
12    3  0.2422421E-007  0.6190168E+03  0.7818608E-02  0.9866719E-01
          1   -1    0    0  501    0  0.00000000000E+00  0.00000000000E+00  0.14862571016E+04  0.14862571016E+04  0.00000000000E+00 0. -1.
         -2   -1    0    0    0  501 -0.00000000000E+00 -0.00000000000E+00 -0.36130319217E+03  0.36130319217E+03  0.00000000000E+00 0.  1.
        -24    2    1    2    0    0 -0.26626525833E+03  0.50562480607E+03  0.21631823590E+03  0.61776338904E+03  0.91018642858E+02 0.  0.
    5000000    2    1    2    0    0  0.26626525833E+03 -0.50562480607E+03  0.90863567354E+03  0.12297969047E+04  0.60018997606E+03 0.  0.
        -24    2    4    4    0    0  0.32993912272E+03 -0.37513070115E+03  0.27625117094E+03  0.57683707595E+03  0.82725057283E+02 0.  0.
         24    2    4    4    0    0 -0.63673864387E+02 -0.13049410492E+03  0.63238450260E+03  0.65295982879E+03  0.73234598757E+02 0.  0.
         11    1    3    3    0    0 -0.17109698257E+03  0.38968064874E+03  0.13148644328E+03  0.44543671852E+03  0.00000000000E+00 0. -1.
        -12    1    3    3    0    0 -0.95168275764E+02  0.11594415733E+03  0.84831792622E+02  0.17232667052E+03  0.00000000000E+00 0.  1.
         11    1    5    5    0    0  0.16106906057E+03 -0.21827946851E+03  0.11034115818E+03  0.29285549309E+03  0.00000000000E+00 0. -1.
        -12    1    5    5    0    0  0.16887006215E+03 -0.15685123264E+03  0.16591001275E+03  0.28398158286E+03  0.00000000000E+00 0.  1.
          4    1    6    6  502    0 -0.63548164928E+00 -0.79799597156E+02  0.26397638228E+03  0.27577510756E+03  0.00000000000E+00 0. -1.
         -3    1    6    6    0  502 -0.63038382738E+02 -0.50694507764E+02  0.36840812032E+03  0.37718472123E+03  0.00000000000E+00 0.  1.
<mgrwt>
<rscale>  0 0.61901681E+03</rscale>
<asrwt>0</asrwt>
<pdfrwt beam="1">  1        1 0.22865494E+00 0.61901681E+03</pdfrwt>
<pdfrwt beam="2">  1       -2 0.55585107E-01 0.61901681E+03</pdfrwt>
<totfact> 0.18719612E+01</totfact>
</mgrwt>
</event>
<event>
12    3  0.2422421E-007  0.5378758E+03  0.7818608E-02  0.1004340E+00
         -2   -1    0    0    0  501 -0.00000000000E+00  0.00000000000E+00  0.79375268899E+03  0.79375268899E+03  0.00000000000E+00 0.  1.
          1   -1    0    0  501    0  0.00000000000E+00 -0.00000000000E+00 -0.56095003295E+03  0.56095003295E+03  0.00000000000E+00 0. -1.
        -24    2    1    2    0    0  0.48020898808E+03  0.21298733214E+03  0.15522543460E+03  0.55345047175E+03  0.79045640329E+02 0.  0.
    5000000    2    1    2    0    0 -0.48020898808E+03 -0.21298733214E+03  0.77577221435E+02  0.80125225018E+03  0.60001888908E+03 0.  0.
        -24    2    4    4    0    0 -0.36618106276E+03 -0.10158066276E+03  0.32254544602E+03  0.50482726625E+03  0.80048749077E+02 0.  0.
         24    2    4    4    0    0 -0.11402792532E+03 -0.11140666937E+03 -0.24496822458E+03  0.29642498393E+03  0.49442151153E+02 0.  0.
         11    1    3    3    0    0  0.29608185274E+03  0.89790067891E+02  0.99588971127E+02  0.32503028010E+03  0.00000000000E+00 0. -1.
        -12    1    3    3    0    0  0.18412713534E+03  0.12319726425E+03  0.55636463475E+02  0.22842019165E+03  0.00000000000E+00 0.  1.
         13    1    5    5    0    0 -0.21002387253E+03 -0.27518511031E+02  0.21189355369E+03  0.29961003584E+03  0.00000000000E+00 0. -1.
        -14    1    5    5    0    0 -0.15615719022E+03 -0.74062151733E+02  0.11065189233E+03  0.20521723040E+03  0.00000000000E+00 0.  1.
          2    1    6    6  502    0 -0.31571974985E+02 -0.40939235878E+02 -0.12172917914E+03  0.13225280222E+03  0.00000000000E+00 0. -1.
         -1    1    6    6    0  502 -0.82455950338E+02 -0.70467433496E+02 -0.12323904544E+03  0.16417218172E+03  0.00000000000E+00 0.  1.
<mgrwt>
<rscale>  0 0.53787580E+03</rscale>
<asrwt>0</asrwt>
<pdfrwt beam="1">  1        1 0.86300005E-01 0.53787580E+03</pdfrwt>
<pdfrwt beam="2">  1       -2 0.12211580E+00 0.53787580E+03</pdfrwt>
<totfact> 0.17495377E+01</totfact>
</mgrwt>
</event>
<event>
12    3  0.2422421E-007  0.5074132E+03  0.7818608E-02  0.1011862E+00
         -2   -1    0    0    0  501 -0.00000000000E+00  0.00000000000E+00  0.10327071858E+03  0.10327071858E+03  0.00000000000E+00 0.  1.
          1   -1    0    0  501    0  0.00000000000E+00 -0.00000000000E+00 -0.47078481545E+04  0.47078481545E+04  0.00000000000E+00 0. -1.
        -24    2    1    2    0    0  0.30372823445E+03 -0.35887446784E+03 -0.29678196454E+04  0.30056417137E+04  0.69906646585E+02 0.  0.
    5000000    2    1    2    0    0 -0.30372823445E+03  0.35887446784E+03 -0.16367577905E+04  0.18054771594E+04  0.59977494466E+03 0.  0.
        -24    2    4    4    0    0  0.83188251422E+01  0.22113068408E+02  0.18307617815E+02  0.86073153488E+02  0.80716963738E+02 0.  0.
         24    2    4    4    0    0 -0.31204705959E+03  0.33676139943E+03 -0.16550654083E+04  0.17194040059E+04  0.79542580766E+02 0.  0.
         11    1    3    3    0    0  0.88775584295E+02 -0.75703859735E+02 -0.89214407178E+03  0.89974064239E+03  0.00000000000E+00 0. -1.
        -12    1    3    3    0    0  0.21495265015E+03 -0.28317060810E+03 -0.20756755737E+04  0.21059010713E+04  0.00000000000E+00 0.  1.
         11    1    5    5    0    0 -0.74572581784E+01  0.50489286470E+02  0.61566935090E+01  0.51407038650E+02  0.00000000000E+00 0. -1.
        -12    1    5    5    0    0  0.15776083321E+02 -0.28376218062E+02  0.12150924306E+02  0.34666114838E+02  0.00000000000E+00 0.  1.
          4    1    6    6  502    0 -0.15301349705E+03  0.16142932827E+03 -0.65612970677E+03  0.69280498729E+03  0.00000000000E+00 0. -1.
         -3    1    6    6    0  502 -0.15903356254E+03  0.17533207117E+03 -0.99893570154E+03  0.10265990186E+04  0.00000000000E+00 0.  1.
<mgrwt>
<rscale>  0 0.50741317E+03</rscale>
<asrwt>0</asrwt>
<pdfrwt beam="1">  1        1 0.72428441E+00 0.50741317E+03</pdfrwt>
<pdfrwt beam="2">  1       -2 0.15887801E-01 0.50741317E+03</pdfrwt>
<totfact> 0.65957971E-01</totfact>
</mgrwt>
</event>
<event>
12    3  0.2422421E-007  0.7661177E+03  0.7818608E-02  0.9610398E-01
         -2   -1    0    0    0  501 -0.00000000000E+00  0.00000000000E+00  0.56314537167E+03  0.56314537167E+03  0.00000000000E+00 0.  1.
          1   -1    0    0  501    0  0.00000000000E+00 -0.00000000000E+00 -0.13422471843E+04  0.13422471843E+04  0.00000000000E+00 0. -1.
        -24    2    1    2    0    0 -0.67447163440E+03  0.25640117277E+03 -0.61771694072E+03  0.95320683002E+03  0.79846696425E+02 0.  0.
    5000000    2    1    2    0    0  0.67447163440E+03 -0.25640117277E+03 -0.16138487192E+03  0.95218572595E+03  0.59996585971E+03 0.  0.
        -24    2    4    4    0    0  0.11479155402E+03  0.89956861541E+02  0.14381101630E+03  0.22153760805E+03  0.84427279711E+02 0.  0.
         24    2    4    4    0    0  0.55968008038E+03 -0.34635803431E+03 -0.30519588822E+03  0.73064811790E+03  0.86582109611E+02 0.  0.
         13    1    3    3    0    0 -0.41769766639E+03  0.12356170064E+03 -0.39874475646E+03  0.59053891927E+03  0.00000000000E+00 0. -1.
        -14    1    3    3    0    0 -0.25677396801E+03  0.13283947213E+03 -0.21897218426E+03  0.36266791074E+03  0.00000000000E+00 0.  1.
         13    1    5    5    0    0  0.89008992526E+02  0.74263718288E+02  0.56107525410E+02  0.12878569413E+03  0.00000000000E+00 0. -1.
        -14    1    5    5    0    0  0.25782561498E+02  0.15693143252E+02  0.87703490889E+02  0.92751913925E+02  0.00000000000E+00 0.  1.
          4    1    6    6  502    0  0.27303114038E+03 -0.13055783529E+03 -0.17074755055E+03  0.34748536371E+03  0.00000000000E+00 0. -1.
         -3    1    6    6    0  502  0.28664894000E+03 -0.21580019902E+03 -0.13444833767E+03  0.38316275419E+03  0.00000000000E+00 0.  1.
<mgrwt>
<rscale>  0 0.76611775E+03</rscale>
<asrwt>0</asrwt>
<pdfrwt beam="1">  1        1 0.20649956E+00 0.76611775E+03</pdfrwt>
<pdfrwt beam="2">  1       -2 0.86637750E-01 0.76611775E+03</pdfrwt>
<totfact> 0.87749562E+00</totfact>
</mgrwt>
</event>
<event>
12    3  0.2422421E-007  0.9144641E+03  0.7818608E-02  0.9407679E-01
          1   -1    0    0  501    0  0.00000000000E+00  0.00000000000E+00  0.91159142296E+03  0.91159142296E+03  0.00000000000E+00 0. -1.
         -2   -1    0    0    0  501 -0.00000000000E+00 -0.00000000000E+00 -0.11190926417E+04  0.11190926417E+04  0.00000000000E+00 0.  1.
        -24    2    1    2    0    0  0.85116574935E+03  0.28792320691E+03 -0.28988546076E+03  0.94709454911E+03  0.74643142047E+02 0.  0.
    5000000    2    1    2    0    0 -0.85116574935E+03 -0.28792320691E+03  0.82384241976E+02  0.10835895156E+04  0.59999680750E+03 0.  0.
        -24    2    4    4    0    0 -0.21294177847E+03  0.57898898952E+01  0.26908341386E+03  0.35233313047E+03  0.79718425513E+02 0.  0.
         24    2    4    4    0    0 -0.63822397088E+03 -0.29371309680E+03 -0.18669917188E+03  0.73125638512E+03  0.79259698172E+02 0.  0.
         13    1    3    3    0    0  0.36605604490E+03  0.13447261750E+03 -0.16329047601E+03  0.42278090356E+03  0.00000000000E+00 0. -1.
        -14    1    3    3    0    0  0.48510970445E+03  0.15345058941E+03 -0.12659498475E+03  0.52431364555E+03  0.00000000000E+00 0.  1.
         13    1    5    5    0    0 -0.36442424505E+02 -0.27433049109E+02  0.36154961047E+02  0.58204842543E+02  0.00000000000E+00 0. -1.
        -14    1    5    5    0    0 -0.17649935397E+03  0.33222939004E+02  0.23292845281E+03  0.29412828792E+03  0.00000000000E+00 0.  1.
          4    1    6    6  502    0 -0.98145955548E+02 -0.22964384963E+02 -0.73999554752E+01  0.10106805088E+03  0.00000000000E+00 0. -1.
         -3    1    6    6    0  502 -0.54007801533E+03 -0.27074871184E+03 -0.17929921641E+03  0.63018833424E+03  0.00000000000E+00 0.  1.
<mgrwt>
<rscale>  0 0.91446409E+03</rscale>
<asrwt>0</asrwt>
<pdfrwt beam="1">  1        1 0.14024483E+00 0.91446409E+03</pdfrwt>
<pdfrwt beam="2">  1       -2 0.17216810E+00 0.91446409E+03</pdfrwt>
<totfact> 0.32271791E+00</totfact>
</mgrwt>
</event>
<event>
12    3  0.2422421E-007  0.1129141E+04  0.7818608E-02  0.9177245E-01
          1   -1    0    0  501    0  0.00000000000E+00  0.00000000000E+00  0.15638295407E+04  0.15638295407E+04  0.00000000000E+00 0. -1.
         -2   -1    0    0    0  501 -0.00000000000E+00 -0.00000000000E+00 -0.87778140488E+03  0.87778140488E+03  0.00000000000E+00 0.  1.
        -24    2    1    2    0    0  0.36864136592E+03 -0.98891603028E+03  0.23784241287E+02  0.10587156469E+04  0.80385068177E+02 0.  0.
    5000000    2    1    2    0    0 -0.36864136592E+03  0.98891603028E+03  0.66226389456E+03  0.13828952987E+04  0.59996214017E+03 0.  0.
        -24    2    4    4    0    0 -0.41283643487E+03  0.31323959075E+03  0.36716116146E+03  0.63999745870E+03  0.78971295358E+02 0.  0.
         24    2    4    4    0    0  0.44195068942E+02  0.67567643953E+03  0.29510273310E+03  0.74289784005E+03  0.79496682993E+02 0.  0.
         13    1    3    3    0    0  0.32119126040E+03 -0.92253533994E+03  0.21303937668E+02  0.97708194997E+03  0.00000000000E+00 0. -1.
        -14    1    3    3    0    0  0.47450105520E+02 -0.66380690336E+02  0.24803036181E+01  0.81633696899E+02  0.00000000000E+00 0.  1.
         13    1    5    5    0    0 -0.43278096907E+02  0.38550476059E+02  0.13811825447E+02  0.59581032204E+02  0.00000000000E+00 0. -1.
        -14    1    5    5    0    0 -0.36955833796E+03  0.27468911469E+03  0.35334933601E+03  0.58041642649E+03  0.00000000000E+00 0.  1.
          2    1    6    6  502    0  0.63855587273E+02  0.59318867873E+03  0.25032511774E+03  0.64700309827E+03  0.00000000000E+00 0. -1.
         -1    1    6    6    0  502 -0.19660518331E+02  0.82487760800E+02  0.44777615365E+02  0.95894741777E+02  0.00000000000E+00 0.  1.
<mgrwt>
<rscale>  0 0.11291411E+04</rscale>
<asrwt>0</asrwt>
<pdfrwt beam="1">  1        1 0.24058916E+00 0.11291411E+04</pdfrwt>
<pdfrwt beam="2">  1       -2 0.13504329E+00 0.11291411E+04</pdfrwt>
<totfact> 0.20116446E+00</totfact>
</mgrwt>
</event>
<event>
12    3  0.2422421E-007  0.5740567E+03  0.7818608E-02  0.9960742E-01
         -2   -1    0    0    0  501 -0.00000000000E+00  0.00000000000E+00  0.51636616805E+03  0.51636616805E+03  0.00000000000E+00 0.  1.
          1   -1    0    0  501    0  0.00000000000E+00 -0.00000000000E+00 -0.97714930530E+03  0.97714930530E+03  0.00000000000E+00 0. -1.
        -24    2    1    2    0    0  0.87694806167E+02  0.53419427166E+03  0.30039965009E+02  0.54781816062E+03  0.78411980625E+02 0.  0.
    5000000    2    1    2    0    0 -0.87694806167E+02 -0.53419427166E+03 -0.49082310226E+03  0.94569731274E+03  0.60031840777E+03 0.  0.
        -24    2    4    4    0    0 -0.82312896439E+02 -0.50787002566E+03 -0.80891489597E+02  0.52712900420E+03  0.81327597393E+02 0.  0.
         24    2    4    4    0    0 -0.53819097271E+01 -0.26324245994E+02 -0.40993161266E+03  0.41856830853E+03  0.80209544134E+02 0.  0.
         11    1    3    3    0    0  0.49637628332E+02  0.43642709162E+03  0.20902237292E+01  0.43924579621E+03  0.00000000000E+00 0. -1.
        -12    1    3    3    0    0  0.38057177835E+02  0.97767180032E+02  0.27949741280E+02  0.10857236441E+03  0.00000000000E+00 0.  1.
         13    1    5    5    0    0 -0.75412443086E+01 -0.26940833001E+03 -0.22244696050E+02  0.27043029629E+03  0.00000000000E+00 0. -1.
        -14    1    5    5    0    0 -0.74771652131E+02 -0.23846169565E+03 -0.58646793548E+02  0.25669870792E+03  0.00000000000E+00 0.  1.
          4    1    6    6  502    0  0.23099745912E+02  0.19735007397E+02 -0.14021874907E+03  0.14347252827E+03  0.00000000000E+00 0. -1.
         -3    1    6    6    0  502 -0.28481655639E+02 -0.46059253391E+02 -0.26971286359E+03  0.27509578026E+03  0.00000000000E+00 0.  1.
<mgrwt>
<rscale>  0 0.57405673E+03</rscale>
<asrwt>0</asrwt>
<pdfrwt beam="1">  1        1 0.15033066E+00 0.57405673E+03</pdfrwt>
<pdfrwt beam="2">  1       -2 0.79440949E-01 0.57405673E+03</pdfrwt>
<totfact> 0.20285418E+01</totfact>
</mgrwt>
</event>
<event>
12    3  0.2422421E-007  0.3791353E+03  0.7818608E-02  0.1051254E+00
         -2   -1    0    0    0  501 -0.00000000000E+00  0.00000000000E+00  0.32667482660E+03  0.32667482660E+03  0.00000000000E+00 0.  1.
          1   -1    0    0  501    0  0.00000000000E+00 -0.00000000000E+00 -0.22822726957E+04  0.22822726957E+04  0.00000000000E+00 0. -1.
        -24    2    1    2    0    0  0.23954273826E+03  0.18688813902E+03  0.18573769455E+03  0.36454376391E+03  0.78011311161E+02 0.  0.
    5000000    2    1    2    0    0 -0.23954273826E+03 -0.18688813902E+03 -0.21413355636E+04  0.22444037584E+04  0.59976856751E+03 0.  0.
        -24    2    4    4    0    0  0.75542365199E+02 -0.21838032844E+02 -0.15187876856E+04  0.15228956711E+04  0.79445846867E+02 0.  0.
         24    2    4    4    0    0 -0.31508510346E+03 -0.16505010618E+03 -0.62254787798E+03  0.72150808720E+03  0.80547498679E+02 0.  0.
         11    1    5    5    0    0  0.41109358021E+02 -0.29257711906E+02 -0.13231935220E+04  0.13241552362E+04  0.00000000000E+00 0. -1.
        -12    1    5    5    0    0  0.34433007178E+02  0.74196790620E+01 -0.19559416363E+03  0.19874043491E+03  0.00000000000E+00 0.  1.
         13    1    3    3    0    0  0.19108701720E+03  0.10574554777E+03  0.11770783224E+03  0.24809575326E+03  0.00000000000E+00 0. -1.
        -14    1    3    3    0    0  0.48455721062E+02  0.81142591251E+02  0.68029862304E+02  0.11644801065E+03  0.00000000000E+00 0.  1.
          2    1    6    6  502    0 -0.11520249597E+03 -0.31981736663E+02 -0.26607045830E+03  0.29169836362E+03  0.00000000000E+00 0. -1.
         -1    1    6    6    0  502 -0.19988260749E+03 -0.13306836952E+03 -0.35647741969E+03  0.42980972359E+03  0.00000000000E+00 0.  1.
<mgrwt>
<rscale>  0 0.37913535E+03</rscale>
<asrwt>0</asrwt>
<pdfrwt beam="1">  1        1 0.35111889E+00 0.37913535E+03</pdfrwt>
<pdfrwt beam="2">  1       -2 0.50257664E-01 0.37913535E+03</pdfrwt>
<totfact> 0.71782544E+00</totfact>
</mgrwt>
</event>
<event>
12    3  0.2422421E-007  0.1208896E+04  0.7818608E-02  0.9105106E-01
          3   -1    0    0  501    0  0.00000000000E+00  0.00000000000E+00  0.14752346286E+04  0.14752346286E+04  0.00000000000E+00 0. -1.
         -4   -1    0    0    0  501 -0.00000000000E+00 -0.00000000000E+00 -0.11882832884E+04  0.11882832884E+04  0.00000000000E+00 0.  1.
        -24    2    1    2    0    0 -0.89829619758E+03 -0.70210018889E+03 -0.39066552663E+03  0.12078207067E+04  0.79564891956E+02 0.  0.
    5000000    2    1    2    0    0  0.89829619758E+03  0.70210018889E+03  0.67761686681E+03  0.14556972103E+04  0.60000751337E+03 0.  0.
        -24    2    4    4    0    0  0.76809214928E+03  0.26201448369E+03  0.51660222228E+03  0.96533148162E+03  0.79811489735E+02 0.  0.
         24    2    4    4    0    0  0.13020404830E+03  0.44008570520E+03  0.16101464453E+03  0.49036572869E+03  0.62484478118E+02 0.  0.
         11    1    3    3    0    0 -0.37568795117E+03 -0.24928719376E+03 -0.17226658520E+03  0.48266066548E+03  0.00000000000E+00 0. -1.
        -12    1    3    3    0    0 -0.52260824640E+03 -0.45281299513E+03 -0.21839894143E+03  0.72516004122E+03  0.00000000000E+00 0.  1.
         11    1    5    5    0    0  0.72017739522E+03  0.22842750699E+03  0.49346399731E+03  0.90240862317E+03  0.00000000000E+00 0. -1.
        -12    1    5    5    0    0  0.47914754054E+02  0.33586976697E+02  0.23138224968E+02  0.62922858441E+02  0.00000000000E+00 0.  1.
          4    1    6    6  502    0  0.15380430060E+02  0.12650472975E+03  0.25432465918E+02  0.12994927703E+03  0.00000000000E+00 0. -1.
         -3    1    6    6    0  502  0.11482361824E+03  0.31358097545E+03  0.13558217862E+03  0.36041645166E+03  0.00000000000E+00 0.  1.
<mgrwt>
<rscale>  0 0.12088956E+04</rscale>
<asrwt>0</asrwt>
<pdfrwt beam="1">  1        3 0.22695917E+00 0.12088956E+04</pdfrwt>
<pdfrwt beam="2">  1       -4 0.18281281E+00 0.12088956E+04</pdfrwt>
<totfact> 0.37445567E-02</totfact>
</mgrwt>
</event>
<event>
12    3  0.2422421E-007  0.8702905E+03  0.7818608E-02  0.9463501E-01
          1   -1    0    0  501    0  0.00000000000E+00  0.00000000000E+00  0.19388124306E+04  0.19388124306E+04  0.00000000000E+00 0. -1.
         -2   -1    0    0    0  501 -0.00000000000E+00 -0.00000000000E+00 -0.43568663545E+03  0.43568663545E+03  0.00000000000E+00 0.  1.
        -24    2    1    2    0    0  0.11581871471E+03 -0.80625085396E+03  0.56213762168E+03  0.99287600917E+03  0.79684689185E+02 0.  0.
    5000000    2    1    2    0    0 -0.11581871471E+03  0.80625085396E+03  0.94098817343E+03  0.13816230568E+04  0.59997426151E+03 0.  0.
        -24    2    4    4    0    0 -0.26372923388E+03  0.63836609463E+03  0.42819822684E+03  0.81642601723E+03  0.78315647083E+02 0.  0.
         24    2    4    4    0    0  0.14791051917E+03  0.16788475933E+03  0.51278994659E+03  0.56519703960E+03  0.80195699099E+02 0.  0.
         11    1    5    5    0    0 -0.24137079214E+03  0.62013210742E+03  0.41791707774E+03  0.78579792174E+03  0.00000000000E+00 0. -1.
        -12    1    5    5    0    0 -0.22358441744E+02  0.18233987208E+02  0.10281149101E+02  0.30628095494E+02  0.00000000000E+00 0.  1.
         13    1    3    3    0    0  0.37064066886E+02 -0.95193776066E+02  0.85709445504E+02  0.13334807499E+03  0.00000000000E+00 0. -1.
        -14    1    3    3    0    0  0.78754647827E+02 -0.71105707789E+03  0.47642817618E+03  0.85952793417E+03  0.00000000000E+00 0.  1.
          2    1    6    6  502    0  0.47463801884E+02  0.89506510448E+02  0.30572434991E+03  0.32207391392E+03  0.00000000000E+00 0. -1.
         -1    1    6    6    0  502  0.10044671729E+03  0.78378248881E+02  0.20706559669E+03  0.24312312568E+03  0.00000000000E+00 0.  1.
<mgrwt>
<rscale>  0 0.87029048E+03</rscale>
<asrwt>0</asrwt>
<pdfrwt beam="1">  1        1 0.29827883E+00 0.87029048E+03</pdfrwt>
<pdfrwt beam="2">  1       -2 0.67028714E-01 0.87029048E+03</pdfrwt>
<totfact> 0.60211794E+00</totfact>
</mgrwt>
</event>
<event>
12    3  0.2422421E-007  0.8462369E+03  0.7818608E-02  0.9495402E-01
          1   -1    0    0  501    0  0.00000000000E+00  0.00000000000E+00  0.34137862357E+04  0.34137862357E+04  0.00000000000E+00 0. -1.
         -2   -1    0    0    0  501 -0.00000000000E+00 -0.00000000000E+00 -0.22853079258E+03  0.22853079258E+03  0.00000000000E+00 0.  1.
        -24    2    1    2    0    0  0.13657762224E+03  0.73483749361E+03  0.96549715339E+03  0.12244766429E+04  0.92296841576E+02 0.  0.
    5000000    2    1    2    0    0 -0.13657762224E+03 -0.73483749361E+03  0.22197582897E+04  0.24178403854E+04  0.59998806263E+03 0.  0.
        -24    2    4    4    0    0  0.20868771399E+03 -0.41176013924E+03  0.93463145042E+03  0.10461617860E+04  0.88439585071E+02 0.  0.
         24    2    4    4    0    0 -0.34526533623E+03 -0.32307735437E+03  0.12851268393E+04  0.13716785993E+04  0.79775042482E+02 0.  0.
         11    1    5    5    0    0  0.99273900027E+02 -0.10858769676E+03  0.31746218592E+03  0.34989832038E+03  0.00000000000E+00 0. -1.
        -12    1    5    5    0    0  0.10941381396E+03 -0.30317244248E+03  0.61716926450E+03  0.69626346566E+03  0.00000000000E+00 0.  1.
         11    1    3    3    0    0  0.10883671735E+03  0.48136638216E+03  0.57064883577E+03  0.75445286048E+03  0.00000000000E+00 0. -1.
        -12    1    3    3    0    0  0.27740904891E+02  0.25347111145E+03  0.39484831762E+03  0.47002378246E+03  0.00000000000E+00 0.  1.
          2    1    6    6  502    0 -0.10655838512E+03 -0.75318608328E+02  0.44783403992E+03  0.46645783251E+03  0.00000000000E+00 0. -1.
         -1    1    6    6    0  502 -0.23870695110E+03 -0.24775874604E+03  0.83729279940E+03  0.90522076682E+03  0.00000000000E+00 0.  1.
<mgrwt>
<rscale>  0 0.84623689E+03</rscale>
<asrwt>0</asrwt>
<pdfrwt beam="1">  1        1 0.52519785E+00 0.84623689E+03</pdfrwt>
<pdfrwt beam="2">  1       -2 0.35158586E-01 0.84623689E+03</pdfrwt>
<totfact> 0.20654791E+00</totfact>
</mgrwt>
</event>
<event>
12    3  0.2422421E-007  0.7990282E+03  0.7818608E-02  0.9561425E-01
         -2   -1    0    0    0  501 -0.00000000000E+00  0.00000000000E+00  0.25387739067E+03  0.25387739067E+03  0.00000000000E+00 0.  1.
          1   -1    0    0  501    0  0.00000000000E+00 -0.00000000000E+00 -0.26561230696E+04  0.26561230696E+04  0.00000000000E+00 0. -1.
        -24    2    1    2    0    0 -0.46199377578E+03 -0.50979247391E+03 -0.74190684426E+03  0.10152515820E+04  0.83566703086E+02 0.  0.
    5000000    2    1    2    0    0  0.46199377578E+03  0.50979247391E+03 -0.16603388347E+04  0.18947488783E+04  0.60001804180E+03 0.  0.
        -24    2    4    4    0    0  0.18147065719E+03  0.57856620669E+03 -0.11731026662E+04  0.13227197178E+04  0.75809836696E+02 0.  0.
         24    2    4    4    0    0  0.28052311859E+03 -0.68773732783E+02 -0.48723616846E+03  0.57202916051E+03  0.79970183404E+02 0.  0.
         13    1    5    5    0    0  0.49570739625E+02  0.27494750125E+03 -0.56781120381E+03  0.63282142018E+03  0.00000000000E+00 0. -1.
        -14    1    5    5    0    0  0.13189991756E+03  0.30361870544E+03 -0.60529146241E+03  0.68989829758E+03  0.00000000000E+00 0.  1.
         13    1    3    3    0    0 -0.14536237218E+03 -0.18912925249E+03 -0.30900440459E+03  0.39036369637E+03  0.00000000000E+00 0. -1.
        -14    1    3    3    0    0 -0.31663140360E+03 -0.32066322142E+03 -0.43290243967E+03  0.62488788562E+03  0.00000000000E+00 0.  1.
          4    1    6    6  502    0  0.12561303707E+03 -0.69485741356E+02 -0.26033297413E+03  0.29728800977E+03  0.00000000000E+00 0. -1.
         -3    1    6    6    0  502  0.15491008152E+03  0.71200857296E+00 -0.22690319433E+03  0.27474115074E+03  0.00000000000E+00 0.  1.
<mgrwt>
<rscale>  0 0.79902824E+03</rscale>
<asrwt>0</asrwt>
<pdfrwt beam="1">  1        1 0.40863430E+00 0.79902824E+03</pdfrwt>
<pdfrwt beam="2">  1       -2 0.39058062E-01 0.79902824E+03</pdfrwt>
<totfact> 0.60107048E+00</totfact>
</mgrwt>
</event>
<event>
12    3  0.2422421E-007  0.4065442E+03  0.7818608E-02  0.1041537E+00
          1   -1    0    0  501    0  0.00000000000E+00  0.00000000000E+00  0.82541377008E+03  0.82541377008E+03  0.00000000000E+00 0. -1.
         -2   -1    0    0    0  501 -0.00000000000E+00 -0.00000000000E+00 -0.24710302497E+03  0.24710302497E+03  0.00000000000E+00 0.  1.
        -24    2    1    2    0    0 -0.13753658839E+03  0.19608412713E+03  0.21253403237E+03  0.33010055731E+03  0.80189556456E+02 0.  0.
    5000000    2    1    2    0    0  0.13753658839E+03 -0.19608412713E+03  0.36577671274E+03  0.74241623774E+03  0.60001997335E+03 0.  0.
        -24    2    4    4    0    0  0.18301650695E+03 -0.35548576805E+03  0.38040938834E+03  0.55818176473E+03  0.83608651712E+02 0.  0.
         24    2    4    4    0    0 -0.45479918555E+02  0.15940164092E+03 -0.14632675595E+02  0.18423447301E+03  0.79062758176E+02 0.  0.
         11    1    3    3    0    0 -0.74426531719E+02  0.11485855930E+03  0.17135111579E+03  0.21930116769E+03  0.00000000000E+00 0. -1.
        -12    1    3    3    0    0 -0.63110056676E+02  0.81225567833E+02  0.41182916579E+02  0.11079938963E+03  0.00000000000E+00 0.  1.
         13    1    5    5    0    0  0.94197509195E+02 -0.21075162323E+03  0.27181999567E+03  0.35661677958E+03  0.00000000000E+00 0. -1.
        -14    1    5    5    0    0  0.88818997754E+02 -0.14473414482E+03  0.10858939267E+03  0.20156498515E+03  0.00000000000E+00 0.  1.
          2    1    6    6  502    0 -0.10683073504E+02  0.11859588798E+03  0.19505251674E+02  0.12066303307E+03  0.00000000000E+00 0. -1.
         -1    1    6    6    0  502 -0.34796845050E+02  0.40805752939E+02 -0.34137927270E+02  0.63571439944E+02  0.00000000000E+00 0.  1.
<mgrwt>
<rscale>  0 0.40654417E+03</rscale>
<asrwt>0</asrwt>
<pdfrwt beam="1">  1        1 0.12698673E+00 0.40654417E+03</pdfrwt>
<pdfrwt beam="2">  1       -2 0.38015850E-01 0.40654417E+03</pdfrwt>
<totfact> 0.12577313E+02</totfact>
</mgrwt>
</event>
<event>
12    3  0.2422421E-007  0.7453631E+03  0.7818608E-02  0.9642653E-01
         -2   -1    0    0    0  501 -0.00000000000E+00  0.00000000000E+00  0.47634185068E+03  0.47634185068E+03  0.00000000000E+00 0.  1.
          1   -1    0    0  501    0  0.00000000000E+00 -0.00000000000E+00 -0.12249406910E+04  0.12249406910E+04  0.00000000000E+00 0. -1.
        -24    2    1    2    0    0 -0.58989872030E+03  0.25567123328E+03 -0.33447782159E+03  0.72922126222E+03  0.80869996846E+02 0.  0.
    5000000    2    1    2    0    0  0.58989872030E+03 -0.25567123328E+03 -0.41412101867E+03  0.97206127942E+03  0.60004885893E+03 0.  0.
        -24    2    4    4    0    0  0.66346553786E+03 -0.10503623371E+03 -0.38571446635E+03  0.77869615891E+03  0.79830620901E+02 0.  0.
         24    2    4    4    0    0 -0.73566817564E+02 -0.15063499957E+03 -0.28406552327E+02  0.19336512050E+03  0.92087772638E+02 0.  0.
         11    1    5    5    0    0  0.61899385854E+03 -0.11304986733E+03 -0.37409306844E+03  0.73203776765E+03  0.00000000000E+00 0. -1.
        -12    1    5    5    0    0  0.44471679328E+02  0.80136336217E+01 -0.11621397901E+02  0.46658391263E+02  0.00000000000E+00 0.  1.
         13    1    3    3    0    0 -0.25357547172E+03  0.11281656786E+03 -0.18972149951E+03  0.33618796115E+03  0.00000000000E+00 0. -1.
        -14    1    3    3    0    0 -0.33632324858E+03  0.14285466542E+03 -0.14475632208E+03  0.39303330107E+03  0.00000000000E+00 0.  1.
          4    1    6    6  502    0 -0.31256356670E+02 -0.11124781499E+03 -0.57028288852E+02  0.12886140579E+03  0.00000000000E+00 0. -1.
         -3    1    6    6    0  502 -0.42310460894E+02 -0.39387184585E+02  0.28621736525E+02  0.64503714717E+02  0.00000000000E+00 0.  1.
<mgrwt>
<rscale>  0 0.74536306E+03</rscale>
<asrwt>0</asrwt>
<pdfrwt beam="1">  1        1 0.18845241E+00 0.74536306E+03</pdfrwt>
<pdfrwt beam="2">  1       -2 0.73283363E-01 0.74536306E+03</pdfrwt>
<totfact> 0.15522882E+01</totfact>
</mgrwt>
</event>
<event>
12    3  0.2422421E-007  0.4851967E+03  0.7818608E-02  0.1017717E+00
          1   -1    0    0  501    0  0.00000000000E+00  0.00000000000E+00  0.11033734524E+04  0.11033734524E+04  0.00000000000E+00 0. -1.
         -2   -1    0    0    0  501 -0.00000000000E+00 -0.00000000000E+00 -0.28314407636E+03  0.28314407636E+03  0.00000000000E+00 0.  1.
        -24    2    1    2    0    0  0.28278063750E+03 -0.14731500750E+03  0.11320910991E+02  0.32976434272E+03  0.83365210508E+02 0.  0.
    5000000    2    1    2    0    0 -0.28278063750E+03  0.14731500750E+03  0.80890846510E+03  0.10567531861E+04  0.60060618630E+03 0.  0.
        -24    2    4    4    0    0 -0.34348558871E+03 -0.12029845080E+03  0.58446607093E+03  0.69302309808E+03  0.78907284117E+02 0.  0.
         24    2    4    4    0    0  0.60704951209E+02  0.26761345830E+03  0.22444239416E+03  0.36373008800E+03  0.81382642239E+02 0.  0.
         11    1    5    5    0    0 -0.31031860177E+03 -0.11000752251E+03  0.47324618875E+03  0.57650780114E+03  0.00000000000E+00 0. -1.
        -12    1    5    5    0    0 -0.33166986945E+02 -0.10290928287E+02  0.11121988219E+03  0.11651529695E+03  0.00000000000E+00 0.  1.
         13    1    3    3    0    0  0.18639156768E+03 -0.76419047879E+02  0.43001304382E+02  0.20598737718E+03  0.00000000000E+00 0. -1.
        -14    1    3    3    0    0  0.96389069824E+02 -0.70895959620E+02 -0.31680393391E+02  0.12377696554E+03  0.00000000000E+00 0.  1.
          4    1    6    6  502    0  0.67655000114E+02  0.12167521781E+03  0.95102633064E+02  0.16860180451E+03  0.00000000000E+00 0. -1.
         -3    1    6    6    0  502 -0.69500489052E+01  0.14593824049E+03  0.12933976110E+03  0.19512828349E+03  0.00000000000E+00 0.  1.
<mgrwt>
<rscale>  0 0.48519670E+03</rscale>
<asrwt>0</asrwt>
<pdfrwt beam="1">  1        1 0.16974976E+00 0.48519670E+03</pdfrwt>
<pdfrwt beam="2">  1       -2 0.43560628E-01 0.48519670E+03</pdfrwt>
<totfact> 0.58086021E+01</totfact>
</mgrwt>
</event>
<event>
12    3  0.2422421E-007  0.9040487E+03  0.7818608E-02  0.9420534E-01
         -4   -1    0    0    0  501 -0.00000000000E+00  0.00000000000E+00  0.12199562710E+04  0.12199562710E+04  0.00000000000E+00 0.  1.
          1   -1    0    0  501    0  0.00000000000E+00 -0.00000000000E+00 -0.10829980927E+04  0.10829980927E+04  0.00000000000E+00 0. -1.
        -24    2    1    2    0    0 -0.68934509754E+03 -0.53877462490E+03  0.68065738856E+03  0.11112318154E+04  0.77890351882E+02 0.  0.
    5000000    2    1    2    0    0  0.68934509754E+03  0.53877462490E+03 -0.54369921022E+03  0.11917225484E+04  0.59926541803E+03 0.  0.
        -24    2    4    4    0    0  0.63222924309E+02  0.19416498721E+03  0.85414081354E+02  0.23628431837E+03  0.82689378971E+02 0.  0.
         24    2    4    4    0    0  0.62612217323E+03  0.34460963769E+03 -0.62911329157E+03  0.95543823004E+03  0.79334101036E+02 0.  0.
         11    1    3    3    0    0 -0.53166536202E+03 -0.37716679064E+03  0.48552676832E+03  0.81280937980E+03  0.00000000000E+00 0. -1.
        -12    1    3    3    0    0 -0.15767973552E+03 -0.16160783426E+03  0.19513062023E+03  0.29842243555E+03  0.00000000000E+00 0.  1.
         11    1    5    5    0    0  0.74544789194E+02  0.18885822920E+03  0.91111498737E+02  0.22254361715E+03  0.00000000000E+00 0. -1.
        -12    1    5    5    0    0 -0.11321864886E+02  0.53067580175E+01 -0.56974173833E+01  0.13740701219E+02  0.00000000000E+00 0.  1.
          2    1    6    6  502    0  0.45282107849E+03  0.25812165251E+03 -0.41124453449E+03  0.66392453168E+03  0.00000000000E+00 0. -1.
         -1    1    6    6    0  502  0.17330109474E+03  0.86487985185E+02 -0.21786875708E+03  0.29151369836E+03  0.00000000000E+00 0.  1.
<mgrwt>
<rscale>  0 0.90404869E+03</rscale>
<asrwt>0</asrwt>
<pdfrwt beam="1">  1        1 0.16661509E+00 0.90404869E+03</pdfrwt>
<pdfrwt beam="2">  1       -4 0.18768558E+00 0.90404869E+03</pdfrwt>
<totfact> 0.99338144E-01</totfact>
</mgrwt>
</event>
<event>
12    3  0.2422421E-007  0.4979934E+03  0.7818608E-02  0.1014304E+00
         -2   -1    0    0    0  501 -0.00000000000E+00  0.00000000000E+00  0.34492402433E+03  0.34492402433E+03  0.00000000000E+00 0.  1.
          1   -1    0    0  501    0  0.00000000000E+00 -0.00000000000E+00 -0.74396063609E+03  0.74396063609E+03  0.00000000000E+00 0. -1.
        -24    2    1    2    0    0 -0.22718961172E+03  0.22840460039E+03 -0.12093562640E+03  0.35327179085E+03  0.79948429163E+02 0.  0.
    5000000    2    1    2    0    0  0.22718961172E+03 -0.22840460039E+03 -0.27810098536E+03  0.73561286957E+03  0.60000196222E+03 0.  0.
        -24    2    4    4    0    0  0.41473757118E+03 -0.17776877169E+03 -0.25777793960E+03  0.52586910738E+03  0.80497595113E+02 0.  0.
         24    2    4    4    0    0 -0.18754795946E+03 -0.50635828694E+02 -0.20323045764E+02  0.20974376219E+03  0.76427713184E+02 0.  0.
         11    1    5    5    0    0  0.24849371085E+03 -0.73110969630E+02 -0.17555308277E+03  0.31291088681E+03  0.00000000000E+00 0. -1.
        -12    1    5    5    0    0  0.16624386033E+03 -0.10465780206E+03 -0.82224856822E+02  0.21295822057E+03  0.00000000000E+00 0.  1.
         11    1    3    3    0    0 -0.54995218119E+02  0.10969960989E+03 -0.41257379751E+02  0.12946292832E+03  0.00000000000E+00 0. -1.
        -12    1    3    3    0    0 -0.17219439360E+03  0.11870499050E+03 -0.79678246653E+02  0.22380886253E+03  0.00000000000E+00 0.  1.
          2    1    6    6  502    0 -0.11733289655E+03  0.73964599399E+01 -0.14640348758E+02  0.11847386228E+03  0.00000000000E+00 0. -1.
         -1    1    6    6    0  502 -0.70215062912E+02 -0.58032288634E+02 -0.56826970058E+01  0.91269899907E+02  0.00000000000E+00 0.  1.
<mgrwt>
<rscale>  0 0.49799340E+03</rscale>
<asrwt>0</asrwt>
<pdfrwt beam="1">  1        1 0.11445548E+00 0.49799340E+03</pdfrwt>
<pdfrwt beam="2">  1       -2 0.53065234E-01 0.49799340E+03</pdfrwt>
<totfact> 0.75684917E+01</totfact>
</mgrwt>
</event>
<event>
12    3  0.2422421E-007  0.4908064E+03  0.7818608E-02  0.1016207E+00
         -2   -1    0    0    0  501 -0.00000000000E+00  0.00000000000E+00  0.51221333200E+03  0.51221333200E+03  0.00000000000E+00 0.  1.
          1   -1    0    0  501    0  0.00000000000E+00 -0.00000000000E+00 -0.10427920371E+04  0.10427920371E+04  0.00000000000E+00 0. -1.
        -24    2    1    2    0    0 -0.15423909118E+03 -0.40154169533E+03 -0.67340843566E+03  0.80303740378E+03  0.79779197262E+02 0.  0.
    5000000    2    1    2    0    0  0.15423909118E+03  0.40154169533E+03  0.14282973059E+03  0.75196796528E+03  0.60002504824E+03 0.  0.
        -24    2    4    4    0    0  0.11548753176E+03 -0.39501869188E+01 -0.17945328661E+03  0.22653240853E+03  0.75897800188E+02 0.  0.
         24    2    4    4    0    0  0.38751559425E+02  0.40549188225E+03  0.32228301720E+03  0.52543555674E+03  0.79314760185E+02 0.  0.
         11    1    5    5    0    0  0.63311352937E+02 -0.38006791439E+02 -0.77498479632E+02  0.10704605528E+03  0.00000000000E+00 0. -1.
        -12    1    5    5    0    0  0.52176178820E+02  0.34056604520E+02 -0.10195480698E+03  0.11948635325E+03  0.00000000000E+00 0.  1.
         11    1    3    3    0    0 -0.10556206033E+03 -0.33023607659E+03 -0.58094634160E+03  0.67653371437E+03  0.00000000000E+00 0. -1.
        -12    1    3    3    0    0 -0.48677030849E+02 -0.71305618741E+02 -0.92462094062E+02  0.12650368941E+03  0.00000000000E+00 0.  1.
          4    1    6    6  502    0  0.55908819706E+02  0.26097898839E+03  0.23584847468E+03  0.35617458011E+03  0.00000000000E+00 0. -1.
         -3    1    6    6    0  502 -0.17157260281E+02  0.14451289386E+03  0.86434542521E+02  0.16926097664E+03  0.00000000000E+00 0.  1.
<mgrwt>
<rscale>  0 0.49080639E+03</rscale>
<asrwt>0</asrwt>
<pdfrwt beam="1">  1        1 0.16042954E+00 0.49080639E+03</pdfrwt>
<pdfrwt beam="2">  1       -2 0.78802052E-01 0.49080639E+03</pdfrwt>
<totfact> 0.18634538E+01</totfact>
</mgrwt>
</event>
<event>
12    3  0.2422421E-007  0.1328599E+04  0.7818608E-02  0.9007189E-01
         -2   -1    0    0    0  501 -0.00000000000E+00  0.00000000000E+00  0.10300343198E+04  0.10300343198E+04  0.00000000000E+00 0.  1.
          1   -1    0    0  501    0  0.00000000000E+00 -0.00000000000E+00 -0.19406582598E+04  0.19406582598E+04  0.00000000000E+00 0. -1.
        -24    2    1    2    0    0 -0.11389297514E+04  0.67165477082E+03 -0.15594408498E+03  0.13342785255E+04  0.87746887542E+02 0.  0.
    5000000    2    1    2    0    0  0.11389297514E+04 -0.67165477082E+03 -0.75467985500E+03  0.16364140541E+04  0.60002346875E+03 0.  0.
        -24    2    4    4    0    0  0.52987713324E+03 -0.37627894830E+03 -0.51170957585E+02  0.65684955709E+03  0.80481367338E+02 0.  0.
         24    2    4    4    0    0  0.60905261814E+03 -0.29537582252E+03 -0.70350889742E+03  0.97956449697E+03  0.80186450136E+02 0.  0.
         11    1    3    3    0    0 -0.37014768137E+03  0.22219959067E+03 -0.92338816671E+02  0.44148433854E+03  0.00000000000E+00 0. -1.
        -12    1    3    3    0    0 -0.76878207002E+03  0.44945518015E+03 -0.63605268304E+02  0.89279418697E+03  0.00000000000E+00 0.  1.
         13    1    5    5    0    0  0.51269083443E+03 -0.37881231066E+03 -0.48890536973E+02  0.63932850947E+03  0.00000000000E+00 0. -1.
        -14    1    5    5    0    0  0.17186298810E+02  0.25333623596E+01 -0.22804206128E+01  0.17521047623E+02  0.00000000000E+00 0.  1.
          4    1    6    6  502    0  0.36391180620E+03 -0.21217725129E+03 -0.40373918945E+03  0.58348635096E+03  0.00000000000E+00 0. -1.
         -3    1    6    6    0  502  0.24514081194E+03 -0.83198571230E+02 -0.29976970796E+03  0.39607814601E+03  0.00000000000E+00 0.  1.
<mgrwt>
<rscale>  0 0.13285988E+04</rscale>
<asrwt>0</asrwt>
<pdfrwt beam="1">  1        1 0.29856281E+00 0.13285988E+04</pdfrwt>
<pdfrwt beam="2">  1       -2 0.15846682E+00 0.13285988E+04</pdfrwt>
<totfact> 0.71370059E-01</totfact>
</mgrwt>
</event>
<event>
12    3  0.2422421E-007  0.7790207E+03  0.7818608E-02  0.9590890E-01
         -4   -1    0    0    0  501 -0.00000000000E+00  0.00000000000E+00  0.77155175229E+03  0.77155175229E+03  0.00000000000E+00 0.  1.
          1   -1    0    0  501    0  0.00000000000E+00 -0.00000000000E+00 -0.86465173737E+03  0.86465173737E+03  0.00000000000E+00 0. -1.
        -24    2    1    2    0    0  0.45900307511E+03  0.53276902498E+03 -0.59905984755E+01  0.70779635621E+03  0.80082068237E+02 0.  0.
    5000000    2    1    2    0    0 -0.45900307511E+03 -0.53276902498E+03 -0.87109386607E+02  0.92840713345E+03  0.59985423502E+03 0.  0.
        -24    2    4    4    0    0 -0.46078175113E+03 -0.59235377406E+03 -0.19642119889E+03  0.78026445468E+03  0.83836245425E+02 0.  0.
         24    2    4    4    0    0  0.17786760170E+01  0.59584749081E+02  0.10931181229E+03  0.14814267877E+03  0.80272504365E+02 0.  0.
         11    1    5    5    0    0 -0.21784369101E+03 -0.21367317747E+03 -0.73636215868E+02  0.31390188399E+03  0.00000000000E+00 0. -1.
        -12    1    5    5    0    0 -0.24293806011E+03 -0.37868059658E+03 -0.12278498303E+03  0.46636257069E+03  0.00000000000E+00 0.  1.
         13    1    3    3    0    0  0.22730450640E+03  0.28249957949E+03  0.35038589190E+02  0.36428155838E+03  0.00000000000E+00 0. -1.
        -14    1    3    3    0    0  0.23169856871E+03  0.25026944549E+03 -0.41029187665E+02  0.34351479783E+03  0.00000000000E+00 0.  1.
          2    1    6    6  502    0 -0.36439741539E+02  0.46213033996E+02  0.72880658404E+02  0.93675448459E+02  0.00000000000E+00 0. -1.
         -1    1    6    6    0  502  0.38218417556E+02  0.13371715085E+02  0.36431153882E+02  0.54467230313E+02  0.00000000000E+00 0.  1.
<mgrwt>
<rscale>  0 0.77902072E+03</rscale>
<asrwt>0</asrwt>
<pdfrwt beam="1">  1        1 0.13302334E+00 0.77902072E+03</pdfrwt>
<pdfrwt beam="2">  1       -4 0.11870027E+00 0.77902072E+03</pdfrwt>
<totfact> 0.51166681E+00</totfact>
</mgrwt>
</event>
<event>
12    3  0.2422421E-007  0.7927652E+03  0.7818608E-02  0.9570549E-01
          1   -1    0    0  501    0  0.00000000000E+00  0.00000000000E+00  0.26209313208E+04  0.26209313208E+04  0.00000000000E+00 0. -1.
         -2   -1    0    0    0  501 -0.00000000000E+00 -0.00000000000E+00 -0.44984910183E+03  0.44984910183E+03  0.00000000000E+00 0.  1.
        -24    2    1    2    0    0 -0.24651957432E+03 -0.74045395418E+03  0.11704261476E+03  0.79306894153E+03  0.78837894192E+02 0.  0.
    5000000    2    1    2    0    0  0.24651957432E+03  0.74045395418E+03  0.20540396042E+04  0.22777114811E+04  0.59987243366E+03 0.  0.
        -24    2    4    4    0    0  0.47559320105E+02  0.36928947019E+02  0.54194198759E+01  0.10090838061E+03  0.80792914972E+02 0.  0.
         24    2    4    4    0    0  0.19896025422E+03  0.70352500716E+03  0.20486201843E+04  0.21768031005E+04  0.84228618342E+02 0.  0.
         11    1    5    5    0    0  0.39949616429E+02  0.68580170629E+01 -0.32474072435E+02  0.51938132729E+02  0.00000000000E+00 0. -1.
        -12    1    5    5    0    0  0.76097036758E+01  0.30070929956E+02  0.37893492311E+02  0.48970247885E+02  0.00000000000E+00 0.  1.
         11    1    3    3    0    0 -0.98251428803E+02 -0.38304644483E+03  0.87429725043E+02  0.40499614687E+03  0.00000000000E+00 0. -1.
        -12    1    3    3    0    0 -0.14826814552E+03 -0.35740750935E+03  0.29612889718E+02  0.38807279466E+03  0.00000000000E+00 0.  1.
          2    1    6    6  502    0  0.13822212979E+03  0.53059986007E+03  0.16321084008E+04  0.17217489366E+04  0.00000000000E+00 0. -1.
         -1    1    6    6    0  502  0.60738124429E+02  0.17292514710E+03  0.41651178348E+03  0.45505416385E+03  0.00000000000E+00 0.  1.
<mgrwt>
<rscale>  0 0.79276518E+03</rscale>
<asrwt>0</asrwt>
<pdfrwt beam="1">  1        1 0.40322019E+00 0.79276518E+03</pdfrwt>
<pdfrwt beam="2">  1       -2 0.69207556E-01 0.79276518E+03</pdfrwt>
<totfact> 0.19631170E+00</totfact>
</mgrwt>
</event>
<event>
12    3  0.2422421E-007  0.8488558E+03  0.7818608E-02  0.9491874E-01
          1   -1    0    0  501    0  0.00000000000E+00  0.00000000000E+00  0.20300649462E+04  0.20300649462E+04  0.00000000000E+00 0. -1.
         -2   -1    0    0    0  501 -0.00000000000E+00 -0.00000000000E+00 -0.43983636506E+03  0.43983636506E+03  0.00000000000E+00 0.  1.
        -24    2    1    2    0    0 -0.69937337934E+02 -0.79846562697E+03  0.35590115143E+03  0.88066660764E+03  0.80432925705E+02 0.  0.
    5000000    2    1    2    0    0  0.69937337934E+02  0.79846562697E+03  0.12343274297E+04  0.15892347036E+04  0.59972006034E+03 0.  0.
        -24    2    4    4    0    0  0.21828958611E+03  0.36620407208E+03  0.95369792021E+03  0.10475957287E+04  0.78494088291E+02 0.  0.
         24    2    4    4    0    0 -0.14835224817E+03  0.43226155489E+03  0.28062950949E+03  0.54163897495E+03  0.75903993386E+02 0.  0.
         13    1    5    5    0    0  0.13660546654E+03  0.16393793508E+03  0.52144816874E+03  0.56342248157E+03  0.00000000000E+00 0. -1.
        -14    1    5    5    0    0  0.81684119568E+02  0.20226613700E+03  0.43224975147E+03  0.48417324710E+03  0.00000000000E+00 0.  1.
         13    1    3    3    0    0 -0.25308101142E+02 -0.55267625756E+03  0.27678907921E+03  0.61863053596E+03  0.00000000000E+00 0. -1.
        -14    1    3    3    0    0 -0.44629236793E+02 -0.24578936941E+03  0.79112072227E+02  0.26203607168E+03  0.00000000000E+00 0.  1.
          4    1    6    6  502    0 -0.15548053130E+03  0.38321259808E+03  0.24620892642E+03  0.48129505128E+03  0.00000000000E+00 0. -1.
         -3    1    6    6    0  502  0.71282831239E+01  0.49048956814E+02  0.34420583078E+02  0.60343923673E+02  0.00000000000E+00 0.  1.
<mgrwt>
<rscale>  0 0.84885577E+03</rscale>
<asrwt>0</asrwt>
<pdfrwt beam="1">  1        1 0.31231768E+00 0.84885577E+03</pdfrwt>
<pdfrwt beam="2">  1       -2 0.67667134E-01 0.84885577E+03</pdfrwt>
<totfact> 0.51384520E+00</totfact>
</mgrwt>
</event>
<event>
12    3  0.2422421E-007  0.1626660E+04  0.7818608E-02  0.8804335E-01
         -2   -1    0    0    0  501 -0.00000000000E+00  0.00000000000E+00  0.11486365614E+04  0.11486365614E+04  0.00000000000E+00 0.  1.
          1   -1    0    0  501    0  0.00000000000E+00 -0.00000000000E+00 -0.29688705134E+04  0.29688705134E+04  0.00000000000E+00 0. -1.
        -24    2    1    2    0    0 -0.27870698031E+03 -0.15573792747E+04  0.63478436415E+02  0.15854168869E+04  0.80058774701E+02 0.  0.
    5000000    2    1    2    0    0  0.27870698031E+03  0.15573792747E+04 -0.18837123885E+04  0.25320901878E+04  0.60000047574E+03 0.  0.
        -24    2    4    4    0    0 -0.15629778301E+03  0.44078386186E+03 -0.38121233926E+03  0.60859000667E+03  0.79621220592E+02 0.  0.
         24    2    4    4    0    0  0.43500476332E+03  0.11165954128E+04 -0.15025000492E+04  0.19235001812E+04  0.79574424865E+02 0.  0.
         11    1    3    3    0    0 -0.87333211857E+02 -0.57497918672E+03 -0.12111390193E+02  0.58169995773E+03  0.00000000000E+00 0. -1.
        -12    1    3    3    0    0 -0.19137376845E+03 -0.98240008796E+03  0.75589826609E+02  0.10037169292E+04  0.00000000000E+00 0.  1.
         13    1    5    5    0    0 -0.90713419046E+02  0.17510812581E+03 -0.19675662419E+03  0.27857664884E+03  0.00000000000E+00 0. -1.
        -14    1    5    5    0    0 -0.65584363967E+02  0.26567573605E+03 -0.18445571507E+03  0.33001335783E+03  0.00000000000E+00 0.  1.
          4    1    6    6  502    0  0.28137028943E+03  0.63589335684E+03 -0.90836859688E+03  0.11439681415E+04  0.00000000000E+00 0. -1.
         -1    1    6    6    0  502  0.15363447389E+03  0.48070205598E+03 -0.59413145232E+03  0.77953203964E+03  0.00000000000E+00 0.  1.
<mgrwt>
<rscale>  0 0.16266604E+04</rscale>
<asrwt>0</asrwt>
<pdfrwt beam="1">  1        1 0.45674930E+00 0.16266604E+04</pdfrwt>
<pdfrwt beam="2">  1       -2 0.17671332E+00 0.16266604E+04</pdfrwt>
<totfact> 0.98363487E-02</totfact>
</mgrwt>
</event>
<event>
12    3  0.2422421E-007  0.8852293E+03  0.7818608E-02  0.9444236E-01
         -4   -1    0    0    0  501 -0.00000000000E+00  0.00000000000E+00  0.86567792282E+03  0.86567792282E+03  0.00000000000E+00 0.  1.
          1   -1    0    0  501    0  0.00000000000E+00 -0.00000000000E+00 -0.13258493524E+04  0.13258493524E+04  0.00000000000E+00 0. -1.
        -24    2    1    2    0    0 -0.30698195476E+03  0.73935424494E+03 -0.79966922995E+03  0.11350697926E+04  0.89609914589E+02 0.  0.
    5000000    2    1    2    0    0  0.30698195476E+03 -0.73935424494E+03  0.33949780033E+03  0.10564574826E+04  0.59996752922E+03 0.  0.
        -24    2    4    4    0    0  0.28615941340E+03 -0.73702145454E+02  0.21511031371E+03  0.37424883873E+03  0.80439605291E+02 0.  0.
         24    2    4    4    0    0  0.20822541354E+02 -0.66565209948E+03  0.12438748661E+03  0.68220864390E+03  0.80063045212E+02 0.  0.
         11    1    5    5    0    0  0.17510525694E+03 -0.21625564579E+02  0.16559473415E+03  0.24197341182E+03  0.00000000000E+00 0. -1.
        -12    1    5    5    0    0  0.11105415646E+03 -0.52076580875E+02  0.49515579564E+02  0.13227542690E+03  0.00000000000E+00 0.  1.
         13    1    3    3    0    0 -0.18023480141E+03  0.36816053000E+03 -0.46067449504E+03  0.61664231923E+03  0.00000000000E+00 0. -1.
        -14    1    3    3    0    0 -0.12674715335E+03  0.37119371494E+03 -0.33899473490E+03  0.51842747341E+03  0.00000000000E+00 0.  1.
          4    1    6    6  502    0 -0.23052896124E+02 -0.31277301172E+03  0.81480391019E+02  0.32403309553E+03  0.00000000000E+00 0. -1.
         -3    1    6    6    0  502  0.43875437477E+02 -0.35287908776E+03  0.42907095595E+02  0.35817554837E+03  0.00000000000E+00 0.  1.
<mgrwt>
<rscale>  0 0.88522933E+03</rscale>
<asrwt>0</asrwt>
<pdfrwt beam="1">  1        1 0.20397682E+00 0.88522933E+03</pdfrwt>
<pdfrwt beam="2">  1       -4 0.13318122E+00 0.88522933E+03</pdfrwt>
<totfact> 0.16963672E+00</totfact>
</mgrwt>
</event>
<event>
12    3  0.2422421E-007  0.4843222E+03  0.7818608E-02  0.1017954E+00
         -2   -1    0    0    0  501 -0.00000000000E+00  0.00000000000E+00  0.18198795058E+03  0.18198795058E+03  0.00000000000E+00 0.  1.
          1   -1    0    0  501    0  0.00000000000E+00 -0.00000000000E+00 -0.18961067556E+04  0.18961067556E+04  0.00000000000E+00 0. -1.
        -24    2    1    2    0    0  0.35281253630E+02  0.40233262379E+03 -0.89754708369E+03  0.98742003639E+03  0.79317424216E+02 0.  0.
    5000000    2    1    2    0    0 -0.35281253630E+02 -0.40233262379E+03 -0.81657172130E+03  0.10906746698E+04  0.59972122876E+03 0.  0.
        -24    2    4    4    0    0  0.73967521130E+02  0.40640260687E+02  0.36918532021E+02  0.11960761670E+03  0.76290097617E+02 0.  0.
         24    2    4    4    0    0 -0.10924877476E+03 -0.44297288448E+03 -0.85349025332E+03  0.97106705307E+03  0.79783067605E+02 0.  0.
         11    1    3    3    0    0 -0.11307967665E+01  0.65753822250E+02 -0.22587008127E+03  0.23524909661E+03  0.00000000000E+00 0. -1.
        -12    1    3    3    0    0  0.36412050397E+02  0.33657880154E+03 -0.67167700242E+03  0.75217093977E+03  0.00000000000E+00 0.  1.
         13    1    5    5    0    0  0.43625432264E+02  0.56208215850E+02  0.25597041961E+01  0.71197569866E+02  0.00000000000E+00 0. -1.
        -14    1    5    5    0    0  0.30342088866E+02 -0.15567955163E+02  0.34358827824E+02  0.48410046831E+02  0.00000000000E+00 0.  1.
          2    1    6    6  502    0 -0.45683794580E+02 -0.95741097357E+02 -0.14681122924E+03  0.18112676181E+03  0.00000000000E+00 0. -1.
         -1    1    6    6    0  502 -0.63564980181E+02 -0.34723178712E+03 -0.70667902408E+03  0.78994029127E+03  0.00000000000E+00 0.  1.
<mgrwt>
<rscale>  0 0.48432224E+03</rscale>
<asrwt>0</asrwt>
<pdfrwt beam="1">  1        1 0.29170870E+00 0.48432224E+03</pdfrwt>
<pdfrwt beam="2">  1       -2 0.27998150E-01 0.48432224E+03</pdfrwt>
<totfact> 0.38513037E+01</totfact>
</mgrwt>
</event>
<event>
12    3  0.2422421E-007  0.8799827E+03  0.7818608E-02  0.9450956E-01
          1   -1    0    0  501    0  0.00000000000E+00  0.00000000000E+00  0.30101396232E+03  0.30101396232E+03  0.00000000000E+00 0. -1.
         -2   -1    0    0    0  501 -0.00000000000E+00 -0.00000000000E+00 -0.26772199605E+04  0.26772199605E+04  0.00000000000E+00 0.  1.
        -24    2    1    2    0    0 -0.73623137962E+03 -0.28933192482E+03 -0.92055616795E+03  0.12162652039E+04  0.78280143529E+02 0.  0.
    5000000    2    1    2    0    0  0.73623137962E+03  0.28933192482E+03 -0.14556498302E+04  0.17619687189E+04  0.59988976575E+03 0.  0.
        -24    2    4    4    0    0  0.11719766548E+03  0.31807900033E+03 -0.70393880132E+03  0.78411030986E+03  0.66254047315E+02 0.  0.
         24    2    4    4    0    0  0.61903371414E+03 -0.28747075503E+02 -0.75171102888E+03  0.97785840901E+03  0.84311704601E+02 0.  0.
         11    1    3    3    0    0 -0.35034566723E+03 -0.17393642228E+03 -0.48389264849E+03  0.62221223132E+03  0.00000000000E+00 0. -1.
        -12    1    3    3    0    0 -0.38588571239E+03 -0.11539550254E+03 -0.43666351946E+03  0.59405297261E+03  0.00000000000E+00 0.  1.
         13    1    5    5    0    0  0.37426321430E+02  0.19614338925E+03 -0.40876186568E+03  0.45492771021E+03  0.00000000000E+00 0. -1.
        -14    1    5    5    0    0  0.79771344052E+02  0.12193561108E+03 -0.29517693564E+03  0.32918259965E+03  0.00000000000E+00 0.  1.
          4    1    6    6  502    0  0.56503323838E+03 -0.35951273333E+02 -0.64643409802E+03  0.85932071872E+03  0.00000000000E+00 0. -1.
         -3    1    6    6    0  502  0.54000475759E+02  0.72041978305E+01 -0.10527693085E+03  0.11853769029E+03  0.00000000000E+00 0.  1.
<mgrwt>
<rscale>  0 0.87998269E+03</rscale>
<asrwt>0</asrwt>
<pdfrwt beam="1">  1        1 0.46309842E-01 0.87998269E+03</pdfrwt>
<pdfrwt beam="2">  1       -2 0.41187998E+00 0.87998269E+03</pdfrwt>
<totfact> 0.49411764E-01</totfact>
</mgrwt>
</event>
<event>
12    3  0.2422421E-007  0.5983436E+03  0.7818608E-02  0.9908849E-01
         -4   -1    0    0    0  501 -0.00000000000E+00  0.00000000000E+00  0.95405321879E+03  0.95405321879E+03  0.00000000000E+00 0.  1.
          3   -1    0    0  501    0  0.00000000000E+00 -0.00000000000E+00 -0.60196911212E+03  0.60196911212E+03  0.00000000000E+00 0. -1.
        -24    2    1    2    0    0  0.52183535861E+03 -0.55559219964E+02 -0.22022835582E+03  0.57475973657E+03  0.80307270285E+02 0.  0.
    5000000    2    1    2    0    0 -0.52183535861E+03  0.55559219964E+02  0.57231246249E+03  0.98126259435E+03  0.59994646089E+03 0.  0.
        -24    2    4    4    0    0 -0.51807525771E+01 -0.10305828356E+03  0.38010912319E+03  0.40196380447E+03  0.80275180283E+02 0.  0.
         24    2    4    4    0    0 -0.51665460603E+03  0.15861750352E+03  0.19220333930E+03  0.57929878987E+03  0.80953504916E+02 0.  0.
         11    1    3    3    0    0  0.24663404273E+03 -0.48152513566E+02 -0.14164847079E+03  0.28846369767E+03  0.00000000000E+00 0. -1.
        -12    1    3    3    0    0  0.27520131587E+03 -0.74067063978E+01 -0.78579885033E+02  0.28629603890E+03  0.00000000000E+00 0.  1.
         11    1    5    5    0    0  0.10710150335E+01 -0.11559518334E+03  0.35304005566E+03  0.37148442011E+03  0.00000000000E+00 0. -1.
        -12    1    5    5    0    0 -0.62517676106E+01  0.12536899780E+02  0.27069067524E+02  0.30479384360E+02  0.00000000000E+00 0.  1.
          2    1    6    6  502    0 -0.34906191330E+03  0.10431604874E+03  0.88644527935E+02  0.37494520889E+03  0.00000000000E+00 0. -1.
         -1    1    6    6    0  502 -0.16759269273E+03  0.54301454786E+02  0.10355881137E+03  0.20435358098E+03  0.00000000000E+00 0.  1.
<mgrwt>
<rscale>  0 0.59834359E+03</rscale>
<asrwt>0</asrwt>
<pdfrwt beam="1">  1        3 0.92610633E-01 0.59834359E+03</pdfrwt>
<pdfrwt beam="2">  1       -4 0.14677742E+00 0.59834359E+03</pdfrwt>
<totfact> 0.74696045E-01</totfact>
</mgrwt>
</event>
<event>
12    3  0.2422421E-007  0.7094394E+03  0.7818608E-02  0.9701224E-01
          3   -1    0    0  501    0  0.00000000000E+00  0.00000000000E+00  0.13021420764E+04  0.13021420764E+04  0.00000000000E+00 0. -1.
         -4   -1    0    0    0  501 -0.00000000000E+00 -0.00000000000E+00 -0.40684386324E+03  0.40684386324E+03  0.00000000000E+00 0.  1.
        -24    2    1    2    0    0  0.58614154680E+03  0.58418301264E+02  0.51415498600E+03  0.78588418046E+03  0.79271587954E+02 0.  0.
    5000000    2    1    2    0    0 -0.58614154680E+03 -0.58418301264E+02  0.38114322717E+03  0.92310175920E+03  0.59989339671E+03 0.  0.
        -24    2    4    4    0    0 -0.58104604804E+03  0.16015933305E+03  0.27749588086E+03  0.66830879277E+03  0.79794465370E+02 0.  0.
         24    2    4    4    0    0 -0.50954987623E+01 -0.21857763431E+03  0.10364734632E+03  0.25479296643E+03  0.79840697733E+02 0.  0.
         11    1    5    5    0    0 -0.19056439042E+03  0.48139776526E+02  0.50402772018E+02  0.20291048373E+03  0.00000000000E+00 0. -1.
        -12    1    5    5    0    0 -0.39048165762E+03  0.11201955652E+03  0.22709310884E+03  0.46539830904E+03  0.00000000000E+00 0.  1.
         13    1    3    3    0    0  0.28484262790E+03  0.30684559539E+02  0.30248538755E+03  0.41662246044E+03  0.00000000000E+00 0. -1.
        -14    1    3    3    0    0  0.30129891890E+03  0.27733741725E+02  0.21166959844E+03  0.36926172001E+03  0.00000000000E+00 0.  1.
          2    1    6    6  502    0 -0.32428923266E+02 -0.92307891310E+02  0.72842016526E+02  0.12197680613E+03  0.00000000000E+00 0. -1.
         -1    1    6    6    0  502  0.27333424504E+02 -0.12626974300E+03  0.30805329789E+02  0.13281616030E+03  0.00000000000E+00 0.  1.
<mgrwt>
<rscale>  0 0.70943937E+03</rscale>
<asrwt>0</asrwt>
<pdfrwt beam="1">  1        3 0.20032955E+00 0.70943937E+03</pdfrwt>
<pdfrwt beam="2">  1       -4 0.62591364E-01 0.70943937E+03</pdfrwt>
<totfact> 0.79715524E-01</totfact>
</mgrwt>
</event>
<event>
12    3  0.2863516E-007  0.8477992E+03  0.7818608E-02  0.9493295E-01
          1   -1    0    0  501    0  0.00000000000E+00  0.00000000000E+00  0.13550759961E+04  0.13550759961E+04  0.00000000000E+00 0. -1.
         -2   -1    0    0    0  501 -0.00000000000E+00 -0.00000000000E+00 -0.54867105181E+03  0.54867105181E+03  0.00000000000E+00 0.  1.
        -24    2    1    2    0    0 -0.75042646197E+03  0.87369902069E+02  0.37396906036E+03  0.84656252475E+03  0.77729502671E+02 0.  0.
    5000000    2    1    2    0    0  0.75042646197E+03 -0.87369902069E+02  0.43243588396E+03  0.10571845232E+04  0.59988744587E+03 0.  0.
        -24    2    4    4    0    0  0.53151157191E+02 -0.21523448801E+03  0.19575098004E+03  0.30550310212E+03  0.76568719968E+02 0.  0.
         24    2    4    4    0    0  0.69727530478E+03  0.12786458595E+03  0.23668490392E+03  0.75168142106E+03  0.80392860550E+02 0.  0.
         11    1    5    5    0    0  0.13703655102E+02 -0.11955032014E+03  0.15011466783E+03  0.19239148294E+03  0.00000000000E+00 0. -1.
        -12    1    5    5    0    0  0.39447502089E+02 -0.95684167872E+02  0.45636312214E+02  0.11311161919E+03  0.00000000000E+00 0.  1.
         11    1    3    3    0    0 -0.52193729080E+03  0.28375304104E+02  0.23959387679E+03  0.57500340800E+03  0.00000000000E+00 0. -1.
        -12    1    3    3    0    0 -0.22848917117E+03  0.58994597965E+02  0.13437518357E+03  0.27155911675E+03  0.00000000000E+00 0.  1.
          2    1    6    6  502    0  0.30603702569E+03  0.95089982924E+02  0.11838653583E+03  0.34163743620E+03  0.00000000000E+00 0. -1.
         -1    1    6    6    0  502  0.39123827910E+03  0.32774603022E+02  0.11829836808E+03  0.41004398487E+03  0.00000000000E+00 0.  1.
<mgrwt>
<rscale>  0 0.84779925E+03</rscale>
<asrwt>0</asrwt>
<pdfrwt beam="1">  1        1 0.20847323E+00 0.84779925E+03</pdfrwt>
<pdfrwt beam="2">  1       -2 0.84410931E-01 0.84779925E+03</pdfrwt>
<totfact> 0.90302572E+00</totfact>
</mgrwt>
</event>
<event>
12    3  0.2422421E-007  0.1015953E+04  0.7818608E-02  0.9291219E-01
          1   -1    0    0  501    0  0.00000000000E+00  0.00000000000E+00  0.10141488863E+04  0.10141488863E+04  0.00000000000E+00 0. -1.
         -2   -1    0    0    0  501 -0.00000000000E+00 -0.00000000000E+00 -0.10272589303E+04  0.10272589303E+04  0.00000000000E+00 0.  1.
        -24    2    1    2    0    0 -0.53446629625E+02  0.92857860154E+03 -0.34789381011E+02  0.93432785351E+03  0.81507517184E+02 0.  0.
    5000000    2    1    2    0    0  0.53446629625E+02 -0.92857860154E+03  0.21679336964E+02  0.11070799631E+04  0.60003440697E+03 0.  0.
        -24    2    4    4    0    0  0.30494173504E+03 -0.66099617168E+03  0.65363132760E+01  0.73226270584E+03  0.79123613576E+02 0.  0.
         24    2    4    4    0    0 -0.25149510541E+03 -0.26758242986E+03  0.15143023688E+02  0.37481725724E+03  0.73542643032E+02 0.  0.
         11    1    3    3    0    0  0.18134968659E+02  0.13480678123E+03  0.73705032483E+01  0.13622066536E+03  0.00000000000E+00 0. -1.
        -12    1    3    3    0    0 -0.71581598284E+02  0.79377182031E+03 -0.42159884259E+02  0.79810718814E+03  0.00000000000E+00 0.  1.
         13    1    5    5    0    0  0.15884468967E+03 -0.25788012535E+03 -0.11694972378E+02  0.30310157846E+03  0.00000000000E+00 0. -1.
        -14    1    5    5    0    0  0.14609704537E+03 -0.40311604633E+03  0.18231285654E+02  0.42916112737E+03  0.00000000000E+00 0.  1.
          4    1    6    6  502    0 -0.12531354396E+03 -0.13627667399E+03 -0.29113147304E+02  0.18740968897E+03  0.00000000000E+00 0. -1.
         -3    1    6    6    0  502 -0.12618156145E+03 -0.13130575587E+03  0.44256170992E+02  0.18740756827E+03  0.00000000000E+00 0.  1.
<mgrwt>
<rscale>  0 0.10159526E+04</rscale>
<asrwt>0</asrwt>
<pdfrwt beam="1">  1        1 0.15602290E+00 0.10159526E+04</pdfrwt>
<pdfrwt beam="2">  1       -2 0.15803984E+00 0.10159526E+04</pdfrwt>
<totfact> 0.33488891E+00</totfact>
</mgrwt>
</event>
<event>
12    3  0.2422421E-007  0.1402998E+04  0.7818608E-02  0.8951651E-01
         -2   -1    0    0    0  501 -0.00000000000E+00  0.00000000000E+00  0.19824632142E+04  0.19824632142E+04  0.00000000000E+00 0.  1.
          1   -1    0    0  501    0  0.00000000000E+00 -0.00000000000E+00 -0.13757903514E+04  0.13757903514E+04  0.00000000000E+00 0. -1.
        -24    2    1    2    0    0 -0.65792278749E+03  0.11794298701E+04 -0.57112708722E+03  0.14685154911E+04  0.80214617526E+02 0.  0.
    5000000    2    1    2    0    0  0.65792278749E+03 -0.11794298701E+04  0.11777999500E+04  0.18897380746E+04  0.59998337924E+03 0.  0.
        -24    2    4    4    0    0  0.14252514933E+03 -0.77983798666E+03  0.47624387297E+03  0.92861626852E+03  0.84019307315E+02 0.  0.
         24    2    4    4    0    0  0.51539763817E+03 -0.39959188347E+03  0.70155607708E+03  0.96112180607E+03  0.79156794075E+02 0.  0.
         11    1    3    3    0    0 -0.23803064745E+03  0.35449738611E+03 -0.16695350077E+03  0.45847623417E+03  0.00000000000E+00 0. -1.
        -12    1    3    3    0    0 -0.41989214005E+03  0.82493248402E+03 -0.40417358645E+03  0.10100392569E+04  0.00000000000E+00 0.  1.
         13    1    5    5    0    0  0.15025057795E+03 -0.66555342907E+03  0.39801772922E+03  0.78990804268E+03  0.00000000000E+00 0. -1.
        -14    1    5    5    0    0 -0.77254286205E+01 -0.11428455759E+03  0.78226143745E+02  0.13870822584E+03  0.00000000000E+00 0.  1.
          2    1    6    6  502    0  0.44437951149E+03 -0.37464059571E+03  0.60955238073E+03  0.84224867529E+03  0.00000000000E+00 0. -1.
         -1    1    6    6    0  502  0.71018126680E+02 -0.24951287768E+02  0.92003696348E+02  0.11887313077E+03  0.00000000000E+00 0.  1.
<mgrwt>
<rscale>  0 0.14029985E+04</rscale>
<asrwt>0</asrwt>
<pdfrwt beam="1">  1        1 0.21166005E+00 0.14029985E+04</pdfrwt>
<pdfrwt beam="2">  1       -2 0.30499434E+00 0.14029985E+04</pdfrwt>
<totfact> 0.19813061E-01</totfact>
</mgrwt>
</event>
<event>
12    3  0.2422421E-007  0.1669851E+04  0.7818608E-02  0.8778749E-01
          1   -1    0    0  501    0  0.00000000000E+00  0.00000000000E+00  0.42015886809E+04  0.42015886809E+04  0.00000000000E+00 0. -1.
         -2   -1    0    0    0  501 -0.00000000000E+00 -0.00000000000E+00 -0.10409375613E+04  0.10409375613E+04  0.00000000000E+00 0.  1.
        -24    2    1    2    0    0 -0.40353385081E+03  0.15703360023E+04  0.31156444158E+04  0.35131327434E+04  0.77889781002E+02 0.  0.
    5000000    2    1    2    0    0  0.40353385081E+03 -0.15703360023E+04  0.45006703827E+02  0.17293934988E+04  0.59998461767E+03 0.  0.
        -24    2    4    4    0    0 -0.11243435999E+03 -0.65425307639E+03 -0.58408120165E+02  0.66982847813E+03  0.67602576376E+02 0.  0.
         24    2    4    4    0    0  0.51596821079E+03 -0.91608292595E+03  0.10341482399E+03  0.10595650207E+04  0.80946189143E+02 0.  0.
         11    1    5    5    0    0 -0.47814087082E+02 -0.35795063524E+03 -0.62691664483E+02  0.36653115692E+03  0.00000000000E+00 0. -1.
        -12    1    5    5    0    0 -0.64620272903E+02 -0.29630244115E+03  0.42835443180E+01  0.30329732121E+03  0.00000000000E+00 0.  1.
         11    1    3    3    0    0 -0.24767987703E+03  0.11070707841E+04  0.21724683309E+04  0.24508304086E+04  0.00000000000E+00 0. -1.
        -12    1    3    3    0    0 -0.15585397377E+03  0.46326521820E+03  0.94317608487E+03  0.10623023348E+04  0.00000000000E+00 0.  1.
          2    1    6    6  502    0  0.12042022101E+03 -0.24800043764E+03 -0.43491672852E+01  0.27572479386E+03  0.00000000000E+00 0. -1.
         -1    1    6    6    0  502  0.39554798979E+03 -0.66808248832E+03  0.10776399128E+03  0.78384022685E+03  0.00000000000E+00 0.  1.
<mgrwt>
<rscale>  0 0.16698512E+04</rscale>
<asrwt>0</asrwt>
<pdfrwt beam="1">  1        1 0.64639825E+00 0.16698512E+04</pdfrwt>
<pdfrwt beam="2">  1       -2 0.16014424E+00 0.16698512E+04</pdfrwt>
<totfact> 0.13040610E-02</totfact>
</mgrwt>
</event>
<event>
12    3  0.2422421E-007  0.4905708E+03  0.7818608E-02  0.1016270E+00
         -2   -1    0    0    0  501 -0.00000000000E+00  0.00000000000E+00  0.22122848946E+03  0.22122848946E+03  0.00000000000E+00 0.  1.
          1   -1    0    0  501    0  0.00000000000E+00 -0.00000000000E+00 -0.13236908310E+04  0.13236908310E+04  0.00000000000E+00 0. -1.
        -24    2    1    2    0    0  0.17248137936E+03  0.32770125766E+03 -0.37123062987E+03  0.52921206313E+03  0.71521232543E+02 0.  0.
    5000000    2    1    2    0    0 -0.17248137936E+03 -0.32770125766E+03 -0.73123171170E+03  0.10157072574E+04  0.59985287860E+03 0.  0.
        -24    2    4    4    0    0 -0.22779814583E+03  0.38161172541E+02 -0.53774528304E+03  0.59080221140E+03  0.80802185804E+02 0.  0.
         24    2    4    4    0    0  0.55316766464E+02 -0.36586243021E+03 -0.19348642866E+03  0.42490504596E+03  0.78689500703E+02 0.  0.
         13    1    5    5    0    0 -0.64279074289E+01  0.52127723297E+01 -0.88579877762E+02  0.88965643557E+02  0.00000000000E+00 0. -1.
        -14    1    5    5    0    0 -0.22137023840E+03  0.32948400212E+02 -0.44916540528E+03  0.50183656784E+03  0.00000000000E+00 0.  1.
         13    1    3    3    0    0  0.76119924674E+02  0.76549448049E+02 -0.98465987895E+02  0.14611506322E+03  0.00000000000E+00 0. -1.
        -14    1    3    3    0    0  0.96361454687E+02  0.25115180962E+03 -0.27276464197E+03  0.38309699990E+03  0.00000000000E+00 0.  1.
          4    1    6    6  502    0 -0.29032367718E+00 -0.12108617318E+03 -0.10002432483E+03  0.15705671326E+03  0.00000000000E+00 0. -1.
         -3    1    6    6    0  502  0.55607090141E+02 -0.24477625703E+03 -0.93462103828E+02  0.26784833270E+03  0.00000000000E+00 0.  1.
<mgrwt>
<rscale>  0 0.49057079E+03</rscale>
<asrwt>0</asrwt>
<pdfrwt beam="1">  1        1 0.20364474E+00 0.49057079E+03</pdfrwt>
<pdfrwt beam="2">  1       -2 0.34035152E-01 0.49057079E+03</pdfrwt>
<totfact> 0.64979894E+01</totfact>
</mgrwt>
</event>
<event>
12    3  0.2422421E-007  0.1076689E+04  0.7818608E-02  0.9228215E-01
         -2   -1    0    0    0  501 -0.00000000000E+00  0.00000000000E+00  0.58471112952E+03  0.58471112952E+03  0.00000000000E+00 0.  1.
          1   -1    0    0  501    0  0.00000000000E+00 -0.00000000000E+00 -0.39634832430E+04  0.39634832430E+04  0.00000000000E+00 0. -1.
        -24    2    1    2    0    0 -0.74474344299E+03  0.72401897784E+03 -0.87647634233E+02  0.10453038270E+04  0.78305216107E+02 0.  0.
    5000000    2    1    2    0    0  0.74474344299E+03 -0.72401897784E+03 -0.32911244792E+04  0.35028905454E+04  0.59991296001E+03 0.  0.
        -24    2    4    4    0    0  0.50531405362E+03 -0.70604524088E+03 -0.29607084360E+04  0.30864456795E+04  0.80686518032E+02 0.  0.
         24    2    4    4    0    0  0.23942938937E+03 -0.17973736951E+02 -0.33041604318E+03  0.41644486598E+03  0.81253166664E+02 0.  0.
         11    1    3    3    0    0 -0.20264434749E+03  0.24681681979E+03 -0.21685763703E+02  0.32008365538E+03  0.00000000000E+00 0. -1.
        -12    1    3    3    0    0 -0.54209909551E+03  0.47720215805E+03 -0.65961870530E+02  0.72522017165E+03  0.00000000000E+00 0.  1.
         13    1    5    5    0    0  0.29484140690E+03 -0.47543450280E+03 -0.18593543723E+04  0.19416920722E+04  0.00000000000E+00 0. -1.
        -14    1    5    5    0    0  0.21047264672E+03 -0.23061073809E+03 -0.11013540637E+04  0.11447536072E+04  0.00000000000E+00 0.  1.
          4    1    6    6  502    0  0.10103117476E+03 -0.49597286440E+01 -0.75974280762E+02  0.12650687143E+03  0.00000000000E+00 0. -1.
         -3    1    6    6    0  502  0.13839821461E+03 -0.13014008307E+02 -0.25444176242E+03  0.28993799455E+03  0.00000000000E+00 0.  1.
<mgrwt>
<rscale>  0 0.10766893E+04</rscale>
<asrwt>0</asrwt>
<pdfrwt beam="1">  1        1 0.60976665E+00 0.10766893E+04</pdfrwt>
<pdfrwt beam="2">  1       -2 0.89955558E-01 0.10766893E+04</pdfrwt>
<totfact> 0.99128536E-02</totfact>
</mgrwt>
</event>
<event>
12    3  0.2422421E-007  0.1173765E+04  0.7818608E-02  0.9136135E-01
          1   -1    0    0  501    0  0.00000000000E+00  0.00000000000E+00  0.31092427712E+04  0.31092427712E+04  0.00000000000E+00 0. -1.
         -2   -1    0    0    0  501 -0.00000000000E+00 -0.00000000000E+00 -0.45158025485E+03  0.45158025485E+03  0.00000000000E+00 0.  1.
        -24    2    1    2    0    0 -0.10499940722E+04  0.32313654813E+03  0.14549071257E+04  0.18248221374E+04  0.79475206646E+02 0.  0.
    5000000    2    1    2    0    0  0.10499940722E+04 -0.32313654813E+03  0.12027553907E+04  0.17360008886E+04  0.60014479504E+03 0.  0.
        -24    2    4    4    0    0  0.49617480038E+01  0.94282856057E+02  0.12865407977E+03  0.17830263119E+03  0.79536659205E+02 0.  0.
         24    2    4    4    0    0  0.10450323242E+04 -0.41741940419E+03  0.10741013109E+04  0.15576982574E+04  0.79991983514E+02 0.  0.
         13    1    3    3    0    0 -0.49977780126E+03  0.11934678332E+03  0.64276286281E+03  0.82290072496E+03  0.00000000000E+00 0. -1.
        -14    1    3    3    0    0 -0.55021627097E+03  0.20378976481E+03  0.81214426285E+03  0.10019214125E+04  0.00000000000E+00 0.  1.
         13    1    5    5    0    0 -0.28433862620E+02  0.79759866631E+02  0.10495154372E+03  0.13485157543E+03  0.00000000000E+00 0. -1.
        -14    1    5    5    0    0  0.33395610623E+02  0.14522989426E+02  0.23702536054E+02  0.43451055754E+02  0.00000000000E+00 0.  1.
          4    1    6    6  502    0  0.27486406422E+03 -0.12656403455E+03  0.24568855672E+03  0.38978401140E+03  0.00000000000E+00 0. -1.
         -3    1    6    6    0  502  0.77016826001E+03 -0.29085536963E+03  0.82841275417E+03  0.11679142460E+04  0.00000000000E+00 0.  1.
<mgrwt>
<rscale>  0 0.11737650E+04</rscale>
<asrwt>0</asrwt>
<pdfrwt beam="1">  1        1 0.47834503E+00 0.11737650E+04</pdfrwt>
<pdfrwt beam="2">  1       -2 0.69473887E-01 0.11737650E+04</pdfrwt>
<totfact> 0.82572865E-01</totfact>
</mgrwt>
</event>
<event>
12    3  0.2422421E-007  0.5175591E+03  0.7818608E-02  0.1009295E+00
          1   -1    0    0  501    0  0.00000000000E+00  0.00000000000E+00  0.95166884278E+03  0.95166884278E+03  0.00000000000E+00 0. -1.
         -2   -1    0    0    0  501 -0.00000000000E+00 -0.00000000000E+00 -0.41828102039E+03  0.41828102039E+03  0.00000000000E+00 0.  1.
        -24    2    1    2    0    0 -0.48426274566E+03 -0.41159607373E+01  0.21797252337E+03  0.53688025995E+03  0.78746711712E+02 0.  0.
    5000000    2    1    2    0    0  0.48426274566E+03  0.41159607373E+01  0.31541529903E+03  0.83306960322E+03  0.59999233744E+03 0.  0.
        -24    2    4    4    0    0  0.35140967551E+03 -0.89549582617E+02 -0.96340405022E+02  0.38335822086E+03  0.78575849190E+02 0.  0.
         24    2    4    4    0    0  0.13285307016E+03  0.93665543354E+02  0.41175570405E+03  0.44971138236E+03  0.79211080958E+02 0.  0.
         11    1    3    3    0    0 -0.23448241050E+03 -0.40128143803E+01  0.14864599801E+03  0.27765758811E+03  0.00000000000E+00 0. -1.
        -12    1    3    3    0    0 -0.24978033516E+03 -0.10314635701E+00  0.69326525362E+02  0.25922267183E+03  0.00000000000E+00 0.  1.
         13    1    5    5    0    0  0.34176755938E+03 -0.70962186078E+02 -0.83887286442E+02  0.35899550599E+03  0.00000000000E+00 0. -1.
        -14    1    5    5    0    0  0.96421161326E+01 -0.18587396539E+02 -0.12453118580E+02  0.24362714873E+02  0.00000000000E+00 0.  1.
          2    1    6    6  502    0  0.12157112977E+03  0.43052084574E+02  0.29363074059E+03  0.32070552443E+03  0.00000000000E+00 0. -1.
         -1    1    6    6    0  502  0.11281940385E+02  0.50613458781E+02  0.11812496346E+03  0.12900585793E+03  0.00000000000E+00 0.  1.
<mgrwt>
<rscale>  0 0.51755906E+03</rscale>
<asrwt>0</asrwt>
<pdfrwt beam="1">  1        1 0.14641059E+00 0.51755906E+03</pdfrwt>
<pdfrwt beam="2">  1       -2 0.64350926E-01 0.51755906E+03</pdfrwt>
<totfact> 0.33898880E+01</totfact>
</mgrwt>
</event>
<event>
12    3  0.2422421E-007  0.1284864E+04  0.7818608E-02  0.9041655E-01
         -2   -1    0    0    0  501 -0.00000000000E+00  0.00000000000E+00  0.10830253854E+04  0.10830253854E+04  0.00000000000E+00 0.  1.
          1   -1    0    0  501    0  0.00000000000E+00 -0.00000000000E+00 -0.16465432858E+04  0.16465432858E+04  0.00000000000E+00 0. -1.
        -24    2    1    2    0    0 -0.33468983196E+03  0.11767977016E+04  0.67369776035E+02  0.12280205534E+04  0.81398271826E+02 0.  0.
    5000000    2    1    2    0    0  0.33468983196E+03 -0.11767977016E+04 -0.63088767640E+03  0.15015481178E+04  0.59979777899E+03 0.  0.
        -24    2    4    4    0    0  0.11185325880E+02 -0.94309656112E+03 -0.35954818871E+03  0.10125495149E+04  0.80158499631E+02 0.  0.
         24    2    4    4    0    0  0.32350450608E+03 -0.23370114052E+03 -0.27133948768E+03  0.48899860289E+03  0.78886801891E+02 0.  0.
         13    1    5    5    0    0 -0.19214533431E+02 -0.79972153849E+03 -0.30756138558E+03  0.85704010601E+03  0.00000000000E+00 0. -1.
        -14    1    5    5    0    0  0.30399859311E+02 -0.14337502263E+03 -0.51986803135E+02  0.15550940892E+03  0.00000000000E+00 0.  1.
         13    1    3    3    0    0 -0.15343328369E+03  0.47797942971E+03 -0.87328048063E+01  0.50207805135E+03  0.00000000000E+00 0. -1.
        -14    1    3    3    0    0 -0.18125654827E+03  0.69881827193E+03  0.76102580841E+02  0.72594250206E+03  0.00000000000E+00 0.  1.
          2    1    6    6  502    0  0.20090427365E+03 -0.13790826019E+03 -0.21025240588E+03  0.32184979350E+03  0.00000000000E+00 0. -1.
         -1    1    6    6    0  502  0.12260023243E+03 -0.95792880332E+02 -0.61087081797E+02  0.16714880938E+03  0.00000000000E+00 0.  1.
<mgrwt>
<rscale>  0 0.12848641E+04</rscale>
<asrwt>0</asrwt>
<pdfrwt beam="1">  1        1 0.25331435E+00 0.12848641E+04</pdfrwt>
<pdfrwt beam="2">  1       -2 0.16661929E+00 0.12848641E+04</pdfrwt>
<totfact> 0.98993167E-01</totfact>
</mgrwt>
</event>
<event>
12    3  0.2422421E-007  0.7820069E+03  0.7818608E-02  0.9586433E-01
          1   -1    0    0  501    0  0.00000000000E+00  0.00000000000E+00  0.24129158467E+04  0.24129158467E+04  0.00000000000E+00 0. -1.
         -2   -1    0    0    0  501 -0.00000000000E+00 -0.00000000000E+00 -0.37834221638E+03  0.37834221638E+03  0.00000000000E+00 0.  1.
        -24    2    1    2    0    0  0.73903128015E+03 -0.22687895413E+03  0.14668734416E+04  0.16600296056E+04  0.79619751856E+02 0.  0.
    5000000    2    1    2    0    0 -0.73903128015E+03  0.22687895413E+03  0.56770018867E+03  0.11312284575E+04  0.59979415291E+03 0.  0.
        -24    2    4    4    0    0 -0.58112402915E+03  0.21524207738E+03  0.67715580269E+03  0.92126309860E+03  0.78431030762E+02 0.  0.
         24    2    4    4    0    0 -0.15790725099E+03  0.11636876749E+02 -0.10945561402E+03  0.20996535885E+03  0.83873736418E+02 0.  0.
         11    1    3    3    0    0  0.39503337516E+03 -0.82993976706E+02  0.72914972460E+03  0.83342587465E+03  0.00000000000E+00 0. -1.
        -12    1    3    3    0    0  0.34399790499E+03 -0.14388497743E+03  0.73772371701E+03  0.82660373094E+03  0.00000000000E+00 0.  1.
         11    1    5    5    0    0 -0.37927094767E+03  0.17377851516E+03  0.42381669992E+03  0.59469825895E+03  0.00000000000E+00 0. -1.
        -12    1    5    5    0    0 -0.20185308149E+03  0.41463562228E+02  0.25333910278E+03  0.32656483965E+03  0.00000000000E+00 0.  1.
          2    1    6    6  502    0 -0.14285333486E+03  0.23860296603E+02 -0.59862777574E+02  0.15671611650E+03  0.00000000000E+00 0. -1.
         -1    1    6    6    0  502 -0.15053916138E+02 -0.12223419853E+02 -0.49592836444E+02  0.53249242347E+02  0.00000000000E+00 0.  1.
<mgrwt>
<rscale>  0 0.78200689E+03</rscale>
<asrwt>0</asrwt>
<pdfrwt beam="1">  1        1 0.37121781E+00 0.78200689E+03</pdfrwt>
<pdfrwt beam="2">  1       -2 0.58206496E-01 0.78200689E+03</pdfrwt>
<totfact> 0.39530940E+00</totfact>
</mgrwt>
</event>
<event>
12    3  0.2422421E-007  0.6962684E+03  0.7818608E-02  0.9723635E-01
         -2   -1    0    0    0  501 -0.00000000000E+00  0.00000000000E+00  0.37991296760E+03  0.37991296760E+03  0.00000000000E+00 0.  1.
          1   -1    0    0  501    0  0.00000000000E+00 -0.00000000000E+00 -0.17415369258E+04  0.17415369258E+04  0.00000000000E+00 0. -1.
        -24    2    1    2    0    0  0.59366640993E+03  0.13942704426E+03 -0.14138107814E+03  0.63113656410E+03  0.80405511884E+02 0.  0.
    5000000    2    1    2    0    0 -0.59366640993E+03 -0.13942704426E+03 -0.12202428800E+04  0.14903133293E+04  0.60013450676E+03 0.  0.
        -24    2    4    4    0    0 -0.40558213987E+03 -0.30951463704E+03 -0.10462989463E+04  0.11664237118E+04  0.74206520294E+02 0.  0.
         24    2    4    4    0    0 -0.18808427005E+03  0.17008759278E+03 -0.17394393371E+03  0.32388961747E+03  0.10169813357E+03 0.  0.
         13    1    5    5    0    0 -0.28667521062E+03 -0.20703287802E+03 -0.64610361772E+03  0.73654271688E+03  0.00000000000E+00 0. -1.
        -14    1    5    5    0    0 -0.11890692925E+03 -0.10248175902E+03 -0.40019532860E+03  0.42988099492E+03  0.00000000000E+00 0.  1.
         13    1    3    3    0    0  0.40848444359E+03  0.12653940518E+03 -0.76043274504E+02  0.43434357519E+03  0.00000000000E+00 0. -1.
        -14    1    3    3    0    0  0.18518196634E+03  0.12887639086E+02 -0.65337803638E+02  0.19679298891E+03  0.00000000000E+00 0.  1.
          2    1    6    6  502    0 -0.17390051814E+03  0.10736800288E+03 -0.15605925040E+03  0.25714542167E+03  0.00000000000E+00 0. -1.
         -1    1    6    6    0  502 -0.14183751918E+02  0.62719589906E+02 -0.17884683311E+02  0.66744195805E+02  0.00000000000E+00 0.  1.
<mgrwt>
<rscale>  0 0.69626841E+03</rscale>
<asrwt>0</asrwt>
<pdfrwt beam="1">  1        1 0.26792876E+00 0.69626841E+03</pdfrwt>
<pdfrwt beam="2">  1       -2 0.58448148E-01 0.69626841E+03</pdfrwt>
<totfact> 0.11205101E+01</totfact>
</mgrwt>
</event>
<event>
12    3  0.2422421E-007  0.4211148E+03  0.7818608E-02  0.1036704E+00
         -2   -1    0    0    0  501 -0.00000000000E+00  0.00000000000E+00  0.15205200326E+03  0.15205200326E+03  0.00000000000E+00 0.  1.
          1   -1    0    0  501    0  0.00000000000E+00 -0.00000000000E+00 -0.22890099977E+04  0.22890099977E+04  0.00000000000E+00 0. -1.
        -24    2    1    2    0    0  0.25784116437E+03  0.32602393739E+03 -0.10460996214E+04  0.11285192056E+04  0.80358607153E+02 0.  0.
    5000000    2    1    2    0    0 -0.25784116437E+03 -0.32602393739E+03 -0.10908583731E+04  0.13125427954E+04  0.60001910452E+03 0.  0.
        -24    2    4    4    0    0 -0.18425739789E+03 -0.20097756795E+03 -0.11111974902E+04  0.11468909866E+04  0.79096785013E+02 0.  0.
         24    2    4    4    0    0 -0.73583766485E+02 -0.12504636943E+03  0.20339117102E+02  0.16565180881E+03  0.77302502414E+02 0.  0.
         11    1    3    3    0    0  0.22652758077E+03  0.24582821701E+03 -0.77338608687E+03  0.84253919582E+03  0.00000000000E+00 0. -1.
        -12    1    3    3    0    0  0.31313583603E+02  0.80195720379E+02 -0.27271353449E+03  0.28598000976E+03  0.00000000000E+00 0.  1.
         13    1    5    5    0    0 -0.13931462658E+03 -0.13729949425E+03 -0.91714506040E+03  0.93777117578E+03  0.00000000000E+00 0. -1.
        -14    1    5    5    0    0 -0.44942771305E+02 -0.63678073703E+02 -0.19405242977E+03  0.20911981078E+03  0.00000000000E+00 0.  1.
          2    1    6    6  502    0 -0.76501246358E+02 -0.11738759076E+03 -0.37923660804E+01  0.14016657661E+03  0.00000000000E+00 0. -1.
         -1    1    6    6    0  502  0.29174798732E+01 -0.76587786702E+01  0.24131483182E+02  0.25485232196E+02  0.00000000000E+00 0.  1.
<mgrwt>
<rscale>  0 0.42111478E+03</rscale>
<asrwt>0</asrwt>
<pdfrwt beam="1">  1        1 0.35215535E+00 0.42111478E+03</pdfrwt>
<pdfrwt beam="2">  1       -2 0.23392618E-01 0.42111478E+03</pdfrwt>
<totfact> 0.29629325E+01</totfact>
</mgrwt>
</event>
<event>
12    3  0.2422421E-007  0.1276542E+04  0.7818608E-02  0.9048377E-01
          1   -1    0    0  501    0  0.00000000000E+00  0.00000000000E+00  0.12738022879E+04  0.12738022879E+04  0.00000000000E+00 0. -1.
         -2   -1    0    0    0  501 -0.00000000000E+00 -0.00000000000E+00 -0.23784150694E+04  0.23784150694E+04  0.00000000000E+00 0.  1.
        -24    2    1    2    0    0 -0.61540555174E+03  0.10567410195E+04  0.68449291534E+03  0.14035709814E+04  0.77816278745E+02 0.  0.
    5000000    2    1    2    0    0  0.61540555174E+03 -0.10567410195E+04 -0.17891056969E+04  0.22486463759E+04  0.60007145740E+03 0.  0.
        -24    2    4    4    0    0  0.54154727260E+03 -0.42385903139E+03 -0.70140856068E+03  0.98556157153E+03  0.80173033737E+02 0.  0.
         24    2    4    4    0    0  0.73858279140E+02 -0.63288198809E+03 -0.10876971362E+04  0.12630848044E+04  0.79394626605E+02 0.  0.
         13    1    3    3    0    0 -0.36502427206E+03  0.68520662238E+03  0.46052389270E+03  0.90268105679E+03  0.00000000000E+00 0. -1.
        -14    1    3    3    0    0 -0.25038127968E+03  0.37153439709E+03  0.22396902264E+03  0.50088992458E+03  0.00000000000E+00 0.  1.
         13    1    5    5    0    0  0.48576801693E+03 -0.34894382243E+03 -0.62274387176E+03  0.86344790653E+03  0.00000000000E+00 0. -1.
        -14    1    5    5    0    0  0.55779255666E+02 -0.74915208962E+02 -0.78664688920E+02  0.12211366500E+03  0.00000000000E+00 0.  1.
          4    1    6    6  502    0  0.41763814767E+02 -0.35284689725E+03 -0.68314259403E+03  0.77001880036E+03  0.00000000000E+00 0. -1.
         -3    1    6    6    0  502  0.32094464374E+02 -0.28003509083E+03 -0.40455454220E+03  0.49306600406E+03  0.00000000000E+00 0.  1.
<mgrwt>
<rscale>  0 0.12765418E+04</rscale>
<asrwt>0</asrwt>
<pdfrwt beam="1">  1        1 0.19596959E+00 0.12765418E+04</pdfrwt>
<pdfrwt beam="2">  1       -2 0.36591000E+00 0.12765418E+04</pdfrwt>
<totfact> 0.99530272E-02</totfact>
</mgrwt>
</event>
<event>
12    3  0.2422421E-007  0.8787609E+03  0.7818608E-02  0.9452528E-01
          1   -1    0    0  501    0  0.00000000000E+00  0.00000000000E+00  0.18419894332E+04  0.18419894332E+04  0.00000000000E+00 0. -1.
         -2   -1    0    0    0  501 -0.00000000000E+00 -0.00000000000E+00 -0.48234811668E+03  0.48234811668E+03  0.00000000000E+00 0.  1.
        -24    2    1    2    0    0  0.71174276580E+03  0.45539636141E+03  0.62268655415E+03  0.10527040776E+04  0.80521547477E+02 0.  0.
    5000000    2    1    2    0    0 -0.71174276580E+03 -0.45539636141E+03  0.73695476234E+03  0.12716334723E+04  0.59998812936E+03 0.  0.
        -24    2    4    4    0    0 -0.51473785363E+03 -0.15633817724E+03  0.72203976064E+03  0.90385599166E+03  0.78851468539E+02 0.  0.
         24    2    4    4    0    0 -0.19700491217E+03 -0.29905818417E+03  0.14915001699E+02  0.36777748060E+03  0.82408039772E+02 0.  0.
         13    1    5    5    0    0 -0.13061653539E+03 -0.69564627137E+02  0.16455021851E+03  0.22130678046E+03  0.00000000000E+00 0. -1.
        -14    1    5    5    0    0 -0.38412131824E+03 -0.86773550102E+02  0.55748954213E+03  0.68254921120E+03  0.00000000000E+00 0.  1.
         13    1    3    3    0    0  0.44095856859E+03  0.23853920370E+03  0.38626622467E+03  0.63288783148E+03  0.00000000000E+00 0. -1.
        -14    1    3    3    0    0  0.27078419721E+03  0.21685715771E+03  0.23642032948E+03  0.41981624611E+03  0.00000000000E+00 0.  1.
          2    1    6    6  502    0 -0.19864227324E+01 -0.55157844718E+02  0.23134558827E+01  0.55242065379E+02  0.00000000000E+00 0. -1.
         -3    1    6    6    0  502 -0.19501848944E+03 -0.24390033945E+03  0.12601545817E+02  0.31253541522E+03  0.00000000000E+00 0.  1.
<mgrwt>
<rscale>  0 0.87876087E+03</rscale>
<asrwt>0</asrwt>
<pdfrwt beam="1">  1        1 0.28338298E+00 0.87876087E+03</pdfrwt>
<pdfrwt beam="2">  1       -2 0.74207404E-01 0.87876087E+03</pdfrwt>
<totfact> 0.55895055E+00</totfact>
</mgrwt>
</event>
<event>
12    3  0.2422421E-007  0.8983065E+03  0.7818608E-02  0.9427701E-01
          1   -1    0    0  501    0  0.00000000000E+00  0.00000000000E+00  0.92197979062E+03  0.92197979062E+03  0.00000000000E+00 0. -1.
         -2   -1    0    0    0  501 -0.00000000000E+00 -0.00000000000E+00 -0.99457339806E+03  0.99457339806E+03  0.00000000000E+00 0.  1.
        -24    2    1    2    0    0 -0.31586828634E+03  0.76187024813E+03  0.21492329324E+03  0.85681965320E+03  0.87913860362E+02 0.  0.
    5000000    2    1    2    0    0  0.31586828634E+03 -0.76187024813E+03 -0.28751690068E+03  0.10597335355E+04  0.60012511091E+03 0.  0.
        -24    2    4    4    0    0  0.45659882926E+03 -0.62853486473E+03 -0.33277667234E+03  0.84882220869E+03  0.78868632795E+02 0.  0.
         24    2    4    4    0    0 -0.14073054292E+03 -0.13333538339E+03  0.45259771662E+02  0.21091132679E+03  0.69654365705E+02 0.  0.
         11    1    3    3    0    0 -0.23136166721E+03  0.56612733036E+03  0.19848559474E+03  0.64298126454E+03  0.00000000000E+00 0. -1.
        -12    1    3    3    0    0 -0.84506619123E+02  0.19574291777E+03  0.16437698494E+02  0.21383838866E+03  0.00000000000E+00 0.  1.
         11    1    5    5    0    0  0.41509396153E+03 -0.58561437695E+03 -0.28485346523E+03  0.77226206177E+03  0.00000000000E+00 0. -1.
        -12    1    5    5    0    0  0.41504867724E+02 -0.42920487787E+02 -0.47923207113E+02  0.76560146922E+02  0.00000000000E+00 0.  1.
          2    1    6    6  502    0 -0.88920147729E+02 -0.92868879465E+02  0.62481359133E+02  0.14295223567E+03  0.00000000000E+00 0. -1.
         -1    1    6    6    0  502 -0.51810395194E+02 -0.40466503928E+02 -0.17221587471E+02  0.67959091117E+02  0.00000000000E+00 0.  1.
<mgrwt>
<rscale>  0 0.89830650E+03</rscale>
<asrwt>0</asrwt>
<pdfrwt beam="1">  1        1 0.14184305E+00 0.89830650E+03</pdfrwt>
<pdfrwt beam="2">  1       -2 0.15301129E+00 0.89830650E+03</pdfrwt>
<totfact> 0.43778372E+00</totfact>
</mgrwt>
</event>
<event>
12    3  0.2422421E-007  0.4005478E+03  0.7818608E-02  0.1043590E+00
         -2   -1    0    0    0  501 -0.00000000000E+00  0.00000000000E+00  0.36453775271E+03  0.36453775271E+03  0.00000000000E+00 0.  1.
          1   -1    0    0  501    0  0.00000000000E+00 -0.00000000000E+00 -0.17248074814E+04  0.17248074814E+04  0.00000000000E+00 0. -1.
        -24    2    1    2    0    0  0.18988379955E+03 -0.13863643374E+03  0.25169860682E+03  0.35332888705E+03  0.78823826716E+02 0.  0.
    5000000    2    1    2    0    0 -0.18988379955E+03  0.13863643374E+03 -0.16119683355E+04  0.17360163470E+04  0.60002910304E+03 0.  0.
        -24    2    4    4    0    0 -0.36368304965E+03  0.62863863270E+02 -0.63951849275E+03  0.74204047550E+03  0.73640605665E+02 0.  0.
         24    2    4    4    0    0  0.17379925010E+03  0.75772570467E+02 -0.97244984272E+03  0.99397587153E+03  0.79885385375E+02 0.  0.
         11    1    5    5    0    0 -0.23561483296E+03  0.32560638588E+02 -0.34057208045E+03  0.41540809655E+03  0.00000000000E+00 0. -1.
        -12    1    5    5    0    0 -0.12806821669E+03  0.30303224682E+02 -0.29894641230E+03  0.32663237895E+03  0.00000000000E+00 0.  1.
         11    1    3    3    0    0  0.10927587962E+03 -0.44548950949E+02  0.84106021720E+02  0.14491255911E+03  0.00000000000E+00 0. -1.
        -12    1    3    3    0    0  0.80607919929E+02 -0.94087482788E+02  0.16759258510E+03  0.20841632794E+03  0.00000000000E+00 0.  1.
          4    1    6    6  502    0  0.12503548328E+03  0.57994184939E+02 -0.49886554566E+03  0.51755582328E+03  0.00000000000E+00 0. -1.
         -1    1    6    6    0  502  0.48763766824E+02  0.17778385528E+02 -0.47358429707E+03  0.47642004825E+03  0.00000000000E+00 0.  1.
<mgrwt>
<rscale>  0 0.40054782E+03</rscale>
<asrwt>0</asrwt>
<pdfrwt beam="1">  1        1 0.26535499E+00 0.40054782E+03</pdfrwt>
<pdfrwt beam="2">  1       -2 0.56082732E-01 0.40054782E+03</pdfrwt>
<totfact> 0.13275432E+01</totfact>
</mgrwt>
</event>
<event>
12    3  0.2422421E-007  0.4227315E+03  0.7818608E-02  0.1036181E+00
          1   -1    0    0  501    0  0.00000000000E+00  0.00000000000E+00  0.95056658113E+03  0.95056658113E+03  0.00000000000E+00 0. -1.
         -4   -1    0    0    0  501 -0.00000000000E+00 -0.00000000000E+00 -0.24652147676E+03  0.24652147676E+03  0.00000000000E+00 0.  1.
        -24    2    1    2    0    0 -0.21518317756E+03  0.52338632488E+02 -0.13376339089E+02  0.23597891735E+03  0.80398946708E+02 0.  0.
    5000000    2    1    2    0    0  0.21518317756E+03 -0.52338632488E+02  0.71742144346E+03  0.96110914053E+03  0.59999510009E+03 0.  0.
        -24    2    4    4    0    0  0.11197769402E+03  0.25419197259E+03  0.44021595108E+03  0.52704872378E+03  0.82690451449E+02 0.  0.
         24    2    4    4    0    0  0.10320548354E+03 -0.30653060508E+03  0.27720549238E+03  0.43406041676E+03  0.83385710472E+02 0.  0.
         13    1    5    5    0    0  0.46280340756E+02  0.13871655223E+03  0.30083174502E+03  0.33449049406E+03  0.00000000000E+00 0. -1.
        -14    1    5    5    0    0  0.65697353265E+02  0.11547542036E+03  0.13938420606E+03  0.19255822972E+03  0.00000000000E+00 0.  1.
         13    1    3    3    0    0 -0.77253395181E+02 -0.16118944617E+02 -0.21460086726E+02  0.81782900198E+02  0.00000000000E+00 0. -1.
        -14    1    3    3    0    0 -0.13792978238E+03  0.68457577105E+02  0.80837476367E+01  0.15419601716E+03  0.00000000000E+00 0.  1.
          2    1    6    6  502    0  0.17377299317E+02 -0.17844905144E+03  0.13668862548E+03  0.22545468464E+03  0.00000000000E+00 0. -1.
         -1    1    6    6    0  502  0.85828184225E+02 -0.12808155364E+03  0.14051686690E+03  0.20860573212E+03  0.00000000000E+00 0.  1.
<mgrwt>
<rscale>  0 0.42273153E+03</rscale>
<asrwt>0</asrwt>
<pdfrwt beam="1">  1        1 0.14624101E+00 0.42273153E+03</pdfrwt>
<pdfrwt beam="2">  1       -4 0.37926381E-01 0.42273153E+03</pdfrwt>
<totfact> 0.55641378E+01</totfact>
</mgrwt>
</event>
<event>
12    3  0.2422421E-007  0.6329025E+03  0.7818608E-02  0.9839401E-01
         -2   -1    0    0    0  501 -0.00000000000E+00  0.00000000000E+00  0.11627476971E+04  0.11627476971E+04  0.00000000000E+00 0.  1.
          1   -1    0    0  501    0  0.00000000000E+00 -0.00000000000E+00 -0.12490593972E+04  0.12490593972E+04  0.00000000000E+00 0. -1.
        -24    2    1    2    0    0  0.23933092624E+03 -0.52466463326E+03 -0.10120666689E+04  0.11669746623E+04  0.70701134233E+02 0.  0.
    5000000    2    1    2    0    0 -0.23933092624E+03  0.52466463326E+03  0.92575496886E+03  0.12448324320E+04  0.60002770919E+03 0.  0.
        -24    2    4    4    0    0  0.55173427999E+02  0.28626364839E+03  0.76787404255E+02  0.31220728351E+03  0.81154783452E+02 0.  0.
         24    2    4    4    0    0 -0.29450435424E+03  0.23840098488E+03  0.84896756460E+03  0.93262514852E+03  0.73999308386E+02 0.  0.
         11    1    5    5    0    0 -0.15734945624E+02  0.13083443970E+03  0.33374302636E+02  0.13593779166E+03  0.00000000000E+00 0. -1.
        -12    1    5    5    0    0  0.70908373623E+02  0.15542920869E+03  0.43413101619E+02  0.17626949184E+03  0.00000000000E+00 0.  1.
         11    1    3    3    0    0  0.19500010011E+03 -0.35665703408E+03 -0.73561934472E+03  0.84045529287E+03  0.00000000000E+00 0. -1.
        -12    1    3    3    0    0  0.44330826138E+02 -0.16800759919E+03 -0.27644732421E+03  0.32651936940E+03  0.00000000000E+00 0.  1.
          2    1    6    6  502    0 -0.27158352203E+03  0.23618568339E+03  0.76303852070E+03  0.84366407447E+03  0.00000000000E+00 0. -1.
         -1    1    6    6    0  502 -0.22920832211E+02  0.22153014890E+01  0.85929043905E+02  0.88961074051E+02  0.00000000000E+00 0.  1.
<mgrwt>
<rscale>  0 0.63290248E+03</rscale>
<asrwt>0</asrwt>
<pdfrwt beam="1">  1        1 0.19216298E+00 0.63290248E+03</pdfrwt>
<pdfrwt beam="2">  1       -2 0.17888426E+00 0.63290248E+03</pdfrwt>
<totfact> 0.16819039E+00</totfact>
</mgrwt>
</event>
<event>
12    3  0.2422421E-007  0.6301946E+03  0.7818608E-02  0.9844669E-01
          1   -1    0    0  501    0  0.00000000000E+00  0.00000000000E+00  0.29839078552E+04  0.29839078552E+04  0.00000000000E+00 0. -1.
         -2   -1    0    0    0  501 -0.00000000000E+00 -0.00000000000E+00 -0.15654510447E+03  0.15654510447E+03  0.00000000000E+00 0.  1.
        -24    2    1    2    0    0  0.27297618106E+03 -0.44554258175E+03  0.15310272268E+04  0.16197109364E+04  0.79968496776E+02 0.  0.
    5000000    2    1    2    0    0 -0.27297618106E+03  0.44554258175E+03  0.12963355239E+04  0.15207420233E+04  0.59928818057E+03 0.  0.
        -24    2    4    4    0    0  0.12122542240E+03 -0.18044692813E+02  0.45736091259E+03  0.48051029238E+03  0.81791947945E+02 0.  0.
         24    2    4    4    0    0 -0.39420160346E+03  0.46358727457E+03  0.83897461129E+03  0.10402317309E+04  0.88857134162E+02 0.  0.
         11    1    5    5    0    0  0.36453803909E+02 -0.12275090597E+02  0.43717843166E+02  0.58230640385E+02  0.00000000000E+00 0. -1.
        -12    1    5    5    0    0  0.84771618496E+02 -0.57696022160E+01  0.41364306942E+03  0.42227965200E+03  0.00000000000E+00 0.  1.
         13    1    3    3    0    0  0.12233648088E+03 -0.18135992373E+03  0.76055018133E+03  0.79138752505E+03  0.00000000000E+00 0. -1.
        -14    1    3    3    0    0  0.15063970018E+03 -0.26418265803E+03  0.77047704552E+03  0.82832341132E+03  0.00000000000E+00 0.  1.
          4    1    6    6  502    0 -0.30614149901E+03  0.30186417317E+03  0.56106784311E+03  0.70685339430E+03  0.00000000000E+00 0. -1.
         -3    1    6    6    0  502 -0.88060104452E+02  0.16172310140E+03  0.27790676818E+03  0.33337833661E+03  0.00000000000E+00 0.  1.
<mgrwt>
<rscale>  0 0.63019457E+03</rscale>
<asrwt>0</asrwt>
<pdfrwt beam="1">  1        1 0.45906271E+00 0.63019457E+03</pdfrwt>
<pdfrwt beam="2">  1       -2 0.24083864E-01 0.63019457E+03</pdfrwt>
<totfact> 0.89741500E+00</totfact>
</mgrwt>
</event>
<event>
12    3  0.2422421E-007  0.5511312E+03  0.7818608E-02  0.1001232E+00
          1   -1    0    0  501    0  0.00000000000E+00  0.00000000000E+00  0.31271798595E+04  0.31271798595E+04  0.00000000000E+00 0. -1.
         -2   -1    0    0    0  501 -0.00000000000E+00 -0.00000000000E+00 -0.15372099648E+03  0.15372099648E+03  0.00000000000E+00 0.  1.
        -24    2    1    2    0    0  0.47153462475E+03  0.21132850043E+03  0.17248395049E+04  0.18024167014E+04  0.81424874777E+02 0.  0.
    5000000    2    1    2    0    0 -0.47153462475E+03 -0.21132850043E+03  0.12486193581E+04  0.14784841546E+04  0.59988370252E+03 0.  0.
        -24    2    4    4    0    0  0.10532151271E+02  0.27814269184E+02  0.70307497614E+03  0.70813303405E+03  0.79078518375E+02 0.  0.
         24    2    4    4    0    0 -0.48206677602E+03 -0.23914276962E+03  0.54554438197E+03  0.77035112055E+03  0.79022373008E+02 0.  0.
         11    1    5    5    0    0 -0.13682906454E+02  0.64906639823E+01  0.59854578401E+03  0.59873734325E+03  0.00000000000E+00 0. -1.
        -12    1    5    5    0    0  0.24215057725E+02  0.21323605202E+02  0.10452919212E+03  0.10939569080E+03  0.00000000000E+00 0.  1.
         13    1    3    3    0    0  0.41676440055E+03  0.18661337401E+03  0.15997127518E+04  0.16636099318E+04  0.00000000000E+00 0. -1.
        -14    1    3    3    0    0  0.54770224197E+02  0.24715126424E+02  0.12512675314E+03  0.13880676959E+03  0.00000000000E+00 0.  1.
          4    1    6    6  502    0 -0.27442181196E+03 -0.13511833806E+03  0.25387957742E+03  0.39751620846E+03  0.00000000000E+00 0. -1.
         -3    1    6    6    0  502 -0.20764496406E+03 -0.10402443156E+03  0.29166480455E+03  0.37283491209E+03  0.00000000000E+00 0.  1.
<mgrwt>
<rscale>  0 0.55113117E+03</rscale>
<asrwt>0</asrwt>
<pdfrwt beam="1">  1        1 0.48110455E+00 0.55113117E+03</pdfrwt>
<pdfrwt beam="2">  1       -2 0.23649386E-01 0.55113117E+03</pdfrwt>
<totfact> 0.74414753E+00</totfact>
</mgrwt>
</event>
<event>
12    3  0.2422421E-007  0.1159544E+04  0.7818608E-02  0.9149024E-01
         -2   -1    0    0    0  501 -0.00000000000E+00  0.00000000000E+00  0.64438429051E+03  0.64438429051E+03  0.00000000000E+00 0.  1.
          1   -1    0    0  501    0  0.00000000000E+00 -0.00000000000E+00 -0.23129463432E+04  0.23129463432E+04  0.00000000000E+00 0. -1.
        -24    2    1    2    0    0  0.74043753380E+03 -0.79304303632E+03 -0.33937392612E+03  0.11396526555E+04  0.80427075538E+02 0.  0.
    5000000    2    1    2    0    0 -0.74043753380E+03  0.79304303632E+03 -0.13291881265E+04  0.18176779782E+04  0.60003929689E+03 0.  0.
        -24    2    4    4    0    0 -0.59970882051E+03  0.22800373752E+03 -0.61010719212E+03  0.88896611055E+03  0.79959903165E+02 0.  0.
         24    2    4    4    0    0 -0.14072871330E+03  0.56503929880E+03 -0.71908093442E+03  0.92871186766E+03  0.79714258116E+02 0.  0.
         11    1    5    5    0    0 -0.10400965050E+03  0.61588792001E+02 -0.83903519562E+02  0.14714274462E+03  0.00000000000E+00 0. -1.
        -12    1    5    5    0    0 -0.49569917000E+03  0.16641494552E+03 -0.52620367256E+03  0.74182336594E+03  0.00000000000E+00 0.  1.
         13    1    3    3    0    0  0.25997176914E+03 -0.33592401290E+03 -0.13207788643E+03  0.44483123910E+03  0.00000000000E+00 0. -1.
        -14    1    3    3    0    0  0.48046576466E+03 -0.45711902342E+03 -0.20729603968E+03  0.69482141637E+03  0.00000000000E+00 0.  1.
          4    1    6    6  502    0 -0.11893353355E+02  0.19841502728E+03 -0.22814976523E+03  0.30259261438E+03  0.00000000000E+00 0. -1.
         -3    1    6    6    0  502 -0.12883535994E+03  0.36662427152E+03 -0.49093116920E+03  0.62611925328E+03  0.00000000000E+00 0.  1.
<mgrwt>
<rscale>  0 0.11595435E+04</rscale>
<asrwt>0</asrwt>
<pdfrwt beam="1">  1        1 0.35583789E+00 0.11595435E+04</pdfrwt>
<pdfrwt beam="2">  1       -2 0.99136046E-01 0.11595435E+04</pdfrwt>
<totfact> 0.13355702E+00</totfact>
</mgrwt>
</event>
<event>
12    3  0.2422421E-007  0.3689310E+03  0.7818608E-02  0.1055102E+00
         -2   -1    0    0    0  501 -0.00000000000E+00  0.00000000000E+00  0.33377502953E+03  0.33377502953E+03  0.00000000000E+00 0.  1.
          1   -1    0    0  501    0  0.00000000000E+00 -0.00000000000E+00 -0.98533307842E+03  0.98533307842E+03  0.00000000000E+00 0. -1.
        -24    2    1    2    0    0  0.75688069687E+02  0.27581054311E+03  0.10227909909E+03  0.31408386585E+03  0.79921968771E+02 0.  0.
    5000000    2    1    2    0    0 -0.75688069687E+02 -0.27581054311E+03 -0.75383714798E+03  0.10050242421E+04  0.60000261830E+03 0.  0.
        -24    2    4    4    0    0 -0.19683964812E+03 -0.20254472534E+03 -0.70396499330E+02  0.30254292267E+03  0.82500546070E+02 0.  0.
         24    2    4    4    0    0  0.12115157844E+03 -0.73265817769E+02 -0.68344064865E+03  0.70248131944E+03  0.79644829878E+02 0.  0.
         11    1    5    5    0    0 -0.19782887712E+03 -0.17208824899E+03 -0.72367302097E+02  0.27200672138E+03  0.00000000000E+00 0. -1.
        -12    1    5    5    0    0  0.98922899459E+00 -0.30456476348E+02  0.19708027669E+01  0.30536201288E+02  0.00000000000E+00 0.  1.
         13    1    3    3    0    0  0.41856227941E+02  0.10739031854E+03  0.22144927504E+01  0.11528021648E+03  0.00000000000E+00 0. -1.
        -14    1    3    3    0    0  0.33831841745E+02  0.16842022456E+03  0.10006460634E+03  0.19880364936E+03  0.00000000000E+00 0.  1.
          4    1    6    6  502    0  0.51900552924E+02 -0.72155612753E+02 -0.46163398764E+03  0.47011279326E+03  0.00000000000E+00 0. -1.
         -3    1    6    6    0  502  0.69251025514E+02 -0.11102050158E+01 -0.22180666101E+03  0.23236852618E+03  0.00000000000E+00 0.  1.
<mgrwt>
<rscale>  0 0.36893099E+03</rscale>
<asrwt>0</asrwt>
<pdfrwt beam="1">  1        1 0.15158970E+00 0.36893099E+03</pdfrwt>
<pdfrwt beam="2">  1       -2 0.51350005E-01 0.36893099E+03</pdfrwt>
<totfact> 0.52203098E+01</totfact>
</mgrwt>
</event>
<event>
12    3  0.2422421E-007  0.1184900E+04  0.7818608E-02  0.9126177E-01
          1   -1    0    0  501    0  0.00000000000E+00  0.00000000000E+00  0.17138771599E+04  0.17138771599E+04  0.00000000000E+00 0. -1.
         -2   -1    0    0    0  501 -0.00000000000E+00 -0.00000000000E+00 -0.10531671422E+04  0.10531671422E+04  0.00000000000E+00 0.  1.
        -24    2    1    2    0    0  0.17160048451E+03  0.11557365070E+04  0.84027071982E+03  0.14413666409E+04  0.79431171190E+02 0.  0.
    5000000    2    1    2    0    0 -0.17160048451E+03 -0.11557365070E+04 -0.17956070212E+03  0.13256776612E+04  0.60000467985E+03 0.  0.
        -24    2    4    4    0    0 -0.23153824830E+03 -0.87333594172E+03 -0.35987233837E+03  0.97587391327E+03  0.80598803612E+02 0.  0.
         24    2    4    4    0    0  0.59937763786E+02 -0.28240056530E+03  0.18031163625E+03  0.34980374798E+03  0.80670695569E+02 0.  0.
         11    1    5    5    0    0 -0.25980740311E+02 -0.58351749303E+02 -0.45824946808E+02  0.78612030020E+02  0.00000000000E+00 0. -1.
        -12    1    5    5    0    0 -0.20555750799E+03 -0.81498419242E+03 -0.31404739156E+03  0.89726188325E+03  0.00000000000E+00 0.  1.
         11    1    3    3    0    0  0.56748597288E+02  0.38612032901E+03  0.32742322551E+03  0.50942642293E+03  0.00000000000E+00 0. -1.
        -12    1    3    3    0    0  0.11485188723E+03  0.76961617801E+03  0.51284749430E+03  0.93194021796E+03  0.00000000000E+00 0.  1.
          4    1    6    6  502    0  0.61307831100E+02 -0.12138094965E+03  0.10620463315E+03  0.17254393410E+03  0.00000000000E+00 0. -1.
         -3    1    6    6    0  502 -0.13700673144E+01 -0.16101961564E+03  0.74107003104E+02  0.17725981387E+03  0.00000000000E+00 0.  1.
<mgrwt>
<rscale>  0 0.11848999E+04</rscale>
<asrwt>0</asrwt>
<pdfrwt beam="1">  1        1 0.26367341E+00 0.11848999E+04</pdfrwt>
<pdfrwt beam="2">  1       -2 0.16202571E+00 0.11848999E+04</pdfrwt>
<totfact> 0.97273140E-01</totfact>
</mgrwt>
</event>
<event>
12    3  0.2422421E-007  0.4277030E+03  0.7818608E-02  0.1034588E+00
         -2   -1    0    0    0  501 -0.00000000000E+00  0.00000000000E+00  0.87585741852E+03  0.87585741852E+03  0.00000000000E+00 0.  1.
          1   -1    0    0  501    0  0.00000000000E+00 -0.00000000000E+00 -0.22390276026E+03  0.22390276026E+03  0.00000000000E+00 0. -1.
        -24    2    1    2    0    0  0.67063931791E+02  0.22068200096E+03  0.16897481850E+03  0.29573127076E+03  0.75540576648E+02 0.  0.
    5000000    2    1    2    0    0 -0.67063931791E+02 -0.22068200096E+03  0.48297983977E+03  0.80402890802E+03  0.59999570233E+03 0.  0.
        -24    2    4    4    0    0 -0.23624330754E+03  0.95390502143E+02  0.27078067838E+03  0.38005565876E+03  0.78802790025E+02 0.  0.
         24    2    4    4    0    0  0.16917937575E+03 -0.31607250311E+03  0.21219916138E+03  0.42397324926E+03  0.78748610118E+02 0.  0.
         11    1    5    5    0    0 -0.10125786483E+03  0.67323209333E+02  0.17117202353E+03  0.20996530986E+03  0.00000000000E+00 0. -1.
        -12    1    5    5    0    0 -0.13498544271E+03  0.28067292810E+02  0.99608654856E+02  0.17009034890E+03  0.00000000000E+00 0.  1.
         11    1    3    3    0    0  0.39170958882E+02  0.14709068938E+03  0.15221590682E+03  0.21526661890E+03  0.00000000000E+00 0. -1.
        -12    1    3    3    0    0  0.27892972909E+02  0.73591311583E+02  0.16758911676E+02  0.80464651859E+02  0.00000000000E+00 0.  1.
          4    1    6    6  502    0  0.15245262100E+03 -0.22096713227E+03  0.17517595095E+03  0.32055403442E+03  0.00000000000E+00 0. -1.
         -3    1    6    6    0  502  0.16726754751E+02 -0.95105370836E+02  0.37023210430E+02  0.10341921483E+03  0.00000000000E+00 0.  1.
<mgrwt>
<rscale>  0 0.42770302E+03</rscale>
<asrwt>0</asrwt>
<pdfrwt beam="1">  1        1 0.34446579E-01 0.42770302E+03</pdfrwt>
<pdfrwt beam="2">  1       -2 0.13474729E+00 0.42770302E+03</pdfrwt>
<totfact> 0.46100205E+01</totfact>
</mgrwt>
</event>
<event>
12    3  0.2422421E-007  0.6031768E+03  0.7818608E-02  0.9898837E-01
          1   -1    0    0  501    0  0.00000000000E+00  0.00000000000E+00  0.32227251785E+04  0.32227251785E+04  0.00000000000E+00 0. -1.
         -2   -1    0    0    0  501 -0.00000000000E+00 -0.00000000000E+00 -0.23178942387E+03  0.23178942387E+03  0.00000000000E+00 0.  1.
        -24    2    1    2    0    0  0.50757601786E+03 -0.92905389910E+02  0.20920240155E+03  0.56240945658E+03  0.79208122401E+02 0.  0.
    5000000    2    1    2    0    0 -0.50757601786E+03  0.92905389910E+02  0.27817333531E+04  0.28921051458E+04  0.59997241713E+03 0.  0.
        -24    2    4    4    0    0  0.64632076783E+02  0.18239854631E+01  0.12214499975E+04  0.12257597531E+04  0.79788742982E+02 0.  0.
         24    2    4    4    0    0 -0.57220809464E+03  0.91081404446E+02  0.15602833556E+04  0.16663453927E+04  0.80652913427E+02 0.  0.
         11    1    5    5    0    0  0.41847513574E+02  0.39120516222E+02  0.57983808113E+03  0.58266099021E+03  0.00000000000E+00 0. -1.
        -12    1    5    5    0    0  0.22784563208E+02 -0.37296530759E+02  0.64161191639E+03  0.64309876285E+03  0.00000000000E+00 0.  1.
         13    1    3    3    0    0  0.27930844609E+03 -0.86462596123E+02  0.97647095431E+02  0.30825953973E+03  0.00000000000E+00 0. -1.
        -14    1    3    3    0    0  0.22826757177E+03 -0.64427937865E+01  0.11155530612E+03  0.25414991685E+03  0.00000000000E+00 0.  1.
          2    1    6    6  502    0 -0.33075390743E+03  0.13583429628E+02  0.85363228298E+03  0.91557125959E+03  0.00000000000E+00 0. -1.
         -1    1    6    6    0  502 -0.24145418721E+03  0.77497974818E+02  0.70665107257E+03  0.75077413314E+03  0.00000000000E+00 0.  1.
<mgrwt>
<rscale>  0 0.60317678E+03</rscale>
<asrwt>0</asrwt>
<pdfrwt beam="1">  1        1 0.49580384E+00 0.60317678E+03</pdfrwt>
<pdfrwt beam="2">  1       -2 0.35659914E-01 0.60317678E+03</pdfrwt>
<totfact> 0.29397172E+00</totfact>
</mgrwt>
</event>
<event>
12    3  0.2422421E-007  0.1540207E+04  0.7818608E-02  0.8858147E-01
         -2   -1    0    0    0  501 -0.00000000000E+00  0.00000000000E+00  0.14841578039E+04  0.14841578039E+04  0.00000000000E+00 0.  1.
          1   -1    0    0  501    0  0.00000000000E+00 -0.00000000000E+00 -0.16995561656E+04  0.16995561656E+04  0.00000000000E+00 0. -1.
        -24    2    1    2    0    0 -0.72733117093E+03  0.13420119181E+04  0.59068661664E+01  0.15287077961E+04  0.83102432720E+02 0.  0.
    5000000    2    1    2    0    0  0.72733117093E+03 -0.13420119181E+04 -0.22130522787E+03  0.16550061734E+04  0.60005233914E+03 0.  0.
        -24    2    4    4    0    0  0.66983942421E+03 -0.10747897461E+04 -0.38603059901E+03  0.13262551671E+04  0.77944161117E+02 0.  0.
         24    2    4    4    0    0  0.57491746719E+02 -0.26722217198E+03  0.16472537114E+03  0.32875100636E+03  0.78928994325E+02 0.  0.
         11    1    3    3    0    0 -0.39092136783E+03  0.77510014968E+03 -0.28845607331E+02  0.86858035145E+03  0.00000000000E+00 0. -1.
        -12    1    3    3    0    0 -0.33640980310E+03  0.56691176839E+03  0.34752473498E+02  0.66012744464E+03  0.00000000000E+00 0.  1.
         13    1    5    5    0    0  0.12739710495E+03 -0.26340102402E+03 -0.78447585736E+02  0.30292597365E+03  0.00000000000E+00 0. -1.
        -14    1    5    5    0    0  0.54244231926E+03 -0.81138872207E+03 -0.30758301327E+03  0.10233291934E+04  0.00000000000E+00 0.  1.
          2    1    6    6  502    0 -0.33917352222E+01 -0.16835686121E+03  0.98462684547E+02  0.19506521175E+03  0.00000000000E+00 0. -1.
         -1    1    6    6    0  502  0.60883481941E+02 -0.98865310770E+02  0.66262686589E+02  0.13368579461E+03  0.00000000000E+00 0.  1.
<mgrwt>
<rscale>  0 0.15402073E+04</rscale>
<asrwt>0</asrwt>
<pdfrwt beam="1">  1        1 0.26147018E+00 0.15402073E+04</pdfrwt>
<pdfrwt beam="2">  1       -2 0.22833197E+00 0.15402073E+04</pdfrwt>
<totfact> 0.34343178E-01</totfact>
</mgrwt>
</event>
<event>
12    3  0.2422421E-007  0.6274751E+03  0.7818608E-02  0.9849988E-01
         -2   -1    0    0    0  501 -0.00000000000E+00  0.00000000000E+00  0.32639937717E+03  0.32639937717E+03  0.00000000000E+00 0.  1.
          1   -1    0    0  501    0  0.00000000000E+00 -0.00000000000E+00 -0.17559352274E+04  0.17559352274E+04  0.00000000000E+00 0. -1.
        -24    2    1    2    0    0 -0.47651755431E+03  0.38554741223E+03 -0.37463017558E+03  0.72271845538E+03  0.79110117180E+02 0.  0.
    5000000    2    1    2    0    0  0.47651755431E+03 -0.38554741223E+03 -0.10549056747E+04  0.13596161492E+04  0.60001191994E+03 0.  0.
        -24    2    4    4    0    0  0.10898658131E+03 -0.82489990114E+02 -0.79605288590E+03  0.81184264585E+03  0.81887795694E+02 0.  0.
         24    2    4    4    0    0  0.36753097301E+03 -0.30305742212E+03 -0.25885278876E+03  0.54777350335E+03  0.78282996269E+02 0.  0.
         11    1    5    5    0    0  0.68338830534E+01  0.14257875727E+02 -0.13890576836E+03  0.13980272337E+03  0.00000000000E+00 0. -1.
        -12    1    5    5    0    0  0.10215269825E+03 -0.96747865841E+02 -0.65714711754E+03  0.67203992247E+03  0.00000000000E+00 0.  1.
         11    1    3    3    0    0 -0.14725883604E+03  0.15976274870E+03 -0.15656256968E+03  0.26780802619E+03  0.00000000000E+00 0. -1.
        -12    1    3    3    0    0 -0.32925871827E+03  0.22578466353E+03 -0.21806760590E+03  0.45491042919E+03  0.00000000000E+00 0.  1.
          4    1    6    6  502    0  0.35484525517E+03 -0.26809245247E+03 -0.22992683302E+03  0.50065463818E+03  0.00000000000E+00 0. -1.
         -3    1    6    6    0  502  0.12685717835E+02 -0.34964969652E+02 -0.28925955734E+02  0.47118865170E+02  0.00000000000E+00 0.  1.
<mgrwt>
<rscale>  0 0.62747513E+03</rscale>
<asrwt>0</asrwt>
<pdfrwt beam="1">  1        1 0.27014388E+00 0.62747513E+03</pdfrwt>
<pdfrwt beam="2">  1       -2 0.50215290E-01 0.62747513E+03</pdfrwt>
<totfact> 0.15155889E+01</totfact>
</mgrwt>
</event>
<event>
12    3  0.2422421E-007  0.6345060E+03  0.7818608E-02  0.9836295E-01
         -2   -1    0    0    0  501 -0.00000000000E+00  0.00000000000E+00  0.86032801922E+03  0.86032801922E+03  0.00000000000E+00 0.  1.
          1   -1    0    0  501    0  0.00000000000E+00 -0.00000000000E+00 -0.59242537696E+03  0.59242537696E+03  0.00000000000E+00 0. -1.
        -24    2    1    2    0    0  0.50446515394E+03 -0.23161128251E+03  0.29799933479E+03  0.63517870806E+03  0.80743482178E+02 0.  0.
    5000000    2    1    2    0    0 -0.50446515394E+03  0.23161128251E+03 -0.30096692540E+02  0.81757468812E+03  0.59949452210E+03 0.  0.
        -24    2    4    4    0    0 -0.56406764296E+03  0.24633106726E+03 -0.17067008812E+03  0.64376559476E+03  0.80340285579E+02 0.  0.
         24    2    4    4    0    0  0.59602489020E+02 -0.14719784753E+02  0.14057339558E+03  0.17380909336E+03  0.81728774786E+02 0.  0.
         11    1    5    5    0    0 -0.22169392535E+03  0.60716687463E+02 -0.84477871811E+02  0.24489022744E+03  0.00000000000E+00 0. -1.
        -12    1    5    5    0    0 -0.34237371762E+03  0.18561437980E+03 -0.86192216311E+02  0.39887536732E+03  0.00000000000E+00 0.  1.
         13    1    3    3    0    0  0.15344070197E+03 -0.74489958576E+02  0.50685773485E+02  0.17793777166E+03  0.00000000000E+00 0. -1.
        -14    1    3    3    0    0  0.35102445197E+03 -0.15712132393E+03  0.24731356131E+03  0.45724093640E+03  0.00000000000E+00 0.  1.
          4    1    6    6  502    0  0.76159472887E+02 -0.76300162350E+01  0.80440318444E+02  0.11103660338E+03  0.00000000000E+00 0. -1.
         -3    1    6    6    0  502 -0.16556983867E+02 -0.70897685181E+01  0.60133077138E+02  0.62772489981E+02  0.00000000000E+00 0.  1.
<mgrwt>
<rscale>  0 0.63450599E+03</rscale>
<asrwt>0</asrwt>
<pdfrwt beam="1">  1        1 0.91142365E-01 0.63450599E+03</pdfrwt>
<pdfrwt beam="2">  1       -2 0.13235816E+00 0.63450599E+03</pdfrwt>
<totfact> 0.13080453E+01</totfact>
</mgrwt>
</event>
<event>
12    3  0.2422421E-007  0.1083242E+04  0.7818608E-02  0.9221681E-01
          1   -1    0    0  501    0  0.00000000000E+00  0.00000000000E+00  0.17928216521E+04  0.17928216521E+04  0.00000000000E+00 0. -1.
         -2   -1    0    0    0  501 -0.00000000000E+00 -0.00000000000E+00 -0.90721632493E+03  0.90721632493E+03  0.00000000000E+00 0.  1.
        -24    2    1    2    0    0 -0.91464497096E+03 -0.55395342321E+03  0.10034197206E+04  0.14685660655E+04  0.79970838402E+02 0.  0.
    5000000    2    1    2    0    0  0.91464497096E+03  0.55395342321E+03 -0.11781439341E+03  0.12314719116E+04  0.59933548179E+03 0.  0.
        -24    2    4    4    0    0  0.86598967899E+03  0.50347896235E+03 -0.27391762329E+03  0.10415168303E+04  0.79355237924E+02 0.  0.
         24    2    4    4    0    0  0.48655291969E+02  0.50474460851E+02  0.15610322988E+03  0.18995508129E+03  0.82460329195E+02 0.  0.
         11    1    5    5    0    0  0.66623669934E+03  0.35554367228E+03 -0.22709010010E+03  0.78857628421E+03  0.00000000000E+00 0. -1.
        -12    1    5    5    0    0  0.19975297965E+03  0.14793529007E+03 -0.46827523195E+02  0.25294054609E+03  0.00000000000E+00 0.  1.
         13    1    3    3    0    0 -0.41809496092E+03 -0.22022259200E+03  0.48121857514E+03  0.67444251307E+03  0.00000000000E+00 0. -1.
        -14    1    3    3    0    0 -0.49655001004E+03 -0.33373083120E+03  0.52220114542E+03  0.79412355238E+03  0.00000000000E+00 0.  1.
          2    1    6    6  502    0  0.15522149495E+02 -0.13045859765E+02  0.90733114222E+02  0.92971122389E+02  0.00000000000E+00 0. -1.
         -1    1    6    6    0  502  0.33133142474E+02  0.63520320616E+02  0.65370115663E+02  0.96983958896E+02  0.00000000000E+00 0.  1.
<mgrwt>
<rscale>  0 0.10832423E+04</rscale>
<asrwt>0</asrwt>
<pdfrwt beam="1">  1        1 0.27581872E+00 0.10832423E+04</pdfrwt>
<pdfrwt beam="2">  1       -2 0.13957174E+00 0.10832423E+04</pdfrwt>
<totfact> 0.12964137E+00</totfact>
</mgrwt>
</event>
<event>
12    3  0.2422421E-007  0.8243346E+03  0.7818608E-02  0.9525447E-01
          1   -1    0    0  501    0  0.00000000000E+00  0.00000000000E+00  0.62301223636E+03  0.62301223636E+03  0.00000000000E+00 0. -1.
         -2   -1    0    0    0  501 -0.00000000000E+00 -0.00000000000E+00 -0.11186068530E+04  0.11186068530E+04  0.00000000000E+00 0.  1.
        -24    2    1    2    0    0  0.37554892838E+03 -0.61941273419E+03 -0.23039998220E+03  0.76418938211E+03  0.78690069482E+02 0.  0.
    5000000    2    1    2    0    0 -0.37554892838E+03  0.61941273419E+03 -0.26519463444E+03  0.97742970727E+03  0.60027619111E+03 0.  0.
        -24    2    4    4    0    0 -0.51176167130E+03  0.38907617365E+03 -0.26127617300E+03  0.69845001493E+03  0.79290022516E+02 0.  0.
         24    2    4    4    0    0  0.13621274292E+03  0.23033656055E+03 -0.39184614457E+01  0.27897969233E+03  0.78774817901E+02 0.  0.
         11    1    3    3    0    0  0.11314208278E+03 -0.23801765420E+03 -0.11192937958E+03  0.28632450230E+03  0.00000000000E+00 0. -1.
        -12    1    3    3    0    0  0.26240684560E+03 -0.38139508000E+03 -0.11847060261E+03  0.47786487980E+03  0.00000000000E+00 0.  1.
         13    1    5    5    0    0 -0.87400030598E+02  0.85727034568E+02 -0.79853713975E+02  0.14616602013E+03  0.00000000000E+00 0. -1.
        -14    1    5    5    0    0 -0.42436164070E+03  0.30334913908E+03 -0.18142245902E+03  0.55228399481E+03  0.00000000000E+00 0.  1.
          4    1    6    6  502    0  0.24532325785E+02  0.11495433240E+03  0.89684285008E+01  0.11788454630E+03  0.00000000000E+00 0. -1.
         -3    1    6    6    0  502  0.11168041713E+03  0.11538222815E+03 -0.12886889946E+02  0.16109514603E+03  0.00000000000E+00 0.  1.
<mgrwt>
<rscale>  0 0.82433461E+03</rscale>
<asrwt>0</asrwt>
<pdfrwt beam="1">  1        1 0.95848037E-01 0.82433461E+03</pdfrwt>
<pdfrwt beam="2">  1       -2 0.17209336E+00 0.82433461E+03</pdfrwt>
<totfact> 0.59308452E+00</totfact>
</mgrwt>
</event>
<event>
12    3  0.2422421E-007  0.1400991E+04  0.7818608E-02  0.8953102E-01
          1   -1    0    0  501    0  0.00000000000E+00  0.00000000000E+00  0.22915701554E+04  0.22915701554E+04  0.00000000000E+00 0. -1.
         -2   -1    0    0    0  501 -0.00000000000E+00 -0.00000000000E+00 -0.10135011264E+04  0.10135011264E+04  0.00000000000E+00 0.  1.
        -24    2    1    2    0    0  0.61871647406E+03 -0.11974092017E+04  0.12333558182E+04  0.18290329468E+04  0.87155461910E+02 0.  0.
    5000000    2    1    2    0    0 -0.61871647406E+03  0.11974092017E+04  0.44713210706E+02  0.14760383350E+04  0.60007584810E+03 0.  0.
        -24    2    4    4    0    0 -0.18796926383E+03  0.18819746004E+02  0.75066983528E+02  0.21830741726E+03  0.79601818023E+02 0.  0.
         24    2    4    4    0    0 -0.43074721023E+03  0.11785894557E+04 -0.30353772822E+02  0.12577309177E+04  0.79683408537E+02 0.  0.
         11    1    3    3    0    0  0.10689136560E+03 -0.18158337497E+03  0.23422443787E+03  0.31505455623E+03  0.00000000000E+00 0. -1.
        -12    1    3    3    0    0  0.51182510846E+03 -0.10158258268E+04  0.99913138037E+03  0.15139783906E+04  0.00000000000E+00 0.  1.
         11    1    5    5    0    0 -0.13363474183E+03 -0.15729524712E+02  0.25270362637E+02  0.13690965415E+03  0.00000000000E+00 0. -1.
        -12    1    5    5    0    0 -0.54334521997E+02  0.34549270716E+02  0.49796620891E+02  0.81397763113E+02  0.00000000000E+00 0.  1.
          4    1    6    6  502    0 -0.31487339225E+03  0.86680381336E+03 -0.57432975021E+02  0.92400901004E+03  0.00000000000E+00 0. -1.
         -3    1    6    6    0  502 -0.11587381798E+03  0.31178564238E+03  0.27079202199E+02  0.33372190770E+03  0.00000000000E+00 0.  1.
<mgrwt>
<rscale>  0 0.14009907E+04</rscale>
<asrwt>0</asrwt>
<pdfrwt beam="1">  1        1 0.35254925E+00 0.14009907E+04</pdfrwt>
<pdfrwt beam="2">  1       -2 0.15592325E+00 0.14009907E+04</pdfrwt>
<totfact> 0.42723056E-01</totfact>
</mgrwt>
</event>
<event>
12    3  0.2422421E-007  0.4809619E+03  0.7818608E-02  0.1018871E+00
          1   -1    0    0  501    0  0.00000000000E+00  0.00000000000E+00  0.26751973451E+03  0.26751973451E+03  0.00000000000E+00 0. -1.
         -2   -1    0    0    0  501 -0.00000000000E+00 -0.00000000000E+00 -0.12848778361E+04  0.12848778361E+04  0.00000000000E+00 0.  1.
        -24    2    1    2    0    0  0.20974397801E+03  0.26049213447E+03 -0.73009388163E+03  0.80772536541E+03  0.86801506315E+02 0.  0.
    5000000    2    1    2    0    0 -0.20974397801E+03 -0.26049213447E+03 -0.28726421991E+03  0.74467220516E+03  0.60013937769E+03 0.  0.
        -24    2    4    4    0    0 -0.31026572683E+03  0.30192263738E+02 -0.77686330146E+01  0.32159309638E+03  0.78647148357E+02 0.  0.
         24    2    4    4    0    0  0.10052174882E+03 -0.29068439821E+03 -0.27949558690E+03  0.42307910878E+03  0.79221889898E+02 0.  0.
         11    1    5    5    0    0 -0.20853432419E+03  0.40273965093E+02  0.25901537608E+02  0.21396131959E+03  0.00000000000E+00 0. -1.
        -12    1    5    5    0    0 -0.10173140264E+03 -0.10081701355E+02 -0.33670170622E+02  0.10763177679E+03  0.00000000000E+00 0.  1.
         13    1    3    3    0    0  0.65629475253E+02  0.43617489276E+02 -0.11126140893E+03  0.13634080281E+03  0.00000000000E+00 0. -1.
        -14    1    3    3    0    0  0.14411450276E+03  0.21687464519E+03 -0.61883247270E+03  0.67138456260E+03  0.00000000000E+00 0.  1.
          2    1    6    6  502    0  0.10039116565E+03 -0.28042710658E+03 -0.24071295938E+03  0.38296276197E+03  0.00000000000E+00 0. -1.
         -1    1    6    6    0  502  0.13058316818E+00 -0.10257291631E+02 -0.38782627518E+02  0.40116346803E+02  0.00000000000E+00 0.  1.
<mgrwt>
<rscale>  0 0.48096192E+03</rscale>
<asrwt>0</asrwt>
<pdfrwt beam="1">  1        1 0.41156883E-01 0.48096192E+03</pdfrwt>
<pdfrwt beam="2">  1       -2 0.19767351E+00 0.48096192E+03</pdfrwt>
<totfact> 0.12895973E+01</totfact>
</mgrwt>
</event>
<event>
12    3  0.2422421E-007  0.9229885E+03  0.7818608E-02  0.9397292E-01
         -2   -1    0    0    0  501 -0.00000000000E+00  0.00000000000E+00  0.11056150663E+04  0.11056150663E+04  0.00000000000E+00 0.  1.
          1   -1    0    0  501    0  0.00000000000E+00 -0.00000000000E+00 -0.89454634850E+03  0.89454634850E+03  0.00000000000E+00 0. -1.
        -24    2    1    2    0    0  0.29646708079E+03 -0.77755638512E+03 -0.25396229712E+03  0.87373740027E+03  0.80209315140E+02 0.  0.
    5000000    2    1    2    0    0 -0.29646708079E+03  0.77755638512E+03  0.46503101495E+03  0.11264240146E+04  0.60007545665E+03 0.  0.
        -24    2    4    4    0    0  0.16858014144E+03  0.18412694858E+03  0.67803747157E+02  0.27055892330E+03  0.79264024432E+02 0.  0.
         24    2    4    4    0    0 -0.46504722223E+03  0.59342943655E+03  0.39722726779E+03  0.85586509126E+03  0.79297774850E+02 0.  0.
         13    1    5    5    0    0  0.15797127110E+03  0.18793247334E+03  0.75566880199E+02  0.25687329642E+03  0.00000000000E+00 0. -1.
        -14    1    5    5    0    0  0.10608870336E+02 -0.38055247640E+01 -0.77631330415E+01  0.13685626882E+02  0.00000000000E+00 0.  1.
         13    1    3    3    0    0  0.93166806111E+02 -0.31053447043E+03 -0.13154791471E+03  0.34988078676E+03  0.00000000000E+00 0. -1.
        -14    1    3    3    0    0  0.20330027468E+03 -0.46702191470E+03 -0.12241438242E+03  0.52385661351E+03  0.00000000000E+00 0.  1.
          4    1    6    6  502    0 -0.13370603850E+03  0.20913193775E+03  0.16331663976E+03  0.29712925965E+03  0.00000000000E+00 0. -1.
         -1    1    6    6    0  502 -0.33134118373E+03  0.38429749879E+03  0.23391062803E+03  0.55873583161E+03  0.00000000000E+00 0.  1.
<mgrwt>
<rscale>  0 0.92298848E+03</rscale>
<asrwt>0</asrwt>
<pdfrwt beam="1">  1        1 0.13762251E+00 0.92298848E+03</pdfrwt>
<pdfrwt beam="2">  1       -2 0.17009463E+00 0.92298848E+03</pdfrwt>
<totfact> 0.34435693E+00</totfact>
</mgrwt>
</event>
<event>
12    3  0.2422421E-007  0.1036261E+04  0.7818608E-02  0.9269645E-01
          1   -1    0    0  501    0  0.00000000000E+00  0.00000000000E+00  0.20057145396E+04  0.20057145396E+04  0.00000000000E+00 0. -1.
         -2   -1    0    0    0  501 -0.00000000000E+00 -0.00000000000E+00 -0.64446725045E+03  0.64446725045E+03  0.00000000000E+00 0.  1.
        -24    2    1    2    0    0 -0.17250129016E+02  0.96171382436E+03  0.12427916703E+03  0.97208446571E+03  0.65664679925E+02 0.  0.
    5000000    2    1    2    0    0  0.17250129016E+02 -0.96171382436E+03  0.12369681221E+04  0.16780973243E+04  0.60060756565E+03 0.  0.
        -24    2    4    4    0    0 -0.24625684006E+03 -0.65630420701E+03  0.63942628196E+03  0.95218641319E+03  0.80095892363E+02 0.  0.
         24    2    4    4    0    0  0.26350696908E+03 -0.30540961735E+03  0.59754184013E+03  0.72591091114E+03  0.84731594361E+02 0.  0.
         11    1    5    5    0    0 -0.11049286962E+03 -0.40559143765E+03  0.38709878789E+03  0.57145302530E+03  0.00000000000E+00 0. -1.
        -12    1    5    5    0    0 -0.13576397044E+03 -0.25071276936E+03  0.25232749407E+03  0.38073338789E+03  0.00000000000E+00 0.  1.
         11    1    3    3    0    0 -0.37792523237E+02  0.47195371692E+03  0.46180794157E+02  0.47571131107E+03  0.00000000000E+00 0. -1.
        -12    1    3    3    0    0  0.20542394221E+02  0.48976010744E+03  0.78098372876E+02  0.49637315464E+03  0.00000000000E+00 0.  1.
          2    1    6    6  502    0  0.18831957165E+03 -0.21660181956E+03  0.48772453181E+03  0.56591150212E+03  0.00000000000E+00 0. -1.
         -1    1    6    6    0  502  0.75187397430E+02 -0.88807797785E+02  0.10981730833E+03  0.15999940902E+03  0.00000000000E+00 0.  1.
<mgrwt>
<rscale>  0 0.10362606E+04</rscale>
<asrwt>0</asrwt>
<pdfrwt beam="1">  1        1 0.30857146E+00 0.10362606E+04</pdfrwt>
<pdfrwt beam="2">  1       -2 0.99148809E-01 0.10362606E+04</pdfrwt>
<totfact> 0.21881636E+00</totfact>
</mgrwt>
</event>
<event>
12    3  0.2422421E-007  0.5250736E+03  0.7818608E-02  0.1007434E+00
         -2   -1    0    0    0  501 -0.00000000000E+00  0.00000000000E+00  0.23571320291E+04  0.23571320291E+04  0.00000000000E+00 0.  1.
          1   -1    0    0  501    0  0.00000000000E+00 -0.00000000000E+00 -0.12515254804E+03  0.12515254804E+03  0.00000000000E+00 0. -1.
        -24    2    1    2    0    0 -0.69356266777E+02  0.34894796359E+03  0.53066861313E+03  0.64351970214E+03  0.77028936416E+02 0.  0.
    5000000    2    1    2    0    0  0.69356266777E+02 -0.34894796359E+03  0.17013108679E+04  0.18387648750E+04  0.60001885236E+03 0.  0.
        -24    2    4    4    0    0  0.26020663723E+03  0.20957093157E+02  0.65883683531E+03  0.71323464058E+03  0.80566637937E+02 0.  0.
         24    2    4    4    0    0 -0.19085037046E+03 -0.36990505675E+03  0.10424740326E+04  0.11255302344E+04  0.82538385051E+02 0.  0.
         11    1    5    5    0    0  0.20339949244E+03  0.27507828356E+02  0.58421849652E+03  0.61922474581E+03  0.00000000000E+00 0. -1.
        -12    1    5    5    0    0  0.56807144794E+02 -0.65507351985E+01  0.74618338793E+02  0.94009894774E+02  0.00000000000E+00 0.  1.
         13    1    3    3    0    0 -0.14955600258E+02  0.25309430797E+03  0.38103534528E+03  0.45767710567E+03  0.00000000000E+00 0. -1.
        -14    1    3    3    0    0 -0.54400666519E+02  0.95853655623E+02  0.14963326785E+03  0.18584259647E+03  0.00000000000E+00 0.  1.
          4    1    6    6  502    0 -0.61823950441E+01 -0.79983831418E+02  0.21651572539E+03  0.23089975019E+03  0.00000000000E+00 0. -1.
         -3    1    6    6    0  502 -0.18466797541E+03 -0.28992122533E+03  0.82595830721E+03  0.89463048422E+03  0.00000000000E+00 0.  1.
<mgrwt>
<rscale>  0 0.52507355E+03</rscale>
<asrwt>0</asrwt>
<pdfrwt beam="1">  1        1 0.19254240E-01 0.52507355E+03</pdfrwt>
<pdfrwt beam="2">  1       -2 0.36263566E+00 0.52507355E+03</pdfrwt>
<totfact> 0.34086775E+00</totfact>
</mgrwt>
</event>
<event>
12    3  0.2422421E-007  0.8370834E+03  0.7818608E-02  0.9507839E-01
          1   -1    0    0  501    0  0.00000000000E+00  0.00000000000E+00  0.18695489719E+04  0.18695489719E+04  0.00000000000E+00 0. -1.
         -2   -1    0    0    0  501 -0.00000000000E+00 -0.00000000000E+00 -0.38267568531E+03  0.38267568531E+03  0.00000000000E+00 0.  1.
        -24    2    1    2    0    0  0.28135872189E+03 -0.67773241077E+03  0.55955838290E+03  0.92617742341E+03  0.78835808898E+02 0.  0.
    5000000    2    1    2    0    0 -0.28135872189E+03  0.67773241077E+03  0.92731490374E+03  0.13260472338E+04  0.60000365390E+03 0.  0.
        -24    2    4    4    0    0  0.17609180011E+03  0.24288281560E+03  0.29854173873E+03  0.43066167618E+03  0.79636206472E+02 0.  0.
         24    2    4    4    0    0 -0.45745052200E+03  0.43484959517E+03  0.62877316500E+03  0.89538555767E+03  0.89467610586E+02 0.  0.
         11    1    5    5    0    0  0.45584213737E+02  0.21401870892E+02  0.28676114768E+02  0.57950670211E+02  0.00000000000E+00 0. -1.
        -12    1    5    5    0    0  0.13050758638E+03  0.22148094471E+03  0.26986562396E+03  0.37271100597E+03  0.00000000000E+00 0.  1.
         13    1    3    3    0    0  0.10971304349E+02 -0.11268232674E+02  0.26998138865E+02  0.31244873002E+02  0.00000000000E+00 0. -1.
        -14    1    3    3    0    0  0.27038741754E+03 -0.66646417810E+03  0.53256024404E+03  0.89493255041E+03  0.00000000000E+00 0.  1.
          4    1    6    6  502    0 -0.34914193359E+02  0.23506892428E+02  0.77245207112E+02  0.87968158508E+02  0.00000000000E+00 0. -1.
         -3    1    6    6    0  502 -0.42253632865E+03  0.41134270274E+03  0.55152795789E+03  0.80741739916E+03  0.00000000000E+00 0.  1.
<mgrwt>
<rscale>  0 0.83708335E+03</rscale>
<asrwt>0</asrwt>
<pdfrwt beam="1">  1        1 0.28762291E+00 0.83708335E+03</pdfrwt>
<pdfrwt beam="2">  1       -2 0.58873183E-01 0.83708335E+03</pdfrwt>
<totfact> 0.88805988E+00</totfact>
</mgrwt>
</event>
<event>
12    3  0.2422421E-007  0.9453985E+03  0.7818608E-02  0.9370545E-01
          1   -1    0    0  501    0  0.00000000000E+00  0.00000000000E+00  0.59785232458E+03  0.59785232458E+03  0.00000000000E+00 0. -1.
         -2   -1    0    0    0  501 -0.00000000000E+00 -0.00000000000E+00 -0.17201048186E+04  0.17201048186E+04  0.00000000000E+00 0.  1.
        -24    2    1    2    0    0 -0.76224328476E+03 -0.43914778304E+03 -0.19188621144E+03  0.90393982202E+03  0.80132909466E+02 0.  0.
    5000000    2    1    2    0    0  0.76224328476E+03  0.43914778304E+03 -0.93036628257E+03  0.14140173211E+04  0.59999830351E+03 0.  0.
        -24    2    4    4    0    0  0.43867061951E+03 -0.18848534636E+02 -0.63325828368E+03  0.77458997782E+03  0.78653672565E+02 0.  0.
         24    2    4    4    0    0  0.32357266526E+03  0.45799631768E+03 -0.29710799889E+03  0.63942734332E+03  0.78321565835E+02 0.  0.
         11    1    3    3    0    0 -0.51594371679E+03 -0.27161070369E+03 -0.15827658133E+03  0.60417031494E+03  0.00000000000E+00 0. -1.
        -12    1    3    3    0    0 -0.24629956797E+03 -0.16753707935E+03 -0.33609630107E+02  0.29976950708E+03  0.00000000000E+00 0.  1.
         13    1    5    5    0    0  0.28543407748E+03 -0.45721525247E+02 -0.38165937693E+03  0.47877651410E+03  0.00000000000E+00 0. -1.
        -14    1    5    5    0    0  0.15323654203E+03  0.26872990611E+02 -0.25159890675E+03  0.29581346371E+03  0.00000000000E+00 0.  1.
          4    1    6    6  502    0  0.16437995855E+03  0.29277749224E+03 -0.19515301480E+03  0.38836082439E+03  0.00000000000E+00 0. -1.
         -3    1    6    6    0  502  0.15919270671E+03  0.16521882544E+03 -0.10195498410E+03  0.25106651894E+03  0.00000000000E+00 0.  1.
<mgrwt>
<rscale>  0 0.94539853E+03</rscale>
<asrwt>0</asrwt>
<pdfrwt beam="1">  1        1 0.91977281E-01 0.94539853E+03</pdfrwt>
<pdfrwt beam="2">  1       -2 0.26463151E+00 0.94539853E+03</pdfrwt>
<totfact> 0.15935282E+00</totfact>
</mgrwt>
</event>
<event>
12    3  0.2422421E-007  0.1135192E+04  0.7818608E-02  0.9171554E-01
          1   -1    0    0  501    0  0.00000000000E+00  0.00000000000E+00  0.10536956728E+04  0.10536956728E+04  0.00000000000E+00 0. -1.
         -2   -1    0    0    0  501 -0.00000000000E+00 -0.00000000000E+00 -0.13809360560E+04  0.13809360560E+04  0.00000000000E+00 0.  1.
        -24    2    1    2    0    0 -0.10379438763E+04  0.44631898763E+03 -0.12887032966E+03  0.11401386409E+04  0.82343363479E+02 0.  0.
    5000000    2    1    2    0    0  0.10379438763E+04 -0.44631898763E+03 -0.19837005347E+03  0.12944930879E+04  0.59986127336E+03 0.  0.
        -24    2    4    4    0    0  0.61492415438E+03 -0.32459847718E+03  0.16280745206E+03  0.71943855496E+03  0.87118774606E+02 0.  0.
         24    2    4    4    0    0  0.42301972194E+03 -0.12172051045E+03 -0.36117750553E+03  0.57505453289E+03  0.80479546990E+02 0.  0.
         11    1    5    5    0    0  0.19822197081E+03 -0.13079043054E+03  0.20613379511E+02  0.23837574929E+03  0.00000000000E+00 0. -1.
        -12    1    5    5    0    0  0.41670218357E+03 -0.19380804664E+03  0.14219407255E+03  0.48106280568E+03  0.00000000000E+00 0.  1.
         11    1    3    3    0    0 -0.35693420626E+03  0.18125276927E+03 -0.75856234810E+02  0.40744172875E+03  0.00000000000E+00 0. -1.
        -12    1    3    3    0    0 -0.68100967006E+03  0.26506621837E+03 -0.53014094850E+02  0.73269691216E+03  0.00000000000E+00 0.  1.
          2    1    6    6  502    0  0.33438976269E+03 -0.11393764041E+03 -0.32140805361E+03  0.47759966103E+03  0.00000000000E+00 0. -1.
         -1    1    6    6    0  502  0.88629959256E+02 -0.77828700419E+01 -0.39769451921E+02  0.97454871863E+02  0.00000000000E+00 0.  1.
<mgrwt>
<rscale>  0 0.11351920E+04</rscale>
<asrwt>0</asrwt>
<pdfrwt beam="1">  1        1 0.16210703E+00 0.11351920E+04</pdfrwt>
<pdfrwt beam="2">  1       -2 0.21245170E+00 0.11351920E+04</pdfrwt>
<totfact> 0.13072202E+00</totfact>
</mgrwt>
</event>
<event>
12    3  0.2422421E-007  0.7492057E+03  0.7818608E-02  0.9636597E-01
         -2   -1    0    0    0  501 -0.00000000000E+00  0.00000000000E+00  0.10627009722E+04  0.10627009722E+04  0.00000000000E+00 0.  1.
          1   -1    0    0  501    0  0.00000000000E+00 -0.00000000000E+00 -0.65891337203E+03  0.65891337203E+03  0.00000000000E+00 0. -1.
        -24    2    1    2    0    0 -0.23899873918E+02  0.72097624605E+03  0.26816341060E+03  0.77369652152E+03  0.79477929594E+02 0.  0.
    5000000    2    1    2    0    0  0.23899873918E+02 -0.72097624605E+03  0.13562418958E+03  0.94791782271E+03  0.59981357644E+03 0.  0.
        -24    2    4    4    0    0 -0.76067340542E+02 -0.10994096515E+03 -0.18840185206E+03  0.24455268463E+03  0.80234042564E+02 0.  0.
         24    2    4    4    0    0  0.99967214460E+02 -0.61103528089E+03  0.32402604164E+03  0.70336513808E+03  0.79825330208E+02 0.  0.
         11    1    3    3    0    0 -0.28512576159E+02  0.57847121102E+03  0.18196494408E+03  0.60708578459E+03  0.00000000000E+00 0. -1.
        -12    1    3    3    0    0  0.46127022410E+01  0.14250503503E+03  0.86198466524E+02  0.16661073693E+03  0.00000000000E+00 0.  1.
         13    1    5    5    0    0 -0.89418053810E+02 -0.80029546252E+02 -0.12553665862E+03  0.17366568250E+03  0.00000000000E+00 0. -1.
        -14    1    5    5    0    0  0.13350713268E+02 -0.29911418903E+02 -0.62865193437E+02  0.70887002133E+02  0.00000000000E+00 0.  1.
          4    1    6    6  502    0  0.86479482760E+02 -0.29090903083E+03  0.16992257569E+03  0.34782243586E+03  0.00000000000E+00 0. -1.
         -3    1    6    6    0  502  0.13487731700E+02 -0.32012625006E+03  0.15410346595E+03  0.35554270222E+03  0.00000000000E+00 0.  1.
<mgrwt>
<rscale>  0 0.74920568E+03</rscale>
<asrwt>0</asrwt>
<pdfrwt beam="1">  1        1 0.10137129E+00 0.74920568E+03</pdfrwt>
<pdfrwt beam="2">  1       -2 0.16349246E+00 0.74920568E+03</pdfrwt>
<totfact> 0.63460018E+00</totfact>
</mgrwt>
</event>
<event>
12    3  0.2422421E-007  0.3397277E+03  0.7818608E-02  0.1066912E+00
          1   -1    0    0  501    0  0.00000000000E+00  0.00000000000E+00  0.88084112986E+03  0.88084112986E+03  0.00000000000E+00 0. -1.
         -2   -1    0    0    0  501 -0.00000000000E+00 -0.00000000000E+00 -0.21236048649E+03  0.21236048649E+03  0.00000000000E+00 0.  1.
        -24    2    1    2    0    0  0.12657101355E+03  0.14892278299E+03  0.27362169257E+03  0.34882979987E+03  0.92818004035E+02 0.  0.
    5000000    2    1    2    0    0 -0.12657101355E+03 -0.14892278299E+03  0.39485895081E+03  0.74437181648E+03  0.59998132752E+03 0.  0.
        -24    2    4    4    0    0 -0.20684482854E+02  0.13508887796E+03 -0.77061744893E+02  0.17782546954E+03  0.83705031572E+02 0.  0.
         24    2    4    4    0    0 -0.10588653070E+03 -0.28401166095E+03  0.47192069570E+03  0.56654634694E+03  0.79943975789E+02 0.  0.
         11    1    3    3    0    0  0.52551984248E+02  0.11245312473E+03  0.11121067507E+03  0.16665902484E+03  0.00000000000E+00 0. -1.
        -12    1    3    3    0    0  0.74019029302E+02  0.36469658254E+02  0.16241101750E+03  0.18217077504E+03  0.00000000000E+00 0.  1.
         13    1    5    5    0    0 -0.53012562163E+02  0.72582195915E+02 -0.44105784026E+02  0.10011906460E+03  0.00000000000E+00 0. -1.
        -14    1    5    5    0    0  0.32328079310E+02  0.62506682044E+02 -0.32955960867E+02  0.77706404939E+02  0.00000000000E+00 0.  1.
          4    1    6    6  502    0 -0.56767822930E+02 -0.57562442009E+02  0.10379287742E+03  0.13156360383E+03  0.00000000000E+00 0. -1.
         -3    1    6    6    0  502 -0.49118707766E+02 -0.22644921894E+03  0.36812781828E+03  0.43498274311E+03  0.00000000000E+00 0.  1.
<mgrwt>
<rscale>  0 0.33972774E+03</rscale>
<asrwt>0</asrwt>
<pdfrwt beam="1">  1        1 0.13551402E+00 0.33972774E+03</pdfrwt>
<pdfrwt beam="2">  1       -2 0.32670844E-01 0.33972774E+03</pdfrwt>
<totfact> 0.15195755E+02</totfact>
</mgrwt>
</event>
<event>
12    3  0.2422421E-007  0.8342022E+03  0.7818608E-02  0.9511789E-01
          1   -1    0    0  501    0  0.00000000000E+00  0.00000000000E+00  0.73366944036E+03  0.73366944036E+03  0.00000000000E+00 0. -1.
         -2   -1    0    0    0  501 -0.00000000000E+00 -0.00000000000E+00 -0.10207276325E+04  0.10207276325E+04  0.00000000000E+00 0.  1.
        -24    2    1    2    0    0 -0.52157785792E+03 -0.52349387236E+03  0.49040015089E+02  0.74494262125E+03  0.80282561046E+02 0.  0.
    5000000    2    1    2    0    0  0.52157785792E+03  0.52349387236E+03 -0.33609820719E+03  0.10094544516E+04  0.59995582223E+03 0.  0.
        -24    2    4    4    0    0  0.37333178857E+03 -0.17413520964E+01 -0.42767093702E+02  0.38452223188E+03  0.81539351497E+02 0.  0.
         24    2    4    4    0    0  0.14824606935E+03  0.52523522445E+03 -0.29333111349E+03  0.62493221968E+03  0.81536488579E+02 0.  0.
         11    1    5    5    0    0  0.15078674589E+03  0.29650530816E+02 -0.43718487038E+02  0.15977203391E+03  0.00000000000E+00 0. -1.
        -12    1    5    5    0    0  0.22254504268E+03 -0.31391882913E+02  0.95139333566E+00  0.22475019797E+03  0.00000000000E+00 0.  1.
         13    1    3    3    0    0 -0.46118767057E+03 -0.45357867037E+03  0.68669645670E+02  0.65049457948E+03  0.00000000000E+00 0. -1.
        -14    1    3    3    0    0 -0.60390187354E+02 -0.69915201989E+02 -0.19629630580E+02  0.94448041772E+02  0.00000000000E+00 0.  1.
          2    1    6    6  502    0  0.13249304683E+03  0.34109686853E+03 -0.17628567131E+03  0.40617498579E+03  0.00000000000E+00 0. -1.
         -1    1    6    6    0  502  0.15753022523E+02  0.18413835593E+03 -0.11704544218E+03  0.21875723389E+03  0.00000000000E+00 0.  1.
<mgrwt>
<rscale>  0 0.83420225E+03</rscale>
<asrwt>0</asrwt>
<pdfrwt beam="1">  1        1 0.11287222E+00 0.83420225E+03</pdfrwt>
<pdfrwt beam="2">  1       -2 0.15703502E+00 0.83420225E+03</pdfrwt>
<totfact> 0.59605838E+00</totfact>
</mgrwt>
</event>
<event>
12    3  0.2422421E-007  0.6317494E+03  0.7818608E-02  0.9841641E-01
         -2   -1    0    0    0  501 -0.00000000000E+00  0.00000000000E+00  0.29287975206E+03  0.29287975206E+03  0.00000000000E+00 0.  1.
          1   -1    0    0  501    0  0.00000000000E+00 -0.00000000000E+00 -0.18798091117E+04  0.18798091117E+04  0.00000000000E+00 0. -1.
        -24    2    1    2    0    0 -0.15937839861E+03 -0.58649149544E+03 -0.83105700827E+03  0.10321797795E+04  0.73250242304E+02 0.  0.
    5000000    2    1    2    0    0  0.15937839861E+03  0.58649149544E+03 -0.75587235134E+03  0.11405090843E+04  0.60003684185E+03 0.  0.
        -24    2    4    4    0    0  0.15240527779E+01  0.41443896244E+03 -0.91698820164E+02  0.43213924346E+03  0.81078207896E+02 0.  0.
         24    2    4    4    0    0  0.15785434583E+03  0.17205253300E+03 -0.66417353118E+03  0.70836984079E+03  0.78366339810E+02 0.  0.
         11    1    5    5    0    0 -0.19261835827E+02  0.78389216425E+02  0.76839409729E+01  0.81085945268E+02  0.00000000000E+00 0. -1.
        -12    1    5    5    0    0  0.20785888605E+02  0.33604974602E+03 -0.99382761137E+02  0.35105329819E+03  0.00000000000E+00 0.  1.
         13    1    3    3    0    0 -0.94056013086E+02 -0.21389371349E+03 -0.33080853474E+03  0.40500782822E+03  0.00000000000E+00 0. -1.
        -14    1    3    3    0    0 -0.65322385526E+02 -0.37259778195E+03 -0.50024847354E+03  0.62717195126E+03  0.00000000000E+00 0.  1.
          4    1    6    6  502    0  0.48049813846E+02  0.64615880718E+02 -0.34330887050E+03  0.35262583175E+03  0.00000000000E+00 0. -1.
         -3    1    6    6    0  502  0.10980453199E+03  0.10743665228E+03 -0.32086466068E+03  0.35574400904E+03  0.00000000000E+00 0.  1.
<mgrwt>
<rscale>  0 0.63174937E+03</rscale>
<asrwt>0</asrwt>
<pdfrwt beam="1">  1        1 0.28920140E+00 0.63174937E+03</pdfrwt>
<pdfrwt beam="2">  1       -2 0.45058423E-01 0.63174937E+03</pdfrwt>
<totfact> 0.15570631E+01</totfact>
</mgrwt>
</event>
<event>
12    3  0.2422421E-007  0.5896048E+03  0.7818608E-02  0.9927211E-01
          1   -1    0    0  501    0  0.00000000000E+00  0.00000000000E+00  0.11688575159E+04  0.11688575159E+04  0.00000000000E+00 0. -1.
         -2   -1    0    0    0  501 -0.00000000000E+00 -0.00000000000E+00 -0.34419329868E+03  0.34419329868E+03  0.00000000000E+00 0.  1.
        -24    2    1    2    0    0  0.44844957025E+03  0.88842825853E+02  0.52759238176E+03  0.70220727273E+03  0.75771154350E+02 0.  0.
    5000000    2    1    2    0    0 -0.44844957025E+03 -0.88842825853E+02  0.29707183546E+03  0.81084354184E+03  0.60017956410E+03 0.  0.
        -24    2    4    4    0    0 -0.56931946480E+03 -0.12023194374E+03  0.30126114925E+03  0.66128561787E+03  0.89218916547E+02 0.  0.
         24    2    4    4    0    0  0.12086989455E+03  0.31389117885E+02 -0.41893137858E+01  0.14955792397E+03  0.82190109754E+02 0.  0.
         11    1    3    3    0    0  0.24576360364E+03  0.86979306839E+02  0.29860636516E+03  0.39639741423E+03  0.00000000000E+00 0. -1.
        -12    1    3    3    0    0  0.20268596660E+03  0.18635190145E+01  0.22898601660E+03  0.30580985850E+03  0.00000000000E+00 0.  1.
         11    1    5    5    0    0 -0.68940335981E+02 -0.36610795815E+02  0.17482809240E+02  0.79992305345E+02  0.00000000000E+00 0. -1.
        -12    1    5    5    0    0 -0.50037912882E+03 -0.83621147923E+02  0.28377834001E+03  0.58129331253E+03  0.00000000000E+00 0.  1.
          2    1    6    6  502    0  0.76829478647E+02  0.83181023171E+00 -0.38473640993E+02  0.85928352415E+02  0.00000000000E+00 0. -1.
         -1    1    6    6    0  502  0.44040415904E+02  0.30557307653E+02  0.34284327208E+02  0.63629571554E+02  0.00000000000E+00 0.  1.
<mgrwt>
<rscale>  0 0.58960484E+03</rscale>
<asrwt>0</asrwt>
<pdfrwt beam="1">  1        1 0.17982423E+00 0.58960484E+03</pdfrwt>
<pdfrwt beam="2">  1       -2 0.52952816E-01 0.58960484E+03</pdfrwt>
<totfact> 0.34662246E+01</totfact>
</mgrwt>
</event>
<event>
12    3  0.2422421E-007  0.1102790E+04  0.7818608E-02  0.9202477E-01
         -2   -1    0    0    0  501 -0.00000000000E+00  0.00000000000E+00  0.19649170202E+04  0.19649170202E+04  0.00000000000E+00 0.  1.
          1   -1    0    0  501    0  0.00000000000E+00 -0.00000000000E+00 -0.94986789392E+03  0.94986789392E+03  0.00000000000E+00 0. -1.
        -24    2    1    2    0    0 -0.30925713130E+03  0.97893151938E+03 -0.36601858357E+03  0.10921430967E+04  0.69714039889E+02 0.  0.
    5000000    2    1    2    0    0  0.30925713130E+03 -0.97893151938E+03  0.13810677098E+04  0.18226418174E+04  0.60060659533E+03 0.  0.
        -24    2    4    4    0    0  0.30271888131E+03 -0.13530931632E+03  0.41604617804E+03  0.53834687808E+03  0.82314073485E+02 0.  0.
         24    2    4    4    0    0  0.65382499885E+01 -0.84362220306E+03  0.96502153181E+03  0.12842949393E+04  0.80036017004E+02 0.  0.
         11    1    5    5    0    0  0.26177484143E+03 -0.10308241853E+03  0.38772011036E+03  0.47903959815E+03  0.00000000000E+00 0. -1.
        -12    1    5    5    0    0  0.40944039881E+02 -0.32226897786E+02  0.28326067674E+02  0.59307279929E+02  0.00000000000E+00 0.  1.
         13    1    3    3    0    0 -0.11184304560E+03  0.26203912070E+03 -0.86283715274E+02  0.29768817099E+03  0.00000000000E+00 0. -1.
        -14    1    3    3    0    0 -0.19741408570E+03  0.71689239868E+03 -0.27973486830E+03  0.79445492576E+03  0.00000000000E+00 0.  1.
          2    1    6    6  502    0  0.25092420927E+01 -0.31343162737E+03  0.41827165661E+03  0.52268237014E+03  0.00000000000E+00 0. -1.
         -1    1    6    6    0  502  0.40290078957E+01 -0.53019057569E+03  0.54674987520E+03  0.76161256915E+03  0.00000000000E+00 0.  1.
<mgrwt>
<rscale>  0 0.11027897E+04</rscale>
<asrwt>0</asrwt>
<pdfrwt beam="1">  1        1 0.14613352E+00 0.11027897E+04</pdfrwt>
<pdfrwt beam="2">  1       -2 0.30229492E+00 0.11027897E+04</pdfrwt>
<totfact> 0.44460684E-01</totfact>
</mgrwt>
</event>
<event>
12    3  0.2422421E-007  0.6005268E+03  0.7818608E-02  0.9904314E-01
         -2   -1    0    0    0  501 -0.00000000000E+00  0.00000000000E+00  0.81183751019E+03  0.81183751019E+03  0.00000000000E+00 0.  1.
          1   -1    0    0  501    0  0.00000000000E+00 -0.00000000000E+00 -0.55517951381E+03  0.55517951381E+03  0.00000000000E+00 0. -1.
        -24    2    1    2    0    0 -0.23070919246E+03 -0.40451416967E+03 -0.16230287946E+03  0.49964250736E+03  0.80261856026E+02 0.  0.
    5000000    2    1    2    0    0  0.23070919246E+03  0.40451416967E+03  0.41896087584E+03  0.86737451664E+03  0.59995990840E+03 0.  0.
        -24    2    4    4    0    0 -0.16073575834E+03  0.26370770404E+02  0.21356600709E+03  0.28013842927E+03  0.79597101912E+02 0.  0.
         24    2    4    4    0    0  0.39144495080E+03  0.37814339926E+03  0.20539486876E+03  0.58723608737E+03  0.80234595291E+02 0.  0.
         13    1    3    3    0    0 -0.96580391718E+02 -0.10309481536E+03 -0.66242023759E+02  0.15602666032E+03  0.00000000000E+00 0. -1.
        -14    1    3    3    0    0 -0.13412880074E+03 -0.30141935431E+03 -0.96060855702E+02  0.34361584704E+03  0.00000000000E+00 0.  1.
         13    1    5    5    0    0 -0.86936513952E+02  0.53371691850E+02  0.10836144581E+03  0.14882438606E+03  0.00000000000E+00 0. -1.
        -14    1    5    5    0    0 -0.73799244388E+02 -0.27000921446E+02  0.10520456128E+03  0.13131404321E+03  0.00000000000E+00 0.  1.
          4    1    6    6  502    0  0.61981583254E+01  0.28020457760E+02  0.18410870308E+02  0.34095796885E+02  0.00000000000E+00 0. -1.
         -3    1    6    6    0  502  0.38524679248E+03  0.35012294150E+03  0.18698399845E+03  0.55314029048E+03  0.00000000000E+00 0.  1.
<mgrwt>
<rscale>  0 0.60052676E+03</rscale>
<asrwt>0</asrwt>
<pdfrwt beam="1">  1        1 0.85412233E-01 0.60052676E+03</pdfrwt>
<pdfrwt beam="2">  1       -2 0.12489808E+00 0.60052676E+03</pdfrwt>
<totfact> 0.16655204E+01</totfact>
</mgrwt>
</event>
<event>
12    3  0.2422421E-007  0.1283924E+04  0.7818608E-02  0.9042411E-01
         -2   -1    0    0    0  501 -0.00000000000E+00  0.00000000000E+00  0.75464216114E+03  0.75464216114E+03  0.00000000000E+00 0.  1.
          1   -1    0    0  501    0  0.00000000000E+00 -0.00000000000E+00 -0.31365996554E+04  0.31365996554E+04  0.00000000000E+00 0. -1.
        -24    2    1    2    0    0 -0.45945234664E+03  0.11283241092E+04 -0.86273756396E+02  0.12239548166E+04  0.80065460658E+02 0.  0.
    5000000    2    1    2    0    0  0.45945234664E+03 -0.11283241092E+04 -0.22956837378E+04  0.26672869999E+04  0.60003696669E+03 0.  0.
        -24    2    4    4    0    0  0.58566162291E+03 -0.95201764046E+03 -0.18142887135E+04  0.21324356272E+04  0.79379114727E+02 0.  0.
         24    2    4    4    0    0 -0.12620927627E+03 -0.17630646870E+03 -0.48139502436E+03  0.53485137271E+03  0.85510637300E+02 0.  0.
         11    1    5    5    0    0  0.28591522702E+03 -0.47774471098E+03 -0.97809281272E+03  0.11254568300E+04  0.00000000000E+00 0. -1.
        -12    1    5    5    0    0  0.29974639588E+03 -0.47427292947E+03 -0.83619590075E+03  0.10069787971E+04  0.00000000000E+00 0.  1.
         11    1    3    3    0    0 -0.25138518681E+03  0.63732072757E+03 -0.93916946272E+01  0.68517182214E+03  0.00000000000E+00 0. -1.
        -12    1    3    3    0    0 -0.20806715983E+03  0.49100338159E+03 -0.76882061769E+02  0.53878299449E+03  0.00000000000E+00 0.  1.
          4    1    6    6  502    0 -0.98894776729E+02 -0.17869199594E+03 -0.44141825425E+03  0.48637545319E+03  0.00000000000E+00 0. -1.
         -3    1    6    6    0  502 -0.27314499539E+02  0.23855272419E+01 -0.39976770106E+02  0.48475919521E+02  0.00000000000E+00 0.  1.
<mgrwt>
<rscale>  0 0.12839241E+04</rscale>
<asrwt>0</asrwt>
<pdfrwt beam="1">  1        1 0.48255380E+00 0.12839241E+04</pdfrwt>
<pdfrwt beam="2">  1       -2 0.11609879E+00 0.12839241E+04</pdfrwt>
<totfact> 0.23507987E-01</totfact>
</mgrwt>
</event>
<event>
12    3  0.2422421E-007  0.1030434E+04  0.7818608E-02  0.9275781E-01
          1   -1    0    0  501    0  0.00000000000E+00  0.00000000000E+00  0.10348162284E+04  0.10348162284E+04  0.00000000000E+00 0. -1.
         -2   -1    0    0    0  501 -0.00000000000E+00 -0.00000000000E+00 -0.14399568537E+04  0.14399568537E+04  0.00000000000E+00 0.  1.
        -24    2    1    2    0    0  0.45102202785E+03  0.90632899043E+03  0.35306609759E+03  0.10751768627E+04  0.80600920086E+02 0.  0.
    5000000    2    1    2    0    0 -0.45102202785E+03 -0.90632899043E+03 -0.75820672286E+03  0.13995962194E+04  0.59928209911E+03 0.  0.
        -24    2    4    4    0    0 -0.32423286102E+02 -0.32686570590E+03 -0.56001148681E+03  0.65382283398E+03  0.77323823675E+02 0.  0.
         24    2    4    4    0    0 -0.41859874175E+03 -0.57946328453E+03 -0.19819523605E+03  0.74577338544E+03  0.76772300421E+02 0.  0.
         11    1    5    5    0    0 -0.27933911955E+02 -0.27319632671E+03 -0.40168918122E+03  0.48659093156E+03  0.00000000000E+00 0. -1.
        -12    1    5    5    0    0 -0.44893741462E+01 -0.53669379190E+02 -0.15832230558E+03  0.16723190242E+03  0.00000000000E+00 0.  1.
         13    1    3    3    0    0  0.11042878593E+03  0.17299717352E+03  0.97212362122E+02  0.22709641599E+03  0.00000000000E+00 0. -1.
        -14    1    3    3    0    0  0.34059324193E+03  0.73333181691E+03  0.25585373547E+03  0.84808044671E+03  0.00000000000E+00 0.  1.
          4    1    6    6  502    0 -0.27495632380E+03 -0.31902192714E+03 -0.12789329166E+03  0.44015072879E+03  0.00000000000E+00 0. -1.
         -3    1    6    6    0  502 -0.14364241795E+03 -0.26044135739E+03 -0.70301944394E+02  0.30562265665E+03  0.00000000000E+00 0.  1.
<mgrwt>
<rscale>  0 0.10304344E+04</rscale>
<asrwt>0</asrwt>
<pdfrwt beam="1">  1        1 0.15920250E+00 0.10304344E+04</pdfrwt>
<pdfrwt beam="2">  1       -2 0.22153182E+00 0.10304344E+04</pdfrwt>
<totfact> 0.11982451E+00</totfact>
</mgrwt>
</event>
<event>
12    3  0.2422421E-007  0.9685590E+03  0.7818608E-02  0.9343717E-01
          1   -1    0    0  501    0  0.00000000000E+00  0.00000000000E+00  0.12523210438E+04  0.12523210438E+04  0.00000000000E+00 0. -1.
         -2   -1    0    0    0  501 -0.00000000000E+00 -0.00000000000E+00 -0.22840091873E+04  0.22840091873E+04  0.00000000000E+00 0.  1.
        -24    2    1    2    0    0  0.86767024675E+03  0.38153553228E+03  0.89554189613E+03  0.13064887167E+04  0.80600618709E+02 0.  0.
    5000000    2    1    2    0    0 -0.86767024675E+03 -0.38153553228E+03 -0.19272300396E+04  0.22298415144E+04  0.59963033127E+03 0.  0.
        -24    2    4    4    0    0 -0.26546643815E+03 -0.25053499150E+03 -0.28083167297E+03  0.47014082121E+03  0.94476195239E+02 0.  0.
         24    2    4    4    0    0 -0.60220380859E+03 -0.13100054077E+03 -0.16463983666E+04  0.17597006932E+04  0.78156120065E+02 0.  0.
         11    1    3    3    0    0  0.11066056252E+03  0.45338916718E+02  0.15203676261E+03  0.19343359236E+03  0.00000000000E+00 0. -1.
        -12    1    3    3    0    0  0.75700968422E+03  0.33619661556E+03  0.74350513352E+03  0.11130551244E+04  0.00000000000E+00 0.  1.
         11    1    5    5    0    0 -0.13503782598E+03 -0.16553278632E+03 -0.11472903037E+03  0.24248519171E+03  0.00000000000E+00 0. -1.
        -12    1    5    5    0    0 -0.13042861217E+03 -0.85002205187E+02 -0.16610264260E+03  0.22765562949E+03  0.00000000000E+00 0.  1.
          2    1    6    6  502    0 -0.49665843875E+03 -0.13368061922E+03 -0.14067096596E+04  0.14977890970E+04  0.00000000000E+00 0. -1.
         -1    1    6    6    0  502 -0.10554536985E+03  0.26800784486E+01 -0.23968870702E+03  0.26191159614E+03  0.00000000000E+00 0.  1.
<mgrwt>
<rscale>  0 0.96855897E+03</rscale>
<asrwt>0</asrwt>
<pdfrwt beam="1">  1        1 0.19266478E+00 0.96855897E+03</pdfrwt>
<pdfrwt beam="2">  1       -2 0.35138602E+00 0.96855897E+03</pdfrwt>
<totfact> 0.13391043E-01</totfact>
</mgrwt>
</event>
<event>
12    3  0.2422421E-007  0.3921017E+03  0.7818608E-02  0.1046549E+00
          1   -1    0    0  501    0  0.00000000000E+00  0.00000000000E+00  0.58541951646E+03  0.58541951646E+03  0.00000000000E+00 0. -1.
         -2   -1    0    0    0  501 -0.00000000000E+00 -0.00000000000E+00 -0.44300568985E+03  0.44300568985E+03  0.00000000000E+00 0.  1.
        -24    2    1    2    0    0  0.26968051032E+03  0.13321081857E+03  0.17430784184E+03  0.35648533912E+03  0.78904204250E+02 0.  0.
    5000000    2    1    2    0    0 -0.26968051032E+03 -0.13321081857E+03 -0.31894015226E+02  0.67193986718E+03  0.60001104746E+03 0.  0.
        -24    2    4    4    0    0  0.24541037135E+02  0.97113570909E+02  0.19297776253E+03  0.22839329463E+03  0.69926904994E+02 0.  0.
         24    2    4    4    0    0 -0.29422154746E+03 -0.23032438948E+03 -0.22487177776E+03  0.44354657255E+03  0.80935790650E+02 0.  0.
         11    1    5    5    0    0  0.20398598986E+02  0.60201605155E+02  0.50583860796E+02  0.81234617478E+02  0.00000000000E+00 0. -1.
        -12    1    5    5    0    0  0.41424381496E+01  0.36911965755E+02  0.14239390174E+03  0.14715867715E+03  0.00000000000E+00 0.  1.
         11    1    3    3    0    0  0.17016949251E+03  0.10613172756E+03  0.77404666351E+02  0.21497228229E+03  0.00000000000E+00 0. -1.
        -12    1    3    3    0    0  0.99511017810E+02  0.27079091013E+02  0.96903175490E+02  0.14151305684E+03  0.00000000000E+00 0.  1.
          2    1    6    6  502    0 -0.15445017202E+03 -0.16340895282E+03 -0.15776659127E+03  0.27467733584E+03  0.00000000000E+00 0. -1.
         -3    1    6    6    0  502 -0.13977137544E+03 -0.66915436662E+02 -0.67105186487E+02  0.16886923672E+03  0.00000000000E+00 0.  1.
<mgrwt>
<rscale>  0 0.39210168E+03</rscale>
<asrwt>0</asrwt>
<pdfrwt beam="1">  1        1 0.90064541E-01 0.39210168E+03</pdfrwt>
<pdfrwt beam="2">  1       -2 0.68154721E-01 0.39210168E+03</pdfrwt>
<totfact> 0.64322117E+01</totfact>
</mgrwt>
</event>
<event>
12    3  0.2422421E-007  0.8319347E+03  0.7818608E-02  0.9514910E-01
         -2   -1    0    0    0  501 -0.00000000000E+00  0.00000000000E+00  0.31360595767E+03  0.31360595767E+03  0.00000000000E+00 0.  1.
          1   -1    0    0  501    0  0.00000000000E+00 -0.00000000000E+00 -0.27780118507E+04  0.27780118507E+04  0.00000000000E+00 0. -1.
        -24    2    1    2    0    0 -0.77894188367E+03  0.15402547327E+03 -0.67526851380E+03  0.10443093230E+04  0.64187940702E+02 0.  0.
    5000000    2    1    2    0    0  0.77894188367E+03 -0.15402547327E+03 -0.17891373792E+04  0.20473084854E+04  0.59998763997E+03 0.  0.
        -24    2    4    4    0    0  0.49938931838E+03 -0.25265418925E+03 -0.15735457687E+04  0.16720898906E+04  0.81329487137E+02 0.  0.
         24    2    4    4    0    0  0.27955256529E+03  0.98628715983E+02 -0.21559161055E+03  0.37521859480E+03  0.80199694335E+02 0.  0.
         11    1    3    3    0    0 -0.64907721833E+03  0.15085861513E+03 -0.55375501714E+03  0.86643186468E+03  0.00000000000E+00 0. -1.
        -12    1    3    3    0    0 -0.12986466533E+03  0.31668581400E+01 -0.12151349666E+03  0.17787745828E+03  0.00000000000E+00 0.  1.
         13    1    5    5    0    0  0.45479989246E+02 -0.43813537975E+02 -0.23476956372E+03  0.24311479507E+03  0.00000000000E+00 0. -1.
        -14    1    5    5    0    0  0.45390932914E+03 -0.20884065128E+03 -0.13387762049E+04  0.14289750955E+04  0.00000000000E+00 0.  1.
          4    1    6    6  502    0  0.11961950173E+03  0.79701820591E+02 -0.78839702838E+02  0.16394177059E+03  0.00000000000E+00 0. -1.
         -3    1    6    6    0  502  0.15993306355E+03  0.18926895393E+02 -0.13675190771E+03  0.21127682422E+03  0.00000000000E+00 0.  1.
<mgrwt>
<rscale>  0 0.83193470E+03</rscale>
<asrwt>0</asrwt>
<pdfrwt beam="1">  1        1 0.42738644E+00 0.83193470E+03</pdfrwt>
<pdfrwt beam="2">  1       -2 0.48247071E-01 0.83193470E+03</pdfrwt>
<totfact> 0.32337979E+00</totfact>
</mgrwt>
</event>
<event>
12    3  0.2422421E-007  0.7110956E+03  0.7818608E-02  0.9698443E-01
          1   -1    0    0  501    0  0.00000000000E+00  0.00000000000E+00  0.18179809410E+04  0.18179809410E+04  0.00000000000E+00 0. -1.
         -2   -1    0    0    0  501 -0.00000000000E+00 -0.00000000000E+00 -0.87483041596E+03  0.87483041596E+03  0.00000000000E+00 0.  1.
        -24    2    1    2    0    0 -0.20043692501E+03  0.63090022553E+03  0.14989380358E+04  0.16405915134E+04  0.80716933407E+02 0.  0.
    5000000    2    1    2    0    0  0.20043692501E+03 -0.63090022553E+03 -0.55578751076E+03  0.10522198435E+04  0.60004732018E+03 0.  0.
        -24    2    4    4    0    0  0.23166573516E+03 -0.63993889188E+03 -0.63521543168E+03  0.93475392919E+03  0.84115785165E+02 0.  0.
         24    2    4    4    0    0 -0.31228810144E+02  0.90386663471E+01  0.79427920911E+02  0.11746591431E+03  0.80202932192E+02 0.  0.
         11    1    5    5    0    0  0.10153588592E+03 -0.30776283729E+03 -0.24673591619E+03  0.40731574053E+03  0.00000000000E+00 0. -1.
        -12    1    5    5    0    0  0.13012984924E+03 -0.33217605459E+03 -0.38847951548E+03  0.52743818866E+03  0.00000000000E+00 0.  1.
         13    1    3    3    0    0 -0.71628115449E+02  0.33338247889E+03  0.82649875463E+03  0.89407754449E+03  0.00000000000E+00 0. -1.
        -14    1    3    3    0    0 -0.12880880956E+03  0.29751774665E+03  0.67243928116E+03  0.74651396895E+03  0.00000000000E+00 0.  1.
          4    1    6    6  502    0 -0.74166910361E+01 -0.29742302931E+02  0.62377375982E+01  0.31281324459E+02  0.00000000000E+00 0. -1.
         -3    1    6    6    0  502 -0.23812119108E+02  0.38780969278E+02  0.73190183312E+02  0.86184589851E+02  0.00000000000E+00 0.  1.
<mgrwt>
<rscale>  0 0.71109563E+03</rscale>
<asrwt>0</asrwt>
<pdfrwt beam="1">  1        1 0.27968938E+00 0.71109563E+03</pdfrwt>
<pdfrwt beam="2">  1       -2 0.13458930E+00 0.71109563E+03</pdfrwt>
<totfact> 0.14496069E+00</totfact>
</mgrwt>
</event>
<event>
12    3  0.2422421E-007  0.9364283E+03  0.7818608E-02  0.9381156E-01
          1   -1    0    0  501    0  0.00000000000E+00  0.00000000000E+00  0.18433785854E+04  0.18433785854E+04  0.00000000000E+00 0. -1.
         -4   -1    0    0    0  501 -0.00000000000E+00 -0.00000000000E+00 -0.66628130646E+03  0.66628130646E+03  0.00000000000E+00 0.  1.
        -24    2    1    2    0    0 -0.74240484327E+03 -0.46424856269E+03  0.11505937781E+04  0.14480840358E+04  0.79935306205E+02 0.  0.
    5000000    2    1    2    0    0  0.74240484327E+03  0.46424856269E+03  0.26503500864E+02  0.10615758561E+04  0.59962420187E+03 0.  0.
        -24    2    4    4    0    0  0.98248688386E+02  0.31800338288E+03 -0.14980573830E+03  0.37350529257E+03  0.79281069957E+02 0.  0.
         24    2    4    4    0    0  0.64415615489E+03  0.14624517981E+03  0.17630923916E+03  0.68807056356E+03  0.77661754570E+02 0.  0.
         13    1    5    5    0    0  0.88004771759E+02  0.25858821405E+03 -0.15308253252E+03  0.31312452165E+03  0.00000000000E+00 0. -1.
        -14    1    5    5    0    0  0.10243916627E+02  0.59415168836E+02  0.32767942270E+01  0.60380770913E+02  0.00000000000E+00 0.  1.
         13    1    3    3    0    0 -0.44054522442E+03 -0.23208949158E+03  0.62774423366E+03  0.80125429781E+03  0.00000000000E+00 0. -1.
        -14    1    3    3    0    0 -0.30185961885E+03 -0.23215907111E+03  0.52284954445E+03  0.64682973797E+03  0.00000000000E+00 0.  1.
          2    1    6    6  502    0  0.38984850326E+03  0.94552127401E+02  0.68029348849E+02  0.40687830195E+03  0.00000000000E+00 0. -1.
         -1    1    6    6    0  502  0.25430765163E+03  0.51693052406E+02  0.10827989031E+03  0.28119226161E+03  0.00000000000E+00 0.  1.
<mgrwt>
<rscale>  0 0.93642829E+03</rscale>
<asrwt>0</asrwt>
<pdfrwt beam="1">  1        1 0.28359670E+00 0.93642829E+03</pdfrwt>
<pdfrwt beam="2">  1       -4 0.10250482E+00 0.93642829E+03</pdfrwt>
<totfact> 0.14346214E+00</totfact>
</mgrwt>
</event>
<event>
12    3  0.2422421E-007  0.5614085E+03  0.7818608E-02  0.9988873E-01
          1   -1    0    0  501    0  0.00000000000E+00  0.00000000000E+00  0.96647404771E+03  0.96647404771E+03  0.00000000000E+00 0. -1.
         -2   -1    0    0    0  501 -0.00000000000E+00 -0.00000000000E+00 -0.48685745097E+03  0.48685745097E+03  0.00000000000E+00 0.  1.
        -24    2    1    2    0    0 -0.48920138337E+03  0.24243742388E+03  0.11514137985E+03  0.56393649093E+03  0.81688006862E+02 0.  0.
    5000000    2    1    2    0    0  0.48920138337E+03 -0.24243742388E+03  0.36447521689E+03  0.88939500775E+03  0.60007282734E+03 0.  0.
        -24    2    4    4    0    0  0.82980688671E+02 -0.10642854730E+03 -0.14871135663E+03  0.21630086300E+03  0.80362711328E+02 0.  0.
         24    2    4    4    0    0  0.40622069469E+03 -0.13600887658E+03  0.51318657352E+03  0.67309414475E+03  0.78623159159E+02 0.  0.
         11    1    3    3    0    0 -0.41477278288E+03  0.22135218879E+03  0.72786444813E+02  0.47574270299E+03  0.00000000000E+00 0. -1.
        -12    1    3    3    0    0 -0.74428600490E+02  0.21085235086E+02  0.42354935039E+02  0.88193787942E+02  0.00000000000E+00 0.  1.
         13    1    5    5    0    0  0.70652212584E+02 -0.52744272585E+02 -0.13200389250E+03  0.15874105035E+03  0.00000000000E+00 0. -1.
        -14    1    5    5    0    0  0.12328476087E+02 -0.53684274713E+02 -0.16707464133E+02  0.57559812646E+02  0.00000000000E+00 0.  1.
          2    1    6    6  502    0  0.10763986761E+03 -0.62883829752E+02  0.18829250329E+03  0.22582024696E+03  0.00000000000E+00 0. -1.
         -1    1    6    6    0  502  0.29858082708E+03 -0.73125046829E+02  0.32489407023E+03  0.44727389779E+03  0.00000000000E+00 0.  1.
<mgrwt>
<rscale>  0 0.56140847E+03</rscale>
<asrwt>0</asrwt>
<pdfrwt beam="1">  1        1 0.14868831E+00 0.56140847E+03</pdfrwt>
<pdfrwt beam="2">  1       -2 0.74901146E-01 0.56140847E+03</pdfrwt>
<totfact> 0.23605822E+01</totfact>
</mgrwt>
</event>
<event>
12    3  0.2422421E-007  0.2449116E+03  0.7818608E-02  0.1116563E+00
          1   -1    0    0  501    0  0.00000000000E+00  0.00000000000E+00  0.93269695094E+03  0.93269695094E+03  0.00000000000E+00 0. -1.
         -2   -1    0    0    0  501 -0.00000000000E+00 -0.00000000000E+00 -0.26187231078E+03  0.26187231078E+03  0.00000000000E+00 0.  1.
        -24    2    1    2    0    0  0.14879580699E+02  0.14260257355E+03 -0.11156960568E+03  0.19822748820E+03  0.79306142634E+02 0.  0.
    5000000    2    1    2    0    0 -0.14879580699E+02 -0.14260257355E+03  0.78239424584E+03  0.99634177352E+03  0.59999939819E+03 0.  0.
        -24    2    4    4    0    0 -0.14965823914E+03 -0.35984485243E+02  0.78826492755E+03  0.80712458138E+03  0.79975134475E+02 0.  0.
         24    2    4    4    0    0  0.13477865844E+03 -0.10661808831E+03 -0.58706817140E+01  0.18921719214E+03  0.78968204812E+02 0.  0.
         13    1    3    3    0    0 -0.39613173714E+01  0.90583838624E+02 -0.22576863829E+02  0.93438956734E+02  0.00000000000E+00 0. -1.
        -14    1    3    3    0    0  0.18840898071E+02  0.52018734928E+02 -0.88992741855E+02  0.10478853146E+03  0.00000000000E+00 0.  1.
         13    1    5    5    0    0 -0.66866171601E+02 -0.24135533648E+02  0.18674615934E+03  0.19981926063E+03  0.00000000000E+00 0. -1.
        -14    1    5    5    0    0 -0.82792067539E+02 -0.11848951595E+02  0.60151876821E+03  0.60730532075E+03  0.00000000000E+00 0.  1.
          2    1    6    6  502    0  0.97137130973E+02 -0.11500486965E+03 -0.34737758813E+01  0.15057825001E+03  0.00000000000E+00 0. -1.
         -1    1    6    6    0  502  0.37641527468E+02  0.83867813402E+01 -0.23969058327E+01  0.38638942130E+02  0.00000000000E+00 0.  1.
<mgrwt>
<rscale>  0 0.24491159E+03</rscale>
<asrwt>0</asrwt>
<pdfrwt beam="1">  1        1 0.14349184E+00 0.24491159E+03</pdfrwt>
<pdfrwt beam="2">  1       -2 0.40288048E-01 0.24491159E+03</pdfrwt>
<totfact> 0.94642448E+01</totfact>
</mgrwt>
</event>
<event>
12    3  0.2422421E-007  0.4849797E+03  0.7818608E-02  0.1017776E+00
         -2   -1    0    0    0  501 -0.00000000000E+00  0.00000000000E+00  0.13074184746E+04  0.13074184746E+04  0.00000000000E+00 0.  1.
          1   -1    0    0  501    0  0.00000000000E+00 -0.00000000000E+00 -0.19243422294E+03  0.19243422294E+03  0.00000000000E+00 0. -1.
        -24    2    1    2    0    0 -0.23938240780E+03 -0.20538616754E+03  0.36678992474E+03  0.49026190982E+03  0.79589423618E+02 0.  0.
    5000000    2    1    2    0    0  0.23938240780E+03  0.20538616754E+03  0.74819432692E+03  0.10095907877E+04  0.59999282730E+03 0.  0.
        -24    2    4    4    0    0  0.18273596688E+03 -0.17421294153E+03  0.43108515848E+03  0.50535966079E+03  0.76232475381E+02 0.  0.
         24    2    4    4    0    0  0.56646440917E+02  0.37959910907E+03  0.31710916844E+03  0.50423112693E+03  0.79915591551E+02 0.  0.
         11    1    3    3    0    0 -0.89703971442E+02 -0.12901303613E+03  0.18421272049E+03  0.24212701702E+03  0.00000000000E+00 0. -1.
        -12    1    3    3    0    0 -0.14967843635E+03 -0.76373131414E+02  0.18257720426E+03  0.24813489280E+03  0.00000000000E+00 0.  1.
         13    1    5    5    0    0  0.12362069001E+03 -0.98062970737E+02  0.19841782546E+03  0.25351144883E+03  0.00000000000E+00 0. -1.
        -14    1    5    5    0    0  0.59115276867E+02 -0.76149970794E+02  0.23266733302E+03  0.25184821196E+03  0.00000000000E+00 0.  1.
          4    1    6    6  502    0  0.72958868719E+02  0.34048325845E+03  0.26827957645E+03  0.43957454083E+03  0.00000000000E+00 0. -1.
         -3    1    6    6    0  502 -0.16312427802E+02  0.39115850624E+02  0.48829591998E+02  0.64656586096E+02  0.00000000000E+00 0.  1.
<mgrwt>
<rscale>  0 0.48497975E+03</rscale>
<asrwt>0</asrwt>
<pdfrwt beam="1">  1        1 0.29605266E-01 0.48497975E+03</pdfrwt>
<pdfrwt beam="2">  1       -2 0.20114130E+00 0.48497975E+03</pdfrwt>
<totfact> 0.18679929E+01</totfact>
</mgrwt>
</event>
<event>
12    3  0.2422421E-007  0.3729816E+03  0.7818608E-02  0.1053559E+00
          1   -1    0    0  501    0  0.00000000000E+00  0.00000000000E+00  0.22392834718E+04  0.22392834718E+04  0.00000000000E+00 0. -1.
         -2   -1    0    0    0  501 -0.00000000000E+00 -0.00000000000E+00 -0.11311579094E+03  0.11311579094E+03  0.00000000000E+00 0.  1.
        -24    2    1    2    0    0  0.17277426579E+03  0.19517387875E+03  0.26697833897E+03  0.38146838592E+03  0.79353047313E+02 0.  0.
    5000000    2    1    2    0    0 -0.17277426579E+03 -0.19517387875E+03  0.18591893419E+04  0.19709308768E+04  0.60003310105E+03 0.  0.
        -24    2    4    4    0    0 -0.29086497649E+03 -0.15210160496E+03  0.50154856404E+03  0.60514593654E+03  0.83146314675E+02 0.  0.
         24    2    4    4    0    0  0.11809071070E+03 -0.43072273783E+02  0.13576407778E+04  0.13657849403E+04  0.79871050440E+02 0.  0.
         13    1    3    3    0    0  0.12998441049E+03  0.10053520899E+03  0.12980401397E+03  0.20940954433E+03  0.00000000000E+00 0. -1.
        -14    1    3    3    0    0  0.42789855301E+02  0.94638669756E+02  0.13717432500E+03  0.17205884159E+03  0.00000000000E+00 0.  1.
         13    1    5    5    0    0 -0.16527108646E+03 -0.69980063840E+02  0.34126048829E+03  0.38557808836E+03  0.00000000000E+00 0. -1.
        -14    1    5    5    0    0 -0.12559389002E+03 -0.82121541122E+02  0.16028807575E+03  0.21956784818E+03  0.00000000000E+00 0.  1.
          4    1    6    6  502    0  0.55817232555E+02 -0.61736065077E+02  0.69624054642E+03  0.70119740705E+03  0.00000000000E+00 0. -1.
         -3    1    6    6    0  502  0.62273478144E+02  0.18663791294E+02  0.66140023143E+03  0.66458753323E+03  0.00000000000E+00 0.  1.
<mgrwt>
<rscale>  0 0.37298156E+03</rscale>
<asrwt>0</asrwt>
<pdfrwt beam="1">  1        1 0.34450512E+00 0.37298156E+03</pdfrwt>
<pdfrwt beam="2">  1       -2 0.17402431E-01 0.37298156E+03</pdfrwt>
<totfact> 0.53983156E+01</totfact>
</mgrwt>
</event>
<event>
12    3  0.2422421E-007  0.1656886E+04  0.7818608E-02  0.8786343E-01
          1   -1    0    0  501    0  0.00000000000E+00  0.00000000000E+00  0.10474462684E+04  0.10474462684E+04  0.00000000000E+00 0. -1.
         -2   -1    0    0    0  501 -0.00000000000E+00 -0.00000000000E+00 -0.26376986373E+04  0.26376986373E+04  0.00000000000E+00 0.  1.
        -24    2    1    2    0    0  0.96330257009E+03  0.12861336970E+04 -0.78926717233E+03  0.17920715210E+04  0.80535327241E+02 0.  0.
    5000000    2    1    2    0    0 -0.96330257009E+03 -0.12861336970E+04 -0.80098519655E+03  0.18930733848E+04  0.60004818709E+03 0.  0.
        -24    2    4    4    0    0 -0.29975706062E+01 -0.38676949332E+03 -0.14643489649E+03  0.42141147849E+03  0.80900116829E+02 0.  0.
         24    2    4    4    0    0 -0.96030499949E+03 -0.89936420370E+03 -0.65455030007E+03  0.14716619063E+04  0.79441853640E+02 0.  0.
         11    1    3    3    0    0  0.64564370442E+02  0.98552873589E+02 -0.80540343033E+02  0.14271640998E+03  0.00000000000E+00 0. -1.
        -12    1    3    3    0    0  0.89873819965E+03  0.11875808234E+04 -0.70872682929E+03  0.16493551110E+04  0.00000000000E+00 0.  1.
         13    1    5    5    0    0  0.80700816804E+01 -0.19429752987E+02  0.83549208852E+01  0.22637275067E+02  0.00000000000E+00 0. -1.
        -14    1    5    5    0    0 -0.11067652287E+02 -0.36733974033E+03 -0.15478981737E+03  0.39877420342E+03  0.00000000000E+00 0.  1.
          2    1    6    6  502    0 -0.53754492103E+03 -0.44912085329E+03 -0.34756946644E+03  0.78196458806E+03  0.00000000000E+00 0. -1.
         -1    1    6    6    0  502 -0.42276007846E+03 -0.45024335041E+03 -0.30698083363E+03  0.68969731821E+03  0.00000000000E+00 0.  1.
<mgrwt>
<rscale>  0 0.16568861E+04</rscale>
<asrwt>0</asrwt>
<pdfrwt beam="1">  1        1 0.16114558E+00 0.16568861E+04</pdfrwt>
<pdfrwt beam="2">  1       -2 0.40579979E+00 0.16568861E+04</pdfrwt>
<totfact> 0.77357362E-02</totfact>
</mgrwt>
</event>
<event>
12    3  0.2422421E-007  0.3639468E+03  0.7818608E-02  0.1057032E+00
         -2   -1    0    0    0  501 -0.00000000000E+00  0.00000000000E+00  0.14698271855E+03  0.14698271855E+03  0.00000000000E+00 0.  1.
          1   -1    0    0  501    0  0.00000000000E+00 -0.00000000000E+00 -0.18129859388E+04  0.18129859388E+04  0.00000000000E+00 0. -1.
        -24    2    1    2    0    0  0.71419746475E+02  0.32506979323E+03 -0.47617856007E+03  0.58643982766E+03  0.79965615919E+02 0.  0.
    5000000    2    1    2    0    0 -0.71419746475E+02 -0.32506979323E+03 -0.11898246602E+04  0.13735288297E+04  0.60010630171E+03 0.  0.
        -24    2    4    4    0    0 -0.59058879092E+02 -0.34714749470E+03 -0.12289082618E+04  0.12806752037E+04  0.76903362319E+02 0.  0.
         24    2    4    4    0    0 -0.12360867384E+02  0.22077701464E+02  0.39083601631E+02  0.92853625994E+02  0.80337114706E+02 0.  0.
         11    1    3    3    0    0  0.73911749562E+02  0.21908472318E+03 -0.27711966913E+03  0.36091047876E+03  0.00000000000E+00 0. -1.
        -12    1    3    3    0    0 -0.24920030872E+01  0.10598507005E+03 -0.19905889094E+03  0.22552934890E+03  0.00000000000E+00 0.  1.
         13    1    5    5    0    0 -0.75626751194E+00 -0.11889281484E+03 -0.30912584612E+03  0.33120214688E+03  0.00000000000E+00 0. -1.
        -14    1    5    5    0    0 -0.58302611580E+02 -0.22825467985E+03 -0.91978241569E+03  0.94947305681E+03  0.00000000000E+00 0.  1.
          2    1    6    6  502    0 -0.31810884191E+00 -0.58041790065E+01  0.57196520568E+02  0.57491144120E+02  0.00000000000E+00 0. -1.
         -1    1    6    6    0  502 -0.12042758542E+02  0.27881880471E+02 -0.18112918936E+02  0.35362481874E+02  0.00000000000E+00 0.  1.
<mgrwt>
<rscale>  0 0.36394677E+03</rscale>
<asrwt>0</asrwt>
<pdfrwt beam="1">  1        1 0.27892092E+00 0.36394677E+03</pdfrwt>
<pdfrwt beam="2">  1       -2 0.22612725E-01 0.36394677E+03</pdfrwt>
<totfact> 0.65576920E+01</totfact>
</mgrwt>
</event>
<event>
12    3  0.2422421E-007  0.1787223E+04  0.7818608E-02  0.8713124E-01
          1   -1    0    0  501    0  0.00000000000E+00  0.00000000000E+00  0.39321089652E+04  0.39321089652E+04  0.00000000000E+00 0. -1.
         -2   -1    0    0    0  501 -0.00000000000E+00 -0.00000000000E+00 -0.14379544501E+04  0.14379544501E+04  0.00000000000E+00 0.  1.
        -24    2    1    2    0    0  0.17694976370E+04 -0.18253508865E+03 -0.48791018799E+03  0.18462030326E+04  0.77255032965E+02 0.  0.
    5000000    2    1    2    0    0 -0.17694976370E+04  0.18253508865E+03  0.29820647030E+04  0.35238603827E+04  0.60036751879E+03 0.  0.
        -24    2    4    4    0    0 -0.15017185017E+04  0.17884015184E+03  0.20367623674E+04  0.25380941227E+04  0.79865987962E+02 0.  0.
         24    2    4    4    0    0 -0.26777913525E+03  0.36949368093E+01  0.94530233568E+03  0.98576626002E+03  0.80120507447E+02 0.  0.
         11    1    5    5    0    0 -0.10162693697E+04  0.15855298583E+03  0.13848663030E+04  0.17250499002E+04  0.00000000000E+00 0. -1.
        -12    1    5    5    0    0 -0.48544913202E+03  0.20287166008E+02  0.65189606437E+03  0.81304422243E+03  0.00000000000E+00 0.  1.
         11    1    3    3    0    0  0.12938596382E+04 -0.99833010431E+02 -0.36359767237E+03  0.13476804743E+04  0.00000000000E+00 0. -1.
        -12    1    3    3    0    0  0.47563799877E+03 -0.82702078216E+02 -0.12431251562E+03  0.49852255832E+03  0.00000000000E+00 0.  1.
          4    1    6    6  502    0 -0.21297732964E+03  0.35874758971E+02  0.72821910886E+03  0.75957186084E+03  0.00000000000E+00 0. -1.
         -3    1    6    6    0  502 -0.54801805612E+02 -0.32179822162E+02  0.21708322682E+03  0.22619439918E+03  0.00000000000E+00 0.  1.
<mgrwt>
<rscale>  0 0.17872225E+04</rscale>
<asrwt>0</asrwt>
<pdfrwt beam="1">  1        1 0.60493984E+00 0.17872225E+04</pdfrwt>
<pdfrwt beam="2">  1       -2 0.22122376E+00 0.17872225E+04</pdfrwt>
<totfact> 0.85637149E-03</totfact>
</mgrwt>
</event>
<event>
12    3  0.2422421E-007  0.1224636E+04  0.7818608E-02  0.9091562E-01
          1   -1    0    0  501    0  0.00000000000E+00  0.00000000000E+00  0.98887335888E+03  0.98887335888E+03  0.00000000000E+00 0. -1.
         -2   -1    0    0    0  501 -0.00000000000E+00 -0.00000000000E+00 -0.18329068926E+04  0.18329068926E+04  0.00000000000E+00 0.  1.
        -24    2    1    2    0    0 -0.79593738987E+03  0.84050123757E+03  0.16627153945E+03  0.11723478951E+04  0.82429990600E+02 0.  0.
    5000000    2    1    2    0    0  0.79593738987E+03 -0.84050123757E+03 -0.10103050732E+04  0.16494323564E+04  0.59996008077E+03 0.  0.
        -24    2    4    4    0    0  0.34304459656E+03 -0.74989377761E+03 -0.56513877354E+03  0.10028180546E+04  0.79005977201E+02 0.  0.
         24    2    4    4    0    0  0.45289279330E+03 -0.90607459954E+02 -0.44516629963E+03  0.64661430175E+03  0.81335274495E+02 0.  0.
         13    1    3    3    0    0 -0.14542089443E+03  0.13552846310E+03  0.57611056345E+02  0.20696433186E+03  0.00000000000E+00 0. -1.
        -14    1    3    3    0    0 -0.65051649543E+03  0.70497277446E+03  0.10866048311E+03  0.96538356323E+03  0.00000000000E+00 0.  1.
         13    1    5    5    0    0  0.25425933588E+03 -0.62739144508E+03 -0.46948609871E+03  0.82382342290E+03  0.00000000000E+00 0. -1.
        -14    1    5    5    0    0  0.88785260689E+02 -0.12250233253E+03 -0.95652674827E+02  0.17899463174E+03  0.00000000000E+00 0.  1.
          4    1    6    6  502    0  0.34272275081E+03 -0.82563820167E+02 -0.38009829085E+03  0.51841139940E+03  0.00000000000E+00 0. -1.
         -3    1    6    6    0  502  0.11017004249E+03 -0.80436397872E+01 -0.65068008782E+02  0.12820290235E+03  0.00000000000E+00 0.  1.
<mgrwt>
<rscale>  0 0.12246360E+04</rscale>
<asrwt>0</asrwt>
<pdfrwt beam="1">  1        1 0.15213436E+00 0.12246360E+04</pdfrwt>
<pdfrwt beam="2">  1       -2 0.28198568E+00 0.12246360E+04</pdfrwt>
<totfact> 0.54137759E-01</totfact>
</mgrwt>
</event>
<event>
12    3  0.2422421E-007  0.7398739E+03  0.7818608E-02  0.9651372E-01
          1   -1    0    0  501    0  0.00000000000E+00  0.00000000000E+00  0.31136333280E+03  0.31136333280E+03  0.00000000000E+00 0. -1.
         -2   -1    0    0    0  501 -0.00000000000E+00 -0.00000000000E+00 -0.24809128162E+04  0.24809128162E+04  0.00000000000E+00 0.  1.
        -24    2    1    2    0    0 -0.62777839272E+03  0.19775144890E+02 -0.16793564370E+04  0.17947492808E+04  0.79938549705E+02 0.  0.
    5000000    2    1    2    0    0  0.62777839272E+03 -0.19775144890E+02 -0.49019304647E+03  0.99752686826E+03  0.60022817610E+03 0.  0.
        -24    2    4    4    0    0  0.23394177707E+03  0.26691170665E+03 -0.12882187357E+03  0.38576067135E+03  0.79029148083E+02 0.  0.
         24    2    4    4    0    0  0.39383661564E+03 -0.28668685154E+03 -0.36137117290E+03  0.61176619691E+03  0.79825587491E+02 0.  0.
         13    1    5    5    0    0  0.23915836707E+03  0.26671862095E+03 -0.12827112817E+03  0.38051153678E+03  0.00000000000E+00 0. -1.
        -14    1    5    5    0    0 -0.52165899940E+01  0.19308569468E+00 -0.55074539714E+00  0.52491345709E+01  0.00000000000E+00 0.  1.
         13    1    3    3    0    0 -0.20245816003E+03 -0.10680523247E+02 -0.45062562240E+03  0.49413240301E+03  0.00000000000E+00 0. -1.
        -14    1    3    3    0    0 -0.42532023268E+03  0.30455668137E+02 -0.12287308146E+04  0.13006168778E+04  0.00000000000E+00 0.  1.
          4    1    6    6  502    0  0.12593254636E+03 -0.93291573173E+02 -0.16421704489E+03  0.22700123720E+03  0.00000000000E+00 0. -1.
         -3    1    6    6    0  502  0.26790406928E+03 -0.19339527836E+03 -0.19715412800E+03  0.38476495971E+03  0.00000000000E+00 0.  1.
<mgrwt>
<rscale>  0 0.73987385E+03</rscale>
<asrwt>0</asrwt>
<pdfrwt beam="1">  1        1 0.47902050E-01 0.73987385E+03</pdfrwt>
<pdfrwt beam="2">  1       -2 0.38167890E+00 0.73987385E+03</pdfrwt>
<totfact> 0.75942264E-01</totfact>
</mgrwt>
</event>
<event>
12    3  0.2422421E-007  0.1727424E+04  0.7818608E-02  0.8745876E-01
          1   -1    0    0  501    0  0.00000000000E+00  0.00000000000E+00  0.30928369652E+04  0.30928369652E+04  0.00000000000E+00 0. -1.
         -2   -1    0    0    0  501 -0.00000000000E+00 -0.00000000000E+00 -0.10276849174E+04  0.10276849174E+04  0.00000000000E+00 0.  1.
        -24    2    1    2    0    0  0.21032022886E+03 -0.17057816852E+04  0.12455955810E+04  0.21241055029E+04  0.79937975291E+02 0.  0.
    5000000    2    1    2    0    0 -0.21032022886E+03  0.17057816852E+04  0.81955646683E+03  0.19964163796E+04  0.60006649834E+03 0.  0.
        -24    2    4    4    0    0  0.14055108376E+01  0.50433003982E+03 -0.19225138942E+02  0.51369345833E+03  0.95711016308E+02 0.  0.
         24    2    4    4    0    0 -0.21172573970E+03  0.12014516454E+04  0.83878160577E+03  0.14827229213E+04  0.81233208823E+02 0.  0.
         11    1    5    5    0    0 -0.46332107732E+02  0.20572911264E+03 -0.11730892491E+02  0.21120782617E+03  0.00000000000E+00 0. -1.
        -12    1    5    5    0    0  0.47737618569E+02  0.29860092717E+03 -0.74942464520E+01  0.30248563216E+03  0.00000000000E+00 0.  1.
         13    1    3    3    0    0  0.73179243194E+02 -0.70922006983E+03  0.56222241276E+03  0.90798807839E+03  0.00000000000E+00 0. -1.
        -14    1    3    3    0    0  0.13714098566E+03 -0.99656161535E+03  0.68337316821E+03  0.12161174245E+04  0.00000000000E+00 0.  1.
          4    1    6    6  502    0 -0.12812423328E+03  0.92460115746E+03  0.63579694400E+03  0.11293984565E+04  0.00000000000E+00 0. -1.
         -3    1    6    6    0  502 -0.83601506412E+02  0.27685048791E+03  0.20298466177E+03  0.35332446483E+03  0.00000000000E+00 0.  1.
<mgrwt>
<rscale>  0 0.17274239E+04</rscale>
<asrwt>0</asrwt>
<pdfrwt beam="1">  1        1 0.47582107E+00 0.17274239E+04</pdfrwt>
<pdfrwt beam="2">  1       -2 0.15810537E+00 0.17274239E+04</pdfrwt>
<totfact> 0.10779156E-01</totfact>
</mgrwt>
</event>
<event>
12    3  0.2422421E-007  0.1151489E+04  0.7818608E-02  0.9156411E-01
         -2   -1    0    0    0  501 -0.00000000000E+00  0.00000000000E+00  0.88322724595E+03  0.88322724595E+03  0.00000000000E+00 0.  1.
          1   -1    0    0  501    0  0.00000000000E+00 -0.00000000000E+00 -0.21390370913E+04  0.21390370913E+04  0.00000000000E+00 0. -1.
        -24    2    1    2    0    0  0.11087425694E+04  0.30117712760E+03 -0.12848400358E+04  0.17256088272E+04  0.83031076360E+02 0.  0.
    5000000    2    1    2    0    0 -0.11087425694E+04 -0.30117712760E+03  0.29030190372E+02  0.12966555101E+04  0.60037905747E+03 0.  0.
        -24    2    4    4    0    0 -0.86756000619E+03 -0.21442918530E+03  0.26831682359E+03  0.93658481639E+03  0.80975061731E+02 0.  0.
         24    2    4    4    0    0 -0.24118256317E+03 -0.86747942297E+02 -0.23928663322E+03  0.36007069372E+03  0.81844837164E+02 0.  0.
         11    1    5    5    0    0 -0.33889400038E+03 -0.11109789921E+03  0.13774319109E+03  0.38231541088E+03  0.00000000000E+00 0. -1.
        -12    1    5    5    0    0 -0.52866600580E+03 -0.10333128608E+03  0.13057363250E+03  0.55426940551E+03  0.00000000000E+00 0.  1.
         11    1    3    3    0    0  0.99688692921E+03  0.25972684324E+03 -0.11148141898E+04  0.15179104916E+04  0.00000000000E+00 0. -1.
        -12    1    3    3    0    0  0.11185564015E+03  0.41450284351E+02 -0.17002584598E+03  0.20769833559E+03  0.00000000000E+00 0.  1.
          4    1    6    6  502    0 -0.17314049007E+02  0.19297567759E+01 -0.52528959379E+02  0.55342495677E+02  0.00000000000E+00 0. -1.
         -3    1    6    6    0  502 -0.22386851416E+03 -0.88677699073E+02 -0.18675767384E+03  0.30472819804E+03  0.00000000000E+00 0.  1.
<mgrwt>
<rscale>  0 0.11514887E+04</rscale>
<asrwt>0</asrwt>
<pdfrwt beam="1">  1        1 0.32908263E+00 0.11514887E+04</pdfrwt>
<pdfrwt beam="2">  1       -2 0.13588111E+00 0.11514887E+04</pdfrwt>
<totfact> 0.80415561E-01</totfact>
</mgrwt>
</event>
<event>
12    3  0.2422421E-007  0.5610236E+03  0.7818608E-02  0.9989741E-01
          1   -1    0    0  501    0  0.00000000000E+00  0.00000000000E+00  0.25230627309E+04  0.25230627309E+04  0.00000000000E+00 0. -1.
         -2   -1    0    0    0  501 -0.00000000000E+00 -0.00000000000E+00 -0.20309474832E+03  0.20309474832E+03  0.00000000000E+00 0.  1.
        -24    2    1    2    0    0  0.50285330724E+03  0.15012241173E+03  0.46331604089E+03  0.70563525589E+03  0.88663259036E+02 0.  0.
    5000000    2    1    2    0    0 -0.50285330724E+03 -0.15012241173E+03  0.18566519417E+04  0.20205222234E+04  0.59996286157E+03 0.  0.
        -24    2    4    4    0    0 -0.18358047010E+03 -0.17753558352E+03  0.20762229772E+03  0.33868912100E+03  0.79891362240E+02 0.  0.
         24    2    4    4    0    0 -0.31927283715E+03  0.27413171781E+02  0.16490296440E+04  0.16818331024E+04  0.81099881927E+02 0.  0.
         11    1    5    5    0    0 -0.58829755333E+02 -0.96600082382E+02  0.12498952800E+03  0.16856719176E+03  0.00000000000E+00 0. -1.
        -12    1    5    5    0    0 -0.12475071476E+03 -0.80935501134E+02  0.82632769725E+02  0.17012192925E+03  0.00000000000E+00 0.  1.
         11    1    3    3    0    0  0.18365092795E+03  0.99624307975E+02  0.17472407474E+03  0.27236220070E+03  0.00000000000E+00 0. -1.
        -12    1    3    3    0    0  0.31920237930E+03  0.50498103759E+02  0.28859196615E+03  0.43327305520E+03  0.00000000000E+00 0.  1.
          4    1    6    6  502    0 -0.43862095884E+00 -0.73921369178E+01  0.81031244771E+02  0.81368905029E+02  0.00000000000E+00 0. -1.
         -3    1    6    6    0  502 -0.31883421619E+03  0.34805308699E+02  0.15679983992E+04  0.16004641973E+04  0.00000000000E+00 0.  1.
<mgrwt>
<rscale>  0 0.56102360E+03</rscale>
<asrwt>0</asrwt>
<pdfrwt beam="1">  1        1 0.38816347E+00 0.56102360E+03</pdfrwt>
<pdfrwt beam="2">  1       -2 0.31245348E-01 0.56102360E+03</pdfrwt>
<totfact> 0.11833806E+01</totfact>
</mgrwt>
</event>
<event>
12    3  0.2422421E-007  0.5528863E+03  0.7818608E-02  0.1000828E+00
          1   -1    0    0  501    0  0.00000000000E+00  0.00000000000E+00  0.89953701394E+03  0.89953701394E+03  0.00000000000E+00 0. -1.
         -2   -1    0    0    0  501 -0.00000000000E+00 -0.00000000000E+00 -0.37428348578E+03  0.37428348578E+03  0.00000000000E+00 0.  1.
        -24    2    1    2    0    0  0.40932869611E+03  0.60206746913E+02  0.11233651539E+03  0.43607907292E+03  0.79816234676E+02 0.  0.
    5000000    2    1    2    0    0 -0.40932869611E+03 -0.60206746913E+02  0.41291701278E+03  0.83774142680E+03  0.60011282681E+03 0.  0.
        -24    2    4    4    0    0 -0.49453992838E+03  0.99702408129E+02  0.20271757353E+03  0.54921842779E+03  0.77692701471E+02 0.  0.
         24    2    4    4    0    0  0.85211232270E+02 -0.15990915504E+03  0.21019943925E+03  0.28852299901E+03  0.78929238725E+02 0.  0.
         11    1    3    3    0    0  0.22800090929E+03  0.34622787549E+00  0.84262127588E+02  0.24307332362E+03  0.00000000000E+00 0. -1.
        -12    1    3    3    0    0  0.18132778681E+03  0.59860519037E+02  0.28074387797E+02  0.19300574929E+03  0.00000000000E+00 0.  1.
         11    1    5    5    0    0 -0.15169023336E+03  0.40687468533E+02  0.26604719516E+02  0.15928969864E+03  0.00000000000E+00 0. -1.
        -12    1    5    5    0    0 -0.34284969502E+03  0.59014939597E+02  0.17611285401E+03  0.38992872915E+03  0.00000000000E+00 0.  1.
          4    1    6    6  502    0  0.54872301765E+02 -0.11801988969E+03  0.19530495826E+03  0.23469914909E+03  0.00000000000E+00 0. -1.
         -3    1    6    6    0  502  0.30338930505E+02 -0.41889265355E+02  0.14894480988E+02  0.53823849919E+02  0.00000000000E+00 0.  1.
<mgrwt>
<rscale>  0 0.55288628E+03</rscale>
<asrwt>0</asrwt>
<pdfrwt beam="1">  1        1 0.13839031E+00 0.55288628E+03</pdfrwt>
<pdfrwt beam="2">  1       -2 0.57582075E-01 0.55288628E+03</pdfrwt>
<totfact> 0.46929221E+01</totfact>
</mgrwt>
</event>
<event>
12    3  0.2422421E-007  0.6236001E+03  0.7818608E-02  0.9857618E-01
          1   -1    0    0  501    0  0.00000000000E+00  0.00000000000E+00  0.17169865605E+04  0.17169865605E+04  0.00000000000E+00 0. -1.
         -2   -1    0    0    0  501 -0.00000000000E+00 -0.00000000000E+00 -0.23462774907E+03  0.23462774907E+03  0.00000000000E+00 0.  1.
        -24    2    1    2    0    0 -0.41149314361E+03 -0.26241101658E+03  0.53214588092E+03  0.72649562309E+03  0.80190416686E+02 0.  0.
    5000000    2    1    2    0    0  0.41149314361E+03  0.26241101658E+03  0.95021293051E+03  0.12251186865E+04  0.59985417712E+03 0.  0.
        -24    2    4    4    0    0  0.19276192362E+03  0.43527562371E+03  0.56645743649E+03  0.74407442850E+03  0.78426398617E+02 0.  0.
         24    2    4    4    0    0  0.21873121999E+03 -0.17286460713E+03  0.38375549402E+03  0.48104425798E+03  0.80061101353E+02 0.  0.
         11    1    3    3    0    0 -0.11815688007E+03 -0.93326940586E+02  0.11634834904E+03  0.19028374726E+03  0.00000000000E+00 0. -1.
        -12    1    3    3    0    0 -0.29333626354E+03 -0.16908407599E+03  0.41579753189E+03  0.53621187583E+03  0.00000000000E+00 0.  1.
         11    1    5    5    0    0  0.18805229362E+03  0.42857146004E+03  0.53157937341E+03  0.70824698497E+03  0.00000000000E+00 0. -1.
        -12    1    5    5    0    0  0.47096300031E+01  0.67041636764E+01  0.34878063084E+02  0.35827443530E+02  0.00000000000E+00 0.  1.
          4    1    6    6  502    0  0.17402067313E+03 -0.11444831202E+03  0.22813562179E+03  0.30891337416E+03  0.00000000000E+00 0. -1.
         -3    1    6    6    0  502  0.44710546861E+02 -0.58416295109E+02  0.15561987223E+03  0.17213088383E+03  0.00000000000E+00 0.  1.
<mgrwt>
<rscale>  0 0.62360006E+03</rscale>
<asrwt>0</asrwt>
<pdfrwt beam="1">  1        1 0.26415177E+00 0.62360006E+03</pdfrwt>
<pdfrwt beam="2">  1       -2 0.36096578E-01 0.62360006E+03</pdfrwt>
<totfact> 0.30838190E+01</totfact>
</mgrwt>
</event>
<event>
12    3  0.2422421E-007  0.4069164E+03  0.7818608E-02  0.1041411E+00
          1   -1    0    0  501    0  0.00000000000E+00  0.00000000000E+00  0.57511739608E+03  0.57511739608E+03  0.00000000000E+00 0. -1.
         -2   -1    0    0    0  501 -0.00000000000E+00 -0.00000000000E+00 -0.81867290663E+03  0.81867290663E+03  0.00000000000E+00 0.  1.
        -24    2    1    2    0    0  0.15591687745E+03 -0.33955261142E+03 -0.51064231126E+03  0.63784969169E+03  0.80564325519E+02 0.  0.
    5000000    2    1    2    0    0 -0.15591687745E+03  0.33955261142E+03  0.26708680070E+03  0.75594061102E+03  0.60042051904E+03 0.  0.
        -24    2    4    4    0    0 -0.17041367965E+03  0.25638476368E+03 -0.12945770936E+03  0.34337775391E+03  0.79843685456E+02 0.  0.
         24    2    4    4    0    0  0.14496802207E+02  0.83167847742E+02  0.39654451006E+03  0.41256285711E+03  0.76377447165E+02 0.  0.
         11    1    3    3    0    0  0.83679094975E+02 -0.93167105445E+02 -0.15690732367E+03  0.20075410007E+03  0.00000000000E+00 0. -1.
        -12    1    3    3    0    0  0.72237782473E+02 -0.24638550598E+03 -0.35373498758E+03  0.43709559162E+03  0.00000000000E+00 0.  1.
         13    1    5    5    0    0 -0.61168057364E+02  0.16365684518E+03 -0.73519935346E+02  0.18955282933E+03  0.00000000000E+00 0. -1.
        -14    1    5    5    0    0 -0.10924562229E+03  0.92727918505E+02 -0.55937774015E+02  0.15382492458E+03  0.00000000000E+00 0.  1.
          4    1    6    6  502    0  0.46044341659E+02  0.45956907547E+02  0.22460123393E+03  0.23383291692E+03  0.00000000000E+00 0. -1.
         -3    1    6    6    0  502 -0.31547539452E+02  0.37210940195E+02  0.17194327613E+03  0.17872994020E+03  0.00000000000E+00 0.  1.
<mgrwt>
<rscale>  0 0.40691643E+03</rscale>
<asrwt>0</asrwt>
<pdfrwt beam="1">  1        1 0.88479600E-01 0.40691643E+03</pdfrwt>
<pdfrwt beam="2">  1       -2 0.12594968E+00 0.40691643E+03</pdfrwt>
<totfact> 0.15955332E+01</totfact>
</mgrwt>
</event>
<event>
12    3  0.2422421E-007  0.3547263E+04  0.7818608E-02  0.8102680E-01
         -2   -1    0    0    0  501 -0.00000000000E+00  0.00000000000E+00  0.43404122100E+04  0.43404122100E+04  0.00000000000E+00 0.  1.
          1   -1    0    0  501    0  0.00000000000E+00 -0.00000000000E+00 -0.29641127102E+04  0.29641127102E+04  0.00000000000E+00 0. -1.
        -24    2    1    2    0    0 -0.11648679366E+04 -0.33297853302E+04  0.11799317117E+04  0.37208210103E+04  0.88783396291E+02 0.  0.
    5000000    2    1    2    0    0  0.11648679366E+04  0.33297853302E+04  0.19636778811E+03  0.35837039099E+04  0.59998812537E+03 0.  0.
        -24    2    4    4    0    0  0.55150007734E+03  0.85847297316E+03  0.16289923619E+03  0.10361907075E+04  0.77632726160E+02 0.  0.
         24    2    4    4    0    0  0.61336785923E+03  0.24713123571E+04  0.33468551922E+02  0.25475132024E+04  0.71403610499E+02 0.  0.
         11    1    5    5    0    0  0.22794973309E+03  0.37341748734E+03  0.10744583724E+03  0.45049562551E+03  0.00000000000E+00 0. -1.
        -12    1    5    5    0    0  0.32355034425E+03  0.48505548582E+03  0.55453398956E+02  0.58569508197E+03  0.00000000000E+00 0.  1.
         11    1    3    3    0    0 -0.94259190184E+03 -0.27060355928E+04  0.92188219807E+03  0.30101453304E+04  0.00000000000E+00 0. -1.
        -12    1    3    3    0    0 -0.22227603473E+03 -0.62374973746E+03  0.25804951365E+03  0.71067567996E+03  0.00000000000E+00 0.  1.
          2    1    6    6  502    0  0.27496269944E+03  0.11064826864E+04  0.50495473360E+02  0.11412529142E+04  0.00000000000E+00 0. -1.
         -1    1    6    6    0  502  0.33840515979E+03  0.13648296707E+04 -0.17026921438E+02  0.14062602882E+04  0.00000000000E+00 0.  1.
<mgrwt>
<rscale>  0 0.35472627E+04</rscale>
<asrwt>0</asrwt>
<pdfrwt beam="1">  1        1 0.45601734E+00 0.35472627E+04</pdfrwt>
<pdfrwt beam="2">  1       -2 0.66775573E+00 0.35472627E+04</pdfrwt>
<totfact> 0.12119111E-04</totfact>
</mgrwt>
</event>
<event>
12    3  0.2422421E-007  0.3935660E+03  0.7818608E-02  0.1046031E+00
         -2   -1    0    0    0  501 -0.00000000000E+00  0.00000000000E+00  0.16221670658E+03  0.16221670658E+03  0.00000000000E+00 0.  1.
          1   -1    0    0  501    0  0.00000000000E+00 -0.00000000000E+00 -0.21906330022E+04  0.21906330022E+04  0.00000000000E+00 0. -1.
        -24    2    1    2    0    0 -0.65768161823E+02  0.29047757604E+03 -0.14024739018E+04  0.14359995455E+04  0.80367754305E+02 0.  0.
    5000000    2    1    2    0    0  0.65768161823E+02 -0.29047757604E+03 -0.62594239381E+03  0.91685016334E+03  0.60008971693E+03 0.  0.
        -24    2    4    4    0    0  0.22154420910E+03 -0.16119890733E+03 -0.63740142940E+03  0.69870797850E+03  0.82736525884E+02 0.  0.
         24    2    4    4    0    0 -0.15577604727E+03 -0.12927866872E+03  0.11459035592E+02  0.21814218484E+03  0.80470815959E+02 0.  0.
         13    1    5    5    0    0  0.15395510487E+03 -0.96681437097E+02 -0.32220540848E+03  0.36995378069E+03  0.00000000000E+00 0. -1.
        -14    1    5    5    0    0  0.67589104231E+02 -0.64517470229E+02 -0.31519602092E+03  0.32875419781E+03  0.00000000000E+00 0.  1.
         13    1    3    3    0    0 -0.46051130606E+02  0.15794229113E+03 -0.94855932680E+03  0.96272076451E+03  0.00000000000E+00 0. -1.
        -14    1    3    3    0    0 -0.19717031218E+02  0.13253528491E+03 -0.45391457503E+03  0.47327878094E+03  0.00000000000E+00 0.  1.
          4    1    6    6  502    0  0.62779844356E+01 -0.11327122670E+02  0.12074934947E+02  0.17706520000E+02  0.00000000000E+00 0. -1.
         -3    1    6    6    0  502 -0.16205403171E+03 -0.11795154605E+03 -0.61589935435E+00  0.20043566484E+03  0.00000000000E+00 0.  1.
<mgrwt>
<rscale>  0 0.39356596E+03</rscale>
<asrwt>0</asrwt>
<pdfrwt beam="1">  1        1 0.33702045E+00 0.39356596E+03</pdfrwt>
<pdfrwt beam="2">  1       -2 0.24956418E-01 0.39356596E+03</pdfrwt>
<totfact> 0.30892690E+01</totfact>
</mgrwt>
</event>
<event>
12    3  0.2422421E-007  0.1339141E+04  0.7818608E-02  0.8999089E-01
         -2   -1    0    0    0  501 -0.00000000000E+00  0.00000000000E+00  0.17829590539E+04  0.17829590539E+04  0.00000000000E+00 0.  1.
          1   -1    0    0  501    0  0.00000000000E+00 -0.00000000000E+00 -0.10733547523E+04  0.10733547523E+04  0.00000000000E+00 0. -1.
        -24    2    1    2    0    0 -0.13074465121E+04  0.15477120050E+03  0.37533236110E+03  0.13713415924E+04  0.79579364891E+02 0.  0.
    5000000    2    1    2    0    0  0.13074465121E+04 -0.15477120050E+03  0.33427194046E+03  0.14849722139E+04  0.60002853212E+03 0.  0.
        -24    2    4    4    0    0  0.12176848778E+04 -0.21259816300E+03  0.13652225815E+03  0.12461807169E+04  0.79834902834E+02 0.  0.
         24    2    4    4    0    0  0.89761634278E+02  0.57826962498E+02  0.19774968232E+03  0.23879149696E+03  0.80717616332E+02 0.  0.
         11    1    5    5    0    0  0.69562781125E+03 -0.83404781304E+02  0.64462912394E+02  0.70356938279E+03  0.00000000000E+00 0. -1.
        -12    1    5    5    0    0  0.52205706654E+03 -0.12919338170E+03  0.72059345755E+02  0.54261133411E+03  0.00000000000E+00 0.  1.
         13    1    3    3    0    0 -0.33118905923E+03  0.56257616454E+02  0.64494493097E+02  0.34206819788E+03  0.00000000000E+00 0. -1.
        -14    1    3    3    0    0 -0.97625745283E+03  0.98513584048E+02  0.31083786800E+03  0.10292733945E+04  0.00000000000E+00 0.  1.
          2    1    6    6  502    0  0.29673677848E+02  0.55083129903E+02  0.14817970768E+03  0.16084745607E+03  0.00000000000E+00 0. -1.
         -1    1    6    6    0  502  0.60087956430E+02  0.27438325952E+01  0.49569974640E+02  0.77944040895E+02  0.00000000000E+00 0.  1.
<mgrwt>
<rscale>  0 0.13391409E+04</rscale>
<asrwt>0</asrwt>
<pdfrwt beam="1">  1        1 0.16513150E+00 0.13391409E+04</pdfrwt>
<pdfrwt beam="2">  1       -2 0.27430139E+00 0.13391409E+04</pdfrwt>
<totfact> 0.51157001E-01</totfact>
</mgrwt>
</event>
<event>
12    3  0.2453940E-007  0.7172100E+03  0.7818608E-02  0.9688245E-01
         -2   -1    0    0    0  501 -0.00000000000E+00  0.00000000000E+00  0.94114563382E+03  0.94114563382E+03  0.00000000000E+00 0.  1.
          1   -1    0    0  501    0  0.00000000000E+00 -0.00000000000E+00 -0.11909177504E+04  0.11909177504E+04  0.00000000000E+00 0. -1.
        -24    2    1    2    0    0  0.91961006955E+02 -0.60331411163E+03 -0.87656072140E+03  0.10712024622E+04  0.81677858290E+02 0.  0.
    5000000    2    1    2    0    0 -0.91961006955E+02  0.60331411163E+03  0.62678860485E+03  0.10608609220E+04  0.60009765594E+03 0.  0.
        -24    2    4    4    0    0 -0.23226578946E+03  0.54535767063E+02  0.33448654277E+03  0.41850857769E+03  0.79665773458E+02 0.  0.
         24    2    4    4    0    0  0.14030478250E+03  0.54877834456E+03  0.29230206207E+03  0.64235234436E+03  0.79579742099E+02 0.  0.
         11    1    3    3    0    0  0.88561894720E+02 -0.33417144219E+03 -0.46473798663E+03  0.57921943871E+03  0.00000000000E+00 0. -1.
        -12    1    3    3    0    0  0.33991122348E+01 -0.26914266944E+03 -0.41182273477E+03  0.49198302344E+03  0.00000000000E+00 0.  1.
         13    1    5    5    0    0 -0.13915857034E+03  0.67915454532E+02  0.23647328680E+03  0.28266098428E+03  0.00000000000E+00 0. -1.
        -14    1    5    5    0    0 -0.93107219121E+02 -0.13379687469E+02  0.98013255975E+02  0.13584759341E+03  0.00000000000E+00 0.  1.
          2    1    6    6  502    0  0.15323311832E+02  0.19183138094E+03  0.11970244583E+03  0.22663353268E+03  0.00000000000E+00 0. -1.
         -1    1    6    6    0  502  0.12498147067E+03  0.35694696362E+03  0.17259961624E+03  0.41571881167E+03  0.00000000000E+00 0.  1.
<mgrwt>
<rscale>  0 0.71720998E+03</rscale>
<asrwt>0</asrwt>
<pdfrwt beam="1">  1        1 0.18321812E+00 0.71720998E+03</pdfrwt>
<pdfrwt beam="2">  1       -2 0.14479164E+00 0.71720998E+03</pdfrwt>
<totfact> 0.32364673E+00</totfact>
</mgrwt>
</event>
<event>
12    3  0.2422421E-007  0.1030919E+04  0.7818608E-02  0.9275269E-01
          1   -1    0    0  501    0  0.00000000000E+00  0.00000000000E+00  0.11664035289E+04  0.11664035289E+04  0.00000000000E+00 0. -1.
         -2   -1    0    0    0  501 -0.00000000000E+00 -0.00000000000E+00 -0.97446568308E+03  0.97446568308E+03  0.00000000000E+00 0.  1.
        -24    2    1    2    0    0  0.93832777143E+03 -0.11275026350E+03 -0.16920228017E+03  0.96457335234E+03  0.92740023029E+02 0.  0.
    5000000    2    1    2    0    0 -0.93832777143E+03  0.11275026350E+03  0.36114012596E+03  0.11762958596E+04  0.60006510494E+03 0.  0.
        -24    2    4    4    0    0 -0.61510648735E+03  0.34920663833E+03  0.23952627600E+03  0.75062658339E+03  0.75935260379E+02 0.  0.
         24    2    4    4    0    0 -0.32322128408E+03 -0.23645637484E+03  0.12161384996E+03  0.42566927620E+03  0.77593740189E+02 0.  0.
         13    1    3    3    0    0  0.63178643141E+02 -0.13523159070E+02 -0.35518683738E+02  0.73729191471E+02  0.00000000000E+00 0. -1.
        -14    1    3    3    0    0  0.87514912829E+03 -0.99227104425E+02 -0.13368359643E+03  0.89084416087E+03  0.00000000000E+00 0.  1.
         13    1    5    5    0    0 -0.37869104238E+03  0.19087688081E+03  0.17562034361E+03  0.45900260816E+03  0.00000000000E+00 0. -1.
        -14    1    5    5    0    0 -0.23641544497E+03  0.15832975752E+03  0.63905932384E+02  0.29162397523E+03  0.00000000000E+00 0.  1.
          2    1    6    6  502    0 -0.54112811320E+02 -0.79975078536E+02  0.32109673838E+02  0.10176070307E+03  0.00000000000E+00 0. -1.
         -1    1    6    6    0  502 -0.26910847276E+03 -0.15648129630E+03  0.89504176122E+02  0.32390857313E+03  0.00000000000E+00 0.  1.
<mgrwt>
<rscale>  0 0.10309187E+04</rscale>
<asrwt>0</asrwt>
<pdfrwt beam="1">  1        1 0.17944670E+00 0.10309187E+04</pdfrwt>
<pdfrwt beam="2">  1       -2 0.14991780E+00 0.10309187E+04</pdfrwt>
<totfact> 0.29552412E+00</totfact>
</mgrwt>
</event>
<event>
12    3  0.2422421E-007  0.2669449E+04  0.7818608E-02  0.8344986E-01
          1   -1    0    0  501    0  0.00000000000E+00  0.00000000000E+00  0.42789641242E+04  0.42789641242E+04  0.00000000000E+00 0. -1.
         -2   -1    0    0    0  501 -0.00000000000E+00 -0.00000000000E+00 -0.17588250775E+04  0.17588250775E+04  0.00000000000E+00 0.  1.
        -24    2    1    2    0    0  0.29000879340E+03 -0.26504225960E+04  0.17782923290E+04  0.32058497065E+04  0.79395816036E+02 0.  0.
    5000000    2    1    2    0    0 -0.29000879340E+03  0.26504225960E+04  0.74184671766E+03  0.28319394952E+04  0.60058281248E+03 0.  0.
        -24    2    4    4    0    0 -0.94759165969E+02  0.64359522485E+03 -0.65455379914E+02  0.65868671320E+03  0.79935388933E+02 0.  0.
         24    2    4    4    0    0 -0.19524962743E+03  0.20068273711E+04  0.80730209757E+03  0.21732527820E+04  0.76239512997E+02 0.  0.
         13    1    5    5    0    0 -0.27152583895E+02  0.43471358785E+03 -0.53158367744E+02  0.43879263706E+03  0.00000000000E+00 0. -1.
        -14    1    5    5    0    0 -0.67606582074E+02  0.20888163700E+03 -0.12297012169E+02  0.21989407615E+03  0.00000000000E+00 0.  1.
         13    1    3    3    0    0  0.54107160275E+02 -0.80954306448E+03  0.55615791376E+03  0.98366619495E+03  0.00000000000E+00 0. -1.
        -14    1    3    3    0    0  0.23590163312E+03 -0.18408795315E+04  0.12221344153E+04  0.22221835115E+04  0.00000000000E+00 0.  1.
          4    1    6    6  502    0 -0.15374759135E+03  0.14481778447E+04  0.54870339518E+03  0.15562560225E+04  0.00000000000E+00 0. -1.
         -3    1    6    6    0  502 -0.41502036079E+02  0.55864952641E+03  0.25859870239E+03  0.61699675950E+03  0.00000000000E+00 0.  1.
<mgrwt>
<rscale>  0 0.26694491E+04</rscale>
<asrwt>0</asrwt>
<pdfrwt beam="1">  1        1 0.65830217E+00 0.26694491E+04</pdfrwt>
<pdfrwt beam="2">  1       -2 0.27058847E+00 0.26694491E+04</pdfrwt>
<totfact> 0.18559111E-03</totfact>
</mgrwt>
</event>
<event>
12    3  0.2422421E-007  0.5815232E+03  0.7818608E-02  0.9944499E-01
          1   -1    0    0  501    0  0.00000000000E+00  0.00000000000E+00  0.94502855726E+03  0.94502855726E+03  0.00000000000E+00 0. -1.
         -2   -1    0    0    0  501 -0.00000000000E+00 -0.00000000000E+00 -0.39062119520E+03  0.39062119520E+03  0.00000000000E+00 0.  1.
        -24    2    1    2    0    0  0.44823014742E+03  0.16904410250E+02  0.12609359829E+03  0.47260272978E+03  0.79105755294E+02 0.  0.
    5000000    2    1    2    0    0 -0.44823014742E+03 -0.16904410250E+02  0.42831376376E+03  0.86304702268E+03  0.60016785901E+03 0.  0.
        -24    2    4    4    0    0 -0.50065276842E+03 -0.18699767785E+03  0.22215444099E+03  0.58423782922E+03  0.79749102795E+02 0.  0.
         24    2    4    4    0    0  0.52422620998E+02  0.17009326760E+03  0.20615932278E+03  0.27880919346E+03  0.59607458557E+02 0.  0.
         11    1    3    3    0    0  0.37782216896E+03  0.15948372108E+02  0.74797075949E+02  0.38548481747E+03  0.00000000000E+00 0. -1.
        -12    1    3    3    0    0  0.70407978455E+02  0.95603814184E+00  0.51296522346E+02  0.87117912302E+02  0.00000000000E+00 0.  1.
         13    1    5    5    0    0 -0.28104343475E+03 -0.91065816888E+02  0.81928972518E+02  0.30657911175E+03  0.00000000000E+00 0. -1.
        -14    1    5    5    0    0 -0.21960933366E+03 -0.95931860966E+02  0.14022546847E+03  0.27765871747E+03  0.00000000000E+00 0.  1.
          2    1    6    6  502    0  0.20660166778E+02  0.35213154005E+02  0.16763014040E+02  0.44133970431E+02  0.00000000000E+00 0. -1.
         -1    1    6    6    0  502  0.31762454220E+02  0.13488011360E+03  0.18939630874E+03  0.23467522303E+03  0.00000000000E+00 0.  1.
<mgrwt>
<rscale>  0 0.58152317E+03</rscale>
<asrwt>0</asrwt>
<pdfrwt beam="1">  1        1 0.14538901E+00 0.58152317E+03</pdfrwt>
<pdfrwt beam="2">  1       -2 0.60095568E-01 0.58152317E+03</pdfrwt>
<totfact> 0.39339860E+01</totfact>
</mgrwt>
</event>
<event>
12    3  0.2422421E-007  0.2857722E+03  0.7818608E-02  0.1092577E+00
         -2   -1    0    0    0  501 -0.00000000000E+00  0.00000000000E+00  0.82914348651E+03  0.82914348651E+03  0.00000000000E+00 0.  1.
          1   -1    0    0  501    0  0.00000000000E+00 -0.00000000000E+00 -0.95586880886E+03  0.95586880886E+03  0.00000000000E+00 0. -1.
        -24    2    1    2    0    0  0.21600915242E+03  0.15371783676E+03 -0.79899560986E+03  0.84580090507E+03  0.81829451769E+02 0.  0.
    5000000    2    1    2    0    0 -0.21600915242E+03 -0.15371783676E+03  0.67227028751E+03  0.93921139031E+03  0.59990129933E+03 0.  0.
        -24    2    4    4    0    0 -0.58109238348E+02 -0.70628011601E+02  0.72603937880E+03  0.73627360884E+03  0.81244371505E+02 0.  0.
         24    2    4    4    0    0 -0.15789991407E+03 -0.83089825164E+02 -0.53769091290E+02  0.20293778147E+03  0.80351266684E+02 0.  0.
         13    1    5    5    0    0  0.20414560067E+02 -0.14354499240E+02  0.11827140974E+03  0.12087568934E+03  0.00000000000E+00 0. -1.
        -14    1    5    5    0    0 -0.78523798415E+02 -0.56273512360E+02  0.60776796906E+03  0.61539791950E+03  0.00000000000E+00 0.  1.
         13    1    3    3    0    0  0.70883840549E+02  0.85887270956E+02 -0.24523891638E+03  0.26933857554E+03  0.00000000000E+00 0. -1.
        -14    1    3    3    0    0  0.14512531187E+03  0.67830565809E+02 -0.55375669348E+03  0.57646232953E+03  0.00000000000E+00 0.  1.
          2    1    6    6  502    0 -0.50980658927E+02 -0.26898573100E+02 -0.58410331579E+02  0.82062949341E+02  0.00000000000E+00 0. -1.
         -1    1    6    6    0  502 -0.10691925515E+03 -0.56191252064E+02  0.46412402886E+01  0.12087483212E+03  0.00000000000E+00 0.  1.
<mgrwt>
<rscale>  0 0.28577221E+03</rscale>
<asrwt>0</asrwt>
<pdfrwt beam="1">  1        1 0.14705674E+00 0.28577221E+03</pdfrwt>
<pdfrwt beam="2">  1       -2 0.12756054E+00 0.28577221E+03</pdfrwt>
<totfact> 0.73553836E+00</totfact>
</mgrwt>
</event>
<event>
12    3  0.2422421E-007  0.1011052E+04  0.7818608E-02  0.9296505E-01
          1   -1    0    0  501    0  0.00000000000E+00  0.00000000000E+00  0.13943943081E+04  0.13943943081E+04  0.00000000000E+00 0. -1.
         -2   -1    0    0    0  501 -0.00000000000E+00 -0.00000000000E+00 -0.81864480831E+03  0.81864480831E+03  0.00000000000E+00 0.  1.
        -24    2    1    2    0    0 -0.67268798454E+03  0.66386852229E+03 -0.12400788867E+02  0.94842099560E+03  0.78218066266E+02 0.  0.
    5000000    2    1    2    0    0  0.67268798454E+03 -0.66386852229E+03  0.58815028866E+03  0.12646181208E+04  0.60008973497E+03 0.  0.
        -24    2    4    4    0    0  0.59309429059E+03 -0.24493531365E+03  0.18533952931E+03  0.67260393527E+03  0.79316878487E+02 0.  0.
         24    2    4    4    0    0  0.79593693957E+02 -0.41893320865E+03  0.40281075935E+03  0.59201418556E+03  0.79900554595E+02 0.  0.
         13    1    3    3    0    0 -0.42630334971E+03  0.46123047669E+03 -0.31345627377E+02  0.62884866777E+03  0.00000000000E+00 0. -1.
        -14    1    3    3    0    0 -0.24638463484E+03  0.20263804560E+03  0.18944838510E+02  0.31957232783E+03  0.00000000000E+00 0.  1.
         13    1    5    5    0    0  0.15995783261E+03 -0.10029763604E+03  0.72311433555E+02  0.20217583295E+03  0.00000000000E+00 0. -1.
        -14    1    5    5    0    0  0.43313645798E+03 -0.14463767760E+03  0.11302809576E+03  0.47042810231E+03  0.00000000000E+00 0.  1.
          4    1    6    6  502    0  0.19862907718E+02 -0.24241502321E+03  0.18647697425E+03  0.30648530226E+03  0.00000000000E+00 0. -1.
         -3    1    6    6    0  502  0.59730786239E+02 -0.17651818544E+03  0.21633378511E+03  0.28552888329E+03  0.00000000000E+00 0.  1.
<mgrwt>
<rscale>  0 0.10110523E+04</rscale>
<asrwt>0</asrwt>
<pdfrwt beam="1">  1        1 0.21452220E+00 0.10110523E+04</pdfrwt>
<pdfrwt beam="2">  1       -2 0.12594535E+00 0.10110523E+04</pdfrwt>
<totfact> 0.31904843E+00</totfact>
</mgrwt>
</event>
<event>
12    3  0.2422421E-007  0.1213426E+04  0.7818608E-02  0.9101185E-01
          1   -1    0    0  501    0  0.00000000000E+00  0.00000000000E+00  0.14298510720E+04  0.14298510720E+04  0.00000000000E+00 0. -1.
         -2   -1    0    0    0  501 -0.00000000000E+00 -0.00000000000E+00 -0.11480960082E+04  0.11480960082E+04  0.00000000000E+00 0.  1.
        -24    2    1    2    0    0 -0.80939594113E+03  0.89905850147E+03  0.13092724308E+03  0.12195277399E+04  0.81718950150E+02 0.  0.
    5000000    2    1    2    0    0  0.80939594113E+03 -0.89905850147E+03  0.15082782069E+03  0.13584193403E+04  0.59927130245E+03 0.  0.
        -24    2    4    4    0    0  0.11344754395E+03 -0.18325943293E+03 -0.19272931748E+03  0.29963858501E+03  0.78640490995E+02 0.  0.
         24    2    4    4    0    0  0.69594839719E+03 -0.71579906854E+03  0.34355713817E+03  0.10587807553E+04  0.79200394345E+02 0.  0.
         11    1    3    3    0    0 -0.73524490334E+02  0.83711726007E+02  0.36134767264E+02  0.11712909611E+03  0.00000000000E+00 0. -1.
        -12    1    3    3    0    0 -0.73587145080E+03  0.81534677547E+03  0.94792475813E+02  0.11023986438E+04  0.00000000000E+00 0.  1.
         13    1    5    5    0    0  0.67455130170E+02 -0.77778706695E+02 -0.13811120836E+03  0.17226267058E+03  0.00000000000E+00 0. -1.
        -14    1    5    5    0    0  0.45992413776E+02 -0.10548072624E+03 -0.54618109121E+02  0.12737591443E+03  0.00000000000E+00 0.  1.
          2    1    6    6  502    0  0.59435802780E+03 -0.59106961868E+03  0.26071613466E+03  0.87783692233E+03  0.00000000000E+00 0. -1.
         -1    1    6    6    0  502  0.10159036939E+03 -0.12472944986E+03  0.82841003508E+02  0.18094383293E+03  0.00000000000E+00 0.  1.
<mgrwt>
<rscale>  0 0.12134259E+04</rscale>
<asrwt>0</asrwt>
<pdfrwt beam="1">  1        1 0.21997709E+00 0.12134259E+04</pdfrwt>
<pdfrwt beam="2">  1       -2 0.17663016E+00 0.12134259E+04</pdfrwt>
<totfact> 0.11955443E+00</totfact>
</mgrwt>
</event>
<event>
12    3  0.2422421E-007  0.6158083E+03  0.7818608E-02  0.9873141E-01
         -2   -1    0    0    0  501 -0.00000000000E+00  0.00000000000E+00  0.63492615866E+03  0.63492615866E+03  0.00000000000E+00 0.  1.
          1   -1    0    0  501    0  0.00000000000E+00 -0.00000000000E+00 -0.64372935010E+03  0.64372935010E+03  0.00000000000E+00 0. -1.
        -24    2    1    2    0    0  0.16152490507E+03  0.46703503693E+03 -0.18018656401E+02  0.50114898164E+03  0.81324099396E+02 0.  0.
    5000000    2    1    2    0    0 -0.16152490507E+03 -0.46703503693E+03  0.92154649635E+01  0.77750652711E+03  0.60018285066E+03 0.  0.
        -24    2    4    4    0    0  0.13057821027E+03  0.23175379969E+02 -0.10879457471E+03  0.18942780304E+03  0.80367069388E+02 0.  0.
         24    2    4    4    0    0 -0.29210311534E+03 -0.49021041690E+03  0.11801003968E+03  0.58807872408E+03  0.79244769017E+02 0.  0.
         11    1    5    5    0    0  0.82302069391E+02 -0.25556295208E+02 -0.54746783709E+02  0.10209782161E+03  0.00000000000E+00 0. -1.
        -12    1    5    5    0    0  0.48276140879E+02  0.48731675176E+02 -0.54047791004E+02  0.87329981427E+02  0.00000000000E+00 0.  1.
         13    1    3    3    0    0  0.10040372120E+03  0.38868082848E+03 -0.13089980693E+02  0.40165288652E+03  0.00000000000E+00 0. -1.
        -14    1    3    3    0    0  0.61121183868E+02  0.78354208458E+02 -0.49286757074E+01  0.99496095123E+02  0.00000000000E+00 0.  1.
          4    1    6    6  502    0 -0.11451362124E+03 -0.26894953682E+03  0.54759621555E+02  0.29739845151E+03  0.00000000000E+00 0. -1.
         -3    1    6    6    0  502 -0.17758949410E+03 -0.22126088008E+03  0.63250418122E+02  0.29068027257E+03  0.00000000000E+00 0.  1.
<mgrwt>
<rscale>  0 0.61580833E+03</rscale>
<asrwt>0</asrwt>
<pdfrwt beam="1">  1        1 0.99035284E-01 0.61580833E+03</pdfrwt>
<pdfrwt beam="2">  1       -2 0.97680949E-01 0.61580833E+03</pdfrwt>
<totfact> 0.24389285E+01</totfact>
</mgrwt>
</event>
<event>
12    3  0.2422421E-007  0.7288194E+03  0.7818608E-02  0.9669178E-01
          1   -1    0    0  501    0  0.00000000000E+00  0.00000000000E+00  0.13982656333E+04  0.13982656333E+04  0.00000000000E+00 0. -1.
         -2   -1    0    0    0  501 -0.00000000000E+00 -0.00000000000E+00 -0.56831075746E+03  0.56831075746E+03  0.00000000000E+00 0.  1.
        -24    2    1    2    0    0  0.33274051583E+03 -0.58119252157E+03  0.82745997490E+03  0.10674109375E+04  0.78581813909E+02 0.  0.
    5000000    2    1    2    0    0 -0.33274051583E+03  0.58119252157E+03  0.24949009828E+01  0.89916545328E+03  0.59999274149E+03 0.  0.
        -24    2    4    4    0    0 -0.44502756764E+02  0.45523881632E+03  0.21433161024E+03  0.51163118915E+03  0.81274592036E+02 0.  0.
         24    2    4    4    0    0 -0.28823775906E+03  0.12595370524E+03 -0.21183670926E+03  0.38753426413E+03  0.79766364279E+02 0.  0.
         11    1    5    5    0    0  0.15776570355E+02  0.76158447546E+02  0.58684020617E+02  0.97431122238E+02  0.00000000000E+00 0. -1.
        -12    1    5    5    0    0 -0.60279327119E+02  0.37908036878E+03  0.15564758963E+03  0.41420006691E+03  0.00000000000E+00 0.  1.
         13    1    3    3    0    0  0.21847837710E+03 -0.31125536665E+03  0.49435703424E+03  0.62369991329E+03  0.00000000000E+00 0. -1.
        -14    1    3    3    0    0  0.11426213872E+03 -0.26993715492E+03  0.33310294065E+03  0.44371102423E+03  0.00000000000E+00 0.  1.
          4    1    6    6  502    0  0.54169315685E+00 -0.53569064658E+01 -0.10513986541E+02  0.11812442226E+02  0.00000000000E+00 0. -1.
         -3    1    6    6    0  502 -0.28877945222E+03  0.13131061171E+03 -0.20132272272E+03  0.37572182190E+03  0.00000000000E+00 0.  1.
<mgrwt>
<rscale>  0 0.72881935E+03</rscale>
<asrwt>0</asrwt>
<pdfrwt beam="1">  1        1 0.21511779E+00 0.72881935E+03</pdfrwt>
<pdfrwt beam="2">  1       -2 0.87432424E-01 0.72881935E+03</pdfrwt>
<totfact> 0.78931255E+00</totfact>
</mgrwt>
</event>
<event>
12    3  0.2422421E-007  0.9983817E+03  0.7818608E-02  0.9310322E-01
          1   -1    0    0  501    0  0.00000000000E+00  0.00000000000E+00  0.11291808468E+04  0.11291808468E+04  0.00000000000E+00 0. -1.
         -2   -1    0    0    0  501 -0.00000000000E+00 -0.00000000000E+00 -0.92738354409E+03  0.92738354409E+03  0.00000000000E+00 0.  1.
        -24    2    1    2    0    0 -0.84349668368E+03  0.38240300431E+03  0.20902721921E+03  0.95292234978E+03  0.81547000286E+02 0.  0.
    5000000    2    1    2    0    0  0.84349668368E+03 -0.38240300431E+03 -0.72299164719E+01  0.11036420411E+04  0.60021227097E+03 0.  0.
        -24    2    4    4    0    0  0.88869504985E+03 -0.43739228184E+03 -0.32368751516E+02  0.99410371052E+03  0.78125228718E+02 0.  0.
         24    2    4    4    0    0 -0.45198366171E+02  0.54989277535E+02  0.25138835044E+02  0.10953833062E+03  0.79372362319E+02 0.  0.
         11    1    5    5    0    0  0.47079482703E+03 -0.25244997240E+03  0.16791394759E+02  0.53447236473E+03  0.00000000000E+00 0. -1.
        -12    1    5    5    0    0  0.41790022282E+03 -0.18494230944E+03 -0.49160146275E+02  0.45963134580E+03  0.00000000000E+00 0.  1.
         13    1    3    3    0    0 -0.50379694138E+03  0.24922812800E+03  0.90703385877E+02  0.56934446703E+03  0.00000000000E+00 0. -1.
        -14    1    3    3    0    0 -0.33969974230E+03  0.13317487631E+03  0.11832383333E+03  0.38357788275E+03  0.00000000000E+00 0.  1.
          2    1    6    6  502    0 -0.35151929242E+02  0.16491580172E+02 -0.24507990047E+02  0.45915922316E+02  0.00000000000E+00 0. -1.
         -1    1    6    6    0  502 -0.10046436929E+02  0.38497697363E+02  0.49646825091E+02  0.63622408308E+02  0.00000000000E+00 0.  1.
<mgrwt>
<rscale>  0 0.99838167E+03</rscale>
<asrwt>0</asrwt>
<pdfrwt beam="1">  1        1 0.17372013E+00 0.99838167E+03</pdfrwt>
<pdfrwt beam="2">  1       -2 0.14267439E+00 0.99838167E+03</pdfrwt>
<totfact> 0.36013662E+00</totfact>
</mgrwt>
</event>
<event>
12    3  0.2422421E-007  0.4935916E+03  0.7818608E-02  0.1015465E+00
         -4   -1    0    0    0  501 -0.00000000000E+00  0.00000000000E+00  0.24402855805E+03  0.24402855805E+03  0.00000000000E+00 0.  1.
          3   -1    0    0  501    0  0.00000000000E+00 -0.00000000000E+00 -0.27283647516E+04  0.27283647516E+04  0.00000000000E+00 0. -1.
        -24    2    1    2    0    0  0.18644389364E+03  0.36286119932E+03 -0.21204036764E+04  0.21606434956E+04  0.76413274205E+02 0.  0.
    5000000    2    1    2    0    0 -0.18644389364E+03 -0.36286119932E+03 -0.36393251708E+03  0.81174981404E+03  0.60005108796E+03 0.  0.
        -24    2    4    4    0    0 -0.25711470522E+03 -0.38302996253E+03 -0.46756107191E+03  0.66161433434E+03  0.79374099108E+02 0.  0.
         24    2    4    4    0    0  0.70670811580E+02  0.20168763206E+02  0.10362855482E+03  0.15013547970E+03  0.80004014102E+02 0.  0.
         11    1    3    3    0    0  0.26089003835E+02  0.11850713634E+02 -0.17555581467E+03  0.17787894648E+03  0.00000000000E+00 0. -1.
        -12    1    3    3    0    0  0.16035488980E+03  0.35101048569E+03 -0.19448478618E+04  0.19827645491E+04  0.00000000000E+00 0.  1.
         11    1    5    5    0    0 -0.98975190370E+02 -0.10562392018E+03 -0.10712244151E+03  0.18007697881E+03  0.00000000000E+00 0. -1.
        -12    1    5    5    0    0 -0.15813951485E+03 -0.27740604235E+03 -0.36043863040E+03  0.48153735553E+03  0.00000000000E+00 0.  1.
          2    1    6    6  502    0  0.14995279305E+02 -0.30048735686E+02  0.29481851416E+02  0.44687408526E+02  0.00000000000E+00 0. -1.
         -1    1    6    6    0  502  0.55675532275E+02  0.50217498893E+02  0.74146703406E+02  0.10544807118E+03  0.00000000000E+00 0.  1.
<mgrwt>
<rscale>  0 0.49359161E+03</rscale>
<asrwt>0</asrwt>
<pdfrwt beam="1">  1        3 0.41974844E+00 0.49359161E+03</pdfrwt>
<pdfrwt beam="2">  1       -4 0.37542854E-01 0.49359161E+03</pdfrwt>
<totfact> 0.14736373E-01</totfact>
</mgrwt>
</event>
<event>
12    3  0.2422421E-007  0.7567499E+03  0.7818608E-02  0.9624820E-01
         -2   -1    0    0    0  501 -0.00000000000E+00  0.00000000000E+00  0.26828818013E+03  0.26828818013E+03  0.00000000000E+00 0.  1.
          1   -1    0    0  501    0  0.00000000000E+00 -0.00000000000E+00 -0.25199490060E+04  0.25199490060E+04  0.00000000000E+00 0. -1.
        -24    2    1    2    0    0  0.54818150211E+02 -0.66204162070E+03 -0.14044825533E+04  0.15558183791E+04  0.81825723172E+02 0.  0.
    5000000    2    1    2    0    0 -0.54818150211E+02  0.66204162070E+03 -0.84717827251E+03  0.12324188070E+04  0.59986744645E+03 0.  0.
        -24    2    4    4    0    0 -0.28290339579E+03  0.46456540538E+03 -0.69119852885E+03  0.88328457674E+03  0.81122684818E+02 0.  0.
         24    2    4    4    0    0  0.22808524558E+03  0.19747621532E+03 -0.15597974366E+03  0.34913423027E+03  0.80903000208E+02 0.  0.
         13    1    5    5    0    0 -0.22236538939E+03  0.37472007692E+03 -0.60086892645E+03  0.74222972806E+03  0.00000000000E+00 0. -1.
        -14    1    5    5    0    0 -0.60538006399E+02  0.89845328466E+02 -0.90329602400E+02  0.14105484868E+03  0.00000000000E+00 0.  1.
         13    1    3    3    0    0  0.54017125275E+02 -0.33992472750E+03 -0.65152113620E+03  0.73684900835E+03  0.00000000000E+00 0. -1.
        -14    1    3    3    0    0  0.80102493682E+00 -0.32211689320E+03 -0.75296141713E+03  0.81896937075E+03  0.00000000000E+00 0.  1.
          2    1    6    6  502    0  0.52558503981E+02  0.62746183352E+02 -0.81902060458E+02  0.11579044595E+03  0.00000000000E+00 0. -1.
         -1    1    6    6    0  502  0.17552674160E+03  0.13473003197E+03 -0.74077683203E+02  0.23334378432E+03  0.00000000000E+00 0.  1.
<mgrwt>
<rscale>  0 0.75674994E+03</rscale>
<asrwt>0</asrwt>
<pdfrwt beam="1">  1        1 0.38768447E+00 0.75674994E+03</pdfrwt>
<pdfrwt beam="2">  1       -2 0.41275103E-01 0.75674994E+03</pdfrwt>
<totfact> 0.67411169E+00</totfact>
</mgrwt>
</event>
<event>
12    3  0.2422421E-007  0.5665778E+03  0.7818608E-02  0.9977280E-01
         -2   -1    0    0    0  501 -0.00000000000E+00  0.00000000000E+00  0.51921548907E+03  0.51921548907E+03  0.00000000000E+00 0.  1.
          1   -1    0    0  501    0  0.00000000000E+00 -0.00000000000E+00 -0.10736718009E+04  0.10736718009E+04  0.00000000000E+00 0. -1.
        -24    2    1    2    0    0  0.38876811404E+03  0.12499776407E+03 -0.73539135902E+03  0.84499719383E+03  0.80341266691E+02 0.  0.
    5000000    2    1    2    0    0 -0.38876811404E+03 -0.12499776407E+03  0.18093504720E+03  0.74789009614E+03  0.59986416552E+03 0.  0.
        -24    2    4    4    0    0 -0.36097801218E+03  0.17784705065E+03  0.78763889532E+02  0.41740860301E+03  0.78048016424E+02 0.  0.
         24    2    4    4    0    0 -0.27790101865E+02 -0.30284481472E+03  0.10217115766E+03  0.33048149313E+03  0.79320869117E+02 0.  0.
         11    1    5    5    0    0 -0.30853221685E+03  0.17552374315E+03  0.83636086259E+02  0.36468576634E+03  0.00000000000E+00 0. -1.
        -12    1    5    5    0    0 -0.52445795328E+02  0.23233074971E+01 -0.48721967266E+01  0.52722836667E+02  0.00000000000E+00 0.  1.
         11    1    3    3    0    0  0.20719151602E+03  0.30033210357E+02 -0.33097336322E+03  0.39162952544E+03  0.00000000000E+00 0. -1.
        -12    1    3    3    0    0  0.18157659803E+03  0.94964553717E+02 -0.40441799579E+03  0.45336766838E+03  0.00000000000E+00 0.  1.
          2    1    6    6  502    0  0.12776906198E+02 -0.20640958256E+03  0.46487464853E+02  0.21196520821E+03  0.00000000000E+00 0. -1.
         -1    1    6    6    0  502 -0.40567008064E+02 -0.96435232165E+02  0.55683692812E+02  0.11851628492E+03  0.00000000000E+00 0.  1.
<mgrwt>
<rscale>  0 0.56657778E+03</rscale>
<asrwt>0</asrwt>
<pdfrwt beam="1">  1        1 0.16518028E+00 0.56657778E+03</pdfrwt>
<pdfrwt beam="2">  1       -2 0.79879307E-01 0.56657778E+03</pdfrwt>
<totfact> 0.16936477E+01</totfact>
</mgrwt>
</event>
<event>
12    3  0.2422421E-007  0.8087372E+03  0.7818608E-02  0.9547456E-01
          1   -1    0    0  501    0  0.00000000000E+00  0.00000000000E+00  0.25694034718E+04  0.25694034718E+04  0.00000000000E+00 0. -1.
         -2   -1    0    0    0  501 -0.00000000000E+00 -0.00000000000E+00 -0.31137793250E+03  0.31137793250E+03  0.00000000000E+00 0.  1.
        -24    2    1    2    0    0  0.65797264917E+03 -0.35121039592E+03  0.14313096184E+04  0.16159621684E+04  0.80060956686E+02 0.  0.
    5000000    2    1    2    0    0 -0.65797264917E+03  0.35121039592E+03  0.82671592087E+03  0.12648192359E+04  0.60002644633E+03 0.  0.
        -24    2    4    4    0    0 -0.59434278498E+03  0.95487530942E+02  0.31528707854E+03  0.68392421528E+03  0.77363917505E+02 0.  0.
         24    2    4    4    0    0 -0.63629864197E+02  0.25572286498E+03  0.51142884233E+03  0.58089502057E+03  0.80228553941E+02 0.  0.
         13    1    5    5    0    0 -0.27780985024E+03  0.50817058924E+02  0.19100539226E+03  0.34094537134E+03  0.00000000000E+00 0. -1.
        -14    1    5    5    0    0 -0.31653293474E+03  0.44670472018E+02  0.12428168628E+03  0.34297884394E+03  0.00000000000E+00 0.  1.
         13    1    3    3    0    0  0.29945251696E+03 -0.20152227080E+03  0.65544292962E+03  0.74825695421E+03  0.00000000000E+00 0. -1.
        -14    1    3    3    0    0  0.35852013221E+03 -0.14968812512E+03  0.77586668881E+03  0.86770521424E+03  0.00000000000E+00 0.  1.
          2    1    6    6  502    0 -0.41643200569E+02  0.22053265533E+03  0.36300670379E+03  0.42678176533E+03  0.00000000000E+00 0. -1.
         -1    1    6    6    0  502 -0.21986663628E+02  0.35190209646E+02  0.14842213854E+03  0.15411325524E+03  0.00000000000E+00 0.  1.
<mgrwt>
<rscale>  0 0.80873721E+03</rscale>
<asrwt>0</asrwt>
<pdfrwt beam="1">  1        1 0.39529283E+00 0.80873721E+03</pdfrwt>
<pdfrwt beam="2">  1       -2 0.47904299E-01 0.80873721E+03</pdfrwt>
<totfact> 0.45961618E+00</totfact>
</mgrwt>
</event>
<event>
12    3  0.2422421E-007  0.3449928E+03  0.7818608E-02  0.1064689E+00
         -2   -1    0    0    0  501 -0.00000000000E+00  0.00000000000E+00  0.16553252188E+03  0.16553252188E+03  0.00000000000E+00 0.  1.
          1   -1    0    0  501    0  0.00000000000E+00 -0.00000000000E+00 -0.13867903505E+04  0.13867903505E+04  0.00000000000E+00 0. -1.
        -24    2    1    2    0    0 -0.34521949946E+02  0.27228623404E+03 -0.25957060025E+03  0.38605676835E+03  0.79569928978E+02 0.  0.
    5000000    2    1    2    0    0  0.34521949946E+02 -0.27228623404E+03 -0.96168722840E+03  0.11662661041E+04  0.60000228494E+03 0.  0.
        -24    2    4    4    0    0  0.13758755979E+03 -0.24600126744E+03 -0.98816974306E+03  0.10306381701E+04  0.79300923028E+02 0.  0.
         24    2    4    4    0    0 -0.10306560984E+03 -0.26284966598E+02  0.26482514661E+02  0.13562793395E+03  0.79876113352E+02 0.  0.
         11    1    5    5    0    0  0.76116772878E+02 -0.13988699576E+03 -0.41526196129E+03  0.44475232567E+03  0.00000000000E+00 0. -1.
        -12    1    5    5    0    0  0.61470786907E+02 -0.10611427168E+03 -0.57290778177E+03  0.58588584444E+03  0.00000000000E+00 0.  1.
         13    1    3    3    0    0  0.70734707379E+00  0.99086356003E+02 -0.14429095838E+03  0.17503852992E+03  0.00000000000E+00 0. -1.
        -14    1    3    3    0    0 -0.35229297019E+02  0.17319987804E+03 -0.11527964187E+03  0.21101823843E+03  0.00000000000E+00 0.  1.
          2    1    6    6  502    0 -0.11459498437E+03 -0.32566468197E+02  0.19374332033E+02  0.12069776317E+03  0.00000000000E+00 0. -1.
         -1    1    6    6    0  502  0.11529374525E+02  0.62815015987E+01  0.71081826280E+01  0.14930170781E+02  0.00000000000E+00 0.  1.
<mgrwt>
<rscale>  0 0.34499278E+03</rscale>
<asrwt>0</asrwt>
<pdfrwt beam="1">  1        1 0.21335237E+00 0.34499278E+03</pdfrwt>
<pdfrwt beam="2">  1       -2 0.25466541E-01 0.34499278E+03</pdfrwt>
<totfact> 0.10241660E+02</totfact>
</mgrwt>
</event>
<event>
12    3  0.2422421E-007  0.1429097E+04  0.7818608E-02  0.8933022E-01
         -2   -1    0    0    0  501 -0.00000000000E+00  0.00000000000E+00  0.78452588055E+03  0.78452588055E+03  0.00000000000E+00 0.  1.
          1   -1    0    0  501    0  0.00000000000E+00 -0.00000000000E+00 -0.29248717649E+04  0.29248717649E+04  0.00000000000E+00 0. -1.
        -24    2    1    2    0    0 -0.36162509023E+03 -0.13463902572E+04 -0.15371726491E+04  0.20761839581E+04  0.64036271759E+02 0.  0.
    5000000    2    1    2    0    0  0.36162509023E+03  0.13463902572E+04 -0.60317323525E+03  0.16332136874E+04  0.60002463817E+03 0.  0.
        -24    2    4    4    0    0  0.81242434087E+02  0.10263932695E+04 -0.22153218813E+03  0.10560512326E+04  0.78001402520E+02 0.  0.
         24    2    4    4    0    0  0.28038265614E+03  0.31999698772E+03 -0.38164104712E+03  0.57716245479E+03  0.80337440567E+02 0.  0.
         11    1    5    5    0    0  0.50864490039E+02  0.28965383533E+03 -0.85297152772E+02  0.30620604981E+03  0.00000000000E+00 0. -1.
        -12    1    5    5    0    0  0.30377944048E+02  0.73673943412E+03 -0.13623503536E+03  0.74984518278E+03  0.00000000000E+00 0.  1.
         11    1    3    3    0    0 -0.22952677496E+03 -0.77159708364E+03 -0.85256284183E+03  0.11725647100E+04  0.00000000000E+00 0. -1.
        -12    1    3    3    0    0 -0.13209831527E+03 -0.57479317354E+03 -0.68460980731E+03  0.90361924809E+03  0.00000000000E+00 0.  1.
          2    1    6    6  502    0  0.15995490195E+03  0.23610381080E+03 -0.27044483655E+03  0.39302797578E+03  0.00000000000E+00 0. -1.
         -1    1    6    6    0  502  0.12042775419E+03  0.83893176919E+02 -0.11119621057E+03  0.18413447900E+03  0.00000000000E+00 0.  1.
<mgrwt>
<rscale>  0 0.14290971E+04</rscale>
<asrwt>0</asrwt>
<pdfrwt beam="1">  1        1 0.44998027E+00 0.14290971E+04</pdfrwt>
<pdfrwt beam="2">  1       -2 0.12069629E+00 0.14290971E+04</pdfrwt>
<totfact> 0.29906189E-01</totfact>
</mgrwt>
</event>
<event>
12    3  0.2599385E-007  0.8178028E+03  0.7818608E-02  0.9534600E-01
          1   -1    0    0  501    0  0.00000000000E+00  0.00000000000E+00  0.16895691364E+04  0.16895691364E+04  0.00000000000E+00 0. -1.
         -2   -1    0    0    0  501 -0.00000000000E+00 -0.00000000000E+00 -0.49562756956E+03  0.49562756956E+03  0.00000000000E+00 0.  1.
        -24    2    1    2    0    0 -0.65235400042E+03  0.44160304887E+03  0.28668293708E+03  0.84234431882E+03  0.82327701279E+02 0.  0.
    5000000    2    1    2    0    0  0.65235400042E+03 -0.44160304887E+03  0.90725862975E+03  0.13428523871E+04  0.59962931694E+03 0.  0.
        -24    2    4    4    0    0  0.45733392744E+03 -0.14201804267E+03  0.84081821248E+03  0.97101711699E+03  0.81089638198E+02 0.  0.
         24    2    4    4    0    0  0.19502007298E+03 -0.29958500620E+03  0.66440417271E+02  0.37183527014E+03  0.77866130424E+02 0.  0.
         11    1    5    5    0    0  0.39914517451E+03 -0.13383586105E+03  0.67964410696E+03  0.79946545902E+03  0.00000000000E+00 0. -1.
        -12    1    5    5    0    0  0.58188752928E+02 -0.81821816225E+01  0.16117410552E+03  0.17155165797E+03  0.00000000000E+00 0.  1.
         13    1    3    3    0    0 -0.47988051203E+03  0.28286584889E+03  0.21679907208E+03  0.59774595938E+03  0.00000000000E+00 0. -1.
        -14    1    3    3    0    0 -0.17247348839E+03  0.15873719998E+03  0.69883865001E+02  0.24459835944E+03  0.00000000000E+00 0.  1.
          4    1    6    6  502    0  0.17642968225E+03 -0.21655887993E+03  0.64750731841E+02  0.28673653156E+03  0.00000000000E+00 0. -1.
         -3    1    6    6    0  502  0.18590390722E+02 -0.83026126271E+02  0.16896854301E+01  0.85098738578E+02  0.00000000000E+00 0.  1.
<mgrwt>
<rscale>  0 0.81780284E+03</rscale>
<asrwt>0</asrwt>
<pdfrwt beam="1">  1        1 0.25993371E+00 0.81780284E+03</pdfrwt>
<pdfrwt beam="2">  1       -2 0.76250396E-01 0.81780284E+03</pdfrwt>
<totfact> 0.67190485E+00</totfact>
</mgrwt>
</event>
<event>
12    3  0.2422421E-007  0.3883322E+03  0.7818608E-02  0.1047896E+00
         -2   -1    0    0    0  501 -0.00000000000E+00  0.00000000000E+00  0.13282044569E+03  0.13282044569E+03  0.00000000000E+00 0.  1.
          1   -1    0    0  501    0  0.00000000000E+00 -0.00000000000E+00 -0.13978047529E+04  0.13978047529E+04  0.00000000000E+00 0. -1.
        -24    2    1    2    0    0 -0.18382967075E+03  0.98761991559E+02 -0.38555336185E+03  0.44573131559E+03  0.80484358981E+02 0.  0.
    5000000    2    1    2    0    0  0.18382967075E+03 -0.98761991559E+02 -0.87943094538E+03  0.10848938830E+04  0.60004055771E+03 0.  0.
        -24    2    4    4    0    0  0.18827692413E+03  0.17686705964E+03 -0.68971489192E+03  0.74071477278E+03  0.78877027916E+02 0.  0.
         24    2    4    4    0    0 -0.44472533848E+01 -0.27562905120E+03 -0.18971605346E+03  0.34417911024E+03  0.80473144946E+02 0.  0.
         11    1    3    3    0    0 -0.81486281848E+02  0.38863557091E+01 -0.11109441163E+03  0.13782991760E+03  0.00000000000E+00 0. -1.
        -12    1    3    3    0    0 -0.10234338890E+03  0.94875635850E+02 -0.27445895021E+03  0.30790139798E+03  0.00000000000E+00 0.  1.
         11    1    5    5    0    0  0.12044614552E+03  0.59235561110E+02 -0.33360638904E+03  0.35959609074E+03  0.00000000000E+00 0. -1.
        -12    1    5    5    0    0  0.67830778614E+02  0.11763149853E+03 -0.35610850288E+03  0.38111868203E+03  0.00000000000E+00 0.  1.
          2    1    6    6  502    0  0.34935845861E+02 -0.13945879800E+03 -0.77090668598E+02  0.16313258672E+03  0.00000000000E+00 0. -1.
         -1    1    6    6    0  502 -0.39383099246E+02 -0.13617025319E+03 -0.11262538486E+03  0.18104652351E+03  0.00000000000E+00 0.  1.
<mgrwt>
<rscale>  0 0.38833219E+03</rscale>
<asrwt>0</asrwt>
<pdfrwt beam="1">  1        1 0.21504688E+00 0.38833219E+03</pdfrwt>
<pdfrwt beam="2">  1       -2 0.20433915E-01 0.38833219E+03</pdfrwt>
<totfact> 0.14722665E+02</totfact>
</mgrwt>
</event>
<event>
12    3  0.2422421E-007  0.1279779E+04  0.7818608E-02  0.9045756E-01
         -2   -1    0    0    0  501 -0.00000000000E+00  0.00000000000E+00  0.16323051782E+04  0.16323051782E+04  0.00000000000E+00 0.  1.
          1   -1    0    0  501    0  0.00000000000E+00 -0.00000000000E+00 -0.29209339132E+04  0.29209339132E+04  0.00000000000E+00 0. -1.
        -24    2    1    2    0    0 -0.88433904720E+02 -0.12515469633E+04  0.11775233925E+04  0.17219783305E+04  0.66765814118E+02 0.  0.
    5000000    2    1    2    0    0  0.88433904720E+02  0.12515469633E+04 -0.24661521275E+04  0.28312607609E+04  0.59995068406E+03 0.  0.
        -24    2    4    4    0    0  0.11418652505E+03  0.11942346527E+04 -0.24471235329E+04  0.27265759004E+04  0.81040649042E+02 0.  0.
         24    2    4    4    0    0 -0.25752620329E+02  0.57312310580E+02 -0.19028594598E+02  0.10468486054E+03  0.81540997147E+02 0.  0.
         11    1    5    5    0    0  0.28386627709E+02  0.63068015760E+03 -0.12290190336E+04  0.13816841343E+04  0.00000000000E+00 0. -1.
        -12    1    5    5    0    0  0.85799897340E+02  0.56355449514E+03 -0.12181044993E+04  0.13448917661E+04  0.00000000000E+00 0.  1.
         13    1    3    3    0    0 -0.18534130574E+02 -0.72180098011E+02  0.58956801638E+02  0.95023076168E+02  0.00000000000E+00 0. -1.
        -14    1    3    3    0    0 -0.69899774147E+02 -0.11793668653E+04  0.11185665908E+04  0.16269552543E+04  0.00000000000E+00 0.  1.
          2    1    6    6  502    0 -0.44515091203E+02  0.67519626614E+02 -0.99755947083E+01  0.81486230817E+02  0.00000000000E+00 0. -1.
         -1    1    6    6    0  502  0.18762470875E+02 -0.10207316035E+02 -0.90529998894E+01  0.23198629721E+02  0.00000000000E+00 0.  1.
<mgrwt>
<rscale>  0 0.12797790E+04</rscale>
<asrwt>0</asrwt>
<pdfrwt beam="1">  1        1 0.44937445E+00 0.12797790E+04</pdfrwt>
<pdfrwt beam="2">  1       -2 0.25112387E+00 0.12797790E+04</pdfrwt>
<totfact> 0.36823857E-02</totfact>
</mgrwt>
</event>
<event>
12    3  0.2422421E-007  0.7497093E+03  0.7818608E-02  0.9635806E-01
          1   -1    0    0  501    0  0.00000000000E+00  0.00000000000E+00  0.17709941020E+04  0.17709941020E+04  0.00000000000E+00 0. -1.
         -2   -1    0    0    0  501 -0.00000000000E+00 -0.00000000000E+00 -0.35296561577E+03  0.35296561577E+03  0.00000000000E+00 0.  1.
        -24    2    1    2    0    0  0.64273129995E+03  0.80749704660E+02  0.36132787340E+03  0.74689003018E+03  0.87537685270E+02 0.  0.
    5000000    2    1    2    0    0 -0.64273129995E+03 -0.80749704660E+02  0.10567006128E+04  0.13770696876E+04  0.60006724675E+03 0.  0.
        -24    2    4    4    0    0  0.83490375220E+01 -0.16979980756E+03  0.99467622035E+02  0.21324622613E+03  0.81721870102E+02 0.  0.
         24    2    4    4    0    0 -0.65108033747E+03  0.89050102898E+02  0.95723299079E+03  0.11638234615E+04  0.79715269132E+02 0.  0.
         13    1    3    3    0    0  0.39204659596E+03  0.91515221139E+02  0.21428841244E+03  0.45606479014E+03  0.00000000000E+00 0. -1.
        -14    1    3    3    0    0  0.25068470399E+03 -0.10765516480E+02  0.14703946096E+03  0.29082524003E+03  0.00000000000E+00 0.  1.
         13    1    5    5    0    0 -0.34553083011E+02 -0.87956491767E+02  0.64648735236E+02  0.11449768101E+03  0.00000000000E+00 0. -1.
        -14    1    5    5    0    0  0.42902120533E+02 -0.81843315790E+02  0.34818886799E+02  0.98748545122E+02  0.00000000000E+00 0.  1.
          4    1    6    6  502    0 -0.29520842787E+03  0.15483718992E+02  0.37524981078E+03  0.47770302693E+03  0.00000000000E+00 0. -1.
         -3    1    6    6    0  502 -0.35587190960E+03  0.73566383905E+02  0.58198318001E+03  0.68612043454E+03  0.00000000000E+00 0.  1.
<mgrwt>
<rscale>  0 0.74970932E+03</rscale>
<asrwt>0</asrwt>
<pdfrwt beam="1">  1        1 0.27246063E+00 0.74970932E+03</pdfrwt>
<pdfrwt beam="2">  1       -2 0.54302403E-01 0.74970932E+03</pdfrwt>
<totfact> 0.12385736E+01</totfact>
</mgrwt>
</event>
<event>
12    3  0.2422421E-007  0.4779663E+03  0.7818608E-02  0.1019696E+00
          1   -1    0    0  501    0  0.00000000000E+00  0.00000000000E+00  0.20022497045E+03  0.20022497045E+03  0.00000000000E+00 0. -1.
         -2   -1    0    0    0  501 -0.00000000000E+00 -0.00000000000E+00 -0.14082088594E+04  0.14082088594E+04  0.00000000000E+00 0.  1.
        -24    2    1    2    0    0 -0.29742616841E+03  0.69807846618E+02 -0.13776102619E+03  0.34403687633E+03  0.77767672158E+02 0.  0.
    5000000    2    1    2    0    0  0.29742616841E+03 -0.69807846618E+02 -0.10702228628E+04  0.12643969535E+04  0.59998934906E+03 0.  0.
        -24    2    4    4    0    0 -0.68025774399E+02 -0.22659716080E+03 -0.57804104480E+03  0.62973431191E+03  0.80374590858E+02 0.  0.
         24    2    4    4    0    0  0.36545194281E+03  0.15678931419E+03 -0.49218181795E+03  0.63466264160E+03  0.49149925524E+02 0.  0.
         11    1    3    3    0    0 -0.89252517266E+02  0.11518016013E+02 -0.79660212204E+02  0.12018496553E+03  0.00000000000E+00 0. -1.
        -12    1    3    3    0    0 -0.20817365114E+03  0.58289830605E+02 -0.58100813990E+02  0.22385191080E+03  0.00000000000E+00 0.  1.
         13    1    5    5    0    0 -0.85201167295E+02 -0.20246573895E+03 -0.49433934888E+03  0.54094639865E+03  0.00000000000E+00 0. -1.
        -14    1    5    5    0    0  0.17175392896E+02 -0.24131421856E+02 -0.83701695920E+02  0.88787913264E+02  0.00000000000E+00 0.  1.
          2    1    6    6  502    0  0.24081448534E+03  0.12733310650E+03 -0.32501439692E+03  0.42407510486E+03  0.00000000000E+00 0. -1.
         -1    1    6    6    0  502  0.12463745747E+03  0.29456207689E+02 -0.16716742103E+03  0.21058753674E+03  0.00000000000E+00 0.  1.
<mgrwt>
<rscale>  0 0.47796632E+03</rscale>
<asrwt>0</asrwt>
<pdfrwt beam="1">  1        1 0.30803842E-01 0.47796632E+03</pdfrwt>
<pdfrwt beam="2">  1       -2 0.21664752E+00 0.47796632E+03</pdfrwt>
<totfact> 0.14179221E+01</totfact>
</mgrwt>
</event>
<event>
12    3  0.2422421E-007  0.4390178E+03  0.7818608E-02  0.1031049E+00
          1   -1    0    0  501    0  0.00000000000E+00  0.00000000000E+00  0.11896592082E+04  0.11896592082E+04  0.00000000000E+00 0. -1.
         -2   -1    0    0    0  501 -0.00000000000E+00 -0.00000000000E+00 -0.22816822574E+03  0.22816822574E+03  0.00000000000E+00 0.  1.
        -24    2    1    2    0    0 -0.23541911922E+03 -0.61416269321E+02 -0.24204545189E+01  0.25677510694E+03  0.82057766917E+02 0.  0.
    5000000    2    1    2    0    0  0.23541911922E+03  0.61416269321E+02  0.96391143697E+03  0.11610523270E+04  0.59976922882E+03 0.  0.
        -24    2    4    4    0    0  0.13512918718E+03 -0.25233708213E+03  0.55562808452E+03  0.63017913870E+03  0.80431823958E+02 0.  0.
         24    2    4    4    0    0  0.10028993204E+03  0.31375335145E+03  0.40828335245E+03  0.53087318828E+03  0.81435926529E+02 0.  0.
         11    1    3    3    0    0 -0.11569674030E+03 -0.66302334026E+02 -0.22647820667E+02  0.13525775022E+03  0.00000000000E+00 0. -1.
        -12    1    3    3    0    0 -0.11972237892E+03  0.48860647055E+01  0.20227366148E+02  0.12151735672E+03  0.00000000000E+00 0.  1.
         13    1    5    5    0    0  0.88565086484E+02 -0.21604311947E+03  0.48383767594E+03  0.53723114269E+03  0.00000000000E+00 0. -1.
        -14    1    5    5    0    0  0.46564100699E+02 -0.36293962657E+02  0.71790408574E+02  0.92947996011E+02  0.00000000000E+00 0.  1.
          4    1    6    6  502    0  0.81371946222E+02  0.18372655608E+03  0.29752500716E+03  0.35902363561E+03  0.00000000000E+00 0. -1.
         -3    1    6    6    0  502  0.18917985816E+02  0.13002679537E+03  0.11075834530E+03  0.17184955267E+03  0.00000000000E+00 0.  1.
<mgrwt>
<rscale>  0 0.43901776E+03</rscale>
<asrwt>0</asrwt>
<pdfrwt beam="1">  1        1 0.18302449E+00 0.43901776E+03</pdfrwt>
<pdfrwt beam="2">  1       -2 0.35102805E-01 0.43901776E+03</pdfrwt>
<totfact> 0.76751206E+01</totfact>
</mgrwt>
</event>
<event>
12    3  0.2422421E-007  0.8364692E+03  0.7818608E-02  0.9508680E-01
         -4   -1    0    0    0  501 -0.00000000000E+00  0.00000000000E+00  0.11504201546E+04  0.11504201546E+04  0.00000000000E+00 0.  1.
          3   -1    0    0  501    0  0.00000000000E+00 -0.00000000000E+00 -0.20399976022E+04  0.20399976022E+04  0.00000000000E+00 0. -1.
        -24    2    1    2    0    0 -0.18593851352E+03 -0.74264557821E+03 -0.17372449919E+04  0.19001064773E+04  0.79302442570E+02 0.  0.
    5000000    2    1    2    0    0  0.18593851352E+03  0.74264557821E+03  0.84766754429E+03  0.12903112795E+04  0.60022274750E+03 0.  0.
        -24    2    4    4    0    0  0.66872833816E+01 -0.53199165675E+02  0.27219285736E+03  0.28867933231E+03  0.79824396772E+02 0.  0.
         24    2    4    4    0    0  0.17925123014E+03  0.79584474389E+03  0.57547468693E+03  0.10016319471E+04  0.81213190865E+02 0.  0.
         11    1    5    5    0    0  0.17222034710E+02 -0.68267411049E+02  0.15747610698E+03  0.17249858597E+03  0.00000000000E+00 0. -1.
        -12    1    5    5    0    0 -0.10534751328E+02  0.15068245374E+02  0.11471675038E+03  0.11618074635E+03  0.00000000000E+00 0.  1.
         13    1    3    3    0    0 -0.43449079372E+02 -0.26393247612E+03 -0.68369947107E+03  0.73416152255E+03  0.00000000000E+00 0. -1.
        -14    1    3    3    0    0 -0.14248943415E+03 -0.47871310209E+03 -0.10535455209E+04  0.11659449547E+04  0.00000000000E+00 0.  1.
          4    1    6    6  502    0  0.33428791667E+02  0.24919775846E+03  0.14080288158E+03  0.28817088401E+03  0.00000000000E+00 0. -1.
         -3    1    6    6    0  502  0.14582243847E+03  0.54664698543E+03  0.43467180535E+03  0.71346106314E+03  0.00000000000E+00 0.  1.
<mgrwt>
<rscale>  0 0.83646917E+03</rscale>
<asrwt>0</asrwt>
<pdfrwt beam="1">  1        3 0.31384578E+00 0.83646917E+03</pdfrwt>
<pdfrwt beam="2">  1       -4 0.17698772E+00 0.83646917E+03</pdfrwt>
<totfact> 0.13830974E-02</totfact>
</mgrwt>
</event>
<event>
12    3  0.2422421E-007  0.9170974E+03  0.7818608E-02  0.9404458E-01
         -2   -1    0    0    0  501 -0.00000000000E+00  0.00000000000E+00  0.52965896369E+03  0.52965896369E+03  0.00000000000E+00 0.  1.
          1   -1    0    0  501    0  0.00000000000E+00 -0.00000000000E+00 -0.19640894512E+04  0.19640894512E+04  0.00000000000E+00 0. -1.
        -24    2    1    2    0    0 -0.35503325330E+03  0.77196911276E+03 -0.19467027678E+03  0.87534617679E+03  0.79683690714E+02 0.  0.
    5000000    2    1    2    0    0  0.35503325330E+03 -0.77196911276E+03 -0.12397602107E+04  0.16184022381E+04  0.60019621974E+03 0.  0.
        -24    2    4    4    0    0  0.33994528165E+03 -0.82187258840E+03 -0.12282018591E+04  0.15184396134E+04  0.78369042337E+02 0.  0.
         24    2    4    4    0    0  0.15087971646E+02  0.49903475648E+02 -0.11558351634E+02  0.99962624691E+02  0.84504006251E+02 0.  0.
         11    1    5    5    0    0  0.94989434333E+02 -0.24452763429E+03 -0.30406620120E+03  0.40158811148E+03  0.00000000000E+00 0. -1.
        -12    1    5    5    0    0  0.24495584732E+03 -0.57734495412E+03 -0.92413565791E+03  0.11168515019E+04  0.00000000000E+00 0.  1.
         13    1    3    3    0    0 -0.64225454094E+02  0.20705062496E+03 -0.28892588710E+02  0.21869991297E+03  0.00000000000E+00 0. -1.
        -14    1    3    3    0    0 -0.29080779920E+03  0.56491848780E+03 -0.16577768807E+03  0.65664626382E+03  0.00000000000E+00 0.  1.
          2    1    6    6  502    0 -0.31089330538E+02  0.26110979178E+02  0.12826479292E+02  0.42577556035E+02  0.00000000000E+00 0. -1.
         -1    1    6    6    0  502  0.46177302185E+02  0.23792496470E+02 -0.24384830926E+02  0.57385068656E+02  0.00000000000E+00 0.  1.
<mgrwt>
<rscale>  0 0.91709737E+03</rscale>
<asrwt>0</asrwt>
<pdfrwt beam="1">  1        1 0.30216762E+00 0.91709737E+03</pdfrwt>
<pdfrwt beam="2">  1       -2 0.81485992E-01 0.91709737E+03</pdfrwt>
<totfact> 0.37337111E+00</totfact>
</mgrwt>
</event>
<event>
12    3  0.2422421E-007  0.1026858E+04  0.7818608E-02  0.9279568E-01
          1   -1    0    0  501    0  0.00000000000E+00  0.00000000000E+00  0.19485034922E+04  0.19485034922E+04  0.00000000000E+00 0. -1.
         -2   -1    0    0    0  501 -0.00000000000E+00 -0.00000000000E+00 -0.61422796633E+03  0.61422796633E+03  0.00000000000E+00 0.  1.
        -24    2    1    2    0    0 -0.53070186800E+03 -0.83772576595E+03  0.84250591519E+03  0.13036953165E+04  0.79851923114E+02 0.  0.
    5000000    2    1    2    0    0  0.53070186800E+03  0.83772576595E+03  0.49176961070E+03  0.12590361420E+04  0.59992143254E+03 0.  0.
        -24    2    4    4    0    0  0.20655544604E+03  0.64129262374E+03  0.64904721113E+02  0.68232634570E+03  0.86227824152E+02 0.  0.
         24    2    4    4    0    0  0.32414642196E+03  0.19643314221E+03  0.42686488959E+03  0.57670979630E+03  0.81998005833E+02 0.  0.
         13    1    3    3    0    0 -0.49397648802E+03 -0.73439572024E+03  0.74227615092E+03  0.11551293126E+04  0.00000000000E+00 0. -1.
        -14    1    3    3    0    0 -0.36725379980E+02 -0.10333004571E+03  0.10022976426E+03  0.14856600393E+03  0.00000000000E+00 0.  1.
         13    1    5    5    0    0  0.23696142384E+02  0.88102455403E+02  0.38717029272E+02  0.99108819827E+02  0.00000000000E+00 0. -1.
        -14    1    5    5    0    0  0.18285930365E+03  0.55319016834E+03  0.26187691841E+02  0.58321752587E+03  0.00000000000E+00 0.  1.
          4    1    6    6  502    0  0.12012230247E+03  0.11226419659E+03  0.14924830269E+03  0.22205331172E+03  0.00000000000E+00 0. -1.
         -3    1    6    6    0  502  0.20402411949E+03  0.84168945613E+02  0.27761658689E+03  0.35465648458E+03  0.00000000000E+00 0.  1.
<mgrwt>
<rscale>  0 0.10268579E+04</rscale>
<asrwt>0</asrwt>
<pdfrwt beam="1">  1        1 0.29976976E+00 0.10268579E+04</pdfrwt>
<pdfrwt beam="2">  1       -2 0.94496611E-01 0.10268579E+04</pdfrwt>
<totfact> 0.26814076E+00</totfact>
</mgrwt>
</event>
<event>
12    3  0.2422421E-007  0.1730463E+04  0.7818608E-02  0.8744179E-01
         -2   -1    0    0    0  501 -0.00000000000E+00  0.00000000000E+00  0.19841260776E+04  0.19841260776E+04  0.00000000000E+00 0.  1.
          1   -1    0    0  501    0  0.00000000000E+00 -0.00000000000E+00 -0.15933461205E+04  0.15933461205E+04  0.00000000000E+00 0. -1.
        -24    2    1    2    0    0  0.91950084891E+03 -0.14598893393E+04  0.12938178401E+03  0.17322121101E+04  0.84026507914E+02 0.  0.
    5000000    2    1    2    0    0 -0.91950084891E+03  0.14598893393E+04  0.26139817305E+03  0.18452600881E+04  0.59991423848E+03 0.  0.
        -24    2    4    4    0    0 -0.37125174758E+03  0.72691701375E+03  0.40748234290E+03  0.91495998909E+03  0.69812011176E+02 0.  0.
         24    2    4    4    0    0 -0.54824910132E+03  0.73297232558E+03 -0.14608416985E+03  0.93030009898E+03  0.79323277261E+02 0.  0.
         11    1    5    5    0    0 -0.17402130338E+03  0.30954075727E+03  0.21258423551E+03  0.41387311054E+03  0.00000000000E+00 0. -1.
        -12    1    5    5    0    0 -0.19723044420E+03  0.41737625648E+03  0.19489810739E+03  0.50108687855E+03  0.00000000000E+00 0.  1.
         13    1    3    3    0    0  0.32182486384E+03 -0.46762964542E+03  0.10477160328E+02  0.56776623636E+03  0.00000000000E+00 0. -1.
        -14    1    3    3    0    0  0.59767598507E+03 -0.99225969391E+03  0.11890462368E+03  0.11644458737E+04  0.00000000000E+00 0.  1.
          4    1    6    6  502    0 -0.48878733752E+03  0.61088031461E+03 -0.11250465521E+03  0.79040819678E+03  0.00000000000E+00 0. -1.
         -1    1    6    6    0  502 -0.59461763803E+02  0.12209201097E+03 -0.33579514633E+02  0.13989190220E+03  0.00000000000E+00 0.  1.
<mgrwt>
<rscale>  0 0.17304628E+04</rscale>
<asrwt>0</asrwt>
<pdfrwt beam="1">  1        1 0.24513017E+00 0.17304628E+04</pdfrwt>
<pdfrwt beam="2">  1       -2 0.30525016E+00 0.17304628E+04</pdfrwt>
<totfact> 0.13412553E-01</totfact>
</mgrwt>
</event>
<event>
12    3  0.2422421E-007  0.7349980E+03  0.7818608E-02  0.9659185E-01
         -2   -1    0    0    0  501 -0.00000000000E+00  0.00000000000E+00  0.31532090321E+03  0.31532090321E+03  0.00000000000E+00 0.  1.
          1   -1    0    0  501    0  0.00000000000E+00 -0.00000000000E+00 -0.19260301956E+04  0.19260301956E+04  0.00000000000E+00 0. -1.
        -24    2    1    2    0    0  0.61816361475E+03  0.21477796286E+03 -0.55389800138E+03  0.86108651594E+03  0.80069745078E+02 0.  0.
    5000000    2    1    2    0    0 -0.61816361475E+03 -0.21477796286E+03 -0.10568112910E+04  0.13802645828E+04  0.60002032126E+03 0.  0.
        -24    2    4    4    0    0 -0.10414764807E+03 -0.26808016930E+03 -0.65674077953E+03  0.72198525755E+03  0.85091426511E+02 0.  0.
         24    2    4    4    0    0 -0.51401596669E+03  0.53302206437E+02 -0.40007051145E+03  0.65827932527E+03  0.78877859518E+02 0.  0.
         11    1    5    5    0    0 -0.21283920313E+02 -0.87379215925E+02 -0.30467942440E+03  0.31767543860E+03  0.00000000000E+00 0. -1.
        -12    1    5    5    0    0 -0.82863727754E+02 -0.18070095337E+03 -0.35206135513E+03  0.40430981895E+03  0.00000000000E+00 0.  1.
         11    1    3    3    0    0  0.32593976199E+03  0.15341041031E+03 -0.31877698559E+03  0.48103040339E+03  0.00000000000E+00 0. -1.
        -12    1    3    3    0    0  0.29222385276E+03  0.61367552543E+02 -0.23512101579E+03  0.38005611256E+03  0.00000000000E+00 0.  1.
          2    1    6    6  502    0 -0.29173692609E+03  0.68373317988E+02 -0.24091980140E+03  0.38448367373E+03  0.00000000000E+00 0. -1.
         -3    1    6    6    0  502 -0.22227904060E+03 -0.15071111551E+02 -0.15915071005E+03  0.27379565154E+03  0.00000000000E+00 0.  1.
<mgrwt>
<rscale>  0 0.73499799E+03</rscale>
<asrwt>0</asrwt>
<pdfrwt beam="1">  1        1 0.29631234E+00 0.73499799E+03</pdfrwt>
<pdfrwt beam="2">  1       -2 0.48510908E-01 0.73499799E+03</pdfrwt>
<totfact> 0.12310889E+01</totfact>
</mgrwt>
</event>
<event>
12    3  0.2422421E-007  0.1080973E+04  0.7818608E-02  0.9223938E-01
         -2   -1    0    0    0  501 -0.00000000000E+00  0.00000000000E+00  0.16329632724E+04  0.16329632724E+04  0.00000000000E+00 0.  1.
          1   -1    0    0  501    0  0.00000000000E+00 -0.00000000000E+00 -0.94897058801E+03  0.94897058801E+03  0.00000000000E+00 0. -1.
        -24    2    1    2    0    0  0.10298094102E+04 -0.29506939760E+03 -0.16824708271E+03  0.10873135974E+04  0.79814832188E+02 0.  0.
    5000000    2    1    2    0    0 -0.10298094102E+04  0.29506939760E+03  0.85223976711E+03  0.14946202630E+04  0.60000311596E+03 0.  0.
        -24    2    4    4    0    0 -0.10025854444E+04  0.31645923353E+03  0.90820211727E+03  0.13917557424E+04  0.82637406746E+02 0.  0.
         24    2    4    4    0    0 -0.27223965879E+02 -0.21389835929E+02 -0.55962350157E+02  0.10286452061E+03  0.79061087558E+02 0.  0.
         11    1    5    5    0    0 -0.11718299911E+03  0.12708424733E+02  0.86483898387E+02  0.14619447328E+03  0.00000000000E+00 0. -1.
        -12    1    5    5    0    0 -0.88540244526E+03  0.30375080879E+03  0.82171821888E+03  0.12455612691E+04  0.00000000000E+00 0.  1.
         13    1    3    3    0    0  0.44872753140E+03 -0.12521091107E+03 -0.33308878246E+02  0.46705850925E+03  0.00000000000E+00 0. -1.
        -14    1    3    3    0    0  0.58108187884E+03 -0.16985848653E+03 -0.13493820446E+03  0.62025508816E+03  0.00000000000E+00 0.  1.
          2    1    6    6  502    0 -0.21726444769E+02 -0.96213092727E+01  0.16704662100E+02  0.29045717934E+02  0.00000000000E+00 0. -1.
         -1    1    6    6    0  502 -0.54975211090E+01 -0.11768526656E+02 -0.72667012257E+02  0.73818802675E+02  0.00000000000E+00 0.  1.
<mgrwt>
<rscale>  0 0.10809729E+04</rscale>
<asrwt>0</asrwt>
<pdfrwt beam="1">  1        1 0.14599548E+00 0.10809729E+04</pdfrwt>
<pdfrwt beam="2">  1       -2 0.25122512E+00 0.10809729E+04</pdfrwt>
<totfact> 0.91134189E-01</totfact>
</mgrwt>
</event>
<event>
12    3  0.2422421E-007  0.1130316E+04  0.7818608E-02  0.9176137E-01
         -2   -1    0    0    0  501 -0.00000000000E+00  0.00000000000E+00  0.44481160545E+03  0.44481160545E+03  0.00000000000E+00 0.  1.
          1   -1    0    0  501    0  0.00000000000E+00 -0.00000000000E+00 -0.30087719061E+04  0.30087719061E+04  0.00000000000E+00 0. -1.
        -24    2    1    2    0    0 -0.74759965161E+03  0.77595426447E+03 -0.12091266821E+04  0.16214891875E+04  0.78927766075E+02 0.  0.
    5000000    2    1    2    0    0  0.74759965161E+03 -0.77595426447E+03 -0.13548336186E+04  0.18320943241E+04  0.59998768205E+03 0.  0.
        -24    2    4    4    0    0  0.21279274712E+02 -0.31584656112E+03 -0.60200802957E+03  0.68658256571E+03  0.93648780942E+02 0.  0.
         24    2    4    4    0    0  0.72632037689E+03 -0.46010770334E+03 -0.75282558900E+03  0.11455117583E+04  0.78806297235E+02 0.  0.
         11    1    3    3    0    0 -0.20257759423E+03  0.24969111248E+03 -0.39614878440E+03  0.51021288961E+03  0.00000000000E+00 0. -1.
        -12    1    3    3    0    0 -0.54502205738E+03  0.52626315198E+03 -0.81297789770E+03  0.11112762979E+04  0.00000000000E+00 0.  1.
         13    1    5    5    0    0 -0.82437398741E+01 -0.15517545192E+03 -0.38327958293E+03  0.41358266262E+03  0.00000000000E+00 0. -1.
        -14    1    5    5    0    0  0.29523014586E+02 -0.16067110920E+03 -0.21872844663E+03  0.27299990309E+03  0.00000000000E+00 0.  1.
          4    1    6    6  502    0  0.55084274827E+03 -0.31184436306E+03 -0.53199585064E+03  0.82685804416E+03  0.00000000000E+00 0. -1.
         -3    1    6    6    0  502  0.17547762863E+03 -0.14826334028E+03 -0.22082973837E+03  0.31865371419E+03  0.00000000000E+00 0.  1.
<mgrwt>
<rscale>  0 0.11303164E+04</rscale>
<asrwt>0</asrwt>
<pdfrwt beam="1">  1        1 0.46288796E+00 0.11303164E+04</pdfrwt>
<pdfrwt beam="2">  1       -2 0.68432559E-01 0.11303164E+04</pdfrwt>
<totfact> 0.10161939E+00</totfact>
</mgrwt>
</event>
<event>
12    3  0.2422421E-007  0.8518606E+03  0.7818608E-02  0.9487843E-01
          1   -1    0    0  501    0  0.00000000000E+00  0.00000000000E+00  0.28599631697E+04  0.28599631697E+04  0.00000000000E+00 0. -1.
         -2   -1    0    0    0  501 -0.00000000000E+00 -0.00000000000E+00 -0.36670227172E+03  0.36670227172E+03  0.00000000000E+00 0.  1.
        -24    2    1    2    0    0 -0.44341507406E+03  0.60187944023E+03  0.20245847505E+04  0.21596456832E+04  0.79058690521E+02 0.  0.
    5000000    2    1    2    0    0  0.44341507406E+03 -0.60187944023E+03  0.46867614747E+03  0.10670197582E+04  0.59999837061E+03 0.  0.
        -24    2    4    4    0    0  0.37329028337E+03 -0.70957615073E+03  0.39518866971E+03  0.89721155960E+03  0.77269325613E+02 0.  0.
         24    2    4    4    0    0  0.70124790696E+02  0.10769671050E+03  0.73487477760E+02  0.16980819861E+03  0.83176602497E+02 0.  0.
         11    1    5    5    0    0  0.30998276469E+03 -0.62303609735E+03  0.31807309467E+03  0.76513644963E+03  0.00000000000E+00 0. -1.
        -12    1    5    5    0    0  0.63307518676E+02 -0.86540053381E+02  0.77115575040E+02  0.13207510997E+03  0.00000000000E+00 0.  1.
         13    1    3    3    0    0 -0.10986278153E+03  0.14791976064E+03  0.40662643102E+03  0.44642484335E+03  0.00000000000E+00 0. -1.
        -14    1    3    3    0    0 -0.33355229253E+03  0.45395967959E+03  0.16179583195E+04  0.17132208398E+04  0.00000000000E+00 0.  1.
          4    1    6    6  502    0  0.12467672815E+02  0.92584541018E+02  0.47138302299E+02  0.10463918790E+03  0.00000000000E+00 0. -1.
         -3    1    6    6    0  502  0.57657117881E+02  0.15112169487E+02  0.26349175461E+02  0.65169010707E+02  0.00000000000E+00 0.  1.
<mgrwt>
<rscale>  0 0.85186060E+03</rscale>
<asrwt>0</asrwt>
<pdfrwt beam="1">  1        1 0.43999432E+00 0.85186060E+03</pdfrwt>
<pdfrwt beam="2">  1       -2 0.56415736E-01 0.85186060E+03</pdfrwt>
<totfact> 0.20456256E+00</totfact>
</mgrwt>
</event>
<event>
12    3  0.2422421E-007  0.7409771E+03  0.7818608E-02  0.9649613E-01
         -2   -1    0    0    0  501 -0.00000000000E+00  0.00000000000E+00  0.33084237790E+03  0.33084237790E+03  0.00000000000E+00 0.  1.
          1   -1    0    0  501    0  0.00000000000E+00 -0.00000000000E+00 -0.20341455932E+04  0.20341455932E+04  0.00000000000E+00 0. -1.
        -24    2    1    2    0    0 -0.42156237312E+03 -0.55890010956E+03 -0.89334742997E+03  0.11376487046E+04  0.78043433782E+02 0.  0.
    5000000    2    1    2    0    0  0.42156237312E+03  0.55890010956E+03 -0.80995578536E+03  0.12273392665E+04  0.60020757577E+03 0.  0.
        -24    2    4    4    0    0  0.20809458372E+03  0.50060089858E+02  0.18517626737E+02  0.22868378324E+03  0.78383683545E+02 0.  0.
         24    2    4    4    0    0  0.21346778940E+03  0.50884001970E+03 -0.82847341210E+03  0.99865548328E+03  0.80361165852E+02 0.  0.
         11    1    3    3    0    0 -0.38580845009E+03 -0.46701232263E+03 -0.77221135130E+03  0.98145761026E+03  0.00000000000E+00 0. -1.
        -12    1    3    3    0    0 -0.35753923032E+02 -0.91887786925E+02 -0.12113607867E+03  0.15619109435E+03  0.00000000000E+00 0.  1.
         13    1    5    5    0    0  0.14097933577E+03  0.67370149983E+02  0.27961755970E+02  0.15873175492E+03  0.00000000000E+00 0. -1.
        -14    1    5    5    0    0  0.67115247957E+02 -0.17310060125E+02 -0.94441292327E+01  0.69952028325E+02  0.00000000000E+00 0.  1.
          4    1    6    6  502    0  0.49977186378E+02  0.13722873596E+03 -0.28548333735E+03  0.32067145342E+03  0.00000000000E+00 0. -1.
         -3    1    6    6    0  502  0.16349060302E+03  0.37161128374E+03 -0.54299007475E+03  0.67798402987E+03  0.00000000000E+00 0.  1.
<mgrwt>
<rscale>  0 0.74097705E+03</rscale>
<asrwt>0</asrwt>
<pdfrwt beam="1">  1        1 0.31294548E+00 0.74097705E+03</pdfrwt>
<pdfrwt beam="2">  1       -2 0.50898827E-01 0.74097705E+03</pdfrwt>
<totfact> 0.94462347E+00</totfact>
</mgrwt>
</event>
<event>
12    3  0.3777653E-007  0.8693576E+03  0.7818608E-02  0.9464718E-01
          1   -1    0    0  501    0  0.00000000000E+00  0.00000000000E+00  0.86709030631E+03  0.86709030631E+03  0.00000000000E+00 0. -1.
         -2   -1    0    0    0  501 -0.00000000000E+00 -0.00000000000E+00 -0.98155840009E+03  0.98155840009E+03  0.00000000000E+00 0.  1.
        -24    2    1    2    0    0 -0.51244095161E+03 -0.64174350050E+03  0.89403413436E+00  0.82501217182E+03  0.78827882395E+02 0.  0.
    5000000    2    1    2    0    0  0.51244095161E+03  0.64174350050E+03 -0.11536212792E+03  0.10236365346E+04  0.60007739920E+03 0.  0.
        -24    2    4    4    0    0 -0.36731900295E+02  0.20697781420E+03 -0.21871950016E+03  0.31099068510E+03  0.68468521227E+02 0.  0.
         24    2    4    4    0    0  0.54917285191E+03  0.43476568629E+03  0.10335737224E+03  0.71264584947E+03  0.81051447336E+02 0.  0.
         13    1    3    3    0    0 -0.29552433777E+03 -0.32412229087E+03 -0.26429844955E+02  0.43941828633E+03  0.00000000000E+00 0. -1.
        -14    1    3    3    0    0 -0.21691661384E+03 -0.31762120962E+03  0.27323879090E+02  0.38559388549E+03  0.00000000000E+00 0.  1.
         13    1    5    5    0    0 -0.26958712969E+00  0.14159190066E+02 -0.50734834890E+02  0.52674270872E+02  0.00000000000E+00 0. -1.
        -14    1    5    5    0    0 -0.36462313166E+02  0.19281862414E+03 -0.16798466527E+03  0.25831641423E+03  0.00000000000E+00 0.  1.
          2    1    6    6  502    0  0.26562935310E+03  0.15921645059E+03  0.49198945453E+02  0.31357513869E+03  0.00000000000E+00 0. -1.
         -1    1    6    6    0  502  0.28354349880E+03  0.27554923570E+03  0.54158426790E+02  0.39907071078E+03  0.00000000000E+00 0.  1.
<mgrwt>
<rscale>  0 0.86935755E+03</rscale>
<asrwt>0</asrwt>
<pdfrwt beam="1">  1        1 0.13339851E+00 0.86935755E+03</pdfrwt>
<pdfrwt beam="2">  1       -2 0.15100898E+00 0.86935755E+03</pdfrwt>
<totfact> 0.50456543E+00</totfact>
</mgrwt>
</event>
<event>
12    3  0.2422421E-007  0.8856365E+03  0.7818608E-02  0.9443717E-01
         -2   -1    0    0    0  501 -0.00000000000E+00  0.00000000000E+00  0.11981041590E+04  0.11981041590E+04  0.00000000000E+00 0.  1.
          1   -1    0    0  501    0  0.00000000000E+00 -0.00000000000E+00 -0.87644865640E+03  0.87644865640E+03  0.00000000000E+00 0. -1.
        -24    2    1    2    0    0  0.81265340882E+03 -0.12914655339E+03  0.59682290898E+03  0.10196463765E+04  0.79979705374E+02 0.  0.
    5000000    2    1    2    0    0 -0.81265340882E+03  0.12914655339E+03 -0.27516740635E+03  0.10549064389E+04  0.60002174817E+03 0.  0.
        -24    2    4    4    0    0 -0.85835816479E+03  0.13890722485E+03 -0.13016640780E+03  0.88273907901E+03  0.78810099089E+02 0.  0.
         24    2    4    4    0    0  0.45704755966E+02 -0.97606714518E+01 -0.14500099855E+03  0.17216735993E+03  0.80200466460E+02 0.  0.
         11    1    3    3    0    0  0.15550006350E+03 -0.14621225383E+01  0.13948947545E+03  0.20890122382E+03  0.00000000000E+00 0. -1.
        -12    1    3    3    0    0  0.65715334532E+03 -0.12768443086E+03  0.45733343353E+03  0.81074515267E+03  0.00000000000E+00 0.  1.
         11    1    5    5    0    0 -0.90048484263E+02 -0.95190828804E+01 -0.11513499707E+02  0.91279259048E+02  0.00000000000E+00 0. -1.
        -12    1    5    5    0    0 -0.76830968053E+03  0.14842630773E+03 -0.11865290810E+03  0.79145981996E+03  0.00000000000E+00 0.  1.
          2    1    6    6  502    0 -0.13118250983E+02  0.20020470424E+01 -0.89385629999E+02  0.90365300595E+02  0.00000000000E+00 0. -1.
         -1    1    6    6    0  502  0.58823006949E+02 -0.11762718494E+02 -0.55615368552E+02  0.81802059339E+02  0.00000000000E+00 0.  1.
<mgrwt>
<rscale>  0 0.88563653E+03</rscale>
<asrwt>0</asrwt>
<pdfrwt beam="1">  1        1 0.13483826E+00 0.88563653E+03</pdfrwt>
<pdfrwt beam="2">  1       -2 0.18432372E+00 0.88563653E+03</pdfrwt>
<totfact> 0.28507028E+00</totfact>
</mgrwt>
</event>
<event>
12    3  0.2422421E-007  0.4730293E+03  0.7818608E-02  0.1021069E+00
          1   -1    0    0  501    0  0.00000000000E+00  0.00000000000E+00  0.17615524744E+04  0.17615524744E+04  0.00000000000E+00 0. -1.
         -2   -1    0    0    0  501 -0.00000000000E+00 -0.00000000000E+00 -0.35884547725E+03  0.35884547725E+03  0.00000000000E+00 0.  1.
        -24    2    1    2    0    0  0.19747837475E+03 -0.32361982680E+03  0.13545907574E+04  0.14088861953E+04  0.79477609297E+02 0.  0.
    5000000    2    1    2    0    0 -0.19747837475E+03  0.32361982680E+03  0.48116239742E+02  0.71151175638E+03  0.60017189717E+03 0.  0.
        -24    2    4    4    0    0 -0.30465861948E+03  0.19251781106E+03  0.23634779940E+03  0.43846897196E+03  0.80714156663E+02 0.  0.
         24    2    4    4    0    0  0.10718024474E+03  0.13110201573E+03 -0.18823155966E+03  0.27304278442E+03  0.10220517934E+03 0.  0.
         11    1    3    3    0    0  0.45570605002E+02 -0.14848065883E+03  0.52142050360E+03  0.54406114331E+03  0.00000000000E+00 0. -1.
        -12    1    3    3    0    0  0.15190776975E+03 -0.17513916796E+03  0.83317025379E+03  0.86482505194E+03  0.00000000000E+00 0.  1.
         13    1    5    5    0    0 -0.68873297871E+02  0.81898612807E+02  0.89331325949E+02  0.13939512092E+03  0.00000000000E+00 0. -1.
        -14    1    5    5    0    0 -0.23578532161E+03  0.11061919826E+03  0.14701647345E+03  0.29907385104E+03  0.00000000000E+00 0.  1.
          2    1    6    6  502    0 -0.11694842580E+02  0.40014302256E+02 -0.15618195959E+02  0.44517881498E+02  0.00000000000E+00 0. -1.
         -1    1    6    6    0  502  0.11887508732E+03  0.91087713477E+02 -0.17261336370E+03  0.22852490293E+03  0.00000000000E+00 0.  1.
<mgrwt>
<rscale>  0 0.47302930E+03</rscale>
<asrwt>0</asrwt>
<pdfrwt beam="1">  1        1 0.27100807E+00 0.47302930E+03</pdfrwt>
<pdfrwt beam="2">  1       -2 0.55206997E-01 0.47302930E+03</pdfrwt>
<totfact> 0.12742417E+01</totfact>
</mgrwt>
</event>
<event>
12    3  0.2422421E-007  0.7811455E+03  0.7818608E-02  0.9587716E-01
         -2   -1    0    0    0  501 -0.00000000000E+00  0.00000000000E+00  0.64740858468E+03  0.64740858468E+03  0.00000000000E+00 0.  1.
          1   -1    0    0  501    0  0.00000000000E+00 -0.00000000000E+00 -0.12544142759E+04  0.12544142759E+04  0.00000000000E+00 0. -1.
        -24    2    1    2    0    0  0.14254013778E+03  0.65813554027E+03  0.18219439155E+03  0.70370957529E+03  0.92478591039E+02 0.  0.
    5000000    2    1    2    0    0 -0.14254013778E+03 -0.65813554027E+03 -0.78920008279E+03  0.11981132853E+04  0.59931510369E+03 0.  0.
        -24    2    4    4    0    0 -0.32717434892E+03 -0.18171743560E+03 -0.32018420430E+03  0.49987717137E+03  0.85410659641E+02 0.  0.
         24    2    4    4    0    0  0.18463421114E+03 -0.47641810466E+03 -0.46901587849E+03  0.69823611393E+03  0.80583957197E+02 0.  0.
         13    1    3    3    0    0  0.29396204630E+02  0.10413284431E+03  0.65092060615E+02  0.12627257210E+03  0.00000000000E+00 0. -1.
        -14    1    3    3    0    0  0.11314393315E+03  0.55400269596E+03  0.11710233093E+03  0.57743700319E+03  0.00000000000E+00 0.  1.
         13    1    5    5    0    0 -0.21092323966E+03 -0.13089911400E+03 -0.15918372335E+03  0.29489430115E+03  0.00000000000E+00 0. -1.
        -14    1    5    5    0    0 -0.11625110926E+03 -0.50818321608E+02 -0.16100048096E+03  0.20498287022E+03  0.00000000000E+00 0.  1.
          4    1    6    6  502    0  0.16036331072E+03 -0.35248548486E+03 -0.31586663022E+03  0.49973406582E+03  0.00000000000E+00 0. -1.
         -3    1    6    6    0  502  0.24270900415E+02 -0.12393261981E+03 -0.15314924826E+03  0.19850204811E+03  0.00000000000E+00 0.  1.
<mgrwt>
<rscale>  0 0.78114549E+03</rscale>
<asrwt>0</asrwt>
<pdfrwt beam="1">  1        1 0.19298681E+00 0.78114549E+03</pdfrwt>
<pdfrwt beam="2">  1       -2 0.99601322E-01 0.78114549E+03</pdfrwt>
<totfact> 0.73071238E+00</totfact>
</mgrwt>
</event>
<event>
12    3  0.2422421E-007  0.1691481E+04  0.7818608E-02  0.8766238E-01
          1   -1    0    0  501    0  0.00000000000E+00  0.00000000000E+00  0.23012232385E+04  0.23012232385E+04  0.00000000000E+00 0. -1.
         -2   -1    0    0    0  501 -0.00000000000E+00 -0.00000000000E+00 -0.13440763296E+04  0.13440763296E+04  0.00000000000E+00 0.  1.
        -24    2    1    2    0    0 -0.12071384692E+04  0.11117046200E+04  0.95008744512E+03  0.18979611856E+04  0.80746903604E+02 0.  0.
    5000000    2    1    2    0    0  0.12071384692E+04 -0.11117046200E+04  0.70594638394E+01  0.17473383825E+04  0.60005928124E+03 0.  0.
        -24    2    4    4    0    0  0.31437711748E+03 -0.92749644978E+01 -0.29304782304E+02  0.32573833046E+03  0.79546795668E+02 0.  0.
         24    2    4    4    0    0  0.89276135176E+03 -0.11024296555E+04  0.36364246143E+02  0.14216000521E+04  0.85149122966E+02 0.  0.
         11    1    3    3    0    0 -0.73958026582E+03  0.65996401943E+03  0.53162669132E+03  0.11247926100E+04  0.00000000000E+00 0. -1.
        -12    1    3    3    0    0 -0.46755820342E+03  0.45174060058E+03  0.41846075380E+03  0.77316857558E+03  0.00000000000E+00 0.  1.
         11    1    5    5    0    0  0.91065020470E+02  0.25583203062E+02  0.13970025462E+02  0.95616420365E+02  0.00000000000E+00 0. -1.
        -12    1    5    5    0    0  0.22331209701E+03 -0.34858167560E+02 -0.43274807765E+02  0.23012191009E+03  0.00000000000E+00 0.  1.
          4    1    6    6  502    0  0.21503345431E+03 -0.32409721483E+03  0.90560713439E+00  0.38894628326E+03  0.00000000000E+00 0. -1.
         -3    1    6    6    0  502  0.67772789745E+03 -0.77833244068E+03  0.35458639009E+02  0.10326537688E+04  0.00000000000E+00 0.  1.
<mgrwt>
<rscale>  0 0.16914813E+04</rscale>
<asrwt>0</asrwt>
<pdfrwt beam="1">  1        1 0.35403434E+00 0.16914813E+04</pdfrwt>
<pdfrwt beam="2">  1       -2 0.20678097E+00 0.16914813E+04</pdfrwt>
<totfact> 0.18045092E-01</totfact>
</mgrwt>
</event>
<event>
12    3  0.2422421E-007  0.2408099E+03  0.7818608E-02  0.1119254E+00
         -2   -1    0    0    0  501 -0.00000000000E+00  0.00000000000E+00  0.20322986197E+03  0.20322986197E+03  0.00000000000E+00 0.  1.
          1   -1    0    0  501    0  0.00000000000E+00 -0.00000000000E+00 -0.10672649454E+04  0.10672649454E+04  0.00000000000E+00 0. -1.
        -24    2    1    2    0    0  0.91276322568E+02  0.13488724920E+03  0.27890082349E+02  0.18329182431E+03  0.79322752765E+02 0.  0.
    5000000    2    1    2    0    0 -0.91276322568E+02 -0.13488724920E+03 -0.89192516582E+03  0.10872029831E+04  0.59996157210E+03 0.  0.
        -24    2    4    4    0    0  0.62927774043E+02 -0.37282290483E+01 -0.86166756349E+03  0.86751807401E+03  0.78376108066E+02 0.  0.
         24    2    4    4    0    0 -0.15420409661E+03 -0.13115902015E+03 -0.30257602326E+02  0.21968490910E+03  0.79776843809E+02 0.  0.
         11    1    3    3    0    0 -0.52604037787E+01  0.20864585414E+02 -0.16856844684E+02  0.27334154187E+02  0.00000000000E+00 0. -1.
        -12    1    3    3    0    0  0.96536726347E+02  0.11402266378E+03  0.44746927032E+02  0.15595767012E+03  0.00000000000E+00 0.  1.
         13    1    5    5    0    0  0.59173467473E+01 -0.30093002614E+02 -0.45456416423E+03  0.45559761106E+03  0.00000000000E+00 0. -1.
        -14    1    5    5    0    0  0.57010427296E+02  0.26364773566E+02 -0.40710339926E+03  0.41192046295E+03  0.00000000000E+00 0.  1.
          4    1    6    6  502    0 -0.13490349874E+02  0.10843711403E+02 -0.59368358101E+01  0.18298132040E+02  0.00000000000E+00 0. -1.
         -3    1    6    6    0  502 -0.14071374674E+03 -0.14200273155E+03 -0.24320766516E+02  0.20138677706E+03  0.00000000000E+00 0.  1.
<mgrwt>
<rscale>  0 0.24080994E+03</rscale>
<asrwt>0</asrwt>
<pdfrwt beam="1">  1        1 0.16419461E+00 0.24080994E+03</pdfrwt>
<pdfrwt beam="2">  1       -2 0.31266132E-01 0.24080994E+03</pdfrwt>
<totfact> 0.12076855E+02</totfact>
</mgrwt>
</event>
<event>
12    3  0.2422421E-007  0.3368380E+03  0.7818608E-02  0.1068151E+00
         -2   -1    0    0    0  501 -0.00000000000E+00  0.00000000000E+00  0.93107816068E+02  0.93107816068E+02  0.00000000000E+00 0.  1.
          1   -1    0    0  501    0  0.00000000000E+00 -0.00000000000E+00 -0.28008372191E+04  0.28008372191E+04  0.00000000000E+00 0. -1.
        -24    2    1    2    0    0 -0.81202295634E+02 -0.27548426507E+03 -0.13439757654E+04  0.13765908801E+04  0.79032906576E+02 0.  0.
    5000000    2    1    2    0    0  0.81202295634E+02  0.27548426507E+03 -0.13637536376E+04  0.15173541550E+04  0.60004521026E+03 0.  0.
        -24    2    4    4    0    0  0.14263610315E+03  0.10827304526E+03 -0.12953063740E+04  0.13105737044E+04  0.87844874334E+02 0.  0.
         24    2    4    4    0    0 -0.61433807514E+02  0.16721121981E+03 -0.68447263688E+02  0.20678045061E+03  0.79620488023E+02 0.  0.
         11    1    5    5    0    0  0.12422830734E+03  0.54180151956E+02 -0.10494319654E+04  0.10581472540E+04  0.00000000000E+00 0. -1.
        -12    1    5    5    0    0  0.18407795811E+02  0.54092893302E+02 -0.24587440856E+03  0.25242645036E+03  0.00000000000E+00 0.  1.
         11    1    3    3    0    0 -0.52079509318E+02 -0.20421414863E+03 -0.80439120668E+03  0.83154128411E+03  0.00000000000E+00 0. -1.
        -12    1    3    3    0    0 -0.29122786316E+02 -0.71270116433E+02 -0.53958455867E+03  0.54504959603E+03  0.00000000000E+00 0.  1.
          4    1    6    6  502    0 -0.38177267268E+02  0.17918239825E+02 -0.27107283265E+02  0.50133540274E+02  0.00000000000E+00 0. -1.
         -3    1    6    6    0  502 -0.23256540247E+02  0.14929297998E+03 -0.41339980423E+02  0.15664691034E+03  0.00000000000E+00 0.  1.
<mgrwt>
<rscale>  0 0.33683800E+03</rscale>
<asrwt>0</asrwt>
<pdfrwt beam="1">  1        1 0.43089802E+00 0.33683800E+03</pdfrwt>
<pdfrwt beam="2">  1       -2 0.14324280E-01 0.33683800E+03</pdfrwt>
<totfact> 0.31688564E+01</totfact>
</mgrwt>
</event>
<event>
12    3  0.2422421E-007  0.4912935E+03  0.7818608E-02  0.1016077E+00
         -2   -1    0    0    0  501 -0.00000000000E+00  0.00000000000E+00  0.28732155325E+03  0.28732155325E+03  0.00000000000E+00 0.  1.
          1   -1    0    0  501    0  0.00000000000E+00 -0.00000000000E+00 -0.21413346431E+04  0.21413346431E+04  0.00000000000E+00 0. -1.
        -24    2    1    2    0    0  0.40717593879E+03 -0.22735997031E+03 -0.15318003705E+04  0.16031424134E+04  0.78539299469E+02 0.  0.
    5000000    2    1    2    0    0 -0.40717593879E+03  0.22735997031E+03 -0.32221271935E+03  0.82551378288E+03  0.60013929048E+03 0.  0.
        -24    2    4    4    0    0 -0.30831178900E+03  0.22200431758E+03  0.86153050143E+02  0.39769918085E+03  0.80001338353E+02 0.  0.
         24    2    4    4    0    0 -0.98864149792E+02  0.53556527363E+01 -0.40836576949E+03  0.42781460203E+03  0.80373682822E+02 0.  0.
         11    1    3    3    0    0  0.10775725750E+03 -0.82587850324E+02 -0.34912867477E+03  0.37459739870E+03  0.00000000000E+00 0. -1.
        -12    1    3    3    0    0  0.29941868130E+03 -0.14477211999E+03 -0.11826716957E+04  0.12285450147E+04  0.00000000000E+00 0.  1.
         13    1    5    5    0    0 -0.42782267995E+02  0.31640999680E+01  0.19900990480E+02  0.47290415578E+02  0.00000000000E+00 0. -1.
        -14    1    5    5    0    0 -0.26552952101E+03  0.21884021761E+03  0.66252059663E+02  0.35040876527E+03  0.00000000000E+00 0.  1.
          4    1    6    6  502    0 -0.13313788275E+01  0.27257659662E+02 -0.99584500102E+02  0.10325611478E+03  0.00000000000E+00 0. -1.
         -3    1    6    6    0  502 -0.97532770965E+02 -0.21902006926E+02 -0.30878126939E+03  0.32455848725E+03  0.00000000000E+00 0.  1.
<mgrwt>
<rscale>  0 0.49129353E+03</rscale>
<asrwt>0</asrwt>
<pdfrwt beam="1">  1        1 0.32943610E+00 0.49129353E+03</pdfrwt>
<pdfrwt beam="2">  1       -2 0.44203316E-01 0.49129353E+03</pdfrwt>
<totfact> 0.11144312E+01</totfact>
</mgrwt>
</event>
<event>
12    3  0.2422421E-007  0.6434220E+03  0.7818608E-02  0.9819201E-01
         -2   -1    0    0    0  501 -0.00000000000E+00  0.00000000000E+00  0.25346801214E+03  0.25346801214E+03  0.00000000000E+00 0.  1.
          1   -1    0    0  501    0  0.00000000000E+00 -0.00000000000E+00 -0.23409451939E+04  0.23409451939E+04  0.00000000000E+00 0. -1.
        -24    2    1    2    0    0 -0.71008711214E+02 -0.51132595634E+03 -0.22103798460E+03  0.56710703557E+03  0.79095691783E+02 0.  0.
    5000000    2    1    2    0    0  0.71008711214E+02  0.51132595634E+03 -0.18664391972E+04  0.20273061705E+04  0.59989879272E+03 0.  0.
        -24    2    4    4    0    0 -0.10643616097E+03 -0.85909224449E+02 -0.46917529138E+03  0.49532624131E+03  0.80706753638E+02 0.  0.
         24    2    4    4    0    0  0.17744487218E+03  0.59723518079E+03 -0.13972639058E+04  0.15319799292E+04  0.80246726868E+02 0.  0.
         11    1    3    3    0    0 -0.78534080217E+02 -0.41104473918E+03 -0.20230202098E+03  0.46481338950E+03  0.00000000000E+00 0. -1.
        -12    1    3    3    0    0  0.75253690030E+01 -0.10028121716E+03 -0.18735963622E+02  0.10229364607E+03  0.00000000000E+00 0.  1.
         13    1    5    5    0    0 -0.76415853038E+02 -0.77264209167E+02 -0.43766562056E+03  0.45095491574E+03  0.00000000000E+00 0. -1.
        -14    1    5    5    0    0 -0.30020307929E+02 -0.86450152815E+01 -0.31509670820E+02  0.44371325566E+02  0.00000000000E+00 0.  1.
          2    1    6    6  502    0  0.12815787503E+03  0.29460491797E+03 -0.73835034086E+03  0.80521905372E+03  0.00000000000E+00 0. -1.
         -1    1    6    6    0  502  0.49286997151E+02  0.30263026282E+03 -0.65891356496E+03  0.72676087550E+03  0.00000000000E+00 0.  1.
<mgrwt>
<rscale>  0 0.64342196E+03</rscale>
<asrwt>0</asrwt>
<pdfrwt beam="1">  1        1 0.36014543E+00 0.64342196E+03</pdfrwt>
<pdfrwt beam="2">  1       -2 0.38995077E-01 0.64342196E+03</pdfrwt>
<totfact> 0.10156096E+01</totfact>
</mgrwt>
</event>
<event>
12    3  0.2422421E-007  0.5742348E+03  0.7818608E-02  0.9960351E-01
         -2   -1    0    0    0  501 -0.00000000000E+00  0.00000000000E+00  0.57161109029E+03  0.57161109029E+03  0.00000000000E+00 0.  1.
          1   -1    0    0  501    0  0.00000000000E+00 -0.00000000000E+00 -0.66286765750E+03  0.66286765750E+03  0.00000000000E+00 0. -1.
        -24    2    1    2    0    0  0.36881053794E+03  0.24491452908E+03  0.11107845913E+03  0.46182857546E+03  0.70305544382E+02 0.  0.
    5000000    2    1    2    0    0 -0.36881053794E+03 -0.24491452908E+03 -0.20233502634E+03  0.77265017233E+03  0.60003707091E+03 0.  0.
        -24    2    4    4    0    0  0.11987591724E+03  0.24252736178E+02 -0.14625162274E+03  0.20650813975E+03  0.79357695781E+02 0.  0.
         24    2    4    4    0    0 -0.48868645518E+03 -0.26916726526E+03 -0.56083403601E+02  0.56614203258E+03  0.78140800688E+02 0.  0.
         11    1    3    3    0    0  0.14667169133E+03  0.11209384361E+03  0.79857345123E+02  0.20113381213E+03  0.00000000000E+00 0. -1.
        -12    1    3    3    0    0  0.22213884661E+03  0.13282068547E+03  0.31221114007E+02  0.26069476332E+03  0.00000000000E+00 0.  1.
         13    1    5    5    0    0  0.91789228265E+02  0.51666205700E+02 -0.11785726107E+03  0.15806642029E+03  0.00000000000E+00 0. -1.
        -14    1    5    5    0    0  0.28086688975E+02 -0.27413469521E+02 -0.28394361673E+02  0.48441719453E+02  0.00000000000E+00 0.  1.
          4    1    6    6  502    0 -0.39339605059E+03 -0.19145690925E+03 -0.19878875775E+02  0.43796275004E+03  0.00000000000E+00 0. -1.
         -3    1    6    6    0  502 -0.95290404593E+02 -0.77710356012E+02 -0.36204527825E+02  0.12817928255E+03  0.00000000000E+00 0.  1.
<mgrwt>
<rscale>  0 0.57423484E+03</rscale>
<asrwt>0</asrwt>
<pdfrwt beam="1">  1        1 0.10197964E+00 0.57423484E+03</pdfrwt>
<pdfrwt beam="2">  1       -2 0.87940168E-01 0.57423484E+03</pdfrwt>
<totfact> 0.29932453E+01</totfact>
</mgrwt>
</event>
<event>
12    3  0.2422421E-007  0.7030210E+03  0.7818608E-02  0.9712080E-01
         -2   -1    0    0    0  501 -0.00000000000E+00  0.00000000000E+00  0.23104284398E+04  0.23104284398E+04  0.00000000000E+00 0.  1.
          1   -1    0    0  501    0  0.00000000000E+00 -0.00000000000E+00 -0.41973940428E+03  0.41973940428E+03  0.00000000000E+00 0. -1.
        -24    2    1    2    0    0  0.43418812839E+03 -0.40991940037E+03 -0.58264347325E+02  0.60531476850E+03  0.80361614971E+02 0.  0.
    5000000    2    1    2    0    0 -0.43418812839E+03  0.40991940037E+03  0.19489533829E+04  0.21248530756E+04  0.60002338174E+03 0.  0.
        -24    2    4    4    0    0 -0.25613627970E+03  0.52319899773E+03  0.11098968666E+04  0.12560584919E+04  0.80429443725E+02 0.  0.
         24    2    4    4    0    0 -0.17805184869E+03 -0.11327959736E+03  0.83905651621E+03  0.86879458371E+03  0.79078842186E+02 0.  0.
         11    1    5    5    0    0 -0.14515422535E+03  0.20785635421E+03  0.46126547228E+03  0.52634575048E+03  0.00000000000E+00 0. -1.
        -12    1    5    5    0    0 -0.11098205435E+03  0.31534264352E+03  0.64863139436E+03  0.72971274140E+03  0.00000000000E+00 0.  1.
         13    1    3    3    0    0  0.11136097961E+03 -0.15551195005E+03 -0.11111141874E+02  0.19159512483E+03  0.00000000000E+00 0. -1.
        -14    1    3    3    0    0  0.32282714878E+03 -0.25440745033E+03 -0.47153205451E+02  0.41371964367E+03  0.00000000000E+00 0.  1.
          2    1    6    6  502    0 -0.31373709604E+02 -0.43120700645E+02  0.11582186116E+03  0.12750846247E+03  0.00000000000E+00 0. -1.
         -1    1    6    6    0  502 -0.14667813908E+03 -0.70158896718E+02  0.72323465505E+03  0.74128612124E+03  0.00000000000E+00 0.  1.
<mgrwt>
<rscale>  0 0.70302104E+03</rscale>
<asrwt>0</asrwt>
<pdfrwt beam="1">  1        1 0.64575294E-01 0.70302104E+03</pdfrwt>
<pdfrwt beam="2">  1       -2 0.35545052E+00 0.70302104E+03</pdfrwt>
<totfact> 0.75622388E-01</totfact>
</mgrwt>
</event>
<event>
12    3  0.2422421E-007  0.9869262E+03  0.7818608E-02  0.9323001E-01
         -4   -1    0    0    0  501 -0.00000000000E+00  0.00000000000E+00  0.75014739822E+03  0.75014739822E+03  0.00000000000E+00 0.  1.
          1   -1    0    0  501    0  0.00000000000E+00 -0.00000000000E+00 -0.15171289633E+04  0.15171289633E+04  0.00000000000E+00 0. -1.
        -24    2    1    2    0    0  0.13089573681E+03 -0.96709776626E+03 -0.45646420316E+03  0.10803598590E+04  0.80037945792E+02 0.  0.
    5000000    2    1    2    0    0 -0.13089573681E+03  0.96709776626E+03 -0.31051736194E+03  0.11869165025E+04  0.59994830488E+03 0.  0.
        -24    2    4    4    0    0 -0.27620982519E+02  0.61055765586E+03  0.10410175013E+03  0.62458488813E+03  0.75667286853E+02 0.  0.
         24    2    4    4    0    0 -0.10327475429E+03  0.35654011040E+03 -0.41461911207E+03  0.56233161441E+03  0.80754636234E+02 0.  0.
         13    1    5    5    0    0 -0.13686412633E+02  0.18930403863E+02 -0.16542931439E+01  0.23418257130E+02  0.00000000000E+00 0. -1.
        -14    1    5    5    0    0 -0.13934569886E+02  0.59162725200E+03  0.10575604328E+03  0.60116663100E+03  0.00000000000E+00 0.  1.
         13    1    3    3    0    0  0.94520869668E+02 -0.40953511830E+03 -0.18682222463E+03  0.45995190133E+03  0.00000000000E+00 0. -1.
        -14    1    3    3    0    0  0.36374867140E+02 -0.55756264796E+03 -0.26964197853E+03  0.62040795767E+03  0.00000000000E+00 0.  1.
          2    1    6    6  502    0 -0.94969847558E+02  0.18538020766E+03 -0.21778780771E+03  0.30135796410E+03  0.00000000000E+00 0. -1.
         -1    1    6    6    0  502 -0.83049067311E+01  0.17115990274E+03 -0.19683130435E+03  0.26097365031E+03  0.00000000000E+00 0.  1.
<mgrwt>
<rscale>  0 0.98692624E+03</rscale>
<asrwt>0</asrwt>
<pdfrwt beam="1">  1        1 0.23340446E+00 0.98692624E+03</pdfrwt>
<pdfrwt beam="2">  1       -4 0.11540729E+00 0.98692624E+03</pdfrwt>
<totfact> 0.17779210E+00</totfact>
</mgrwt>
</event>
<event>
12    3  0.2422421E-007  0.8172916E+03  0.7818608E-02  0.9535320E-01
          1   -1    0    0  501    0  0.00000000000E+00  0.00000000000E+00  0.11870327006E+04  0.11870327006E+04  0.00000000000E+00 0. -1.
         -2   -1    0    0    0  501 -0.00000000000E+00 -0.00000000000E+00 -0.12345176366E+04  0.12345176366E+04  0.00000000000E+00 0.  1.
        -24    2    1    2    0    0  0.17001983996E+03  0.72055573332E+03 -0.88235177719E+03  0.11546583145E+04  0.81140949606E+02 0.  0.
    5000000    2    1    2    0    0 -0.17001983996E+03 -0.72055573332E+03  0.83486684115E+03  0.12668920227E+04  0.59992119805E+03 0.  0.
        -24    2    4    4    0    0 -0.14870050162E+03 -0.77822560312E+03  0.85062435271E+03  0.11651327645E+04  0.78902730722E+02 0.  0.
         24    2    4    4    0    0 -0.21319338338E+02  0.57669869804E+02 -0.15757511561E+02  0.10175925819E+03  0.79538163082E+02 0.  0.
         13    1    5    5    0    0 -0.11007577295E+03 -0.46557579370E+03  0.55993512018E+03  0.73648138760E+03  0.00000000000E+00 0. -1.
        -14    1    5    5    0    0 -0.38624728670E+02 -0.31264980942E+03  0.29068923253E+03  0.42865137688E+03  0.00000000000E+00 0.  1.
         13    1    3    3    0    0  0.15008321890E+03  0.60396780940E+03 -0.78294816091E+03  0.10001549430E+04  0.00000000000E+00 0. -1.
        -14    1    3    3    0    0  0.19936621061E+02  0.11658792392E+03 -0.99403616279E+02  0.15450337146E+03  0.00000000000E+00 0.  1.
          2    1    6    6  502    0  0.17342606537E+02  0.59348616040E+02 -0.93194372303E+01  0.62529002372E+02  0.00000000000E+00 0. -1.
         -1    1    6    6    0  502 -0.38661944875E+02 -0.16787462360E+01 -0.64380743306E+01  0.39230255818E+02  0.00000000000E+00 0.  1.
<mgrwt>
<rscale>  0 0.81729163E+03</rscale>
<asrwt>0</asrwt>
<pdfrwt beam="1">  1        1 0.18262042E+00 0.81729163E+03</pdfrwt>
<pdfrwt beam="2">  1       -2 0.18992579E+00 0.81729163E+03</pdfrwt>
<totfact> 0.15195428E+00</totfact>
</mgrwt>
</event>
<event>
12    3  0.2422421E-007  0.8621645E+03  0.7818608E-02  0.9474154E-01
          1   -1    0    0  501    0  0.00000000000E+00  0.00000000000E+00  0.20501418414E+04  0.20501418414E+04  0.00000000000E+00 0. -1.
         -2   -1    0    0    0  501 -0.00000000000E+00 -0.00000000000E+00 -0.37050053028E+03  0.37050053028E+03  0.00000000000E+00 0.  1.
        -24    2    1    2    0    0 -0.74529631061E+03  0.16702926854E+03  0.65599986721E+03  0.10095454748E+04  0.74032917156E+02 0.  0.
    5000000    2    1    2    0    0  0.74529631061E+03 -0.16702926854E+03  0.10236414439E+04  0.14110968968E+04  0.59998939945E+03 0.  0.
        -24    2    4    4    0    0  0.26095527128E+03 -0.35114680408E+03  0.51956265293E+03  0.68351518542E+03  0.76458660427E+02 0.  0.
         24    2    4    4    0    0  0.48434103933E+03  0.18411753554E+03  0.50407879098E+03  0.72758171143E+03  0.82426998091E+02 0.  0.
         11    1    3    3    0    0 -0.59327304699E+03  0.10340221614E+03  0.50244541518E+03  0.78429351765E+03  0.00000000000E+00 0. -1.
        -12    1    3    3    0    0 -0.15202326362E+03  0.63627052403E+02  0.15355445202E+03  0.22525195718E+03  0.00000000000E+00 0.  1.
         13    1    5    5    0    0  0.13085604430E+03 -0.20776962638E+03  0.34049439901E+03  0.41979513782E+03  0.00000000000E+00 0. -1.
        -14    1    5    5    0    0  0.13009922698E+03 -0.14337717771E+03  0.17906825392E+03  0.26372004761E+03  0.00000000000E+00 0.  1.
          4    1    6    6  502    0  0.42919563558E+03  0.16224093957E+03  0.40454605206E+03  0.61170950975E+03  0.00000000000E+00 0. -1.
         -3    1    6    6    0  502  0.55145403747E+02  0.21876595972E+02  0.99532738917E+02  0.11587220168E+03  0.00000000000E+00 0.  1.
<mgrwt>
<rscale>  0 0.86216447E+03</rscale>
<asrwt>0</asrwt>
<pdfrwt beam="1">  1        1 0.31540643E+00 0.86216447E+03</pdfrwt>
<pdfrwt beam="2">  1       -2 0.57000083E-01 0.86216447E+03</pdfrwt>
<totfact> 0.71676002E+00</totfact>
</mgrwt>
</event>
<event>
12    3  0.2422421E-007  0.1281712E+04  0.7818608E-02  0.9044195E-01
         -2   -1    0    0    0  501 -0.00000000000E+00  0.00000000000E+00  0.13737398277E+04  0.13737398277E+04  0.00000000000E+00 0.  1.
          1   -1    0    0  501    0  0.00000000000E+00 -0.00000000000E+00 -0.16521698166E+04  0.16521698166E+04  0.00000000000E+00 0. -1.
        -24    2    1    2    0    0 -0.14671249818E+02 -0.12766084504E+04 -0.81474307519E+03  0.15167514274E+04  0.82366454186E+02 0.  0.
    5000000    2    1    2    0    0  0.14671249818E+02  0.12766084504E+04  0.53631308631E+03  0.15091582169E+04  0.59998534643E+03 0.  0.
        -24    2    4    4    0    0  0.68260748973E+01  0.11487584692E+04  0.23975388238E+03  0.11762698892E+04  0.80226631305E+02 0.  0.
         24    2    4    4    0    0  0.78451749210E+01  0.12784998126E+03  0.29655920393E+03  0.33288832773E+03  0.80374827066E+02 0.  0.
         11    1    5    5    0    0  0.11473376343E+02  0.10098404556E+04  0.23654014901E+03  0.10372370155E+04  0.00000000000E+00 0. -1.
        -12    1    5    5    0    0 -0.46473014455E+01  0.13891801357E+03  0.32137333757E+01  0.13903287376E+03  0.00000000000E+00 0.  1.
         13    1    3    3    0    0 -0.41061980696E+02 -0.66036839764E+03 -0.39324269820E+03  0.76968326379E+03  0.00000000000E+00 0. -1.
        -14    1    3    3    0    0  0.26390730877E+02 -0.61624005278E+03 -0.42150037699E+03  0.74706816365E+03  0.00000000000E+00 0.  1.
          4    1    6    6  502    0  0.27135396803E+02  0.80284326309E+02  0.10695764682E+03  0.13646186655E+03  0.00000000000E+00 0. -1.
         -3    1    6    6    0  502 -0.19290221882E+02  0.47565654953E+02  0.18960155711E+03  0.19642646118E+03  0.00000000000E+00 0.  1.
<mgrwt>
<rscale>  0 0.12817123E+04</rscale>
<asrwt>0</asrwt>
<pdfrwt beam="1">  1        1 0.25417997E+00 0.12817123E+04</pdfrwt>
<pdfrwt beam="2">  1       -2 0.21134459E+00 0.12817123E+04</pdfrwt>
<totfact> 0.48801279E-01</totfact>
</mgrwt>
</event>
<event>
12    3  0.2422421E-007  0.4303052E+03  0.7818608E-02  0.1033764E+00
         -2   -1    0    0    0  501 -0.00000000000E+00  0.00000000000E+00  0.10529194553E+04  0.10529194553E+04  0.00000000000E+00 0.  1.
          1   -1    0    0  501    0  0.00000000000E+00 -0.00000000000E+00 -0.38992266676E+03  0.38992266676E+03  0.00000000000E+00 0. -1.
        -24    2    1    2    0    0  0.33126897464E+03  0.21733000890E+03 -0.77010994850E+02  0.41104482975E+03  0.77818329539E+02 0.  0.
    5000000    2    1    2    0    0 -0.33126897464E+03 -0.21733000890E+03  0.74000778344E+03  0.10317972924E+04  0.60001888856E+03 0.  0.
        -24    2    4    4    0    0 -0.32211388662E+03 -0.18310358457E+03  0.82599444324E+03  0.90885379429E+03  0.80399754334E+02 0.  0.
         24    2    4    4    0    0 -0.91550880201E+01 -0.34226424329E+02 -0.85986659805E+02  0.12294349806E+03  0.80412276998E+02 0.  0.
         11    1    5    5    0    0 -0.12230194645E+03 -0.83995926396E+02  0.42283852209E+03  0.44811326417E+03  0.00000000000E+00 0. -1.
        -12    1    5    5    0    0 -0.19981194016E+03 -0.99107658173E+02  0.40315592115E+03  0.46074053012E+03  0.00000000000E+00 0.  1.
         11    1    3    3    0    0  0.41186302338E+02  0.32415353370E+01  0.40585997217E+01  0.41512543687E+02  0.00000000000E+00 0. -1.
        -12    1    3    3    0    0  0.29008267230E+03  0.21408847356E+03 -0.81069594571E+02  0.36953228606E+03  0.00000000000E+00 0.  1.
          4    1    6    6  502    0 -0.37687837109E+02 -0.43312190923E+02 -0.62657974943E+02  0.84984356046E+02  0.00000000000E+00 0. -1.
         -3    1    6    6    0  502  0.28532749089E+02  0.90857665945E+01 -0.23328684861E+02  0.37959142015E+02  0.00000000000E+00 0.  1.
<mgrwt>
<rscale>  0 0.43030517E+03</rscale>
<asrwt>0</asrwt>
<pdfrwt beam="1">  1        1 0.59988103E-01 0.43030517E+03</pdfrwt>
<pdfrwt beam="2">  1       -2 0.16198761E+00 0.43030517E+03</pdfrwt>
<totfact> 0.13991878E+01</totfact>
</mgrwt>
</event>
<event>
12    3  0.2422421E-007  0.1131708E+04  0.7818608E-02  0.9174826E-01
          1   -1    0    0  501    0  0.00000000000E+00  0.00000000000E+00  0.12582165245E+04  0.12582165245E+04  0.00000000000E+00 0. -1.
         -2   -1    0    0    0  501 -0.00000000000E+00 -0.00000000000E+00 -0.10798032303E+04  0.10798032303E+04  0.00000000000E+00 0.  1.
        -24    2    1    2    0    0 -0.10652152472E+04 -0.17486106631E+03 -0.46860728048E+02  0.10826658991E+04  0.68626568104E+02 0.  0.
    5000000    2    1    2    0    0  0.10652152472E+04  0.17486106631E+03  0.22527402233E+03  0.12553538557E+04  0.59992083035E+03 0.  0.
        -24    2    4    4    0    0 -0.12117362617E+02 -0.30155868849E+02 -0.77000389243E+02  0.11482835877E+03  0.78741889313E+02 0.  0.
         24    2    4    4    0    0  0.10773326098E+04  0.20501693516E+03  0.30227441157E+03  0.11405254970E+04  0.82165038450E+02 0.  0.
         11    1    3    3    0    0 -0.37492427318E+03 -0.48881673010E+02 -0.46723152572E+02  0.38097333445E+03  0.00000000000E+00 0. -1.
        -12    1    3    3    0    0 -0.69029097399E+03 -0.12597939330E+03 -0.13757547643E+00  0.70169256461E+03  0.00000000000E+00 0.  1.
         11    1    5    5    0    0 -0.45777705928E+02 -0.15069139506E+02 -0.40790795475E+02  0.63139261327E+02  0.00000000000E+00 0. -1.
        -12    1    5    5    0    0  0.33660343311E+02 -0.15086729343E+02 -0.36209593768E+02  0.51689097448E+02  0.00000000000E+00 0.  1.
          4    1    6    6  502    0  0.18325418735E+03  0.59707506520E+02  0.73477873933E+02  0.20626701499E+03  0.00000000000E+00 0. -1.
         -3    1    6    6    0  502  0.89407842243E+03  0.14530942864E+03  0.22879653764E+03  0.93425848198E+03  0.00000000000E+00 0.  1.
<mgrwt>
<rscale>  0 0.11317081E+04</rscale>
<asrwt>0</asrwt>
<pdfrwt beam="1">  1        1 0.19357177E+00 0.11317081E+04</pdfrwt>
<pdfrwt beam="2">  1       -2 0.16612357E+00 0.11317081E+04</pdfrwt>
<totfact> 0.18966493E+00</totfact>
</mgrwt>
</event>
<event>
12    3  0.2422421E-007  0.1232630E+04  0.7818608E-02  0.9084765E-01
          1   -1    0    0  501    0  0.00000000000E+00  0.00000000000E+00  0.10461915427E+04  0.10461915427E+04  0.00000000000E+00 0. -1.
         -2   -1    0    0    0  501 -0.00000000000E+00 -0.00000000000E+00 -0.15910510708E+04  0.15910510708E+04  0.00000000000E+00 0.  1.
        -24    2    1    2    0    0  0.11722658982E+04  0.51807930773E+01  0.83795552368E+02  0.11779818393E+04  0.79908338075E+02 0.  0.
    5000000    2    1    2    0    0 -0.11722658982E+04 -0.51807930773E+01 -0.62865508043E+03  0.14592607741E+04  0.60000051662E+03 0.  0.
        -24    2    4    4    0    0 -0.84258249514E+03  0.24300020555E+03 -0.52900463560E+03  0.10271849536E+04  0.79174891499E+02 0.  0.
         24    2    4    4    0    0 -0.32968340307E+03 -0.24818099862E+03 -0.99650444836E+02  0.43207582048E+03  0.80463340413E+02 0.  0.
         11    1    5    5    0    0 -0.35217156377E+03  0.11899422708E+03 -0.26559836047E+03  0.45686641975E+03  0.00000000000E+00 0. -1.
        -12    1    5    5    0    0 -0.49041093136E+03  0.12400597846E+03 -0.26340627513E+03  0.57031853387E+03  0.00000000000E+00 0.  1.
         11    1    3    3    0    0  0.33442574988E+03  0.37451284290E+02  0.27109993336E+02  0.33760647597E+03  0.00000000000E+00 0. -1.
        -12    1    3    3    0    0  0.83784014833E+03 -0.32270491213E+02  0.56685559032E+02  0.84037536337E+03  0.00000000000E+00 0.  1.
          2    1    6    6  502    0 -0.20433472552E+03 -0.14996882888E+03 -0.10095643412E+03  0.27282875816E+03  0.00000000000E+00 0. -1.
         -1    1    6    6    0  502 -0.12534867755E+03 -0.98212169747E+02  0.13059892874E+01  0.15924706232E+03  0.00000000000E+00 0.  1.
<mgrwt>
<rscale>  0 0.12326299E+04</rscale>
<asrwt>0</asrwt>
<pdfrwt beam="1">  1        1 0.16095255E+00 0.12326299E+04</pdfrwt>
<pdfrwt beam="2">  1       -2 0.24477709E+00 0.12326299E+04</pdfrwt>
<totfact> 0.82251456E-01</totfact>
</mgrwt>
</event>
<event>
12    3  0.2422421E-007  0.8406396E+03  0.7818608E-02  0.9502987E-01
         -2   -1    0    0    0  501 -0.00000000000E+00  0.00000000000E+00  0.87770192901E+03  0.87770192901E+03  0.00000000000E+00 0.  1.
          1   -1    0    0  501    0  0.00000000000E+00 -0.00000000000E+00 -0.19101079085E+04  0.19101079085E+04  0.00000000000E+00 0. -1.
        -24    2    1    2    0    0  0.63550323935E+02  0.76098121768E+03 -0.15186818990E+04  0.17017721161E+04  0.80638496732E+02 0.  0.
    5000000    2    1    2    0    0 -0.63550323935E+02 -0.76098121768E+03  0.48627591959E+03  0.10860377214E+04  0.59990216289E+03 0.  0.
        -24    2    4    4    0    0  0.11821000916E+02  0.69458824779E+02 -0.20346110661E+02  0.10699547965E+03  0.77908947134E+02 0.  0.
         24    2    4    4    0    0 -0.75371324851E+02 -0.83044004246E+03  0.50662203025E+03  0.97904224178E+03  0.80909387067E+02 0.  0.
         11    1    3    3    0    0  0.76922415512E+02  0.54117201112E+03 -0.10414253259E+04  0.11761593911E+04  0.00000000000E+00 0. -1.
        -12    1    3    3    0    0 -0.13372091577E+02  0.21980920656E+03 -0.47725657309E+03  0.52561272500E+03  0.00000000000E+00 0.  1.
         13    1    5    5    0    0  0.20308568275E+02  0.27664105578E+02 -0.45874814877E+02  0.57290831054E+02  0.00000000000E+00 0. -1.
        -14    1    5    5    0    0 -0.84875673593E+01  0.41794719201E+02  0.25528704216E+02  0.49704648593E+02  0.00000000000E+00 0.  1.
          2    1    6    6  502    0  0.15842417281E+02 -0.17749984669E+03  0.97474206532E+02  0.20312163523E+03  0.00000000000E+00 0. -1.
         -1    1    6    6    0  502 -0.91213742133E+02 -0.65294019577E+03  0.40914782372E+03  0.77592060655E+03  0.00000000000E+00 0.  1.
<mgrwt>
<rscale>  0 0.84063959E+03</rscale>
<asrwt>0</asrwt>
<pdfrwt beam="1">  1        1 0.29386275E+00 0.84063959E+03</pdfrwt>
<pdfrwt beam="2">  1       -2 0.13503107E+00 0.84063959E+03</pdfrwt>
<totfact> 0.12187567E+00</totfact>
</mgrwt>
</event>
<event>
12    3  0.2422421E-007  0.5041880E+03  0.7818608E-02  0.1012692E+00
          1   -1    0    0  501    0  0.00000000000E+00  0.00000000000E+00  0.14346579898E+04  0.14346579898E+04  0.00000000000E+00 0. -1.
         -2   -1    0    0    0  501 -0.00000000000E+00 -0.00000000000E+00 -0.22490461430E+03  0.22490461430E+03  0.00000000000E+00 0.  1.
        -24    2    1    2    0    0  0.14541895285E+03 -0.31072402711E+03  0.12640413026E+03  0.37446779067E+03  0.80944605968E+02 0.  0.
    5000000    2    1    2    0    0 -0.14541895285E+03  0.31072402711E+03  0.10833492453E+04  0.12850948135E+04  0.60010582357E+03 0.  0.
        -24    2    4    4    0    0  0.14473617067E+03  0.32608614014E+03  0.75881630210E+03  0.84197864583E+03  0.76453448670E+02 0.  0.
         24    2    4    4    0    0 -0.29015512352E+03 -0.15362113032E+02  0.32453294319E+03  0.44311616764E+03  0.81266946471E+02 0.  0.
         11    1    5    5    0    0  0.66222081868E+02  0.22850816354E+03  0.45729192231E+03  0.51547768831E+03  0.00000000000E+00 0. -1.
        -12    1    5    5    0    0  0.78514088805E+02  0.97577976598E+02  0.30152437978E+03  0.32650095752E+03  0.00000000000E+00 0.  1.
         13    1    3    3    0    0  0.12458044755E+03 -0.24928170927E+03  0.67270088845E+02  0.28668261779E+03  0.00000000000E+00 0. -1.
        -14    1    3    3    0    0  0.20838505295E+02 -0.61442317834E+02  0.59134041413E+02  0.87785172880E+02  0.00000000000E+00 0.  1.
          4    1    6    6  502    0 -0.22930501438E+03  0.21839650535E+02  0.24440379578E+03  0.33584367695E+03  0.00000000000E+00 0. -1.
         -3    1    6    6    0  502 -0.60850109142E+02 -0.37201763566E+02  0.80129147412E+02  0.10727249070E+03  0.00000000000E+00 0.  1.
<mgrwt>
<rscale>  0 0.50418800E+03</rscale>
<asrwt>0</asrwt>
<pdfrwt beam="1">  1        1 0.22071661E+00 0.50418800E+03</pdfrwt>
<pdfrwt beam="2">  1       -2 0.34600711E-01 0.50418800E+03</pdfrwt>
<totfact> 0.52725198E+01</totfact>
</mgrwt>
</event>
<event>
12    3  0.2422421E-007  0.5698992E+03  0.7818608E-02  0.9969902E-01
          1   -1    0    0  501    0  0.00000000000E+00  0.00000000000E+00  0.12556400070E+04  0.12556400070E+04  0.00000000000E+00 0. -1.
         -2   -1    0    0    0  501 -0.00000000000E+00 -0.00000000000E+00 -0.34294092472E+03  0.34294092472E+03  0.00000000000E+00 0.  1.
        -24    2    1    2    0    0  0.22264859111E+03 -0.34803029534E+03  0.73776594084E+03  0.84944950796E+03  0.81045675484E+02 0.  0.
    5000000    2    1    2    0    0 -0.22264859111E+03  0.34803029534E+03  0.17493314143E+03  0.74913142375E+03  0.59991566448E+03 0.  0.
        -24    2    4    4    0    0 -0.39733795044E+03  0.33920284004E+03  0.17362342236E+03  0.55595045497E+03  0.77458389040E+02 0.  0.
         24    2    4    4    0    0  0.17468935933E+03  0.88274552982E+01  0.13097190671E+01  0.19318096879E+03  0.81993140603E+02 0.  0.
         13    1    5    5    0    0 -0.31214803601E+03  0.30125567737E+03  0.15621822380E+03  0.46108080959E+03  0.00000000000E+00 0. -1.
        -14    1    5    5    0    0 -0.85189914431E+02  0.37947162673E+02  0.17405198564E+02  0.94869645371E+02  0.00000000000E+00 0.  1.
         13    1    3    3    0    0  0.20456956839E+03 -0.26553586548E+03  0.56026337505E+03  0.65288058141E+03  0.00000000000E+00 0. -1.
        -14    1    3    3    0    0  0.18079022711E+02 -0.82494429864E+02  0.17750256580E+03  0.19656892655E+03  0.00000000000E+00 0.  1.
          4    1    6    6  502    0  0.66728161825E+02  0.43536274195E+02  0.35771541651E+01  0.79754942062E+02  0.00000000000E+00 0. -1.
         -3    1    6    6    0  502  0.10796119751E+03 -0.34708818897E+02 -0.22674350980E+01  0.11342602673E+03  0.00000000000E+00 0.  1.
<mgrwt>
<rscale>  0 0.56989920E+03</rscale>
<asrwt>0</asrwt>
<pdfrwt beam="1">  1        1 0.19317538E+00 0.56989920E+03</pdfrwt>
<pdfrwt beam="2">  1       -2 0.52760143E-01 0.56989920E+03</pdfrwt>
<totfact> 0.30344844E+01</totfact>
</mgrwt>
</event>
<event>
12    3  0.2422421E-007  0.3214351E+03  0.7818608E-02  0.1074991E+00
         -2   -1    0    0    0  501 -0.00000000000E+00  0.00000000000E+00  0.13046173557E+03  0.13046173557E+03  0.00000000000E+00 0.  1.
          1   -1    0    0  501    0  0.00000000000E+00 -0.00000000000E+00 -0.11696700128E+04  0.11696700128E+04  0.00000000000E+00 0. -1.
        -24    2    1    2    0    0 -0.11564792184E+03  0.81771651863E+02 -0.26054207887E+03  0.30693447227E+03  0.79155230620E+02 0.  0.
    5000000    2    1    2    0    0  0.11564792184E+03 -0.81771651863E+02 -0.77866619833E+03  0.99319727606E+03  0.60004894456E+03 0.  0.
        -24    2    4    4    0    0 -0.13820576382E+03  0.11378520842E+03 -0.64065789958E+02  0.20609010130E+03  0.79503443971E+02 0.  0.
         24    2    4    4    0    0  0.25385368566E+03 -0.19555686028E+03 -0.71460040838E+03  0.78710717476E+03  0.78738691806E+02 0.  0.
         11    1    3    3    0    0 -0.67080535562E+02  0.55875354726E+02 -0.80806344733E+02  0.11896015663E+03  0.00000000000E+00 0. -1.
        -12    1    3    3    0    0 -0.48567386276E+02  0.25896297137E+02 -0.17973573413E+03  0.18797431564E+03  0.00000000000E+00 0.  1.
         13    1    5    5    0    0 -0.11274439291E+02  0.17220581355E+02 -0.39745358210E+02  0.44758852787E+02  0.00000000000E+00 0. -1.
        -14    1    5    5    0    0 -0.12693132453E+03  0.96564627063E+02 -0.24320431748E+02  0.16133124851E+03  0.00000000000E+00 0.  1.
          4    1    6    6  502    0  0.71748783121E+01 -0.49437942230E+01 -0.75787486575E+02  0.76286716415E+02  0.00000000000E+00 0. -1.
         -3    1    6    6    0  502  0.24667880734E+03 -0.19061306606E+03 -0.63881292180E+03  0.71082045835E+03  0.00000000000E+00 0.  1.
<mgrwt>
<rscale>  0 0.32143512E+03</rscale>
<asrwt>0</asrwt>
<pdfrwt beam="1">  1        1 0.17994922E+00 0.32143512E+03</pdfrwt>
<pdfrwt beam="2">  1       -2 0.20071038E-01 0.32143512E+03</pdfrwt>
<totfact> 0.22079039E+02</totfact>
</mgrwt>
</event>
<event>
12    3  0.2422421E-007  0.1621537E+04  0.7818608E-02  0.8807425E-01
         -2   -1    0    0    0  501 -0.00000000000E+00  0.00000000000E+00  0.24104429946E+04  0.24104429946E+04  0.00000000000E+00 0.  1.
          1   -1    0    0  501    0  0.00000000000E+00 -0.00000000000E+00 -0.17897633873E+04  0.17897633873E+04  0.00000000000E+00 0. -1.
        -24    2    1    2    0    0 -0.71345304224E+03 -0.14131311295E+04  0.15938925948E+04  0.22474903835E+04  0.69025993660E+02 0.  0.
    5000000    2    1    2    0    0  0.71345304224E+03  0.14131311295E+04 -0.97321298746E+03  0.19527159983E+04  0.60000118220E+03 0.  0.
        -24    2    4    4    0    0  0.71330336329E+03  0.14238048028E+04 -0.98943566540E+03  0.18763414296E+04  0.75182577997E+02 0.  0.
         24    2    4    4    0    0  0.14967895130E+00 -0.10673673291E+02  0.16222677944E+02  0.76374568731E+02  0.73864401194E+02 0.  0.
         11    1    5    5    0    0  0.48584713641E+03  0.93728194199E+03 -0.61734809342E+03  0.12229732406E+04  0.00000000000E+00 0. -1.
        -12    1    5    5    0    0  0.22745622688E+03  0.48652286079E+03 -0.37208757198E+03  0.65336818903E+03  0.00000000000E+00 0.  1.
         13    1    3    3    0    0 -0.49962545666E+02 -0.13602683575E+03  0.13087604429E+03  0.19526416717E+03  0.00000000000E+00 0. -1.
        -14    1    3    3    0    0 -0.66349049657E+03 -0.12771042937E+04  0.14630165505E+04  0.20522262164E+04  0.00000000000E+00 0.  1.
          2    1    6    6  502    0  0.32710290237E+02 -0.68487848184E+01  0.25800033337E+02  0.42219789922E+02  0.00000000000E+00 0. -1.
         -1    1    6    6    0  502 -0.32560611286E+02 -0.38248884729E+01 -0.95773553923E+01  0.34154778808E+02  0.00000000000E+00 0.  1.
<mgrwt>
<rscale>  0 0.16215375E+04</rscale>
<asrwt>0</asrwt>
<pdfrwt beam="1">  1        1 0.27534821E+00 0.16215375E+04</pdfrwt>
<pdfrwt beam="2">  1       -2 0.37083738E+00 0.16215375E+04</pdfrwt>
<totfact> 0.38640035E-02</totfact>
</mgrwt>
</event>
<event>
12    3  0.2422421E-007  0.4475856E+03  0.7818608E-02  0.1028444E+00
         -2   -1    0    0    0  501 -0.00000000000E+00  0.00000000000E+00  0.23629958477E+03  0.23629958477E+03  0.00000000000E+00 0.  1.
          1   -1    0    0  501    0  0.00000000000E+00 -0.00000000000E+00 -0.10230227284E+04  0.10230227284E+04  0.00000000000E+00 0. -1.
        -24    2    1    2    0    0 -0.15047359351E+03 -0.25521693983E+03 -0.32252704087E+03  0.44512611860E+03  0.79596360767E+02 0.  0.
    5000000    2    1    2    0    0  0.15047359351E+03  0.25521693983E+03 -0.46419610275E+03  0.81419619457E+03  0.59971612678E+03 0.  0.
        -24    2    4    4    0    0  0.32600245348E+03  0.12762713491E+03 -0.83753096551E+02  0.36904820737E+03  0.81337033055E+02 0.  0.
         24    2    4    4    0    0 -0.17552885996E+03  0.12758980492E+03 -0.38044300620E+03  0.44514798719E+03  0.79563248655E+02 0.  0.
         13    1    5    5    0    0  0.14951112138E+03  0.18305807306E+02 -0.50042903285E+02  0.15872293522E+03  0.00000000000E+00 0. -1.
        -14    1    5    5    0    0  0.17649133210E+03  0.10932132761E+03 -0.33710193267E+02  0.21032527215E+03  0.00000000000E+00 0.  1.
         13    1    3    3    0    0 -0.31142234412E+02 -0.12950772116E+03 -0.14911701642E+03  0.19994492539E+03  0.00000000000E+00 0. -1.
        -14    1    3    3    0    0 -0.11933135910E+03 -0.12570921867E+03 -0.17341002446E+03  0.24518119321E+03  0.00000000000E+00 0.  1.
          4    1    6    6  502    0 -0.15988811126E+03  0.13834137921E+03 -0.33841186002E+03  0.39903023987E+03  0.00000000000E+00 0. -1.
         -1    1    6    6    0  502 -0.15640748703E+02 -0.10751574287E+02 -0.42031146175E+02  0.46117747326E+02  0.00000000000E+00 0.  1.
<mgrwt>
<rscale>  0 0.44758564E+03</rscale>
<asrwt>0</asrwt>
<pdfrwt beam="1">  1        1 0.15738811E+00 0.44758564E+03</pdfrwt>
<pdfrwt beam="2">  1       -2 0.36353783E-01 0.44758564E+03</pdfrwt>
<totfact> 0.95063859E+01</totfact>
</mgrwt>
</event>
<event>
12    3  0.2422421E-007  0.6783694E+03  0.7818608E-02  0.9754955E-01
         -2   -1    0    0    0  501 -0.00000000000E+00  0.00000000000E+00  0.88125759955E+03  0.88125759955E+03  0.00000000000E+00 0.  1.
          1   -1    0    0  501    0  0.00000000000E+00 -0.00000000000E+00 -0.95973186644E+03  0.95973186644E+03  0.00000000000E+00 0. -1.
        -24    2    1    2    0    0 -0.78774478946E+02 -0.57538560297E+03 -0.61406291997E+03  0.84891019918E+03  0.79380387732E+02 0.  0.
    5000000    2    1    2    0    0  0.78774478946E+02  0.57538560297E+03  0.53558865308E+03  0.99207926680E+03  0.60007670815E+03 0.  0.
        -24    2    4    4    0    0  0.48106401344E+02  0.66570048344E+03  0.32300055026E+03  0.74547919606E+03  0.77061772538E+02 0.  0.
         24    2    4    4    0    0  0.30668077602E+02 -0.90314880475E+02  0.21258810282E+03  0.24660007074E+03  0.80750138131E+02 0.  0.
         11    1    5    5    0    0 -0.14377136228E+01  0.14147280220E+03  0.10201636551E+03  0.17442465312E+03  0.00000000000E+00 0. -1.
        -12    1    5    5    0    0  0.49544114967E+02  0.52422768124E+03  0.22098418475E+03  0.57105454295E+03  0.00000000000E+00 0.  1.
         13    1    3    3    0    0 -0.68839120779E+02 -0.28532318471E+03 -0.34719407323E+03  0.45463377434E+03  0.00000000000E+00 0. -1.
        -14    1    3    3    0    0 -0.99353581670E+01 -0.29006241826E+03 -0.26686884674E+03  0.39427642485E+03  0.00000000000E+00 0.  1.
          4    1    6    6  502    0  0.30010271961E+02 -0.23453300372E+02  0.15087676971E+03  0.15561000405E+03  0.00000000000E+00 0. -1.
         -3    1    6    6    0  502  0.65780564045E+00 -0.66861580103E+02  0.61711333110E+02  0.90990066690E+02  0.00000000000E+00 0.  1.
<mgrwt>
<rscale>  0 0.67836943E+03</rscale>
<asrwt>0</asrwt>
<pdfrwt beam="1">  1        1 0.14765106E+00 0.67836943E+03</pdfrwt>
<pdfrwt beam="2">  1       -2 0.13557809E+00 0.67836943E+03</pdfrwt>
<totfact> 0.57617240E+00</totfact>
</mgrwt>
</event>
<event>
12    3  0.2422421E-007  0.1543252E+04  0.7818608E-02  0.8856189E-01
         -2   -1    0    0    0  501 -0.00000000000E+00  0.00000000000E+00  0.12485929146E+04  0.12485929146E+04  0.00000000000E+00 0.  1.
          1   -1    0    0  501    0  0.00000000000E+00 -0.00000000000E+00 -0.22228365517E+04  0.22228365517E+04  0.00000000000E+00 0. -1.
        -24    2    1    2    0    0 -0.63184235252E+03  0.13895685176E+04 -0.10078869893E+04  0.18309136039E+04  0.79265492654E+02 0.  0.
    5000000    2    1    2    0    0  0.63184235252E+03 -0.13895685176E+04  0.33643352250E+02  0.16405158624E+04  0.60002916280E+03 0.  0.
        -24    2    4    4    0    0 -0.17936408598E+02 -0.98196039336E+02 -0.13311336647E+03  0.18310712490E+03  0.76451775398E+02 0.  0.
         24    2    4    4    0    0  0.64977876112E+03 -0.12913724782E+04  0.16675671872E+03  0.14574087375E+04  0.79856803040E+02 0.  0.
         11    1    5    5    0    0 -0.23697866463E+02 -0.11172404108E+02 -0.71982705476E+02  0.76602358816E+02  0.00000000000E+00 0. -1.
        -12    1    5    5    0    0  0.57614578651E+01 -0.87023635229E+02 -0.61130660993E+02  0.10650476608E+03  0.00000000000E+00 0.  1.
         11    1    3    3    0    0 -0.12610591660E+03  0.33213779935E+03 -0.20531054844E+03  0.41032991758E+03  0.00000000000E+00 0. -1.
        -12    1    3    3    0    0 -0.50573643592E+03  0.10574307182E+04 -0.80257644088E+03  0.14205836863E+04  0.00000000000E+00 0.  1.
          2    1    6    6  502    0  0.58715910507E+03 -0.11598540124E+04  0.17380271099E+03  0.13115733022E+04  0.00000000000E+00 0. -1.
         -1    1    6    6    0  502  0.62619656045E+02 -0.13151846586E+03 -0.70459922754E+01  0.14583543531E+03  0.00000000000E+00 0.  1.
<mgrwt>
<rscale>  0 0.15432523E+04</rscale>
<asrwt>0</asrwt>
<pdfrwt beam="1">  1        1 0.34197485E+00 0.15432523E+04</pdfrwt>
<pdfrwt beam="2">  1       -2 0.19209122E+00 0.15432523E+04</pdfrwt>
<totfact> 0.25939785E-01</totfact>
</mgrwt>
</event>
<event>
12    3  0.2422421E-007  0.9097187E+03  0.7818608E-02  0.9413514E-01
         -2   -1    0    0    0  501 -0.00000000000E+00  0.00000000000E+00  0.66192886836E+03  0.66192886836E+03  0.00000000000E+00 0.  1.
          1   -1    0    0  501    0  0.00000000000E+00 -0.00000000000E+00 -0.19082494118E+04  0.19082494118E+04  0.00000000000E+00 0. -1.
        -24    2    1    2    0    0  0.32550364897E+03 -0.82878955862E+03  0.39814290171E+02  0.89458620625E+03  0.76514996890E+02 0.  0.
    5000000    2    1    2    0    0 -0.32550364897E+03  0.82878955862E+03 -0.12861348336E+04  0.16755920739E+04  0.60051746849E+03 0.  0.
        -24    2    4    4    0    0 -0.44314675069E+00  0.25314877221E+03 -0.82287285849E+03  0.86444345462E+03  0.77834746451E+02 0.  0.
         24    2    4    4    0    0 -0.32506050221E+03  0.57564078640E+03 -0.46326197514E+03  0.81114861930E+03  0.79522197581E+02 0.  0.
         11    1    3    3    0    0  0.28882308907E+03 -0.68795493710E+03  0.55638444342E+02  0.74819543486E+03  0.00000000000E+00 0. -1.
        -12    1    3    3    0    0  0.36680559891E+02 -0.14083462152E+03 -0.15824154171E+02  0.14639077139E+03  0.00000000000E+00 0.  1.
         13    1    5    5    0    0 -0.32974952107E+02  0.16413947171E+03 -0.46443098430E+03  0.49368537838E+03  0.00000000000E+00 0. -1.
        -14    1    5    5    0    0  0.32531805356E+02  0.89009300503E+02 -0.35844187418E+03  0.37075807625E+03  0.00000000000E+00 0.  1.
          2    1    6    6  502    0 -0.12500924157E+03  0.30004078825E+03 -0.23739458011E+03  0.40250213882E+03  0.00000000000E+00 0. -1.
         -1    1    6    6    0  502 -0.20005126064E+03  0.27559999816E+03 -0.22586739503E+03  0.40864648048E+03  0.00000000000E+00 0.  1.
<mgrwt>
<rscale>  0 0.90971865E+03</rscale>
<asrwt>0</asrwt>
<pdfrwt beam="1">  1        1 0.29357683E+00 0.90971865E+03</pdfrwt>
<pdfrwt beam="2">  1       -2 0.10183521E+00 0.90971865E+03</pdfrwt>
<totfact> 0.24280490E+00</totfact>
</mgrwt>
</event>
<event>
12    3  0.2422421E-007  0.3923032E+03  0.7818608E-02  0.1046478E+00
         -2   -1    0    0    0  501 -0.00000000000E+00  0.00000000000E+00  0.42862287503E+03  0.42862287503E+03  0.00000000000E+00 0.  1.
          1   -1    0    0  501    0  0.00000000000E+00 -0.00000000000E+00 -0.54085043381E+03  0.54085043381E+03  0.00000000000E+00 0. -1.
        -24    2    1    2    0    0  0.13816813380E+03 -0.23519466357E+03 -0.12244281021E+03  0.31017964434E+03  0.82536095269E+02 0.  0.
    5000000    2    1    2    0    0 -0.13816813380E+03  0.23519466357E+03  0.10215251428E+02  0.65929366450E+03  0.60013067054E+03 0.  0.
        -24    2    4    4    0    0 -0.28635046566E+03  0.15101795877E+03  0.20260037214E+03  0.39015118550E+03  0.79799897880E+02 0.  0.
         24    2    4    4    0    0  0.14818233186E+03  0.84176704796E+02 -0.19238512071E+03  0.26914247900E+03  0.79886908966E+02 0.  0.
         11    1    5    5    0    0 -0.15821054380E+03  0.10068613722E+03  0.73508746768E+02  0.20142445296E+03  0.00000000000E+00 0. -1.
        -12    1    5    5    0    0 -0.12813992185E+03  0.50331821546E+02  0.12909162537E+03  0.18872673254E+03  0.00000000000E+00 0.  1.
         13    1    3    3    0    0  0.60468292070E+02 -0.10809614076E+03 -0.10070818869E+03  0.15963498759E+03  0.00000000000E+00 0. -1.
        -14    1    3    3    0    0  0.77699841728E+02 -0.12709852280E+03 -0.21734621524E+02  0.15054465675E+03  0.00000000000E+00 0.  1.
          4    1    6    6  502    0  0.15953924061E+02  0.46388166791E+02 -0.67019029596E+02  0.83053838196E+02  0.00000000000E+00 0. -1.
         -3    1    6    6    0  502  0.13222840780E+03  0.37788538004E+02 -0.12536609112E+03  0.18608864080E+03  0.00000000000E+00 0.  1.
<mgrwt>
<rscale>  0 0.39230325E+03</rscale>
<asrwt>0</asrwt>
<pdfrwt beam="1">  1        1 0.83207759E-01 0.39230325E+03</pdfrwt>
<pdfrwt beam="2">  1       -2 0.65941981E-01 0.39230325E+03</pdfrwt>
<totfact> 0.77048465E+01</totfact>
</mgrwt>
</event>
<event>
12    3  0.2422421E-007  0.1242698E+04  0.7818608E-02  0.9076283E-01
          1   -1    0    0  501    0  0.00000000000E+00  0.00000000000E+00  0.10585361216E+04  0.10585361216E+04  0.00000000000E+00 0. -1.
         -2   -1    0    0    0  501 -0.00000000000E+00 -0.00000000000E+00 -0.15377818966E+04  0.15377818966E+04  0.00000000000E+00 0.  1.
        -24    2    1    2    0    0  0.11028457970E+04 -0.44487011778E+03 -0.35471327437E+02  0.11924160761E+04  0.80122466438E+02 0.  0.
    5000000    2    1    2    0    0 -0.11028457970E+04  0.44487011778E+03 -0.44377444760E+03  0.14039019422E+04  0.59985550685E+03 0.  0.
        -24    2    4    4    0    0 -0.94052270763E+03  0.54518978909E+03 -0.48699792693E+03  0.11938543984E+04  0.79413311853E+02 0.  0.
         24    2    4    4    0    0 -0.16232308941E+03 -0.10031967131E+03  0.43223479333E+02  0.21004754373E+03  0.76412562160E+02 0.  0.
         13    1    3    3    0    0  0.38658277219E+03 -0.12668453515E+03 -0.38749898558E+02  0.40865237775E+03  0.00000000000E+00 0. -1.
        -14    1    3    3    0    0  0.71626302484E+03 -0.31818558263E+03  0.32785711211E+01  0.78376369830E+03  0.00000000000E+00 0.  1.
         13    1    5    5    0    0 -0.42547346935E+02  0.43815146769E+02 -0.19386814532E+02  0.64077237731E+02  0.00000000000E+00 0. -1.
        -14    1    5    5    0    0 -0.89797536070E+03  0.50137464232E+03 -0.46761111240E+03  0.11297771607E+04  0.00000000000E+00 0.  1.
          4    1    6    6  502    0  0.14983860386E+00 -0.27068546261E+02  0.21544971273E+01  0.27154566948E+02  0.00000000000E+00 0. -1.
         -3    1    6    6    0  502 -0.16247292801E+03 -0.73251125049E+02  0.41068982206E+02  0.18289297678E+03  0.00000000000E+00 0.  1.
<mgrwt>
<rscale>  0 0.12426981E+04</rscale>
<asrwt>0</asrwt>
<pdfrwt beam="1">  1        1 0.16285171E+00 0.12426981E+04</pdfrwt>
<pdfrwt beam="2">  1       -2 0.23658183E+00 0.12426981E+04</pdfrwt>
<totfact> 0.90314938E-01</totfact>
</mgrwt>
</event>
<event>
12    3  0.2422421E-007  0.4290321E+03  0.7818608E-02  0.1034166E+00
         -2   -1    0    0    0  501 -0.00000000000E+00  0.00000000000E+00  0.97764710618E+02  0.97764710618E+02  0.00000000000E+00 0.  1.
          1   -1    0    0  501    0  0.00000000000E+00 -0.00000000000E+00 -0.22804395930E+04  0.22804395930E+04  0.00000000000E+00 0. -1.
        -24    2    1    2    0    0  0.21129044301E+03  0.10534163847E+03 -0.30714621322E+03  0.39483380940E+03  0.76252400883E+02 0.  0.
    5000000    2    1    2    0    0 -0.21129044301E+03 -0.10534163847E+03 -0.18755286692E+04  0.19833704942E+04  0.60034174968E+03 0.  0.
        -24    2    4    4    0    0 -0.32766605405E+03 -0.25409326382E+03 -0.10279091472E+04  0.11112132344E+04  0.79178329614E+02 0.  0.
         24    2    4    4    0    0  0.11637561103E+03  0.14875162535E+03 -0.84761952201E+03  0.87215725979E+03  0.80802863990E+02 0.  0.
         11    1    3    3    0    0  0.14603367191E+03  0.94928917570E+02 -0.17403751849E+03  0.24622426883E+03  0.00000000000E+00 0. -1.
        -12    1    3    3    0    0  0.65256771106E+02  0.10412720902E+02 -0.13310869474E+03  0.14860954056E+03  0.00000000000E+00 0.  1.
         11    1    5    5    0    0 -0.31398971118E+03 -0.25772909784E+03 -0.97049874509E+03  0.10520844267E+04  0.00000000000E+00 0. -1.
        -12    1    5    5    0    0 -0.13676342863E+02  0.36358340202E+01 -0.57410402070E+02  0.59128807776E+02  0.00000000000E+00 0.  1.
          2    1    6    6  502    0  0.10455049356E+03  0.91375609086E+02 -0.47211741292E+03  0.49211295372E+03  0.00000000000E+00 0. -1.
         -1    1    6    6    0  502  0.11825117476E+02  0.57376016266E+02 -0.37550210909E+03  0.38004430607E+03  0.00000000000E+00 0.  1.
<mgrwt>
<rscale>  0 0.42903212E+03</rscale>
<asrwt>0</asrwt>
<pdfrwt beam="1">  1        1 0.35083680E+00 0.42903212E+03</pdfrwt>
<pdfrwt beam="2">  1       -2 0.15040727E-01 0.42903212E+03</pdfrwt>
<totfact> 0.64046350E+01</totfact>
</mgrwt>
</event>
<event>
12    3  0.2422421E-007  0.4610787E+03  0.7818608E-02  0.1024469E+00
         -2   -1    0    0    0  501 -0.00000000000E+00  0.00000000000E+00  0.40272539919E+03  0.40272539919E+03  0.00000000000E+00 0.  1.
          1   -1    0    0  501    0  0.00000000000E+00 -0.00000000000E+00 -0.80229670349E+03  0.80229670349E+03  0.00000000000E+00 0. -1.
        -24    2    1    2    0    0  0.33337976365E+03 -0.99274985367E+02  0.75251430099E+02  0.36452463267E+03  0.78853285062E+02 0.  0.
    5000000    2    1    2    0    0 -0.33337976365E+03  0.99274985367E+02 -0.47482273440E+03  0.84049747001E+03  0.59998481520E+03 0.  0.
        -24    2    4    4    0    0  0.74987498202E+02 -0.92198673628E+02  0.42893464409E+02  0.14932947429E+03  0.79597250565E+02 0.  0.
         24    2    4    4    0    0 -0.40836726185E+03  0.19147365899E+03 -0.51771619881E+03  0.69116799572E+03  0.79102169165E+02 0.  0.
         11    1    5    5    0    0  0.42723704476E+02 -0.56649817933E+02  0.65228726127E+02  0.96381032927E+02  0.00000000000E+00 0. -1.
        -12    1    5    5    0    0  0.32263793726E+02 -0.35548855694E+02 -0.22335261718E+02  0.52948441363E+02  0.00000000000E+00 0.  1.
         11    1    3    3    0    0  0.10573542784E+03 -0.47126187750E+02  0.60249151994E+02  0.13050217848E+03  0.00000000000E+00 0. -1.
        -12    1    3    3    0    0  0.22764433581E+03 -0.52148797617E+02  0.15002278105E+02  0.23402245419E+03  0.00000000000E+00 0.  1.
          4    1    6    6  502    0 -0.27465695761E+03  0.10189163179E+03 -0.28907932915E+03  0.41156434192E+03  0.00000000000E+00 0. -1.
         -3    1    6    6    0  502 -0.13371030424E+03  0.89582027204E+02 -0.22863686965E+03  0.27960365380E+03  0.00000000000E+00 0.  1.
<mgrwt>
<rscale>  0 0.46107874E+03</rscale>
<asrwt>0</asrwt>
<pdfrwt beam="1">  1        1 0.12343026E+00 0.46107874E+03</pdfrwt>
<pdfrwt beam="2">  1       -2 0.61957755E-01 0.46107874E+03</pdfrwt>
<totfact> 0.48998603E+01</totfact>
</mgrwt>
</event>
<event>
12    3  0.2422421E-007  0.5671640E+03  0.7818608E-02  0.9975974E-01
         -2   -1    0    0    0  501 -0.00000000000E+00  0.00000000000E+00  0.56191154178E+03  0.56191154178E+03  0.00000000000E+00 0.  1.
          1   -1    0    0  501    0  0.00000000000E+00 -0.00000000000E+00 -0.83463023373E+03  0.83463023373E+03  0.00000000000E+00 0. -1.
        -24    2    1    2    0    0  0.42569519544E+02 -0.54232627776E+03 -0.24030933485E+02  0.54936440378E+03  0.72758551593E+02 0.  0.
    5000000    2    1    2    0    0 -0.42569519544E+02  0.54232627776E+03 -0.24868775846E+03  0.84717737173E+03  0.59994494949E+03 0.  0.
        -24    2    4    4    0    0 -0.66195429777E+02  0.50134026081E+02  0.15407484853E+03  0.20595651704E+03  0.10855308594E+03 0.  0.
         24    2    4    4    0    0  0.23625910233E+02  0.49219225168E+03 -0.40276260699E+03  0.64122085469E+03  0.78326691853E+02 0.  0.
         11    1    3    3    0    0  0.21815165198E+02 -0.10455613187E+03  0.20804810747E+02  0.10881510140E+03  0.00000000000E+00 0. -1.
        -12    1    3    3    0    0  0.20754354346E+02 -0.43777014589E+03 -0.44835744232E+02  0.44054930237E+03  0.00000000000E+00 0.  1.
         13    1    5    5    0    0  0.69602650444E+01  0.10800415042E+02 -0.13678314764E+02  0.18766740509E+02  0.00000000000E+00 0. -1.
        -14    1    5    5    0    0 -0.73155694822E+02  0.39333611039E+02  0.16775316329E+03  0.18718977653E+03  0.00000000000E+00 0.  1.
          4    1    6    6  502    0 -0.27332001168E+01  0.82595206607E+01 -0.25803643190E+02  0.27230829336E+02  0.00000000000E+00 0. -1.
         -3    1    6    6    0  502  0.26359110350E+02  0.48393273102E+03 -0.37695896380E+03  0.61399002536E+03  0.00000000000E+00 0.  1.
<mgrwt>
<rscale>  0 0.56716404E+03</rscale>
<asrwt>0</asrwt>
<pdfrwt beam="1">  1        1 0.12840465E+00 0.56716404E+03</pdfrwt>
<pdfrwt beam="2">  1       -2 0.86447929E-01 0.56716404E+03</pdfrwt>
<totfact> 0.21857867E+01</totfact>
</mgrwt>
</event>
<event>
12    3  0.2422421E-007  0.1106150E+04  0.7818608E-02  0.9199218E-01
          1   -1    0    0  501    0  0.00000000000E+00  0.00000000000E+00  0.10509882155E+04  0.10509882155E+04  0.00000000000E+00 0. -1.
         -2   -1    0    0    0  501 -0.00000000000E+00 -0.00000000000E+00 -0.12652147411E+04  0.12652147411E+04  0.00000000000E+00 0.  1.
        -24    2    1    2    0    0 -0.99814376761E+03 -0.32947707513E+03 -0.31886373521E+03  0.11013629542E+04  0.80499387021E+02 0.  0.
    5000000    2    1    2    0    0  0.99814376761E+03  0.32947707513E+03  0.10463720961E+03  0.12148400024E+04  0.60003430072E+03 0.  0.
        -24    2    4    4    0    0  0.34732388657E+03 -0.11108255005E+03  0.19343653690E+03  0.41981499728E+03  0.76509626977E+02 0.  0.
         24    2    4    4    0    0  0.65081988104E+03  0.44055962519E+03 -0.88799327289E+02  0.79502500517E+03  0.80747367833E+02 0.  0.
         11    1    3    3    0    0 -0.17607847233E+03 -0.89296812253E+02 -0.48978836148E+02  0.20341208294E+03  0.00000000000E+00 0. -1.
        -12    1    3    3    0    0 -0.82206529529E+03 -0.24018026288E+03 -0.26988489906E+03  0.89795087123E+03  0.00000000000E+00 0.  1.
         13    1    5    5    0    0  0.76452347453E+02  0.75274269342E+01  0.36601425647E+02  0.85095757513E+02  0.00000000000E+00 0. -1.
        -14    1    5    5    0    0  0.27087153912E+03 -0.11860997699E+03  0.15683511126E+03  0.33471923976E+03  0.00000000000E+00 0.  1.
          4    1    6    6  502    0  0.34759474146E+03  0.23664395497E+03 -0.69659079362E+01  0.42056032812E+03  0.00000000000E+00 0. -1.
         -3    1    6    6    0  502  0.30322513958E+03  0.20391567022E+03 -0.81833419353E+02  0.37446467705E+03  0.00000000000E+00 0.  1.
<mgrwt>
<rscale>  0 0.11061504E+04</rscale>
<asrwt>0</asrwt>
<pdfrwt beam="1">  1        1 0.16169049E+00 0.11061504E+04</pdfrwt>
<pdfrwt beam="2">  1       -2 0.19464842E+00 0.11061504E+04</pdfrwt>
<totfact> 0.17209701E+00</totfact>
</mgrwt>
</event>
<event>
12    3  0.2422421E-007  0.5357808E+03  0.7818608E-02  0.1004840E+00
         -2   -1    0    0    0  501 -0.00000000000E+00  0.00000000000E+00  0.41155906093E+03  0.41155906093E+03  0.00000000000E+00 0.  1.
          1   -1    0    0  501    0  0.00000000000E+00 -0.00000000000E+00 -0.76500510497E+03  0.76500510497E+03  0.00000000000E+00 0. -1.
        -24    2    1    2    0    0  0.20847641790E+03 -0.33397173966E+03 -0.86982317879E+02  0.41109813316E+03  0.80226004230E+02 0.  0.
    5000000    2    1    2    0    0 -0.20847641790E+03  0.33397173966E+03 -0.26646372616E+03  0.76546603274E+03  0.59994648946E+03 0.  0.
        -24    2    4    4    0    0 -0.29081189800E+03 -0.28798182148E+02 -0.23723233405E+03  0.38444171786E+03  0.78200759622E+02 0.  0.
         24    2    4    4    0    0  0.82335480100E+02  0.36276992181E+03 -0.29231392112E+02  0.38102431488E+03  0.77096736590E+02 0.  0.
         11    1    3    3    0    0  0.10461985101E+03 -0.23925470322E+03 -0.52148157759E+02  0.26628472843E+03  0.00000000000E+00 0. -1.
        -12    1    3    3    0    0  0.10385656689E+03 -0.94717036435E+02 -0.34834160120E+02  0.14481340473E+03  0.00000000000E+00 0.  1.
         13    1    5    5    0    0 -0.11648605282E+03 -0.35726588922E+02 -0.13656820704E+03  0.18301984819E+03  0.00000000000E+00 0. -1.
        -14    1    5    5    0    0 -0.17432584518E+03  0.69284067741E+01 -0.10066412701E+03  0.20142186968E+03  0.00000000000E+00 0.  1.
          4    1    6    6  502    0  0.45863075011E+00  0.57655197929E+02 -0.30255422333E+02  0.65113153594E+02  0.00000000000E+00 0. -1.
         -3    1    6    6    0  502  0.81876849349E+02  0.30511472388E+03  0.10240302208E+01  0.31591116128E+03  0.00000000000E+00 0.  1.
<mgrwt>
<rscale>  0 0.53578080E+03</rscale>
<asrwt>0</asrwt>
<pdfrwt beam="1">  1        1 0.11769309E+00 0.53578080E+03</pdfrwt>
<pdfrwt beam="2">  1       -2 0.63316779E-01 0.53578080E+03</pdfrwt>
<totfact> 0.49958619E+01</totfact>
</mgrwt>
</event>
<event>
12    3  0.2422421E-007  0.8915413E+03  0.7818608E-02  0.9436217E-01
         -2   -1    0    0    0  501 -0.00000000000E+00  0.00000000000E+00  0.68252881089E+03  0.68252881089E+03  0.00000000000E+00 0.  1.
          1   -1    0    0  501    0  0.00000000000E+00 -0.00000000000E+00 -0.12377537668E+04  0.12377537668E+04  0.00000000000E+00 0. -1.
        -24    2    1    2    0    0 -0.35427746654E+03 -0.71136977518E+03 -0.45645024227E+03  0.91961779745E+03  0.76095922158E+02 0.  0.
    5000000    2    1    2    0    0  0.35427746654E+03  0.71136977518E+03 -0.98774713684E+02  0.10006647803E+04  0.60001173165E+03 0.  0.
        -24    2    4    4    0    0  0.39025875159E+03  0.14655265187E+03 -0.50269053517E+02  0.42722870704E+03  0.78853138279E+02 0.  0.
         24    2    4    4    0    0 -0.35981285056E+02  0.56481712332E+03 -0.48505660167E+02  0.57343607325E+03  0.78505384341E+02 0.  0.
         11    1    5    5    0    0  0.18830382830E+03  0.77577680555E+02 -0.63727431832E+02  0.21339590868E+03  0.00000000000E+00 0. -1.
        -12    1    5    5    0    0  0.20195492329E+03  0.68974971313E+02  0.13458378315E+02  0.21383279837E+03  0.00000000000E+00 0.  1.
         11    1    3    3    0    0 -0.27430789208E+03 -0.51389366943E+03 -0.29957631095E+03  0.65504006688E+03  0.00000000000E+00 0. -1.
        -12    1    3    3    0    0 -0.79969574461E+02 -0.19747610575E+03 -0.15687393132E+03  0.26457773057E+03  0.00000000000E+00 0.  1.
          2    1    6    6  502    0  0.17216770636E+01 -0.18458939129E+01 -0.26687710521E+01  0.36733955923E+01  0.00000000000E+00 0. -1.
         -1    1    6    6    0  502 -0.37702962120E+02  0.56666301723E+03 -0.45836889115E+02  0.56976267766E+03  0.00000000000E+00 0.  1.
<mgrwt>
<rscale>  0 0.89154131E+03</rscale>
<asrwt>0</asrwt>
<pdfrwt beam="1">  1        1 0.19042365E+00 0.89154131E+03</pdfrwt>
<pdfrwt beam="2">  1       -2 0.10500443E+00 0.89154131E+03</pdfrwt>
<totfact> 0.65331398E+00</totfact>
</mgrwt>
</event>
<event>
12    3  0.2422421E-007  0.2146363E+04  0.7818608E-02  0.8541091E-01
         -2   -1    0    0    0  501 -0.00000000000E+00  0.00000000000E+00  0.17033348644E+04  0.17033348644E+04  0.00000000000E+00 0.  1.
          1   -1    0    0  501    0  0.00000000000E+00 -0.00000000000E+00 -0.28301480074E+04  0.28301480074E+04  0.00000000000E+00 0. -1.
        -24    2    1    2    0    0  0.18889502911E+04 -0.10102068040E+04 -0.78603316445E+03  0.22830647666E+04  0.76717690334E+02 0.  0.
    5000000    2    1    2    0    0 -0.18889502911E+04  0.10102068040E+04 -0.34077997854E+03  0.22504181051E+04  0.59966629482E+03 0.  0.
        -24    2    4    4    0    0 -0.10487778207E+04  0.64070926951E+03  0.87579796829E+02  0.12346410090E+04  0.78898131686E+02 0.  0.
         24    2    4    4    0    0 -0.84017247041E+03  0.36949753446E+03 -0.42835977537E+03  0.10157770961E+04  0.76764599913E+02 0.  0.
         13    1    5    5    0    0 -0.87442600882E+03  0.55038291715E+03  0.48015623481E+02  0.10343344239E+04  0.00000000000E+00 0. -1.
        -14    1    5    5    0    0 -0.17435181185E+03  0.90326352360E+02  0.39564173348E+02  0.20030658511E+03  0.00000000000E+00 0.  1.
         13    1    3    3    0    0  0.91233653088E+03 -0.48831267516E+03 -0.33889716793E+03  0.10888794721E+04  0.00000000000E+00 0. -1.
        -14    1    3    3    0    0  0.97661376020E+03 -0.52189412881E+03 -0.44713599652E+03  0.11941852945E+04  0.00000000000E+00 0.  1.
          2    1    6    6  502    0 -0.24539378864E+03  0.14666129280E+03 -0.13463391183E+03  0.31599673498E+03  0.00000000000E+00 0. -1.
         -1    1    6    6    0  502 -0.59477868178E+03  0.22283624166E+03 -0.29372586354E+03  0.69978036112E+03  0.00000000000E+00 0.  1.
<mgrwt>
<rscale>  0 0.21463628E+04</rscale>
<asrwt>0</asrwt>
<pdfrwt beam="1">  1        1 0.43540738E+00 0.21463628E+04</pdfrwt>
<pdfrwt beam="2">  1       -2 0.26205152E+00 0.21463628E+04</pdfrwt>
<totfact> 0.32983037E-02</totfact>
</mgrwt>
</event>
<event>
12    3  0.3218293E-007  0.1134687E+04  0.7818608E-02  0.9172028E-01
         -2   -1    0    0    0  501 -0.00000000000E+00  0.00000000000E+00  0.86162098841E+03  0.86162098841E+03  0.00000000000E+00 0.  1.
          1   -1    0    0  501    0  0.00000000000E+00 -0.00000000000E+00 -0.16816417796E+04  0.16816417796E+04  0.00000000000E+00 0. -1.
        -24    2    1    2    0    0 -0.74516248069E+02  0.11249933480E+04 -0.38180866756E+03  0.11930454207E+04  0.80105011202E+02 0.  0.
    5000000    2    1    2    0    0  0.74516248069E+02 -0.11249933480E+04 -0.43821212363E+03  0.13502173473E+04  0.59991192306E+03 0.  0.
        -24    2    4    4    0    0  0.96732481516E+02 -0.56146855883E+03 -0.51877038633E+03  0.77497729811E+03  0.82843124752E+02 0.  0.
         24    2    4    4    0    0 -0.22216233448E+02 -0.56352478920E+03  0.80558262701E+02  0.57524004923E+03  0.79735384111E+02 0.  0.
         11    1    3    3    0    0 -0.21632644472E+02  0.72919440552E+03 -0.21752332557E+03  0.76125478621E+03  0.00000000000E+00 0. -1.
        -12    1    3    3    0    0 -0.52883603596E+02  0.39579894251E+03 -0.16428534199E+03  0.43179063447E+03  0.00000000000E+00 0.  1.
         11    1    5    5    0    0  0.95403410955E+02 -0.32697027551E+03 -0.32488148744E+03  0.47070091647E+03  0.00000000000E+00 0. -1.
        -12    1    5    5    0    0  0.13290705614E+01 -0.23449828332E+03 -0.19388889889E+03  0.30427638164E+03  0.00000000000E+00 0.  1.
          2    1    6    6  502    0  0.11939591056E+02 -0.17839801032E+03  0.57899858980E+02  0.18793828134E+03  0.00000000000E+00 0. -1.
         -1    1    6    6    0  502 -0.34155824504E+02 -0.38512677887E+03  0.22658403721E+02  0.38730176789E+03  0.00000000000E+00 0.  1.
<mgrwt>
<rscale>  0 0.11346867E+04</rscale>
<asrwt>0</asrwt>
<pdfrwt beam="1">  1        1 0.25871412E+00 0.11346867E+04</pdfrwt>
<pdfrwt beam="2">  1       -2 0.13255708E+00 0.11346867E+04</pdfrwt>
<totfact> 0.17513541E+00</totfact>
</mgrwt>
</event>
<event>
12    3  0.2422421E-007  0.5940410E+03  0.7818608E-02  0.9917847E-01
          1   -1    0    0  501    0  0.00000000000E+00  0.00000000000E+00  0.12032850681E+04  0.12032850681E+04  0.00000000000E+00 0. -1.
         -2   -1    0    0    0  501 -0.00000000000E+00 -0.00000000000E+00 -0.30852794998E+03  0.30852794998E+03  0.00000000000E+00 0.  1.
        -24    2    1    2    0    0 -0.34937280808E+03  0.29540166218E+03  0.38264630110E+03  0.59994693477E+03  0.64765976837E+02 0.  0.
    5000000    2    1    2    0    0  0.34937280808E+03 -0.29540166218E+03  0.51211081705E+03  0.91186608335E+03  0.59993229949E+03 0.  0.
        -24    2    4    4    0    0 -0.13690786199E+03  0.70862953524E+01  0.30313730867E+02  0.15929135122E+03  0.75238514330E+02 0.  0.
         24    2    4    4    0    0  0.48628067007E+03 -0.30248795753E+03  0.48179708619E+03  0.75257473213E+03  0.79198741474E+02 0.  0.
         11    1    3    3    0    0 -0.13680993976E+03  0.14722848537E+03  0.13977531337E+03  0.24480670895E+03  0.00000000000E+00 0. -1.
        -12    1    3    3    0    0 -0.21256286832E+03  0.14817317681E+03  0.24287098773E+03  0.35514022582E+03  0.00000000000E+00 0.  1.
         13    1    5    5    0    0 -0.44478998242E+02  0.34013115367E+02  0.28895442388E+02  0.63009680942E+02  0.00000000000E+00 0. -1.
        -14    1    5    5    0    0 -0.92428863743E+02 -0.26926820015E+02  0.14182884789E+01  0.96281670276E+02  0.00000000000E+00 0.  1.
          2    1    6    6  502    0  0.26560259656E+03 -0.13043019880E+03  0.28187068105E+03  0.40866594780E+03  0.00000000000E+00 0. -1.
         -1    1    6    6    0  502  0.22067807351E+03 -0.17205775873E+03  0.19992640514E+03  0.34390878433E+03  0.00000000000E+00 0.  1.
<mgrwt>
<rscale>  0 0.59404097E+03</rscale>
<asrwt>0</asrwt>
<pdfrwt beam="1">  1        1 0.18512078E+00 0.59404097E+03</pdfrwt>
<pdfrwt beam="2">  1       -2 0.47465839E-01 0.59404097E+03</pdfrwt>
<totfact> 0.40848513E+01</totfact>
</mgrwt>
</event>
<event>
12    3  0.2422421E-007  0.6425141E+03  0.7818608E-02  0.9820928E-01
          1   -1    0    0  501    0  0.00000000000E+00  0.00000000000E+00  0.10290904819E+04  0.10290904819E+04  0.00000000000E+00 0. -1.
         -2   -1    0    0    0  501 -0.00000000000E+00 -0.00000000000E+00 -0.40590401210E+03  0.40590401210E+03  0.00000000000E+00 0.  1.
        -24    2    1    2    0    0  0.13501194237E+02 -0.50247881069E+03  0.23049643084E+03  0.55923217076E+03  0.83335339094E+02 0.  0.
    5000000    2    1    2    0    0 -0.13501194237E+02  0.50247881069E+03  0.39269003897E+03  0.87576232326E+03  0.60007244787E+03 0.  0.
        -24    2    4    4    0    0 -0.10277634041E+02  0.63343885151E+03  0.32768284507E+03  0.71767217423E+03  0.79541777360E+02 0.  0.
         24    2    4    4    0    0 -0.32235601962E+01 -0.13096004082E+03  0.65007193902E+02  0.15809014903E+03  0.60046951023E+02 0.  0.
         11    1    3    3    0    0 -0.21888209112E+02 -0.40856017711E+03  0.18367199991E+03  0.44848178956E+03  0.00000000000E+00 0. -1.
        -12    1    3    3    0    0  0.35389403349E+02 -0.93918633581E+02  0.46824430923E+02  0.11075038119E+03  0.00000000000E+00 0.  1.
         13    1    5    5    0    0 -0.31522329139E+02  0.23295936842E+03  0.15124788213E+03  0.27953469627E+03  0.00000000000E+00 0. -1.
        -14    1    5    5    0    0  0.21244695098E+02  0.40047948309E+03  0.17643496294E+03  0.43813747796E+03  0.00000000000E+00 0.  1.
          2    1    6    6  502    0  0.20356125897E+02 -0.88632239559E+02  0.60933715066E+02  0.10946672272E+03  0.00000000000E+00 0. -1.
         -1    1    6    6    0  502 -0.23579686093E+02 -0.42327801265E+02  0.40734788365E+01  0.48623426309E+02  0.00000000000E+00 0.  1.
<mgrwt>
<rscale>  0 0.64251413E+03</rscale>
<asrwt>0</asrwt>
<pdfrwt beam="1">  1        1 0.15832161E+00 0.64251413E+03</pdfrwt>
<pdfrwt beam="2">  1       -2 0.62446771E-01 0.64251413E+03</pdfrwt>
<totfact> 0.30998834E+01</totfact>
</mgrwt>
</event>
<event>
12    3  0.2422421E-007  0.5968019E+03  0.7818608E-02  0.9912063E-01
          1   -1    0    0  501    0  0.00000000000E+00  0.00000000000E+00  0.59994471008E+03  0.59994471008E+03  0.00000000000E+00 0. -1.
         -2   -1    0    0    0  501 -0.00000000000E+00 -0.00000000000E+00 -0.66095414378E+03  0.66095414378E+03  0.00000000000E+00 0.  1.
        -24    2    1    2    0    0 -0.29266297308E+03 -0.33733041317E+03 -0.20742170405E+03  0.49871647188E+03  0.79062839261E+02 0.  0.
    5000000    2    1    2    0    0  0.29266297308E+03  0.33733041317E+03  0.14641227034E+03  0.76218238198E+03  0.60003500483E+03 0.  0.
        -24    2    4    4    0    0  0.28814478692E+03 -0.90475699526E+02  0.78325317121E+02  0.32177790242E+03  0.78694934714E+02 0.  0.
         24    2    4    4    0    0  0.45181861671E+01  0.42780611270E+03  0.68086953223E+02  0.44040447956E+03  0.79257733709E+02 0.  0.
         11    1    3    3    0    0 -0.12215294858E+03 -0.15975369960E+03 -0.52504235802E+02  0.20784437005E+03  0.00000000000E+00 0. -1.
        -12    1    3    3    0    0 -0.17051002450E+03 -0.17757671357E+03 -0.15491746825E+03  0.29087210184E+03  0.00000000000E+00 0.  1.
         11    1    5    5    0    0  0.17736628385E+03 -0.15439950710E+02  0.38168310504E+02  0.18208242818E+03  0.00000000000E+00 0. -1.
        -12    1    5    5    0    0  0.11077850306E+03 -0.75035748816E+02  0.40157006618E+02  0.13969547424E+03  0.00000000000E+00 0.  1.
          4    1    6    6  502    0  0.39483649548E+02  0.18486813887E+03  0.17885311047E+02  0.18988173083E+03  0.00000000000E+00 0. -1.
         -3    1    6    6    0  502 -0.34965463381E+02  0.24293797383E+03  0.50201642176E+02  0.25052274873E+03  0.00000000000E+00 0.  1.
<mgrwt>
<rscale>  0 0.59680189E+03</rscale>
<asrwt>0</asrwt>
<pdfrwt beam="1">  1        1 0.92299187E-01 0.59680189E+03</pdfrwt>
<pdfrwt beam="2">  1       -2 0.10168525E+00 0.59680189E+03</pdfrwt>
<totfact> 0.24609379E+01</totfact>
</mgrwt>
</event>
<event>
12    3  0.2422421E-007  0.9354744E+03  0.7818608E-02  0.9382292E-01
          1   -1    0    0  501    0  0.00000000000E+00  0.00000000000E+00  0.18325648582E+04  0.18325648582E+04  0.00000000000E+00 0. -1.
         -2   -1    0    0    0  501 -0.00000000000E+00 -0.00000000000E+00 -0.56509509144E+03  0.56509509144E+03  0.00000000000E+00 0.  1.
        -24    2    1    2    0    0 -0.28915074978E+03  0.85643105318E+03  0.33621704765E+03  0.96786870850E+03  0.81520726297E+02 0.  0.
    5000000    2    1    2    0    0  0.28915074978E+03 -0.85643105318E+03  0.93125271914E+03  0.14297912412E+04  0.59999088446E+03 0.  0.
        -24    2    4    4    0    0  0.99644509043E+02 -0.69732985656E+03  0.34542450836E+03  0.78896831898E+03  0.83396404904E+02 0.  0.
         24    2    4    4    0    0  0.18950624073E+03 -0.15910119663E+03  0.58582821078E+03  0.64082292218E+03  0.78952637703E+02 0.  0.
         11    1    5    5    0    0  0.58764293485E+02 -0.22876457307E+03  0.14895329029E+03  0.27923745231E+03  0.00000000000E+00 0. -1.
        -12    1    5    5    0    0  0.40880215558E+02 -0.46856528348E+03  0.19647121807E+03  0.50973086667E+03  0.00000000000E+00 0.  1.
         11    1    3    3    0    0 -0.14183726422E+03  0.34486595800E+03  0.17288600700E+03  0.41102300413E+03  0.00000000000E+00 0. -1.
        -12    1    3    3    0    0 -0.14731348556E+03  0.51156509519E+03  0.16333104064E+03  0.55684570437E+03  0.00000000000E+00 0.  1.
          2    1    6    6  502    0  0.69136678587E+02 -0.10835955141E+03  0.26943614497E+03  0.29852555824E+03  0.00000000000E+00 0. -1.
         -1    1    6    6    0  502  0.12036956215E+03 -0.50741645216E+02  0.31639206581E+03  0.34229736394E+03  0.00000000000E+00 0.  1.
<mgrwt>
<rscale>  0 0.93547444E+03</rscale>
<asrwt>0</asrwt>
<pdfrwt beam="1">  1        1 0.28193305E+00 0.93547444E+03</pdfrwt>
<pdfrwt beam="2">  1       -2 0.86937707E-01 0.93547444E+03</pdfrwt>
<totfact> 0.39392644E+00</totfact>
</mgrwt>
</event>
<event>
12    3  0.2422421E-007  0.4376255E+03  0.7818608E-02  0.1031478E+00
         -2   -1    0    0    0  501 -0.00000000000E+00  0.00000000000E+00  0.49486734363E+03  0.49486734363E+03  0.00000000000E+00 0.  1.
          1   -1    0    0  501    0  0.00000000000E+00 -0.00000000000E+00 -0.13859886164E+04  0.13859886164E+04  0.00000000000E+00 0. -1.
        -24    2    1    2    0    0 -0.35450053088E+03 -0.60276515442E+02  0.31506414114E+03  0.48654879979E+03  0.90335136198E+02 0.  0.
    5000000    2    1    2    0    0  0.35450053088E+03  0.60276515442E+02 -0.12061854139E+04  0.13943071602E+04  0.59992109456E+03 0.  0.
        -24    2    4    4    0    0  0.31348712993E+03  0.18497688727E+03 -0.30980981238E+03  0.48488016210E+03  0.81461784279E+02 0.  0.
         24    2    4    4    0    0  0.41013400957E+02 -0.12470037183E+03 -0.89637560153E+03  0.90942699815E+03  0.79598769833E+02 0.  0.
         11    1    3    3    0    0 -0.21552268286E+03 -0.11133757144E+02  0.23398158471E+03  0.31831017791E+03  0.00000000000E+00 0. -1.
        -12    1    3    3    0    0 -0.13897784803E+03 -0.49142758298E+02  0.81082556421E+02  0.16823862188E+03  0.00000000000E+00 0.  1.
         13    1    5    5    0    0  0.10741306937E+03  0.63682315409E+02 -0.15900512074E+03  0.20217723212E+03  0.00000000000E+00 0. -1.
        -14    1    5    5    0    0  0.20607406056E+03  0.12129457186E+03 -0.15080469164E+03  0.28270292998E+03  0.00000000000E+00 0.  1.
          2    1    6    6  502    0  0.59526194716E+02 -0.10689584500E+03 -0.81387898478E+03  0.82302435651E+03  0.00000000000E+00 0. -1.
         -1    1    6    6    0  502 -0.18512793759E+02 -0.17804526829E+02 -0.82496616746E+02  0.86402641643E+02  0.00000000000E+00 0.  1.
<mgrwt>
<rscale>  0 0.43762551E+03</rscale>
<asrwt>0</asrwt>
<pdfrwt beam="1">  1        1 0.21322902E+00 0.43762551E+03</pdfrwt>
<pdfrwt beam="2">  1       -2 0.76133438E-01 0.43762551E+03</pdfrwt>
<totfact> 0.11565111E+01</totfact>
</mgrwt>
</event>
<event>
12    3  0.2422421E-007  0.2391508E+03  0.7818608E-02  0.1120360E+00
          1   -1    0    0  501    0  0.00000000000E+00  0.00000000000E+00  0.36778289686E+03  0.36778289686E+03  0.00000000000E+00 0. -1.
         -2   -1    0    0    0  501 -0.00000000000E+00 -0.00000000000E+00 -0.78338136982E+03  0.78338136982E+03  0.00000000000E+00 0.  1.
        -24    2    1    2    0    0 -0.18613185386E+03 -0.36361355141E+02 -0.47602873416E+03  0.51895160489E+03  0.82098704635E+02 0.  0.
    5000000    2    1    2    0    0  0.18613185386E+03  0.36361355141E+02  0.60430261202E+02  0.63221266180E+03  0.60006151193E+03 0.  0.
        -24    2    4    4    0    0  0.22501906594E+00 -0.19159196112E+02  0.30151974070E+03  0.31315331062E+03  0.82363320070E+02 0.  0.
         24    2    4    4    0    0  0.18590683479E+03  0.55520551254E+02 -0.24108947950E+03  0.31905935117E+03  0.77658545006E+02 0.  0.
         11    1    3    3    0    0 -0.41740230166E+02  0.23585919300E+02 -0.81218437279E+02  0.94313185491E+02  0.00000000000E+00 0. -1.
        -12    1    3    3    0    0 -0.14439162369E+03 -0.59947274441E+02 -0.39481029688E+03  0.42463841940E+03  0.00000000000E+00 0.  1.
         13    1    5    5    0    0 -0.25734690014E+02 -0.36426644875E+02  0.24081313648E+03  0.24490843479E+03  0.00000000000E+00 0. -1.
        -14    1    5    5    0    0  0.25959709080E+02  0.17267448763E+02  0.60706604218E+02  0.68244875837E+02  0.00000000000E+00 0.  1.
          2    1    6    6  502    0  0.14536526987E+03  0.60381249172E+02 -0.22623990587E+03  0.27561105192E+03  0.00000000000E+00 0. -1.
         -1    1    6    6    0  502  0.40541564922E+02 -0.48606979186E+01 -0.14849573631E+02  0.43448299249E+02  0.00000000000E+00 0.  1.
<mgrwt>
<rscale>  0 0.23915079E+03</rscale>
<asrwt>0</asrwt>
<pdfrwt beam="1">  1        1 0.56581984E-01 0.23915079E+03</pdfrwt>
<pdfrwt beam="2">  1       -2 0.12052021E+00 0.23915079E+03</pdfrwt>
<totfact> 0.33207173E+01</totfact>
</mgrwt>
</event>
<event>
12    3  0.2422421E-007  0.6873610E+03  0.7818608E-02  0.9739094E-01
         -2   -1    0    0    0  501 -0.00000000000E+00  0.00000000000E+00  0.11032433889E+04  0.11032433889E+04  0.00000000000E+00 0.  1.
          1   -1    0    0  501    0  0.00000000000E+00 -0.00000000000E+00 -0.49448391851E+03  0.49448391851E+03  0.00000000000E+00 0. -1.
        -24    2    1    2    0    0  0.57041781335E+03  0.15467728909E+03  0.43102259852E+03  0.73696830669E+03  0.89667491760E+02 0.  0.
    5000000    2    1    2    0    0 -0.57041781335E+03 -0.15467728909E+03  0.17773687189E+03  0.86075900074E+03  0.60001176337E+03 0.  0.
        -24    2    4    4    0    0 -0.43389794957E+03  0.13070898980E+03 -0.50053235305E+02  0.46284930682E+03  0.79824080380E+02 0.  0.
         24    2    4    4    0    0 -0.13651986379E+03 -0.28538627888E+03  0.22779010719E+03  0.39790969392E+03  0.79754562227E+02 0.  0.
         13    1    3    3    0    0  0.20158134174E+03  0.74170579191E+02  0.10953963788E+03  0.24111251403E+03  0.00000000000E+00 0. -1.
        -14    1    3    3    0    0  0.36883647161E+03  0.80506709894E+02  0.32148296064E+03  0.49585579266E+03  0.00000000000E+00 0.  1.
         13    1    5    5    0    0 -0.41123561485E+03  0.13752888289E+03 -0.58855713901E+02  0.43759903977E+03  0.00000000000E+00 0. -1.
        -14    1    5    5    0    0 -0.22662334713E+02 -0.68198930942E+01  0.88024785960E+01  0.25250267046E+02  0.00000000000E+00 0.  1.
          4    1    6    6  502    0 -0.58677122189E+02 -0.20494678740E+03  0.13332793460E+03  0.25144090455E+03  0.00000000000E+00 0. -1.
         -1    1    6    6    0  502 -0.77842741598E+02 -0.80439491484E+02  0.94462172588E+02  0.14646878937E+03  0.00000000000E+00 0.  1.
<mgrwt>
<rscale>  0 0.68736100E+03</rscale>
<asrwt>0</asrwt>
<pdfrwt beam="1">  1        1 0.76074449E-01 0.68736100E+03</pdfrwt>
<pdfrwt beam="2">  1       -2 0.16972975E+00 0.68736100E+03</pdfrwt>
<totfact> 0.86689231E+00</totfact>
</mgrwt>
</event>
<event>
12    3  0.2422421E-007  0.5781028E+03  0.7818608E-02  0.9951907E-01
          1   -1    0    0  501    0  0.00000000000E+00  0.00000000000E+00  0.79609028738E+03  0.79609028738E+03  0.00000000000E+00 0. -1.
         -2   -1    0    0    0  501 -0.00000000000E+00 -0.00000000000E+00 -0.73100673371E+03  0.73100673371E+03  0.00000000000E+00 0.  1.
        -24    2    1    2    0    0 -0.29763958654E+03 -0.30785067605E+03 -0.45121547080E+03  0.62712226248E+03  0.79533444416E+02 0.  0.
    5000000    2    1    2    0    0  0.29763958654E+03  0.30785067605E+03  0.51629902447E+03  0.89997475862E+03  0.60002376725E+03 0.  0.
        -24    2    4    4    0    0  0.32275543744E+03 -0.75363773461E+02  0.19407742797E+03  0.39232735411E+03  0.80024583678E+02 0.  0.
         24    2    4    4    0    0 -0.25115850895E+02  0.38321444951E+03  0.32222159650E+03  0.50764740451E+03  0.79968804995E+02 0.  0.
         13    1    5    5    0    0  0.18425818677E+02 -0.25258498512E+02  0.86007577785E+01  0.32426464121E+02  0.00000000000E+00 0. -1.
        -14    1    5    5    0    0  0.30432961876E+03 -0.50105274949E+02  0.18547667019E+03  0.35990088999E+03  0.00000000000E+00 0.  1.
         13    1    3    3    0    0 -0.86614299726E+02 -0.10112293094E+03 -0.19475964816E+03  0.23592203083E+03  0.00000000000E+00 0. -1.
        -14    1    3    3    0    0 -0.21102528682E+03 -0.20672774511E+03 -0.25645582264E+03  0.39120023164E+03  0.00000000000E+00 0.  1.
          4    1    6    6  502    0  0.74563889270E+01  0.27118734089E+03  0.25843441030E+03  0.37468188643E+03  0.00000000000E+00 0. -1.
         -3    1    6    6    0  502 -0.32572239822E+02  0.11202710863E+03  0.63787186198E+02  0.13296551808E+03  0.00000000000E+00 0.  1.
<mgrwt>
<rscale>  0 0.57810282E+03</rscale>
<asrwt>0</asrwt>
<pdfrwt beam="1">  1        1 0.12247543E+00 0.57810282E+03</pdfrwt>
<pdfrwt beam="2">  1       -2 0.11246258E+00 0.57810282E+03</pdfrwt>
<totfact> 0.12680352E+01</totfact>
</mgrwt>
</event>
<event>
12    3  0.2422421E-007  0.5969874E+03  0.7818608E-02  0.9911676E-01
         -2   -1    0    0    0  501 -0.00000000000E+00  0.00000000000E+00  0.83018760769E+03  0.83018760769E+03  0.00000000000E+00 0.  1.
          1   -1    0    0  501    0  0.00000000000E+00 -0.00000000000E+00 -0.69294575107E+03  0.69294575107E+03  0.00000000000E+00 0. -1.
        -24    2    1    2    0    0 -0.27441439968E+03 -0.43407778541E+03  0.43591931122E+03  0.67877240337E+03  0.83543660122E+02 0.  0.
    5000000    2    1    2    0    0  0.27441439968E+03  0.43407778541E+03 -0.29867745460E+03  0.84436095539E+03  0.60000867873E+03 0.  0.
        -24    2    4    4    0    0  0.42108812138E+02 -0.72775806161E+02  0.10135021955E+03  0.15349260716E+03  0.78858375760E+02 0.  0.
         24    2    4    4    0    0  0.23230558754E+03  0.50685359157E+03 -0.40002767415E+03  0.69086834823E+03  0.80065505733E+02 0.  0.
         13    1    3    3    0    0 -0.25468995290E+03 -0.35702662952E+03  0.34516726006E+03  0.55809983310E+03  0.00000000000E+00 0. -1.
        -14    1    3    3    0    0 -0.19724446775E+02 -0.77051155893E+02  0.90752051159E+02  0.12067257027E+03  0.00000000000E+00 0.  1.
         13    1    5    5    0    0  0.21878635394E+02  0.13456654400E+02  0.31787802879E+02  0.40868333049E+02  0.00000000000E+00 0. -1.
        -14    1    5    5    0    0  0.20230176744E+02 -0.86232460561E+02  0.69562416668E+02  0.11262427411E+03  0.00000000000E+00 0.  1.
          4    1    6    6  502    0  0.39161927052E+02  0.15889836315E+03 -0.93001450954E+02  0.18823287763E+03  0.00000000000E+00 0. -1.
         -3    1    6    6    0  502  0.19314366049E+03  0.34795522842E+03 -0.30702622320E+03  0.50263547060E+03  0.00000000000E+00 0.  1.
<mgrwt>
<rscale>  0 0.59698744E+03</rscale>
<asrwt>0</asrwt>
<pdfrwt beam="1">  1        1 0.10660704E+00 0.59698744E+03</pdfrwt>
<pdfrwt beam="2">  1       -2 0.12772117E+00 0.59698744E+03</pdfrwt>
<totfact> 0.11437270E+01</totfact>
</mgrwt>
</event>
<event>
12    3  0.2422421E-007  0.1049499E+04  0.7818608E-02  0.9255861E-01
         -2   -1    0    0    0  501 -0.00000000000E+00  0.00000000000E+00  0.94178758028E+03  0.94178758028E+03  0.00000000000E+00 0.  1.
          1   -1    0    0  501    0  0.00000000000E+00 -0.00000000000E+00 -0.12495906591E+04  0.12495906591E+04  0.00000000000E+00 0. -1.
        -24    2    1    2    0    0 -0.71877529999E+03  0.68913766668E+03 -0.24198761404E+03  0.10269416080E+04  0.67099965317E+02 0.  0.
    5000000    2    1    2    0    0  0.71877529999E+03 -0.68913766668E+03 -0.65815464818E+02  0.11644366314E+04  0.60002694747E+03 0.  0.
        -24    2    4    4    0    0  0.15277220112E+03 -0.45798433640E+03 -0.20835164446E+03  0.53143650330E+03  0.76976304567E+02 0.  0.
         24    2    4    4    0    0  0.56600309887E+03 -0.23115333028E+03  0.14253617965E+03  0.63300012813E+03  0.81124778443E+02 0.  0.
         11    1    3    3    0    0 -0.56059779434E+03  0.57348977180E+03 -0.20038749786E+03  0.82662903087E+03  0.00000000000E+00 0. -1.
        -12    1    3    3    0    0 -0.15817750565E+03  0.11564789488E+03 -0.41600116184E+02  0.20031257711E+03  0.00000000000E+00 0.  1.
         13    1    5    5    0    0  0.50332484715E+02 -0.63153628888E+02 -0.28438899234E+02  0.85618402514E+02  0.00000000000E+00 0. -1.
        -14    1    5    5    0    0  0.10243971641E+03 -0.39483070751E+03 -0.17991274523E+03  0.44581810079E+03  0.00000000000E+00 0.  1.
          4    1    6    6  502    0  0.27751750918E+03 -0.94132550202E+02  0.30870403782E+02  0.29466911399E+03  0.00000000000E+00 0. -1.
         -3    1    6    6    0  502  0.28848558968E+03 -0.13702078008E+03  0.11166577586E+03  0.33833101414E+03  0.00000000000E+00 0.  1.
<mgrwt>
<rscale>  0 0.10494993E+04</rscale>
<asrwt>0</asrwt>
<pdfrwt beam="1">  1        1 0.19224472E+00 0.10494993E+04</pdfrwt>
<pdfrwt beam="2">  1       -2 0.14489040E+00 0.10494993E+04</pdfrwt>
<totfact> 0.28069466E+00</totfact>
</mgrwt>
</event>
<event>
12    3  0.2422421E-007  0.7606817E+03  0.7818608E-02  0.9618740E-01
         -4   -1    0    0    0  501 -0.00000000000E+00  0.00000000000E+00  0.12677988079E+04  0.12677988079E+04  0.00000000000E+00 0.  1.
          3   -1    0    0  501    0  0.00000000000E+00 -0.00000000000E+00 -0.57150105812E+03  0.57150105812E+03  0.00000000000E+00 0. -1.
        -24    2    1    2    0    0 -0.62278008146E+03  0.27797112784E+03 -0.13198332737E+02  0.68667664902E+03  0.78915439238E+02 0.  0.
    5000000    2    1    2    0    0  0.62278008146E+03 -0.27797112784E+03  0.70949608256E+03  0.11526232170E+04  0.60002717564E+03 0.  0.
        -24    2    4    4    0    0  0.15306521928E+03 -0.31999859783E+03  0.52797745274E+03  0.64098514437E+03  0.79206696316E+02 0.  0.
         24    2    4    4    0    0  0.46971486218E+03  0.42027469982E+02  0.18151862982E+03  0.51163807267E+03  0.80163236235E+02 0.  0.
         13    1    5    5    0    0  0.14954058589E+03 -0.32346362262E+03  0.50881460006E+03  0.62119513779E+03  0.00000000000E+00 0. -1.
        -14    1    5    5    0    0  0.35246333937E+01  0.34650247986E+01  0.19162852684E+02  0.19790006579E+02  0.00000000000E+00 0.  1.
         13    1    3    3    0    0 -0.14040531980E+03  0.99897472840E+02 -0.15579859056E+00  0.17231710066E+03  0.00000000000E+00 0. -1.
        -14    1    3    3    0    0 -0.48237476166E+03  0.17807365500E+03 -0.13042534146E+02  0.51435954836E+03  0.00000000000E+00 0.  1.
          4    1    6    6  502    0  0.36276075382E+03  0.50515118865E+02  0.10899242121E+03  0.38213412518E+03  0.00000000000E+00 0. -1.
         -3    1    6    6    0  502  0.10695410836E+03 -0.84876488831E+01  0.72526208614E+02  0.12950394748E+03  0.00000000000E+00 0.  1.
<mgrwt>
<rscale>  0 0.76068165E+03</rscale>
<asrwt>0</asrwt>
<pdfrwt beam="1">  1        3 0.87923240E-01 0.76068165E+03</pdfrwt>
<pdfrwt beam="2">  1       -4 0.19504597E+00 0.76068165E+03</pdfrwt>
<totfact> 0.37738646E-01</totfact>
</mgrwt>
</event>
<event>
12    3  0.2422421E-007  0.1181952E+04  0.7818608E-02  0.9128802E-01
         -2   -1    0    0    0  501 -0.00000000000E+00  0.00000000000E+00  0.11911938704E+04  0.11911938704E+04  0.00000000000E+00 0.  1.
          1   -1    0    0  501    0  0.00000000000E+00 -0.00000000000E+00 -0.14929151804E+04  0.14929151804E+04  0.00000000000E+00 0. -1.
        -24    2    1    2    0    0  0.40341894318E+03  0.11053832508E+04  0.32312424718E+03  0.12229270452E+04  0.80760782417E+02 0.  0.
    5000000    2    1    2    0    0 -0.40341894318E+03 -0.11053832508E+04 -0.62484555711E+03  0.14611820056E+04  0.60000159027E+03 0.  0.
        -24    2    4    4    0    0 -0.10161541726E+03 -0.22124340398E+03  0.99052244815E+02  0.27631674919E+03  0.85236505405E+02 0.  0.
         24    2    4    4    0    0 -0.30180352592E+03 -0.88413984680E+03 -0.72389780193E+03  0.11848652564E+04  0.84196265729E+02 0.  0.
         13    1    5    5    0    0  0.67109619040E+01 -0.28681704174E+02  0.36080455310E+02  0.46577638620E+02  0.00000000000E+00 0. -1.
        -14    1    5    5    0    0 -0.10832637916E+03 -0.19256169980E+03  0.62971789504E+02  0.22973911057E+03  0.00000000000E+00 0.  1.
         13    1    3    3    0    0  0.27840123669E+03  0.77388559238E+03  0.18731268541E+03  0.84349997084E+03  0.00000000000E+00 0. -1.
        -14    1    3    3    0    0  0.12501770648E+03  0.33149765840E+03  0.13581156177E+03  0.37942707437E+03  0.00000000000E+00 0.  1.
          4    1    6    6  502    0 -0.14753245195E+03 -0.53714541332E+03 -0.46014089432E+03  0.72250997367E+03  0.00000000000E+00 0. -1.
         -3    1    6    6    0  502 -0.15427107397E+03 -0.34699443348E+03 -0.26375690761E+03  0.46235528270E+03  0.00000000000E+00 0.  1.
<mgrwt>
<rscale>  0 0.11819523E+04</rscale>
<asrwt>0</asrwt>
<pdfrwt beam="1">  1        1 0.22967926E+00 0.11819523E+04</pdfrwt>
<pdfrwt beam="2">  1       -2 0.18326060E+00 0.11819523E+04</pdfrwt>
<totfact> 0.97538646E-01</totfact>
</mgrwt>
</event>
<event>
12    3  0.2422421E-007  0.5268622E+03  0.7818608E-02  0.1006996E+00
         -2   -1    0    0    0  501 -0.00000000000E+00  0.00000000000E+00  0.46954443745E+03  0.46954443745E+03  0.00000000000E+00 0.  1.
          1   -1    0    0  501    0  0.00000000000E+00 -0.00000000000E+00 -0.11691006655E+04  0.11691006655E+04  0.00000000000E+00 0. -1.
        -24    2    1    2    0    0 -0.25849084978E+03  0.26396539432E+03 -0.83928963347E+03  0.92031758039E+03  0.77987890843E+02 0.  0.
    5000000    2    1    2    0    0  0.25849084978E+03 -0.26396539432E+03  0.13973340544E+03  0.71832752254E+03  0.59997812978E+03 0.  0.
        -24    2    4    4    0    0  0.21111977020E+03  0.15221966709E+03  0.87116607676E+02  0.28585773092E+03  0.79893395070E+02 0.  0.
         24    2    4    4    0    0  0.47371079582E+02 -0.41618506140E+03  0.52616797765E+02  0.43246979162E+03  0.93848648039E+02 0.  0.
         11    1    3    3    0    0 -0.15847196458E+03  0.14822956080E+03 -0.39861720491E+03  0.45385134384E+03  0.00000000000E+00 0. -1.
        -12    1    3    3    0    0 -0.10001888520E+03  0.11573583352E+03 -0.44067242855E+03  0.46646623655E+03  0.00000000000E+00 0.  1.
         13    1    5    5    0    0  0.15851222628E+02  0.46952064663E+00 -0.11531070983E+02  0.19607327876E+02  0.00000000000E+00 0. -1.
        -14    1    5    5    0    0  0.19526854757E+03  0.15175014644E+03  0.98647678659E+02  0.26625040304E+03  0.00000000000E+00 0.  1.
          4    1    6    6  502    0 -0.66660456622E+01 -0.55025979742E+02 -0.22193788637E+02  0.59706439061E+02  0.00000000000E+00 0. -1.
         -3    1    6    6    0  502  0.54037125244E+02 -0.36115908166E+03  0.74810586402E+02  0.37276335256E+03  0.00000000000E+00 0.  1.
<mgrwt>
<rscale>  0 0.52686224E+03</rscale>
<asrwt>0</asrwt>
<pdfrwt beam="1">  1        1 0.17986164E+00 0.52686224E+03</pdfrwt>
<pdfrwt beam="2">  1       -2 0.72237606E-01 0.52686224E+03</pdfrwt>
<totfact> 0.18116278E+01</totfact>
</mgrwt>
</event>
<event>
12    3  0.2422421E-007  0.5676696E+03  0.7818608E-02  0.9974849E-01
         -2   -1    0    0    0  501 -0.00000000000E+00  0.00000000000E+00  0.54091307061E+03  0.54091307061E+03  0.00000000000E+00 0.  1.
          1   -1    0    0  501    0  0.00000000000E+00 -0.00000000000E+00 -0.14645375204E+04  0.14645375204E+04  0.00000000000E+00 0. -1.
        -24    2    1    2    0    0  0.74103902631E+02  0.53873575195E+03 -0.10507598797E+04  0.11857878314E+04  0.79176116270E+02 0.  0.
    5000000    2    1    2    0    0 -0.74103902631E+02 -0.53873575195E+03  0.12713542988E+03  0.81966275969E+03  0.59996335161E+03 0.  0.
        -24    2    4    4    0    0 -0.86906108127E+02 -0.12120435672E+03 -0.21477813725E+03  0.27366121896E+03  0.80731944125E+02 0.  0.
         24    2    4    4    0    0  0.12802205496E+02 -0.41753139523E+03  0.34191356713E+03  0.54600154072E+03  0.81953844440E+02 0.  0.
         11    1    5    5    0    0 -0.10027667285E+03 -0.93603363144E+02 -0.15889676613E+03  0.20991708601E+03  0.00000000000E+00 0. -1.
        -12    1    5    5    0    0  0.13370564725E+02 -0.27600993580E+02 -0.55881371122E+02  0.63744132954E+02  0.00000000000E+00 0.  1.
         13    1    3    3    0    0  0.65470312701E+02  0.25976392775E+03 -0.57173491303E+03  0.63138298265E+03  0.00000000000E+00 0. -1.
        -14    1    3    3    0    0  0.86335899298E+01  0.27897182420E+03 -0.47902496669E+03  0.55440484872E+03  0.00000000000E+00 0.  1.
          4    1    6    6  502    0 -0.18475417275E+02 -0.17084827771E+03  0.98688149225E+02  0.19816615714E+03  0.00000000000E+00 0. -1.
         -3    1    6    6    0  502  0.31277622771E+02 -0.24668311752E+03  0.24322541791E+03  0.34783538358E+03  0.00000000000E+00 0.  1.
<mgrwt>
<rscale>  0 0.56766964E+03</rscale>
<asrwt>0</asrwt>
<pdfrwt beam="1">  1        1 0.22531346E+00 0.56766964E+03</pdfrwt>
<pdfrwt beam="2">  1       -2 0.83217397E-01 0.56766964E+03</pdfrwt>
<totfact> 0.81598121E+00</totfact>
</mgrwt>
</event>
<event>
12    3  0.2609691E-007  0.1524480E+04  0.7818608E-02  0.8868336E-01
          1   -1    0    0  501    0  0.00000000000E+00  0.00000000000E+00  0.18911448674E+04  0.18911448674E+04  0.00000000000E+00 0. -1.
         -2   -1    0    0    0  501 -0.00000000000E+00 -0.00000000000E+00 -0.13437215983E+04  0.13437215983E+04  0.00000000000E+00 0.  1.
        -24    2    1    2    0    0 -0.82849069009E+03 -0.12368531077E+04 -0.12211143369E+03  0.14958118210E+04  0.79620147743E+02 0.  0.
    5000000    2    1    2    0    0  0.82849069009E+03  0.12368531077E+04  0.66953470274E+03  0.17390546447E+04  0.59985990475E+03 0.  0.
        -24    2    4    4    0    0  0.83333683168E+03  0.12087811409E+04  0.71844133135E+03  0.16365466655E+04  0.80776978302E+02 0.  0.
         24    2    4    4    0    0 -0.48461415975E+01  0.28071966824E+02 -0.48906628605E+02  0.10250797914E+03  0.85466408937E+02 0.  0.
         11    1    5    5    0    0  0.37295855713E+03  0.54339105222E+03  0.27792501647E+03  0.71527214104E+03  0.00000000000E+00 0. -1.
        -12    1    5    5    0    0  0.46037827456E+03  0.66539008870E+03  0.44051631488E+03  0.92127452450E+03  0.00000000000E+00 0.  1.
         13    1    3    3    0    0 -0.39358673568E+03 -0.65758469834E+03 -0.54625670051E+02  0.76831771932E+03  0.00000000000E+00 0. -1.
        -14    1    3    3    0    0 -0.43490395441E+03 -0.57926840941E+03 -0.67485763642E+02  0.72749410169E+03  0.00000000000E+00 0.  1.
          4    1    6    6  502    0  0.36033631710E+02 -0.63481078607E+01 -0.21717294430E+02  0.42548348558E+02  0.00000000000E+00 0. -1.
         -3    1    6    6    0  502 -0.40879773308E+02  0.34420074684E+02 -0.27189334175E+02  0.59959630585E+02  0.00000000000E+00 0.  1.
<mgrwt>
<rscale>  0 0.15244796E+04</rscale>
<asrwt>0</asrwt>
<pdfrwt beam="1">  1        1 0.29094536E+00 0.15244796E+04</pdfrwt>
<pdfrwt beam="2">  1       -2 0.20672640E+00 0.15244796E+04</pdfrwt>
<totfact> 0.34979867E-01</totfact>
</mgrwt>
</event>
<event>
12    3  0.2422421E-007  0.4288574E+03  0.7818608E-02  0.1034222E+00
         -2   -1    0    0    0  501 -0.00000000000E+00  0.00000000000E+00  0.13386946087E+03  0.13386946087E+03  0.00000000000E+00 0.  1.
          1   -1    0    0  501    0  0.00000000000E+00 -0.00000000000E+00 -0.17659078920E+04  0.17659078920E+04  0.00000000000E+00 0. -1.
        -24    2    1    2    0    0 -0.21590698600E+03  0.68264297663E+02 -0.14565619571E+03  0.28086366788E+03  0.79955185248E+02 0.  0.
    5000000    2    1    2    0    0  0.21590698600E+03 -0.68264297663E+02 -0.14863822355E+04  0.16189136850E+04  0.60022789736E+03 0.  0.
        -24    2    4    4    0    0 -0.18150089382E+03 -0.11772412796E+03 -0.47005511693E+03  0.52365522420E+03  0.80383058648E+02 0.  0.
         24    2    4    4    0    0  0.39740787981E+03  0.49459830301E+02 -0.10163271185E+04  0.10952584608E+04  0.79315738803E+02 0.  0.
         11    1    5    5    0    0 -0.13504093676E+03 -0.71391658768E+02 -0.24051718914E+03  0.28492339640E+03  0.00000000000E+00 0. -1.
        -12    1    5    5    0    0 -0.46459957057E+02 -0.46332469196E+02 -0.22953792779E+03  0.23873182780E+03  0.00000000000E+00 0.  1.
         13    1    3    3    0    0 -0.13380520002E+03  0.79255645261E+02 -0.78382423710E+02  0.17415249985E+03  0.00000000000E+00 0. -1.
        -14    1    3    3    0    0 -0.82101785977E+02 -0.10991347598E+02 -0.67273771998E+02  0.10671116803E+03  0.00000000000E+00 0.  1.
          2    1    6    6  502    0  0.14274684638E+03  0.78628374447E+01 -0.26886936347E+03  0.30451473031E+03  0.00000000000E+00 0. -1.
         -1    1    6    6    0  502  0.25466103343E+03  0.41596992856E+02 -0.74745775506E+03  0.79074373052E+03  0.00000000000E+00 0.  1.
<mgrwt>
<rscale>  0 0.42885735E+03</rscale>
<asrwt>0</asrwt>
<pdfrwt beam="1">  1        1 0.27167812E+00 0.42885735E+03</pdfrwt>
<pdfrwt beam="2">  1       -2 0.20595303E-01 0.42885735E+03</pdfrwt>
<totfact> 0.81886577E+01</totfact>
</mgrwt>
</event>
<event>
12    3  0.2422421E-007  0.8268002E+03  0.7818608E-02  0.9522015E-01
          1   -1    0    0  501    0  0.00000000000E+00  0.00000000000E+00  0.67685843921E+03  0.67685843921E+03  0.00000000000E+00 0. -1.
         -2   -1    0    0    0  501 -0.00000000000E+00 -0.00000000000E+00 -0.11827243897E+04  0.11827243897E+04  0.00000000000E+00 0.  1.
        -24    2    1    2    0    0 -0.71414071475E+03 -0.28763500921E+03 -0.32226437914E+02  0.77462280752E+03  0.79190224341E+02 0.  0.
    5000000    2    1    2    0    0  0.71414071475E+03  0.28763500921E+03 -0.47363951256E+03  0.10849600214E+04  0.60006083118E+03 0.  0.
        -24    2    4    4    0    0  0.74691130473E+03  0.26974989632E+03 -0.54807619721E+03  0.96825762740E+03  0.80584188068E+02 0.  0.
         24    2    4    4    0    0 -0.32770589980E+02  0.17885112892E+02  0.74436684653E+02  0.11670239397E+03  0.81760870257E+02 0.  0.
         11    1    5    5    0    0  0.36196165571E+03  0.89147146285E+02 -0.24471409193E+03  0.44592425443E+03  0.00000000000E+00 0. -1.
        -12    1    5    5    0    0  0.38494964902E+03  0.18060275003E+03 -0.30336210528E+03  0.52233337297E+03  0.00000000000E+00 0.  1.
         13    1    3    3    0    0 -0.19653654269E+03 -0.42586577161E+02 -0.15587454928E+02  0.20170076331E+03  0.00000000000E+00 0. -1.
        -14    1    3    3    0    0 -0.51760417206E+03 -0.24504843205E+03 -0.16638982986E+02  0.57292204421E+03  0.00000000000E+00 0.  1.
          4    1    6    6  502    0  0.23411098201E+02  0.83117124747E+01  0.47633768268E+02  0.53722806727E+02  0.00000000000E+00 0. -1.
         -3    1    6    6    0  502 -0.56181688181E+02  0.95734004177E+01  0.26802916385E+02  0.62979587242E+02  0.00000000000E+00 0.  1.
<mgrwt>
<rscale>  0 0.82680015E+03</rscale>
<asrwt>0</asrwt>
<pdfrwt beam="1">  1        1 0.10413207E+00 0.82680015E+03</pdfrwt>
<pdfrwt beam="2">  1       -2 0.18195760E+00 0.82680015E+03</pdfrwt>
<totfact> 0.44803521E+00</totfact>
</mgrwt>
</event>
<event>
12    3  0.2422421E-007  0.1414775E+04  0.7818608E-02  0.8943192E-01
         -2   -1    0    0    0  501 -0.00000000000E+00  0.00000000000E+00  0.61449378316E+03  0.61449378316E+03  0.00000000000E+00 0.  1.
          1   -1    0    0  501    0  0.00000000000E+00 -0.00000000000E+00 -0.38608464085E+04  0.38608464085E+04  0.00000000000E+00 0. -1.
        -24    2    1    2    0    0  0.11125675037E+04 -0.77866661653E+03 -0.24199649774E+04  0.27760470485E+04  0.77965208918E+02 0.  0.
    5000000    2    1    2    0    0 -0.11125675037E+04  0.77866661653E+03 -0.82638764798E+03  0.16992931432E+04  0.60046023322E+03 0.  0.
        -24    2    4    4    0    0 -0.69280345262E+03  0.14314334372E+03 -0.31803050520E+03  0.78011095002E+03  0.83444899736E+02 0.  0.
         24    2    4    4    0    0 -0.41976405109E+03  0.63552327281E+03 -0.50835714279E+03  0.91918219315E+03  0.79857565166E+02 0.  0.
         11    1    3    3    0    0  0.45239431431E+03 -0.29797693729E+03 -0.89435670020E+03  0.10456217184E+04  0.00000000000E+00 0. -1.
        -12    1    3    3    0    0  0.66017318940E+03 -0.48068967924E+03 -0.15256082772E+04  0.17304253301E+04  0.00000000000E+00 0.  1.
         13    1    5    5    0    0 -0.38717099612E+03  0.88919434919E+02 -0.22260342639E+03  0.45536834715E+03  0.00000000000E+00 0. -1.
        -14    1    5    5    0    0 -0.30563245650E+03  0.54223908803E+02 -0.95427078812E+02  0.32474260288E+03  0.00000000000E+00 0.  1.
          2    1    6    6  502    0 -0.59143931493E+02  0.12744973275E+03 -0.12190803493E+03  0.18601883773E+03  0.00000000000E+00 0. -1.
         -1    1    6    6    0  502 -0.36062011960E+03  0.50807354006E+03 -0.38644910785E+03  0.73316335542E+03  0.00000000000E+00 0.  1.
<mgrwt>
<rscale>  0 0.14147753E+04</rscale>
<asrwt>0</asrwt>
<pdfrwt beam="1">  1        1 0.59397637E+00 0.14147753E+04</pdfrwt>
<pdfrwt beam="2">  1       -2 0.94537505E-01 0.14147753E+04</pdfrwt>
<totfact> 0.10241696E-01</totfact>
</mgrwt>
</event>
<event>
12    3  0.2422421E-007  0.1258584E+04  0.7818608E-02  0.9063069E-01
         -2   -1    0    0    0  501 -0.00000000000E+00  0.00000000000E+00  0.14811274511E+04  0.14811274511E+04  0.00000000000E+00 0.  1.
          1   -1    0    0  501    0  0.00000000000E+00 -0.00000000000E+00 -0.14998944619E+04  0.14998944619E+04  0.00000000000E+00 0. -1.
        -24    2    1    2    0    0  0.67646058739E+02  0.12000877512E+04 -0.78180826923E+03  0.14360215014E+04  0.78402695940E+02 0.  0.
    5000000    2    1    2    0    0 -0.67646058739E+02 -0.12000877512E+04  0.76304125841E+03  0.15450004117E+04  0.60000642513E+03 0.  0.
        -24    2    4    4    0    0 -0.14618840613E+03 -0.12133597765E+04  0.73653928966E+03  0.14290584718E+04  0.78134456360E+02 0.  0.
         24    2    4    4    0    0  0.78542347392E+02  0.13272025328E+02  0.26501968752E+02  0.11594193986E+03  0.79969569719E+02 0.  0.
         13    1    5    5    0    0 -0.12069724628E+03 -0.86505442834E+03  0.56216322028E+03  0.10387080800E+04  0.00000000000E+00 0. -1.
        -14    1    5    5    0    0 -0.25491159846E+02 -0.34830534818E+03  0.17437606938E+03  0.39035039179E+03  0.00000000000E+00 0.  1.
         13    1    3    3    0    0  0.44611258537E+02  0.32107165407E+03 -0.18401065375E+03  0.37274266207E+03  0.00000000000E+00 0. -1.
        -14    1    3    3    0    0  0.23034800202E+02  0.87901609713E+03 -0.59779761548E+03  0.10632788393E+04  0.00000000000E+00 0.  1.
          2    1    6    6  502    0  0.37385936981E+02  0.28636617956E+02  0.47816639049E+02  0.67113300782E+02  0.00000000000E+00 0. -1.
         -1    1    6    6    0  502  0.41156410410E+02 -0.15364592628E+02 -0.21314670297E+02  0.48828639080E+02  0.00000000000E+00 0.  1.
<mgrwt>
<rscale>  0 0.12585844E+04</rscale>
<asrwt>0</asrwt>
<pdfrwt beam="1">  1        1 0.23075299E+00 0.12585844E+04</pdfrwt>
<pdfrwt beam="2">  1       -2 0.22786576E+00 0.12585844E+04</pdfrwt>
<totfact> 0.48950271E-01</totfact>
</mgrwt>
</event>
<event>
12    3  0.2422421E-007  0.4516111E+03  0.7818608E-02  0.1027243E+00
          1   -1    0    0  501    0  0.00000000000E+00  0.00000000000E+00  0.14026849640E+04  0.14026849640E+04  0.00000000000E+00 0. -1.
         -2   -1    0    0    0  501 -0.00000000000E+00 -0.00000000000E+00 -0.23149451413E+03  0.23149451413E+03  0.00000000000E+00 0.  1.
        -24    2    1    2    0    0  0.20855536262E+03 -0.27643051057E+03  0.73246680430E+03  0.81419921634E+03  0.80644764497E+02 0.  0.
    5000000    2    1    2    0    0 -0.20855536262E+03  0.27643051057E+03  0.43872364560E+03  0.81998026182E+03  0.59998335487E+03 0.  0.
        -24    2    4    4    0    0 -0.97861660977E+02  0.38207498532E+03  0.49575952113E+03  0.63866722788E+03  0.80994605207E+02 0.  0.
         24    2    4    4    0    0 -0.11069370164E+03 -0.10564447475E+03 -0.57035875533E+02  0.18131303395E+03  0.78787527896E+02 0.  0.
         13    1    3    3    0    0  0.17198116605E+03 -0.22265492803E+03  0.65620200398E+03  0.71397045351E+03  0.00000000000E+00 0. -1.
        -14    1    3    3    0    0  0.36574196567E+02 -0.53775582532E+02  0.76264800315E+02  0.10022876283E+03  0.00000000000E+00 0.  1.
         13    1    5    5    0    0 -0.72406902840E+02  0.14927139167E+03  0.17079597635E+03  0.23810916296E+03  0.00000000000E+00 0. -1.
        -14    1    5    5    0    0 -0.25454758137E+02  0.23280359365E+03  0.32496354479E+03  0.40055806492E+03  0.00000000000E+00 0.  1.
          2    1    6    6  502    0 -0.54135863810E+02 -0.28752837670E+02 -0.60054013227E+02  0.85813180393E+02  0.00000000000E+00 0. -1.
         -1    1    6    6    0  502 -0.56557837829E+02 -0.76891637085E+02  0.30181376932E+01  0.95499853553E+02  0.00000000000E+00 0.  1.
<mgrwt>
<rscale>  0 0.45161109E+03</rscale>
<asrwt>0</asrwt>
<pdfrwt beam="1">  1        1 0.21579768E+00 0.45161109E+03</pdfrwt>
<pdfrwt beam="2">  1       -2 0.35614542E-01 0.45161109E+03</pdfrwt>
<totfact> 0.52935693E+01</totfact>
</mgrwt>
</event>
<event>
12    3  0.2422421E-007  0.8625460E+03  0.7818608E-02  0.9473651E-01
          1   -1    0    0  501    0  0.00000000000E+00  0.00000000000E+00  0.35345848862E+04  0.35345848862E+04  0.00000000000E+00 0. -1.
         -2   -1    0    0    0  501 -0.00000000000E+00 -0.00000000000E+00 -0.40968337784E+03  0.40968337784E+03  0.00000000000E+00 0.  1.
        -24    2    1    2    0    0  0.69952523831E+03  0.49064665018E+03  0.26250245270E+03  0.89741576144E+03  0.79861234872E+02 0.  0.
    5000000    2    1    2    0    0 -0.69952523831E+03 -0.49064665018E+03  0.28623990557E+04  0.30468525027E+04  0.59992676589E+03 0.  0.
        -24    2    4    4    0    0 -0.49765412356E+03 -0.36977268557E+03  0.26423952086E+04  0.27153274558E+04  0.79745146424E+02 0.  0.
         24    2    4    4    0    0 -0.20187111475E+03 -0.12087396461E+03  0.22000384711E+03  0.33152504681E+03  0.78388147215E+02 0.  0.
         13    1    3    3    0    0  0.61692286796E+03  0.42631702377E+03  0.20254222746E+03  0.77676469003E+03  0.00000000000E+00 0. -1.
        -14    1    3    3    0    0  0.82602370354E+02  0.64329626409E+02  0.59960225240E+02  0.12065107141E+03  0.00000000000E+00 0.  1.
         13    1    5    5    0    0 -0.26436268455E+03 -0.23199023904E+03  0.16100912005E+04  0.16480596998E+04  0.00000000000E+00 0. -1.
        -14    1    5    5    0    0 -0.23329143901E+03 -0.13778244653E+03  0.10323040081E+04  0.10672677561E+04  0.00000000000E+00 0.  1.
          4    1    6    6  502    0 -0.25079501788E+02  0.10896357908E+02  0.20588669533E+02  0.34228720963E+02  0.00000000000E+00 0. -1.
         -3    1    6    6    0  502 -0.17679161296E+03 -0.13177032252E+03  0.19941517758E+03  0.29729632584E+03  0.00000000000E+00 0.  1.
<mgrwt>
<rscale>  0 0.86254603E+03</rscale>
<asrwt>0</asrwt>
<pdfrwt beam="1">  1        1 0.54378227E+00 0.86254603E+03</pdfrwt>
<pdfrwt beam="2">  1       -2 0.63028214E-01 0.86254603E+03</pdfrwt>
<totfact> 0.51140596E-01</totfact>
</mgrwt>
</event>
<event>
12    3  0.2422421E-007  0.6231237E+03  0.7818608E-02  0.9858560E-01
          1   -1    0    0  501    0  0.00000000000E+00  0.00000000000E+00  0.10261059539E+04  0.10261059539E+04  0.00000000000E+00 0. -1.
         -2   -1    0    0    0  501 -0.00000000000E+00 -0.00000000000E+00 -0.46621465137E+03  0.46621465137E+03  0.00000000000E+00 0.  1.
        -24    2    1    2    0    0  0.21600625645E+03  0.43689764080E+03 -0.65226762113E+02  0.49820529440E+03  0.80098274076E+02 0.  0.
    5000000    2    1    2    0    0 -0.21600625645E+03 -0.43689764080E+03  0.62511806461E+03  0.99411531085E+03  0.59996200313E+03 0.  0.
        -24    2    4    4    0    0  0.17599028151E+03 -0.28284132490E+03  0.24757167814E+03  0.42275090949E+03  0.80341778688E+02 0.  0.
         24    2    4    4    0    0 -0.39199653796E+03 -0.15405631590E+03  0.37754638647E+03  0.57136440136E+03  0.80755005801E+02 0.  0.
         13    1    3    3    0    0  0.11293027179E+03  0.19242171215E+03 -0.66749798343E+02  0.23288387057E+03  0.00000000000E+00 0. -1.
        -14    1    3    3    0    0  0.10307598466E+03  0.24447592865E+03  0.15230362301E+01  0.26532142383E+03  0.00000000000E+00 0.  1.
         13    1    5    5    0    0  0.11875042216E+03 -0.15327712786E+03  0.18467528979E+03  0.26776949667E+03  0.00000000000E+00 0. -1.
        -14    1    5    5    0    0  0.57239859349E+02 -0.12956419704E+03  0.62896388352E+02  0.15498141282E+03  0.00000000000E+00 0.  1.
          4    1    6    6  502    0 -0.13392384987E+03 -0.68259382966E+02  0.18384432723E+03  0.23747353028E+03  0.00000000000E+00 0. -1.
         -3    1    6    6    0  502 -0.25807268809E+03 -0.85796932934E+02  0.19370205924E+03  0.33389087108E+03  0.00000000000E+00 0.  1.
<mgrwt>
<rscale>  0 0.62312370E+03</rscale>
<asrwt>0</asrwt>
<pdfrwt beam="1">  1        1 0.15786245E+00 0.62312370E+03</pdfrwt>
<pdfrwt beam="2">  1       -2 0.71725332E-01 0.62312370E+03</pdfrwt>
<totfact> 0.23167795E+01</totfact>
</mgrwt>
</event>
<event>
12    3  0.2422421E-007  0.6864419E+03  0.7818608E-02  0.9740703E-01
         -2   -1    0    0    0  501 -0.00000000000E+00  0.00000000000E+00  0.12265791283E+04  0.12265791283E+04  0.00000000000E+00 0.  1.
          1   -1    0    0  501    0  0.00000000000E+00 -0.00000000000E+00 -0.57196871503E+03  0.57196871503E+03  0.00000000000E+00 0. -1.
        -24    2    1    2    0    0 -0.20242350596E+03 -0.63518515349E+03  0.59873297689E+03  0.89993877112E+03  0.83505443949E+02 0.  0.
    5000000    2    1    2    0    0  0.20242350596E+03  0.63518515349E+03  0.55877436396E+02  0.89860907222E+03  0.59995043278E+03 0.  0.
        -24    2    4    4    0    0  0.74122987262E+00  0.34691960889E+03 -0.24229023014E+03  0.43061728684E+03  0.79830618526E+02 0.  0.
         24    2    4    4    0    0  0.20168227609E+03  0.28826554460E+03  0.29816766653E+03  0.46799178537E+03  0.79621536775E+02 0.  0.
         13    1    5    5    0    0  0.19566277320E+02  0.26153289034E+03 -0.21467957801E+03  0.33892419972E+03  0.00000000000E+00 0. -1.
        -14    1    5    5    0    0 -0.18825047448E+02  0.85386718544E+02 -0.27610652122E+02  0.91693087121E+02  0.00000000000E+00 0.  1.
         13    1    3    3    0    0 -0.15091209711E+03 -0.41132811310E+03  0.34493460548E+03  0.55762456881E+03  0.00000000000E+00 0. -1.
        -14    1    3    3    0    0 -0.51511408855E+02 -0.22385704039E+03  0.25379837141E+03  0.34231420231E+03  0.00000000000E+00 0.  1.
          2    1    6    6  502    0  0.19030857021E+03  0.24293406126E+03  0.22802690449E+03  0.38370637105E+03  0.00000000000E+00 0. -1.
         -1    1    6    6    0  502  0.11373705881E+02  0.45331483345E+02  0.70140762041E+02  0.84285414322E+02  0.00000000000E+00 0.  1.
<mgrwt>
<rscale>  0 0.68644189E+03</rscale>
<asrwt>0</asrwt>
<pdfrwt beam="1">  1        1 0.87995187E-01 0.68644189E+03</pdfrwt>
<pdfrwt beam="2">  1       -2 0.18870448E+00 0.68644189E+03</pdfrwt>
<totfact> 0.52452818E+00</totfact>
</mgrwt>
</event>
<event>
12    3  0.2422421E-007  0.8173806E+03  0.7818608E-02  0.9535195E-01
         -2   -1    0    0    0  501 -0.00000000000E+00  0.00000000000E+00  0.79452689898E+03  0.79452689898E+03  0.00000000000E+00 0.  1.
          1   -1    0    0  501    0  0.00000000000E+00 -0.00000000000E+00 -0.10129520114E+04  0.10129520114E+04  0.00000000000E+00 0. -1.
        -24    2    1    2    0    0  0.73567318110E+03  0.28984843124E+03 -0.17686693790E+03  0.81396795001E+03  0.77683765643E+02 0.  0.
    5000000    2    1    2    0    0 -0.73567318110E+03 -0.28984843124E+03 -0.41558174526E+02  0.99351096036E+03  0.60009149637E+03 0.  0.
        -24    2    4    4    0    0 -0.85459339379E+01  0.26958617503E+02 -0.17333306715E+03  0.18536919483E+03  0.59309241936E+02 0.  0.
         24    2    4    4    0    0 -0.72712724716E+03 -0.31680704874E+03  0.13177489262E+03  0.80814176554E+03  0.81533742584E+02 0.  0.
         13    1    5    5    0    0  0.30296019354E+01 -0.75693204610E+01 -0.12285944661E+03  0.12312967442E+03  0.00000000000E+00 0. -1.
        -14    1    5    5    0    0 -0.11575535873E+02  0.34527937964E+02 -0.50473620536E+02  0.62239520410E+02  0.00000000000E+00 0.  1.
         13    1    3    3    0    0  0.53378566312E+03  0.17464989485E+03 -0.13747137476E+03  0.57821111957E+03  0.00000000000E+00 0. -1.
        -14    1    3    3    0    0  0.20188751798E+03  0.11519853639E+03 -0.39395563142E+02  0.23575683044E+03  0.00000000000E+00 0.  1.
          4    1    6    6  502    0 -0.57987560558E+03 -0.28199407263E+03  0.89144520514E+02  0.65094018196E+03  0.00000000000E+00 0. -1.
         -1    1    6    6    0  502 -0.14725164158E+03 -0.34812976111E+02  0.42630372109E+02  0.15720158358E+03  0.00000000000E+00 0.  1.
<mgrwt>
<rscale>  0 0.81738058E+03</rscale>
<asrwt>0</asrwt>
<pdfrwt beam="1">  1        1 0.15583877E+00 0.81738058E+03</pdfrwt>
<pdfrwt beam="2">  1       -2 0.12223491E+00 0.81738058E+03</pdfrwt>
<totfact> 0.66802417E+00</totfact>
</mgrwt>
</event>
<event>
12    3  0.2422421E-007  0.1057136E+04  0.7818608E-02  0.9248008E-01
          1   -1    0    0  501    0  0.00000000000E+00  0.00000000000E+00  0.19043900874E+04  0.19043900874E+04  0.00000000000E+00 0. -1.
         -2   -1    0    0    0  501 -0.00000000000E+00 -0.00000000000E+00 -0.62626002584E+03  0.62626002584E+03  0.00000000000E+00 0.  1.
        -24    2    1    2    0    0  0.34380763979E+03  0.94164314426E+03  0.71439609137E+03  0.12334544058E+04  0.78437818662E+02 0.  0.
    5000000    2    1    2    0    0 -0.34380763979E+03 -0.94164314426E+03  0.56373397015E+03  0.12971957074E+04  0.60002100797E+03 0.  0.
        -24    2    4    4    0    0  0.94312657794E+02 -0.74885502500E+02 -0.41036159109E+02  0.15019313106E+03  0.79820388106E+02 0.  0.
         24    2    4    4    0    0 -0.43812029758E+03 -0.86675764176E+03  0.60477012926E+03  0.11470025764E+04  0.81546283127E+02 0.  0.
         11    1    3    3    0    0  0.58561527344E+02  0.25527316529E+03  0.17254725301E+03  0.31363417531E+03  0.00000000000E+00 0. -1.
        -12    1    3    3    0    0  0.28524611244E+03  0.68636997897E+03  0.54184883836E+03  0.91982023044E+03  0.00000000000E+00 0.  1.
         13    1    5    5    0    0  0.12089282455E+01 -0.36869693818E+02 -0.32675854391E+02  0.49280293119E+02  0.00000000000E+00 0. -1.
        -14    1    5    5    0    0  0.93103729549E+02 -0.38015808681E+02 -0.83603047184E+01  0.10091283794E+03  0.00000000000E+00 0.  1.
          2    1    6    6  502    0 -0.28954641927E+03 -0.54175753350E+03  0.33860872960E+03  0.70142300060E+03  0.00000000000E+00 0. -1.
         -1    1    6    6    0  502 -0.14857387831E+03 -0.32500010826E+03  0.26616139966E+03  0.44557957579E+03  0.00000000000E+00 0.  1.
<mgrwt>
<rscale>  0 0.10571357E+04</rscale>
<asrwt>0</asrwt>
<pdfrwt beam="1">  1        1 0.29298309E+00 0.10571357E+04</pdfrwt>
<pdfrwt beam="2">  1       -2 0.96347697E-01 0.10571357E+04</pdfrwt>
<totfact> 0.27334143E+00</totfact>
</mgrwt>
</event>
<event>
12    3  0.2422421E-007  0.8516954E+03  0.7818608E-02  0.9488064E-01
         -2   -1    0    0    0  501 -0.00000000000E+00  0.00000000000E+00  0.78650382459E+03  0.78650382459E+03  0.00000000000E+00 0.  1.
          1   -1    0    0  501    0  0.00000000000E+00 -0.00000000000E+00 -0.10031154790E+04  0.10031154790E+04  0.00000000000E+00 0. -1.
        -24    2    1    2    0    0 -0.24149534826E+03 -0.73969373345E+03 -0.19833011607E+03  0.80686359101E+03  0.78912591002E+02 0.  0.
    5000000    2    1    2    0    0  0.24149534826E+03  0.73969373345E+03 -0.18281538313E+02  0.98275571254E+03  0.60000646109E+03 0.  0.
        -24    2    4    4    0    0  0.37954454023E+03  0.64977516343E+03  0.10333348160E+03  0.76372239636E+03  0.79575556855E+02 0.  0.
         24    2    4    4    0    0 -0.13804919197E+03  0.89918570021E+02 -0.12161501991E+03  0.21903331618E+03  0.77733209723E+02 0.  0.
         11    1    3    3    0    0 -0.16483862700E+03 -0.56245793214E+03 -0.11885050252E+03  0.59804359400E+03  0.00000000000E+00 0. -1.
        -12    1    3    3    0    0 -0.76656721263E+02 -0.17723580132E+03 -0.79479613541E+02  0.20881999701E+03  0.00000000000E+00 0.  1.
         11    1    5    5    0    0  0.23444761309E+03  0.35363917281E+03  0.26524283749E+02  0.42512337674E+03  0.00000000000E+00 0. -1.
        -12    1    5    5    0    0  0.14509692714E+03  0.29613599062E+03  0.76809197847E+02  0.33859901961E+03  0.00000000000E+00 0.  1.
          4    1    6    6  502    0 -0.11716090156E+01 -0.39586596865E+01 -0.28346902217E+02  0.28645951188E+02  0.00000000000E+00 0. -1.
         -3    1    6    6    0  502 -0.13687758295E+03  0.93877229708E+02 -0.93268117692E+02  0.19038736500E+03  0.00000000000E+00 0.  1.
<mgrwt>
<rscale>  0 0.85169535E+03</rscale>
<asrwt>0</asrwt>
<pdfrwt beam="1">  1        1 0.15432546E+00 0.85169535E+03</pdfrwt>
<pdfrwt beam="2">  1       -2 0.12100059E+00 0.85169535E+03</pdfrwt>
<totfact> 0.69457240E+00</totfact>
</mgrwt>
</event>
<event>
12    3  0.2422421E-007  0.5763579E+03  0.7818608E-02  0.9955707E-01
          1   -1    0    0  501    0  0.00000000000E+00  0.00000000000E+00  0.12432484566E+04  0.12432484566E+04  0.00000000000E+00 0. -1.
         -2   -1    0    0    0  501 -0.00000000000E+00 -0.00000000000E+00 -0.37557790226E+03  0.37557790226E+03  0.00000000000E+00 0.  1.
        -24    2    1    2    0    0 -0.29070165495E+02  0.54169881223E+03  0.25647133489E+03  0.60499725692E+03  0.77210475841E+02 0.  0.
    5000000    2    1    2    0    0  0.29070165495E+02 -0.54169881223E+03  0.61119921944E+03  0.10138291019E+04  0.60000190363E+03 0.  0.
        -24    2    4    4    0    0  0.12684791714E+03 -0.17886796361E+03  0.58248463369E+03  0.62756575625E+03  0.80413229271E+02 0.  0.
         24    2    4    4    0    0 -0.97777751644E+02 -0.36283084861E+03  0.28714585759E+02  0.38626334567E+03  0.84664817673E+02 0.  0.
         11    1    5    5    0    0  0.24511457512E+02  0.31829500509E+01  0.61977549066E+02  0.66724503060E+02  0.00000000000E+00 0. -1.
        -12    1    5    5    0    0  0.10233645963E+03 -0.18205091366E+03  0.52050708462E+03  0.56084125318E+03  0.00000000000E+00 0.  1.
         11    1    3    3    0    0 -0.20692082915E+02  0.41595679905E+03  0.23163200520E+03  0.47655178817E+03  0.00000000000E+00 0. -1.
        -12    1    3    3    0    0 -0.83780825802E+01  0.12574201317E+03  0.24839329682E+02  0.12844546875E+03  0.00000000000E+00 0.  1.
          4    1    6    6  502    0 -0.89837915291E+02 -0.35169116295E+03  0.10051066115E+02  0.36312332485E+03  0.00000000000E+00 0. -1.
         -3    1    6    6    0  502 -0.79398363533E+01 -0.11139685661E+02  0.18663519644E+02  0.23140020818E+02  0.00000000000E+00 0.  1.
<mgrwt>
<rscale>  0 0.57635791E+03</rscale>
<asrwt>0</asrwt>
<pdfrwt beam="1">  1        1 0.19126899E+00 0.57635791E+03</pdfrwt>
<pdfrwt beam="2">  1       -2 0.57781216E-01 0.57635791E+03</pdfrwt>
<totfact> 0.25633755E+01</totfact>
</mgrwt>
</event>
<event>
12    3  0.2422421E-007  0.4543787E+03  0.7818608E-02  0.1026424E+00
          1   -1    0    0  501    0  0.00000000000E+00  0.00000000000E+00  0.14491547010E+04  0.14491547010E+04  0.00000000000E+00 0. -1.
         -2   -1    0    0    0  501 -0.00000000000E+00 -0.00000000000E+00 -0.21700673958E+03  0.21700673958E+03  0.00000000000E+00 0.  1.
        -24    2    1    2    0    0 -0.27260381652E+03 -0.61312804829E+02  0.85833049885E+03  0.90612779371E+03  0.79146904321E+02 0.  0.
    5000000    2    1    2    0    0  0.27260381652E+03  0.61312804829E+02  0.37381746262E+03  0.76003364691E+03  0.59986627531E+03 0.  0.
        -24    2    4    4    0    0  0.84705876374E+02  0.29670821731E+03  0.72809626247E+02  0.32678217790E+03  0.79211731514E+02 0.  0.
         24    2    4    4    0    0  0.18789794015E+03 -0.23539541248E+03  0.30100783637E+03  0.43325146901E+03  0.79902951872E+02 0.  0.
         11    1    5    5    0    0  0.42980845448E+02  0.68772925167E+02  0.46723362216E+02  0.93595624300E+02  0.00000000000E+00 0. -1.
        -12    1    5    5    0    0  0.41725030926E+02  0.22793529214E+03  0.26086264031E+02  0.23318655360E+03  0.00000000000E+00 0.  1.
         11    1    3    3    0    0 -0.80869910509E+02 -0.44397076460E+02  0.36758856125E+03  0.37898864519E+03  0.00000000000E+00 0. -1.
        -12    1    3    3    0    0 -0.19173390602E+03 -0.16915728369E+02  0.49074193760E+03  0.52713914852E+03  0.00000000000E+00 0.  1.
          2    1    6    6  502    0  0.12217139665E+03 -0.90322982916E+02  0.15805912418E+03  0.21924136959E+03  0.00000000000E+00 0. -1.
         -1    1    6    6    0  502  0.65726543500E+02 -0.14507242956E+03  0.14294871219E+03  0.21401009943E+03  0.00000000000E+00 0.  1.
<mgrwt>
<rscale>  0 0.45437873E+03</rscale>
<asrwt>0</asrwt>
<pdfrwt beam="1">  1        1 0.22294687E+00 0.45437873E+03</pdfrwt>
<pdfrwt beam="2">  1       -2 0.33385653E-01 0.45437873E+03</pdfrwt>
<totfact> 0.55559539E+01</totfact>
</mgrwt>
</event>
<event>
12    3  0.2422421E-007  0.1690476E+04  0.7818608E-02  0.8766815E-01
         -4   -1    0    0    0  501 -0.00000000000E+00  0.00000000000E+00  0.19112354864E+04  0.19112354864E+04  0.00000000000E+00 0.  1.
          3   -1    0    0  501    0  0.00000000000E+00 -0.00000000000E+00 -0.15296655420E+04  0.15296655420E+04  0.00000000000E+00 0. -1.
        -24    2    1    2    0    0  0.13166672142E+04 -0.98059703134E+03 -0.33222918265E+02  0.16444380393E+04  0.88823487119E+02 0.  0.
    5000000    2    1    2    0    0 -0.13166672142E+04  0.98059703134E+03  0.41479286268E+03  0.17964629891E+04  0.60003588327E+03 0.  0.
        -24    2    4    4    0    0 -0.13236140214E+03  0.38785959439E+03  0.14921736720E+03  0.44337315181E+03  0.79745365615E+02 0.  0.
         24    2    4    4    0    0 -0.11843058121E+04  0.59273743695E+03  0.26557549548E+03  0.13530898372E+04  0.80023984768E+02 0.  0.
         11    1    3    3    0    0  0.79862498981E+03 -0.55348579546E+03  0.88157524396E+01  0.97171298109E+03  0.00000000000E+00 0. -1.
        -12    1    3    3    0    0  0.51804222443E+03 -0.42711123589E+03 -0.42038670705E+02  0.67272505821E+03  0.00000000000E+00 0.  1.
         13    1    5    5    0    0 -0.85819027255E+02  0.29651050555E+03  0.77512248875E+02  0.31826330933E+03  0.00000000000E+00 0. -1.
        -14    1    5    5    0    0 -0.46542374889E+02  0.91349088841E+02  0.71705118323E+02  0.12510984248E+03  0.00000000000E+00 0.  1.
          2    1    6    6  502    0 -0.35714896186E+03  0.13910089807E+03  0.84465467597E+02  0.39247784144E+03  0.00000000000E+00 0. -1.
         -1    1    6    6    0  502 -0.82715685023E+03  0.45363653888E+03  0.18111002788E+03  0.96061199581E+03  0.00000000000E+00 0.  1.
<mgrwt>
<rscale>  0 0.16904758E+04</rscale>
<asrwt>0</asrwt>
<pdfrwt beam="1">  1        3 0.23533316E+00 0.16904758E+04</pdfrwt>
<pdfrwt beam="2">  1       -4 0.29403623E+00 0.16904758E+04</pdfrwt>
<totfact> 0.62268847E-03</totfact>
</mgrwt>
</event>
<event>
12    3  0.2422421E-007  0.1918758E+04  0.7818608E-02  0.8645575E-01
         -2   -1    0    0    0  501 -0.00000000000E+00  0.00000000000E+00  0.16874885563E+04  0.16874885563E+04  0.00000000000E+00 0.  1.
          1   -1    0    0  501    0  0.00000000000E+00 -0.00000000000E+00 -0.22402473644E+04  0.22402473644E+04  0.00000000000E+00 0. -1.
        -24    2    1    2    0    0 -0.12043747404E+04 -0.14449424051E+04 -0.51907661123E+03  0.19530096876E+04  0.80182556027E+02 0.  0.
    5000000    2    1    2    0    0  0.12043747404E+04  0.14449424051E+04 -0.33682196938E+02  0.19747262331E+04  0.60002677931E+03 0.  0.
        -24    2    4    4    0    0  0.11490335425E+04  0.10770347013E+04  0.75762088150E+02  0.15786554438E+04  0.78302530888E+02 0.  0.
         24    2    4    4    0    0  0.55341197872E+02  0.36790770374E+03 -0.10944428509E+03  0.39607078932E+03  0.80469198840E+02 0.  0.
         11    1    3    3    0    0 -0.69777625177E+03 -0.79464259582E+03 -0.32176325692E+03  0.11053868762E+04  0.00000000000E+00 0. -1.
        -12    1    3    3    0    0 -0.50659848865E+03 -0.65029980926E+03 -0.19731335431E+03  0.84762281140E+03  0.00000000000E+00 0.  1.
         11    1    5    5    0    0  0.46604820761E+03  0.39458319738E+03  0.51842533872E+02  0.61284947564E+03  0.00000000000E+00 0. -1.
        -12    1    5    5    0    0  0.68298533494E+03  0.68245150396E+03  0.23919554278E+02  0.96580596813E+03  0.00000000000E+00 0.  1.
          4    1    6    6  502    0  0.97810519462E+01  0.28272514933E+03 -0.67985316208E+02  0.29094876226E+03  0.00000000000E+00 0. -1.
         -3    1    6    6    0  502  0.45560145925E+02  0.85182554402E+02 -0.41458968880E+02  0.10512202705E+03  0.00000000000E+00 0.  1.
<mgrwt>
<rscale>  0 0.19187576E+04</rscale>
<asrwt>0</asrwt>
<pdfrwt beam="1">  1        1 0.34465344E+00 0.19187576E+04</pdfrwt>
<pdfrwt beam="2">  1       -2 0.25961362E+00 0.19187576E+04</pdfrwt>
<totfact> 0.90350562E-02</totfact>
</mgrwt>
</event>
<event>
12    3  0.2422421E-007  0.9654953E+03  0.7818608E-02  0.9347220E-01
          1   -1    0    0  501    0  0.00000000000E+00  0.00000000000E+00  0.32635533156E+04  0.32635533156E+04  0.00000000000E+00 0. -1.
         -2   -1    0    0    0  501 -0.00000000000E+00 -0.00000000000E+00 -0.45290314245E+03  0.45290314245E+03  0.00000000000E+00 0.  1.
        -24    2    1    2    0    0  0.76374961801E+03 -0.45323127549E+03  0.22732884710E+03  0.91968877644E+03  0.73600086311E+02 0.  0.
    5000000    2    1    2    0    0 -0.76374961801E+03  0.45323127549E+03  0.25833213260E+04  0.27967676816E+04  0.59969018932E+03 0.  0.
        -24    2    4    4    0    0 -0.61903587524E+03  0.65180851984E+02  0.12356556914E+04  0.13847019039E+04  0.55681386156E+02 0.  0.
         24    2    4    4    0    0 -0.14471374276E+03  0.38805042351E+03  0.13476656347E+04  0.14120657777E+04  0.78752137268E+02 0.  0.
         11    1    5    5    0    0 -0.47725792393E+02  0.19518866883E+02  0.11315951302E+03  0.12435357981E+03  0.00000000000E+00 0. -1.
        -12    1    5    5    0    0 -0.57131008285E+03  0.45661985101E+02  0.11224961783E+04  0.12603483241E+04  0.00000000000E+00 0.  1.
         11    1    3    3    0    0  0.39313833412E+03 -0.24258031304E+03  0.81154747668E+02  0.46902990427E+03  0.00000000000E+00 0. -1.
        -12    1    3    3    0    0  0.37061128389E+03 -0.21065096245E+03  0.14617409943E+03  0.45065887218E+03  0.00000000000E+00 0.  1.
          4    1    6    6  502    0 -0.59765273394E+02  0.24025582023E+03  0.70640279875E+03  0.74853167010E+03  0.00000000000E+00 0. -1.
         -3    1    6    6    0  502 -0.84948469367E+02  0.14779460328E+03  0.64126283591E+03  0.66353410758E+03  0.00000000000E+00 0.  1.
<mgrwt>
<rscale>  0 0.96549532E+03</rscale>
<asrwt>0</asrwt>
<pdfrwt beam="1">  1        1 0.50208511E+00 0.96549532E+03</pdfrwt>
<pdfrwt beam="2">  1       -2 0.69677408E-01 0.96549532E+03</pdfrwt>
<totfact> 0.65059917E-01</totfact>
</mgrwt>
</event>
<event>
12    3  0.2422421E-007  0.4752452E+03  0.7818608E-02  0.1020450E+00
         -2   -1    0    0    0  501 -0.00000000000E+00  0.00000000000E+00  0.26668286606E+03  0.26668286606E+03  0.00000000000E+00 0.  1.
          1   -1    0    0  501    0  0.00000000000E+00 -0.00000000000E+00 -0.17902142916E+04  0.17902142916E+04  0.00000000000E+00 0. -1.
        -24    2    1    2    0    0  0.58880850033E+02  0.30211627997E+03 -0.13125605637E+04  0.13509120013E+04  0.86062772393E+02 0.  0.
    5000000    2    1    2    0    0 -0.58880850033E+02 -0.30211627997E+03 -0.21097086178E+03  0.70598515629E+03  0.59930387556E+03 0.  0.
        -24    2    4    4    0    0 -0.31099717812E+03 -0.15920680716E+03 -0.39101129727E+02  0.35985235814E+03  0.76803444381E+02 0.  0.
         24    2    4    4    0    0  0.25211632808E+03 -0.14290947281E+03 -0.17186973205E+03  0.34613279816E+03  0.79265054465E+02 0.  0.
         11    1    5    5    0    0 -0.74112999596E+02 -0.17386859225E+02 -0.34860244316E+02  0.83727392272E+02  0.00000000000E+00 0. -1.
        -12    1    5    5    0    0 -0.23688417852E+03 -0.14181994793E+03 -0.42408854111E+01  0.27612496586E+03  0.00000000000E+00 0.  1.
         13    1    3    3    0    0  0.27004057206E+02  0.91572483993E+02 -0.25873104069E+03  0.27578341202E+03  0.00000000000E+00 0. -1.
        -14    1    3    3    0    0  0.31876792827E+02  0.21054379597E+03 -0.10538295230E+04  0.10751285893E+04  0.00000000000E+00 0.  1.
          4    1    6    6  502    0  0.14054592490E+03 -0.76424304282E+02 -0.48928839911E+02  0.16729573415E+03  0.00000000000E+00 0. -1.
         -3    1    6    6    0  502  0.11157040318E+03 -0.66485168525E+02 -0.12294089214E+03  0.17883706400E+03  0.00000000000E+00 0.  1.
<mgrwt>
<rscale>  0 0.47524520E+03</rscale>
<asrwt>0</asrwt>
<pdfrwt beam="1">  1        1 0.27541758E+00 0.47524520E+03</pdfrwt>
<pdfrwt beam="2">  1       -2 0.41028134E-01 0.47524520E+03</pdfrwt>
<totfact> 0.22089202E+01</totfact>
</mgrwt>
</event>
<event>
12    3  0.2422421E-007  0.8975173E+03  0.7818608E-02  0.9428690E-01
         -2   -1    0    0    0  501 -0.00000000000E+00  0.00000000000E+00  0.69071935918E+03  0.69071935918E+03  0.00000000000E+00 0.  1.
          1   -1    0    0  501    0  0.00000000000E+00 -0.00000000000E+00 -0.25268728721E+04  0.25268728721E+04  0.00000000000E+00 0. -1.
        -24    2    1    2    0    0 -0.77240189855E+03 -0.31033990626E+03 -0.20100831017E+04  0.21770681760E+04  0.79222579471E+02 0.  0.
    5000000    2    1    2    0    0  0.77240189855E+03  0.31033990626E+03  0.17392958873E+03  0.10405240553E+04  0.59960258296E+03 0.  0.
        -24    2    4    4    0    0  0.63970468516E+03  0.42118954221E+03 -0.17152922272E+02  0.77046141028E+03  0.81815935498E+02 0.  0.
         24    2    4    4    0    0  0.13269721339E+03 -0.11084963595E+03  0.19108251100E+03  0.27006264500E+03  0.80778177666E+02 0.  0.
         11    1    5    5    0    0  0.51774303334E+03  0.30129407791E+03 -0.20928874341E+02  0.59939468444E+03  0.00000000000E+00 0. -1.
        -12    1    5    5    0    0  0.12196165183E+03  0.11989546430E+03  0.37759520689E+01  0.17106672584E+03  0.00000000000E+00 0.  1.
         13    1    3    3    0    0 -0.33767329008E+03 -0.17797059991E+03 -0.90701586886E+03  0.98406024797E+03  0.00000000000E+00 0. -1.
        -14    1    3    3    0    0 -0.43472860847E+03 -0.13236930635E+03 -0.11030672328E+04  0.11930079280E+04  0.00000000000E+00 0.  1.
          2    1    6    6  502    0  0.11633701410E+03 -0.51403865471E+02  0.10969089105E+03  0.16795460641E+03  0.00000000000E+00 0. -1.
         -1    1    6    6    0  502  0.16360199290E+02 -0.59445770476E+02  0.81391619944E+02  0.10210803859E+03  0.00000000000E+00 0.  1.
<mgrwt>
<rscale>  0 0.89751726E+03</rscale>
<asrwt>0</asrwt>
<pdfrwt beam="1">  1        1 0.38874966E+00 0.89751726E+03</pdfrwt>
<pdfrwt beam="2">  1       -2 0.10626452E+00 0.89751726E+03</pdfrwt>
<totfact> 0.83799460E-01</totfact>
</mgrwt>
</event>
<event>
12    3  0.2422421E-007  0.1397535E+04  0.7818608E-02  0.8955605E-01
          1   -1    0    0  501    0  0.00000000000E+00  0.00000000000E+00  0.83342594461E+03  0.83342594461E+03  0.00000000000E+00 0. -1.
         -2   -1    0    0    0  501 -0.00000000000E+00 -0.00000000000E+00 -0.25456153486E+04  0.25456153486E+04  0.00000000000E+00 0.  1.
        -24    2    1    2    0    0  0.35331595315E+03  0.13470559947E+04 -0.88085823610E+03  0.16497180757E+04  0.79161110519E+02 0.  0.
    5000000    2    1    2    0    0 -0.35331595315E+03 -0.13470559947E+04 -0.83133116794E+03  0.17293232176E+04  0.60004605188E+03 0.  0.
        -24    2    4    4    0    0 -0.21142707600E+03 -0.10412781832E+04 -0.87421303661E+03  0.13781858163E+04  0.78651430743E+02 0.  0.
         24    2    4    4    0    0 -0.14188887714E+03 -0.30577781153E+03  0.42881868668E+02  0.35113740129E+03  0.88465227313E+02 0.  0.
         11    1    3    3    0    0  0.40469520624E+02  0.24626647130E+03 -0.18101823698E+03  0.30830595049E+03  0.00000000000E+00 0. -1.
        -12    1    3    3    0    0  0.31284643252E+03  0.11007895234E+04 -0.69983999912E+03  0.13414121252E+04  0.00000000000E+00 0.  1.
         13    1    5    5    0    0 -0.98184187025E+01 -0.67172601136E+02 -0.33241470670E+02  0.75588061633E+02  0.00000000000E+00 0. -1.
        -14    1    5    5    0    0 -0.20160865730E+03 -0.97410558207E+03 -0.84097156594E+03  0.13025977547E+04  0.00000000000E+00 0.  1.
          2    1    6    6  502    0 -0.17222635129E+02 -0.66259885707E+02  0.43508743461E+02  0.81117213785E+02  0.00000000000E+00 0. -1.
         -1    1    6    6    0  502 -0.12466624202E+03 -0.23951792582E+03 -0.62687479274E+00  0.27002018750E+03  0.00000000000E+00 0.  1.
<mgrwt>
<rscale>  0 0.13975346E+04</rscale>
<asrwt>0</asrwt>
<pdfrwt beam="1">  1        1 0.12821938E+00 0.13975346E+04</pdfrwt>
<pdfrwt beam="2">  1       -2 0.39163312E+00 0.13975346E+04</pdfrwt>
<totfact> 0.14732212E-01</totfact>
</mgrwt>
</event>
<event>
12    3  0.2422421E-007  0.4117378E+03  0.7818608E-02  0.1039789E+00
         -2   -1    0    0    0  501 -0.00000000000E+00  0.00000000000E+00  0.21506837750E+03  0.21506837750E+03  0.00000000000E+00 0.  1.
          1   -1    0    0  501    0  0.00000000000E+00 -0.00000000000E+00 -0.13386942019E+04  0.13386942019E+04  0.00000000000E+00 0. -1.
        -24    2    1    2    0    0 -0.27734460309E+03 -0.21587343639E+03 -0.25662991251E+03  0.44244351428E+03  0.79849746005E+02 0.  0.
    5000000    2    1    2    0    0  0.27734460309E+03  0.21587343639E+03 -0.86699591192E+03  0.11113190651E+04  0.59985563583E+03 0.  0.
        -24    2    4    4    0    0 -0.66074031999E+02  0.41876306848E+02  0.44595667157E+02  0.11895321415E+03  0.77728314326E+02 0.  0.
         24    2    4    4    0    0  0.34341863509E+03  0.17399712954E+03 -0.91159157907E+03  0.99236585098E+03  0.74695482701E+02 0.  0.
         11    1    5    5    0    0 -0.35680591870E+01 -0.37353979988E+01  0.41176502698E+02  0.41499260464E+02  0.00000000000E+00 0. -1.
        -12    1    5    5    0    0 -0.62505972812E+02  0.45611704847E+02  0.34191644587E+01  0.77453953688E+02  0.00000000000E+00 0.  1.
         13    1    3    3    0    0 -0.96822845606E+02 -0.47443858497E+02 -0.43441647373E+02  0.11624439714E+03  0.00000000000E+00 0. -1.
        -14    1    3    3    0    0 -0.18052175749E+03 -0.16842957789E+03 -0.21318826513E+03  0.32619911714E+03  0.00000000000E+00 0.  1.
          4    1    6    6  502    0  0.21506635934E+03  0.92073933308E+02 -0.46509799858E+03  0.52062202834E+03  0.00000000000E+00 0. -1.
         -3    1    6    6    0  502  0.12835227575E+03  0.81923196231E+02 -0.44649358050E+03  0.47174382264E+03  0.00000000000E+00 0.  1.
<mgrwt>
<rscale>  0 0.41173777E+03</rscale>
<asrwt>0</asrwt>
<pdfrwt beam="1">  1        1 0.20595296E+00 0.41173777E+03</pdfrwt>
<pdfrwt beam="2">  1       -2 0.33087442E-01 0.41173777E+03</pdfrwt>
<totfact> 0.67714602E+01</totfact>
</mgrwt>
</event>
<event>
12    3  0.2422421E-007  0.4772557E+03  0.7818608E-02  0.1019892E+00
         -2   -1    0    0    0  501 -0.00000000000E+00  0.00000000000E+00  0.13572609226E+03  0.13572609226E+03  0.00000000000E+00 0.  1.
          1   -1    0    0  501    0  0.00000000000E+00 -0.00000000000E+00 -0.20529795500E+04  0.20529795500E+04  0.00000000000E+00 0. -1.
        -24    2    1    2    0    0 -0.14032630788E+03 -0.31900580680E+03 -0.55861629991E+03  0.66321541359E+03  0.79663899248E+02 0.  0.
    5000000    2    1    2    0    0  0.14032630788E+03  0.31900580680E+03 -0.13586371578E+04  0.15254902287E+04  0.59980774729E+03 0.  0.
        -24    2    4    4    0    0  0.24614230570E+03 -0.15591522001E+02 -0.25103113683E+03  0.36086321230E+03  0.79852965661E+02 0.  0.
         24    2    4    4    0    0 -0.10581599782E+03  0.33459732880E+03 -0.11076060210E+04  0.11646270164E+04  0.80078659349E+02 0.  0.
         13    1    3    3    0    0 -0.12616097046E+03 -0.26453779110E+03 -0.40742066765E+03  0.50188488104E+03  0.00000000000E+00 0. -1.
        -14    1    3    3    0    0 -0.14165337416E+02 -0.54468015701E+02 -0.15119563226E+03  0.16133053255E+03  0.00000000000E+00 0.  1.
         13    1    5    5    0    0  0.36489341746E+02 -0.10566755370E+02 -0.85950687649E+02  0.93971533389E+02  0.00000000000E+00 0. -1.
        -14    1    5    5    0    0  0.20965296395E+03 -0.50247666314E+01 -0.16508044918E+03  0.26689167891E+03  0.00000000000E+00 0.  1.
          2    1    6    6  502    0  0.80398766815E+00  0.97246823829E+02 -0.24371601419E+03  0.26240252803E+03  0.00000000000E+00 0. -1.
         -1    1    6    6    0  502 -0.10661998549E+03  0.23735050497E+03 -0.86389000680E+03  0.90222448834E+03  0.00000000000E+00 0.  1.
<mgrwt>
<rscale>  0 0.47725574E+03</rscale>
<asrwt>0</asrwt>
<pdfrwt beam="1">  1        1 0.31584300E+00 0.47725574E+03</pdfrwt>
<pdfrwt beam="2">  1       -2 0.20880938E-01 0.47725574E+03</pdfrwt>
<totfact> 0.51241281E+01</totfact>
</mgrwt>
</event>
<event>
12    3  0.2422421E-007  0.7253975E+03  0.7818608E-02  0.9674758E-01
         -2   -1    0    0    0  501 -0.00000000000E+00  0.00000000000E+00  0.67348371837E+03  0.67348371837E+03  0.00000000000E+00 0.  1.
          1   -1    0    0  501    0  0.00000000000E+00 -0.00000000000E+00 -0.95393578515E+03  0.95393578515E+03  0.00000000000E+00 0. -1.
        -24    2    1    2    0    0 -0.55560142706E+03 -0.35554162509E+03 -0.31407069706E+03  0.73510387686E+03  0.81452526623E+02 0.  0.
    5000000    2    1    2    0    0  0.55560142706E+03  0.35554162509E+03  0.33618630278E+02  0.89231562666E+03  0.59999514360E+03 0.  0.
        -24    2    4    4    0    0  0.60381463154E+03  0.36234011641E+03  0.16828645925E+03  0.72833934169E+03  0.79217391201E+02 0.  0.
         24    2    4    4    0    0 -0.48213204477E+02 -0.67984913181E+01 -0.13466782897E+03  0.16397628496E+03  0.79887829489E+02 0.  0.
         11    1    5    5    0    0  0.53821968561E+03  0.31840213650E+03  0.12302491379E+03  0.63733466870E+03  0.00000000000E+00 0. -1.
        -12    1    5    5    0    0  0.65594945925E+02  0.43937979911E+02  0.45261545460E+02  0.91004672996E+02  0.00000000000E+00 0.  1.
         13    1    3    3    0    0 -0.16777988613E+03 -0.15287306585E+03 -0.11226960664E+03  0.25322861021E+03  0.00000000000E+00 0. -1.
        -14    1    3    3    0    0 -0.38782154093E+03 -0.20266855925E+03 -0.20180109041E+03  0.48187526665E+03  0.00000000000E+00 0.  1.
          4    1    6    6  502    0  0.14047947938E+02  0.10235778827E+02 -0.71788966515E+02  0.73863195996E+02  0.00000000000E+00 0. -1.
         -3    1    6    6    0  502 -0.62261152415E+02 -0.17034270146E+02 -0.62878862458E+02  0.90113088969E+02  0.00000000000E+00 0.  1.
<mgrwt>
<rscale>  0 0.72539752E+03</rscale>
<asrwt>0</asrwt>
<pdfrwt beam="1">  1        1 0.14675935E+00 0.72539752E+03</pdfrwt>
<pdfrwt beam="2">  1       -2 0.10361288E+00 0.72539752E+03</pdfrwt>
<totfact> 0.11235255E+01</totfact>
</mgrwt>
</event>
<event>
12    3  0.2422421E-007  0.5523107E+03  0.7818608E-02  0.1000961E+00
          1   -1    0    0  501    0  0.00000000000E+00  0.00000000000E+00  0.36932593938E+03  0.36932593938E+03  0.00000000000E+00 0. -1.
         -2   -1    0    0    0  501 -0.00000000000E+00 -0.00000000000E+00 -0.10811605006E+04  0.10811605006E+04  0.00000000000E+00 0.  1.
        -24    2    1    2    0    0 -0.59700803720E+02 -0.39415586416E+03  0.42825767269E+02  0.40725319579E+03  0.71400895808E+02 0.  0.
    5000000    2    1    2    0    0  0.59700803720E+02  0.39415586416E+03 -0.75466032845E+03  0.10432332441E+04  0.59991696020E+03 0.  0.
        -24    2    4    4    0    0 -0.58617652631E+02 -0.13786375605E+03 -0.19033457453E+03  0.25493572211E+03  0.79514323945E+02 0.  0.
         24    2    4    4    0    0  0.11831845635E+03  0.53201962022E+03 -0.56432575392E+03  0.78829752203E+03  0.76845906191E+02 0.  0.
         13    1    5    5    0    0 -0.55721003273E+02 -0.94315861186E+02 -0.78162697044E+02  0.13457235632E+03  0.00000000000E+00 0. -1.
        -14    1    5    5    0    0 -0.28966493580E+01 -0.43547894869E+02 -0.11217187748E+03  0.12036336578E+03  0.00000000000E+00 0.  1.
         13    1    3    3    0    0 -0.85765828268E+01 -0.27166152050E+03  0.37903564330E+02  0.27442707535E+03  0.00000000000E+00 0. -1.
        -14    1    3    3    0    0 -0.51124220894E+02 -0.12249434366E+03  0.49222029385E+01  0.13282612044E+03  0.00000000000E+00 0.  1.
          4    1    6    6  502    0  0.99586899253E+02  0.34920019243E+03 -0.41552711877E+03  0.55183431511E+03  0.00000000000E+00 0. -1.
         -3    1    6    6    0  502  0.18731557098E+02  0.18281942779E+03 -0.14879863515E+03  0.23646320693E+03  0.00000000000E+00 0.  1.
<mgrwt>
<rscale>  0 0.55231068E+03</rscale>
<asrwt>0</asrwt>
<pdfrwt beam="1">  1        1 0.56819375E-01 0.55231068E+03</pdfrwt>
<pdfrwt beam="2">  1       -2 0.16633238E+00 0.55231068E+03</pdfrwt>
<totfact> 0.13741252E+01</totfact>
</mgrwt>
</event>
<event>
12    3  0.2422421E-007  0.1064703E+04  0.7818608E-02  0.9240295E-01
          1   -1    0    0  501    0  0.00000000000E+00  0.00000000000E+00  0.61002982464E+03  0.61002982464E+03  0.00000000000E+00 0. -1.
         -2   -1    0    0    0  501 -0.00000000000E+00 -0.00000000000E+00 -0.19108556170E+04  0.19108556170E+04  0.00000000000E+00 0.  1.
        -24    2    1    2    0    0  0.69804973521E+03 -0.70397663980E+03 -0.69328867758E+03  0.12124490587E+04  0.80789772656E+02 0.  0.
    5000000    2    1    2    0    0 -0.69804973521E+03  0.70397663980E+03 -0.60753711476E+03  0.13084363829E+04  0.60003989873E+03 0.  0.
        -24    2    4    4    0    0  0.64557914751E+02  0.19343949388E+03 -0.29365075521E+02  0.22079714926E+03  0.79388357526E+02 0.  0.
         24    2    4    4    0    0 -0.76260764996E+03  0.51053714592E+03 -0.57817203923E+03  0.10876392336E+04  0.80359134189E+02 0.  0.
         11    1    5    5    0    0  0.60569768737E+01  0.13128817865E+03 -0.32499871071E+02  0.13538653715E+03  0.00000000000E+00 0. -1.
        -12    1    5    5    0    0  0.58500937877E+02  0.62151315227E+02  0.31347955498E+01  0.85410612105E+02  0.00000000000E+00 0.  1.
         13    1    3    3    0    0  0.47624041158E+03 -0.47027226569E+03 -0.42188406637E+03  0.79116818626E+03  0.00000000000E+00 0. -1.
        -14    1    3    3    0    0  0.22180932363E+03 -0.23370437411E+03 -0.27140461121E+03  0.42128087248E+03  0.00000000000E+00 0.  1.
          2    1    6    6  502    0 -0.24713000567E+03  0.21085737353E+03 -0.19565455097E+03  0.37922918531E+03  0.00000000000E+00 0. -1.
         -1    1    6    6    0  502 -0.51547764429E+03  0.29967977239E+03 -0.38251748826E+03  0.70841004833E+03  0.00000000000E+00 0.  1.
<mgrwt>
<rscale>  0 0.10647029E+04</rscale>
<asrwt>0</asrwt>
<pdfrwt beam="1">  1        1 0.93850745E-01 0.10647029E+04</pdfrwt>
<pdfrwt beam="2">  1       -2 0.29397778E+00 0.10647029E+04</pdfrwt>
<totfact> 0.10136247E+00</totfact>
</mgrwt>
</event>
<event>
12    3  0.2422421E-007  0.2018173E+04  0.7818608E-02  0.8598171E-01
          1   -1    0    0  501    0  0.00000000000E+00  0.00000000000E+00  0.19470427753E+04  0.19470427753E+04  0.00000000000E+00 0. -1.
         -2   -1    0    0    0  501 -0.00000000000E+00 -0.00000000000E+00 -0.20946250548E+04  0.20946250548E+04  0.00000000000E+00 0.  1.
        -24    2    1    2    0    0 -0.10899799655E+04  0.16458927217E+04 -0.70381257588E+02  0.19769732762E+04  0.80315858609E+02 0.  0.
    5000000    2    1    2    0    0  0.10899799655E+04 -0.16458927217E+04 -0.77201021890E+02  0.20646945538E+04  0.59998702175E+03 0.  0.
        -24    2    4    4    0    0  0.72205866222E+02 -0.56891184955E+03 -0.32260848716E+02  0.57993544685E+03  0.80062353739E+02 0.  0.
         24    2    4    4    0    0  0.10177740993E+04 -0.10769808721E+04 -0.44940173174E+02  0.14847591069E+04  0.82085750362E+02 0.  0.
         11    1    3    3    0    0 -0.45075055662E+03  0.73847680307E+03 -0.54683510803E+02  0.86689926711E+03  0.00000000000E+00 0. -1.
        -12    1    3    3    0    0 -0.63922940888E+03  0.90741591859E+03 -0.15697746785E+02  0.11100740091E+04  0.00000000000E+00 0.  1.
         13    1    5    5    0    0  0.24880813842E+02 -0.45150288702E+03 -0.17990982345E+02  0.45254567430E+03  0.00000000000E+00 0. -1.
        -14    1    5    5    0    0  0.47325052379E+02 -0.11740896253E+03 -0.14269866371E+02  0.12738977255E+03  0.00000000000E+00 0.  1.
          4    1    6    6  502    0  0.23310203594E+03 -0.22080177407E+03  0.19035947432E+02  0.32164009372E+03  0.00000000000E+00 0. -1.
         -3    1    6    6    0  502  0.78467206334E+03 -0.85617909804E+03 -0.63976120606E+02  0.11631190132E+04  0.00000000000E+00 0.  1.
<mgrwt>
<rscale>  0 0.20181731E+04</rscale>
<asrwt>0</asrwt>
<pdfrwt beam="1">  1        1 0.29954504E+00 0.20181731E+04</pdfrwt>
<pdfrwt beam="2">  1       -2 0.32225001E+00 0.20181731E+04</pdfrwt>
<totfact> 0.58520526E-02</totfact>
</mgrwt>
</event>
<event>
12    3  0.2422421E-007  0.1969765E+04  0.7818608E-02  0.8620889E-01
          1   -1    0    0  501    0  0.00000000000E+00  0.00000000000E+00  0.30206436149E+04  0.30206436149E+04  0.00000000000E+00 0. -1.
         -2   -1    0    0    0  501 -0.00000000000E+00 -0.00000000000E+00 -0.14804083672E+04  0.14804083672E+04  0.00000000000E+00 0.  1.
        -24    2    1    2    0    0  0.13965741889E+04  0.13855615973E+04  0.14449060259E+04  0.24421623180E+04  0.78758866753E+02 0.  0.
    5000000    2    1    2    0    0 -0.13965741889E+04 -0.13855615973E+04  0.95329221755E+02  0.20588896641E+04  0.59978211328E+03 0.  0.
        -24    2    4    4    0    0 -0.79856083887E+03 -0.84091156935E+03  0.33690020229E+03  0.12109161182E+04  0.89355571263E+02 0.  0.
         24    2    4    4    0    0 -0.59801335000E+03 -0.54465002795E+03 -0.24157098054E+03  0.84797354590E+03  0.80243231404E+02 0.  0.
         13    1    5    5    0    0 -0.77620906623E+02 -0.98122825260E+02  0.63433928833E+02  0.14027457827E+03  0.00000000000E+00 0. -1.
        -14    1    5    5    0    0 -0.72093993224E+03 -0.74278874409E+03  0.27346627346E+03  0.10706415399E+04  0.00000000000E+00 0.  1.
         13    1    3    3    0    0  0.10219975132E+04  0.10537061880E+04  0.10532241221E+04  0.18066700581E+04  0.00000000000E+00 0. -1.
        -14    1    3    3    0    0  0.37457667564E+03  0.33185540930E+03  0.39168190383E+03  0.63549225991E+03  0.00000000000E+00 0.  1.
          2    1    6    6  502    0 -0.66743439184E+02 -0.37955414864E+02 -0.62980720492E+01  0.77038729890E+02  0.00000000000E+00 0. -1.
         -1    1    6    6    0  502 -0.53126991081E+03 -0.50669461308E+03 -0.23527290849E+03  0.77093481601E+03  0.00000000000E+00 0.  1.
<mgrwt>
<rscale>  0 0.19697647E+04</rscale>
<asrwt>0</asrwt>
<pdfrwt beam="1">  1        1 0.46471440E+00 0.19697647E+04</pdfrwt>
<pdfrwt beam="2">  1       -2 0.22775513E+00 0.19697647E+04</pdfrwt>
<totfact> 0.39920452E-02</totfact>
</mgrwt>
</event>
<event>
12    3  0.2422421E-007  0.1812339E+04  0.7818608E-02  0.8699765E-01
          1   -1    0    0  501    0  0.00000000000E+00  0.00000000000E+00  0.15872925409E+04  0.15872925409E+04  0.00000000000E+00 0. -1.
         -2   -1    0    0    0  501 -0.00000000000E+00 -0.00000000000E+00 -0.21067215056E+04  0.21067215056E+04  0.00000000000E+00 0.  1.
        -24    2    1    2    0    0  0.17359201932E+04 -0.38678697926E+03 -0.27426121069E+03  0.18010983367E+04  0.75583876817E+02 0.  0.
    5000000    2    1    2    0    0 -0.17359201932E+04  0.38678697926E+03 -0.24516775396E+03  0.18929157098E+04  0.59999964358E+03 0.  0.
        -24    2    4    4    0    0 -0.17291200403E+04  0.30049269515E+03 -0.25315009130E+03  0.17749891934E+04  0.79684969771E+02 0.  0.
         24    2    4    4    0    0 -0.68001528727E+01  0.86294284106E+02  0.79823373452E+01  0.11792651634E+03  0.79686887248E+02 0.  0.
         11    1    3    3    0    0  0.15679508404E+04 -0.34831727295E+03 -0.22485273310E+03  0.16218364629E+04  0.00000000000E+00 0. -1.
        -12    1    3    3    0    0  0.16796935276E+03 -0.38469706302E+02 -0.49408477590E+02  0.17926187388E+03  0.00000000000E+00 0.  1.
         11    1    5    5    0    0 -0.42999186239E+03  0.99370400097E+02 -0.88546473698E+02  0.45011993528E+03  0.00000000000E+00 0. -1.
        -12    1    5    5    0    0 -0.12991281779E+04  0.20112229505E+03 -0.16460361760E+03  0.13248692582E+04  0.00000000000E+00 0.  1.
          2    1    6    6  502    0  0.97304962614E+01  0.37374124096E+02 -0.33939689852E+02  0.51414105619E+02  0.00000000000E+00 0. -1.
         -1    1    6    6    0  502 -0.16530649134E+02  0.48920160010E+02  0.41922027197E+02  0.66512410725E+02  0.00000000000E+00 0.  1.
<mgrwt>
<rscale>  0 0.18123394E+04</rscale>
<asrwt>0</asrwt>
<pdfrwt beam="1">  1        1 0.24419885E+00 0.18123394E+04</pdfrwt>
<pdfrwt beam="2">  1       -2 0.32411100E+00 0.18123394E+04</pdfrwt>
<totfact> 0.10273165E-01</totfact>
</mgrwt>
</event>
<event>
12    3  0.2422421E-007  0.7690546E+03  0.7818608E-02  0.9605922E-01
         -2   -1    0    0    0  501 -0.00000000000E+00  0.00000000000E+00  0.53100971191E+03  0.53100971191E+03  0.00000000000E+00 0.  1.
          1   -1    0    0  501    0  0.00000000000E+00 -0.00000000000E+00 -0.14065610519E+04  0.14065610519E+04  0.00000000000E+00 0. -1.
        -24    2    1    2    0    0 -0.49978801125E+03 -0.55932652551E+03 -0.50634984553E+03  0.90852627304E+03  0.79972522837E+02 0.  0.
    5000000    2    1    2    0    0  0.49978801125E+03  0.55932652551E+03 -0.36920149446E+03  0.10290444908E+04  0.59999050172E+03 0.  0.
        -24    2    4    4    0    0  0.20465428062E+03  0.38633159536E+03  0.89542924778E+02  0.45095404574E+03  0.64854759608E+02 0.  0.
         24    2    4    4    0    0  0.29513373063E+03  0.17299493015E+03 -0.45874441924E+03  0.57809044503E+03  0.81920422625E+02 0.  0.
         13    1    3    3    0    0 -0.31670095604E+03 -0.38985403469E+03 -0.37307816655E+03  0.62567801805E+03  0.00000000000E+00 0. -1.
        -14    1    3    3    0    0 -0.18308705521E+03 -0.16947249081E+03 -0.13327167898E+03  0.28284825498E+03  0.00000000000E+00 0.  1.
         13    1    5    5    0    0  0.17595833263E+03  0.27419760569E+03  0.57309357712E+02  0.33080209230E+03  0.00000000000E+00 0. -1.
        -14    1    5    5    0    0  0.28695947990E+02  0.11213398967E+03  0.32233567066E+02  0.12015195344E+03  0.00000000000E+00 0.  1.
          4    1    6    6  502    0  0.10667689170E+03  0.86967702405E+02 -0.12880286603E+03  0.18850336544E+03  0.00000000000E+00 0. -1.
         -3    1    6    6    0  502  0.18845683893E+03  0.86027227743E+02 -0.32994155321E+03  0.38958707959E+03  0.00000000000E+00 0.  1.
<mgrwt>
<rscale>  0 0.76905463E+03</rscale>
<asrwt>0</asrwt>
<pdfrwt beam="1">  1        1 0.21639400E+00 0.76905463E+03</pdfrwt>
<pdfrwt beam="2">  1       -2 0.81693803E-01 0.76905463E+03</pdfrwt>
<totfact> 0.90409184E+00</totfact>
</mgrwt>
</event>
<event>
12    3  0.2422421E-007  0.3227655E+03  0.7818608E-02  0.1074384E+00
          1   -1    0    0  501    0  0.00000000000E+00  0.00000000000E+00  0.92051152973E+03  0.92051152973E+03  0.00000000000E+00 0. -1.
         -2   -1    0    0    0  501 -0.00000000000E+00 -0.00000000000E+00 -0.18139880701E+03  0.18139880701E+03  0.00000000000E+00 0.  1.
        -24    2    1    2    0    0 -0.95022810785E+02  0.10282992205E+03  0.31512531573E+03  0.35399511290E+03  0.80032792677E+02 0.  0.
    5000000    2    1    2    0    0  0.95022810785E+02 -0.10282992205E+03  0.42398740699E+03  0.74791522384E+03  0.60000711107E+03 0.  0.
        -24    2    4    4    0    0 -0.16617716175E+03 -0.14971039796E+03 -0.47876762788E+01  0.23751133597E+03  0.79753749279E+02 0.  0.
         24    2    4    4    0    0  0.26119997254E+03  0.46880475912E+02  0.42877508327E+03  0.51040388787E+03  0.78999063616E+02 0.  0.
         11    1    5    5    0    0 -0.14647216528E+03 -0.12025100584E+03  0.25078887092E+02  0.19116315070E+03  0.00000000000E+00 0. -1.
        -12    1    5    5    0    0 -0.19704996468E+02 -0.29459392120E+02 -0.29866563371E+02  0.46348185266E+02  0.00000000000E+00 0.  1.
         11    1    3    3    0    0 -0.40518663708E+02  0.21668906978E+02  0.18850736515E+03  0.19402662280E+03  0.00000000000E+00 0. -1.
        -12    1    3    3    0    0 -0.54504147077E+02  0.81161015072E+02  0.12661795058E+03  0.15996849010E+03  0.00000000000E+00 0.  1.
          4    1    6    6  502    0  0.89631037694E+02  0.54900768661E+02  0.15997307774E+03  0.19141369575E+03  0.00000000000E+00 0. -1.
         -3    1    6    6    0  502  0.17156893484E+03 -0.80202927493E+01  0.26880200552E+03  0.31899019213E+03  0.00000000000E+00 0.  1.
<mgrwt>
<rscale>  0 0.32276547E+03</rscale>
<asrwt>0</asrwt>
<pdfrwt beam="1">  1        1 0.14161716E+00 0.32276547E+03</pdfrwt>
<pdfrwt beam="2">  1       -2 0.27907509E-01 0.32276547E+03</pdfrwt>
<totfact> 0.18905561E+02</totfact>
</mgrwt>
</event>
<event>
12    3  0.2422421E-007  0.1207817E+04  0.7818608E-02  0.9106041E-01
          1   -1    0    0  501    0  0.00000000000E+00  0.00000000000E+00  0.55383986242E+04  0.55383986242E+04  0.00000000000E+00 0. -1.
         -2   -1    0    0    0  501 -0.00000000000E+00 -0.00000000000E+00 -0.29221866132E+03  0.29221866132E+03  0.00000000000E+00 0.  1.
        -24    2    1    2    0    0 -0.15534129231E+03 -0.11264621732E+04  0.16007751144E+04  0.19651166240E+04  0.78450201680E+02 0.  0.
    5000000    2    1    2    0    0  0.15534129231E+03  0.11264621732E+04  0.36454048485E+04  0.38655006616E+04  0.60005908897E+03 0.  0.
        -24    2    4    4    0    0 -0.18374863672E+03  0.17864774005E+03  0.61444354724E+03  0.67061919874E+03  0.80688663724E+02 0.  0.
         24    2    4    4    0    0  0.33908992903E+03  0.94781443317E+03  0.30309613013E+04  0.31948814629E+04  0.84893886876E+02 0.  0.
         11    1    3    3    0    0 -0.16889077197E+02 -0.37745444343E+03  0.55202477393E+03  0.66894577420E+03  0.00000000000E+00 0. -1.
        -12    1    3    3    0    0 -0.13845221512E+03 -0.74900772978E+03  0.10487503404E+04  0.12961708497E+04  0.00000000000E+00 0.  1.
         13    1    5    5    0    0 -0.86362161658E+02  0.13532584757E+03  0.40387227147E+03  0.43460823697E+03  0.00000000000E+00 0. -1.
        -14    1    5    5    0    0 -0.97386475060E+02  0.43321892480E+02  0.21057127577E+03  0.23601096177E+03  0.00000000000E+00 0.  1.
          4    1    6    6  502    0  0.26255822268E+03  0.80806747426E+03  0.24921562279E+04  0.26330120636E+04  0.00000000000E+00 0. -1.
         -3    1    6    6    0  502  0.76531706357E+02  0.13974695890E+03  0.53880507344E+03  0.56186939921E+03  0.00000000000E+00 0.  1.
<mgrwt>
<rscale>  0 0.12078174E+04</rscale>
<asrwt>0</asrwt>
<pdfrwt beam="1">  1        1 0.85206125E+00 0.12078174E+04</pdfrwt>
<pdfrwt beam="2">  1       -2 0.44956721E-01 0.12078174E+04</pdfrwt>
<totfact> 0.57518211E-03</totfact>
</mgrwt>
</event>
<event>
12    3  0.2422421E-007  0.1356064E+04  0.7818608E-02  0.8986250E-01
          1   -1    0    0  501    0  0.00000000000E+00  0.00000000000E+00  0.12850936644E+04  0.12850936644E+04  0.00000000000E+00 0. -1.
         -2   -1    0    0    0  501 -0.00000000000E+00 -0.00000000000E+00 -0.15665881935E+04  0.15665881935E+04  0.00000000000E+00 0.  1.
        -24    2    1    2    0    0  0.69846006416E+03 -0.11563525771E+04 -0.38948052078E+02  0.13538122123E+04  0.79327243531E+02 0.  0.
    5000000    2    1    2    0    0 -0.69846006416E+03  0.11563525771E+04 -0.24254647707E+03  0.14978696456E+04  0.59982242208E+03 0.  0.
        -24    2    4    4    0    0 -0.39382339111E+03  0.61778548661E+03  0.16166431750E+03  0.75457413807E+03  0.80566788674E+02 0.  0.
         24    2    4    4    0    0 -0.30463667305E+03  0.53856709049E+03 -0.40421079457E+03  0.74329550758E+03  0.79017919619E+02 0.  0.
         11    1    3    3    0    0  0.34915290377E+03 -0.53069012953E+03 -0.49430250803E+02  0.63716804179E+03  0.00000000000E+00 0. -1.
        -12    1    3    3    0    0  0.34930716039E+03 -0.62566244757E+03  0.10482198725E+02  0.71664417049E+03  0.00000000000E+00 0.  1.
         13    1    5    5    0    0 -0.23628389300E+03  0.29708742049E+03  0.75521809667E+02  0.38703301829E+03  0.00000000000E+00 0. -1.
        -14    1    5    5    0    0 -0.15753949810E+03  0.32069806612E+03  0.86142507831E+02  0.36754111978E+03  0.00000000000E+00 0.  1.
          2    1    6    6  502    0 -0.29279146538E+03  0.46930985246E+03 -0.35043413190E+03  0.65481498197E+03  0.00000000000E+00 0. -1.
         -1    1    6    6    0  502 -0.11845207669E+02  0.69257238033E+02 -0.53776662673E+02  0.88480525614E+02  0.00000000000E+00 0.  1.
<mgrwt>
<rscale>  0 0.13560642E+04</rscale>
<asrwt>0</asrwt>
<pdfrwt beam="1">  1        1 0.19770672E+00 0.13560642E+04</pdfrwt>
<pdfrwt beam="2">  1       -2 0.24101357E+00 0.13560642E+04</pdfrwt>
<totfact> 0.56878169E-01</totfact>
</mgrwt>
</event>
<event>
12    3  0.2422421E-007  0.1469457E+04  0.7818608E-02  0.8905022E-01
         -2   -1    0    0    0  501 -0.00000000000E+00  0.00000000000E+00  0.13659467107E+04  0.13659467107E+04  0.00000000000E+00 0.  1.
          1   -1    0    0  501    0  0.00000000000E+00 -0.00000000000E+00 -0.21426556698E+04  0.21426556698E+04  0.00000000000E+00 0. -1.
        -24    2    1    2    0    0 -0.10987671264E+04  0.95695913556E+03  0.43289882325E+03  0.15220992122E+04  0.79527576257E+02 0.  0.
    5000000    2    1    2    0    0  0.10987671264E+04 -0.95695913556E+03 -0.12096077824E+04  0.19865031683E+04  0.59998655397E+03 0.  0.
        -24    2    4    4    0    0  0.96296291085E+03 -0.88840368629E+03 -0.12474319076E+04  0.18108428378E+04  0.80664376542E+02 0.  0.
         24    2    4    4    0    0  0.13580421559E+03 -0.68555449271E+02  0.37824125193E+02  0.17566033045E+03  0.79266970739E+02 0.  0.
         11    1    5    5    0    0  0.58928906151E+03 -0.54119819606E+03 -0.70705207201E+03  0.10677451559E+04  0.00000000000E+00 0. -1.
        -12    1    5    5    0    0  0.37367384934E+03 -0.34720549023E+03 -0.54037983558E+03  0.74309768189E+03  0.00000000000E+00 0.  1.
         13    1    3    3    0    0 -0.96089143328E+03  0.86791642405E+03  0.37471677219E+03  0.13479628797E+04  0.00000000000E+00 0. -1.
        -14    1    3    3    0    0 -0.13787569317E+03  0.89042711516E+02  0.58182051067E+02  0.17413633253E+03  0.00000000000E+00 0.  1.
          2    1    6    6  502    0  0.64158637033E+02 -0.73974783151E+02  0.93249322761E+01  0.98364391983E+02  0.00000000000E+00 0. -1.
         -1    1    6    6    0  502  0.71645578559E+02  0.54193338797E+01  0.28499192917E+02  0.77295938468E+02  0.00000000000E+00 0.  1.
<mgrwt>
<rscale>  0 0.14694567E+04</rscale>
<asrwt>0</asrwt>
<pdfrwt beam="1">  1        1 0.32963933E+00 0.14694567E+04</pdfrwt>
<pdfrwt beam="2">  1       -2 0.21014565E+00 0.14694567E+04</pdfrwt>
<totfact> 0.22552825E-01</totfact>
</mgrwt>
</event>
<event>
12    3  0.2422421E-007  0.5990416E+03  0.7818608E-02  0.9907396E-01
         -2   -1    0    0    0  501 -0.00000000000E+00  0.00000000000E+00  0.12111333515E+04  0.12111333515E+04  0.00000000000E+00 0.  1.
          1   -1    0    0  501    0  0.00000000000E+00 -0.00000000000E+00 -0.63417131493E+03  0.63417131493E+03  0.00000000000E+00 0. -1.
        -24    2    1    2    0    0  0.51660134654E+03 -0.26519622594E+03 -0.27929590938E+03  0.64929462912E+03  0.79820554397E+02 0.  0.
    5000000    2    1    2    0    0 -0.51660134654E+03  0.26519622594E+03  0.85625794598E+03  0.11960100373E+04  0.60004695640E+03 0.  0.
        -24    2    4    4    0    0 -0.20845687117E+03  0.19325788195E+03  0.16984388744E+02  0.29511410965E+03  0.77466071139E+02 0.  0.
         24    2    4    4    0    0 -0.30814447537E+03  0.71938343986E+02  0.83927355724E+03  0.90089592770E+03  0.84292500450E+02 0.  0.
         11    1    5    5    0    0 -0.79181232806E+02  0.12420596215E+03  0.19138924490E+02  0.14853648405E+03  0.00000000000E+00 0. -1.
        -12    1    5    5    0    0 -0.12927563836E+03  0.69051919804E+02 -0.21545357455E+01  0.14657762560E+03  0.00000000000E+00 0.  1.
         11    1    3    3    0    0  0.21384121716E+02 -0.67531673762E+01 -0.30343685391E+02  0.37730957771E+02  0.00000000000E+00 0. -1.
        -12    1    3    3    0    0  0.49521722482E+03 -0.25844305856E+03 -0.24895222399E+03  0.61156367135E+03  0.00000000000E+00 0.  1.
          4    1    6    6  502    0 -0.45393575224E+02  0.36135086008E+02  0.21375429361E+03  0.22148864339E+03  0.00000000000E+00 0. -1.
         -3    1    6    6    0  502 -0.26275090014E+03  0.35803257978E+02  0.62551926362E+03  0.67940728431E+03  0.00000000000E+00 0.  1.
<mgrwt>
<rscale>  0 0.59904164E+03</rscale>
<asrwt>0</asrwt>
<pdfrwt beam="1">  1        1 0.97564818E-01 0.59904164E+03</pdfrwt>
<pdfrwt beam="2">  1       -2 0.18632821E+00 0.59904164E+03</pdfrwt>
<totfact> 0.47520902E+00</totfact>
</mgrwt>
</event>
<event>
12    3  0.2422421E-007  0.8382560E+03  0.7818608E-02  0.9506236E-01
         -2   -1    0    0    0  501 -0.00000000000E+00  0.00000000000E+00  0.94328928953E+03  0.94328928953E+03  0.00000000000E+00 0.  1.
          1   -1    0    0  501    0  0.00000000000E+00 -0.00000000000E+00 -0.81562067824E+03  0.81562067824E+03  0.00000000000E+00 0. -1.
        -24    2    1    2    0    0 -0.72867992337E+03  0.19299057192E+03 -0.11124654601E+03  0.76619725799E+03  0.80390624875E+02 0.  0.
    5000000    2    1    2    0    0  0.72867992337E+03 -0.19299057192E+03  0.23891515730E+03  0.99271270979E+03  0.60014854845E+03 0.  0.
        -24    2    4    4    0    0 -0.12330555178E+02 -0.17267425044E+03 -0.44653923138E+02  0.19497026869E+03  0.77788131910E+02 0.  0.
         24    2    4    4    0    0  0.74101047855E+03 -0.20316321484E+02  0.28356908044E+03  0.79774244110E+03  0.80450585499E+02 0.  0.
         13    1    5    5    0    0  0.72423172888E+01 -0.12128919147E+03 -0.63176075389E+02  0.13694793036E+03  0.00000000000E+00 0. -1.
        -14    1    5    5    0    0 -0.19572872467E+02 -0.51385058970E+02  0.18522152251E+02  0.58022338336E+02  0.00000000000E+00 0.  1.
         13    1    3    3    0    0 -0.28947114891E+03  0.93620464522E+02 -0.86967357646E+01  0.30435829320E+03  0.00000000000E+00 0. -1.
        -14    1    3    3    0    0 -0.43920877447E+03  0.99370107402E+02 -0.10254981025E+03  0.46183896479E+03  0.00000000000E+00 0.  1.
          2    1    6    6  502    0  0.55658551277E+03  0.18990299177E+02  0.20451057765E+03  0.59327282161E+03  0.00000000000E+00 0. -1.
         -1    1    6    6    0  502  0.18442496578E+03 -0.39306620661E+02  0.79058502782E+02  0.20446961948E+03  0.00000000000E+00 0.  1.
<mgrwt>
<rscale>  0 0.83825600E+03</rscale>
<asrwt>0</asrwt>
<pdfrwt beam="1">  1        1 0.12548010E+00 0.83825600E+03</pdfrwt>
<pdfrwt beam="2">  1       -2 0.14512143E+00 0.83825600E+03</pdfrwt>
<totfact> 0.62165776E+00</totfact>
</mgrwt>
</event>
<event>
12    3  0.2422421E-007  0.4477345E+03  0.7818608E-02  0.1028400E+00
          1   -1    0    0  501    0  0.00000000000E+00  0.00000000000E+00  0.71667869536E+03  0.71667869536E+03  0.00000000000E+00 0. -1.
         -2   -1    0    0    0  501 -0.00000000000E+00 -0.00000000000E+00 -0.69476475182E+03  0.69476475182E+03  0.00000000000E+00 0.  1.
        -24    2    1    2    0    0  0.18822052741E+03  0.40284486636E+03  0.37355545933E+03  0.58610561163E+03  0.79152722640E+02 0.  0.
    5000000    2    1    2    0    0 -0.18822052741E+03 -0.40284486636E+03 -0.35164151578E+03  0.82533783555E+03  0.59984984277E+03 0.  0.
        -24    2    4    4    0    0 -0.12817944742E+03 -0.28134485799E+03 -0.50976419822E+03  0.60225901341E+03  0.85272982787E+02 0.  0.
         24    2    4    4    0    0 -0.60041079993E+02 -0.12150000838E+03  0.15812268244E+03  0.22307882214E+03  0.79963709666E+02 0.  0.
         11    1    3    3    0    0  0.16904756218E+03  0.32874139723E+03  0.34102065787E+03  0.50293446256E+03  0.00000000000E+00 0. -1.
        -12    1    3    3    0    0  0.19172965232E+02  0.74103469129E+02  0.32534801456E+02  0.83171149075E+02  0.00000000000E+00 0.  1.
         11    1    5    5    0    0 -0.13474333023E+02 -0.21211040397E+02 -0.10278833734E+03  0.10581544395E+03  0.00000000000E+00 0. -1.
        -12    1    5    5    0    0 -0.11470511439E+03 -0.26013381759E+03 -0.40697586088E+03  0.49644356946E+03  0.00000000000E+00 0.  1.
          4    1    6    6  502    0 -0.14092533660E+02 -0.56069028533E+01  0.66902969947E+02  0.68600614081E+02  0.00000000000E+00 0. -1.
         -3    1    6    6    0  502 -0.45948546333E+02 -0.11589310552E+03  0.91219712488E+02  0.15447820806E+03  0.00000000000E+00 0.  1.
<mgrwt>
<rscale>  0 0.44773450E+03</rscale>
<asrwt>0</asrwt>
<pdfrwt beam="1">  1        1 0.11025826E+00 0.44773450E+03</pdfrwt>
<pdfrwt beam="2">  1       -2 0.10688688E+00 0.44773450E+03</pdfrwt>
<totfact> 0.17183420E+01</totfact>
</mgrwt>
</event>
<event>
12    3  0.2422421E-007  0.7531378E+03  0.7818608E-02  0.9630440E-01
         -2   -1    0    0    0  501 -0.00000000000E+00  0.00000000000E+00  0.66018891992E+03  0.66018891992E+03  0.00000000000E+00 0.  1.
          1   -1    0    0  501    0  0.00000000000E+00 -0.00000000000E+00 -0.10692238696E+04  0.10692238696E+04  0.00000000000E+00 0. -1.
        -24    2    1    2    0    0  0.65933714410E+03 -0.83641354439E+02  0.13366203624E+03  0.68257143988E+03  0.79478832678E+02 0.  0.
    5000000    2    1    2    0    0 -0.65933714410E+03  0.83641354439E+02 -0.54269698591E+03  0.10468413496E+04  0.59969612890E+03 0.  0.
        -24    2    4    4    0    0 -0.53784084856E+03 -0.15384981925E+03 -0.51888001027E+03  0.76720251266E+03  0.80129177637E+02 0.  0.
         24    2    4    4    0    0 -0.12149629553E+03  0.23749117369E+03 -0.23816975636E+02  0.27963883696E+03  0.80419048739E+02 0.  0.
         11    1    5    5    0    0 -0.37291574143E+03 -0.99355554589E+02 -0.30642918704E+03  0.49278445908E+03  0.00000000000E+00 0. -1.
        -12    1    5    5    0    0 -0.16492510713E+03 -0.54494264665E+02 -0.21245082323E+03  0.27441805359E+03  0.00000000000E+00 0.  1.
         13    1    3    3    0    0  0.13328926259E+03 -0.47799238577E+02  0.17700610211E+02  0.14270286028E+03  0.00000000000E+00 0. -1.
        -14    1    3    3    0    0  0.52604788151E+03 -0.35842115862E+02  0.11596142603E+03  0.53986857960E+03  0.00000000000E+00 0.  1.
          2    1    6    6  502    0 -0.10680470156E+03  0.12531782020E+03 -0.24732692493E+02  0.16650377297E+03  0.00000000000E+00 0. -1.
         -1    1    6    6    0  502 -0.14691593970E+02  0.11217335350E+03  0.91571685722E+00  0.11313506400E+03  0.00000000000E+00 0.  1.
<mgrwt>
<rscale>  0 0.75313783E+03</rscale>
<asrwt>0</asrwt>
<pdfrwt beam="1">  1        1 0.16449598E+00 0.75313783E+03</pdfrwt>
<pdfrwt beam="2">  1       -2 0.10156753E+00 0.75313783E+03</pdfrwt>
<totfact> 0.95685676E+00</totfact>
</mgrwt>
</event>
<event>
12    3  0.2422421E-007  0.7086892E+03  0.7818608E-02  0.9702487E-01
          1   -1    0    0  501    0  0.00000000000E+00  0.00000000000E+00  0.39416104848E+04  0.39416104848E+04  0.00000000000E+00 0. -1.
         -2   -1    0    0    0  501 -0.00000000000E+00 -0.00000000000E+00 -0.43284324117E+03  0.43284324117E+03  0.00000000000E+00 0.  1.
        -24    2    1    2    0    0 -0.49346080895E+03 -0.36440592863E+03 -0.13368418641E+03  0.63233222052E+03  0.75348023303E+02 0.  0.
    5000000    2    1    2    0    0  0.49346080895E+03  0.36440592863E+03  0.36424514301E+04  0.37421215055E+04  0.59977136531E+03 0.  0.
        -24    2    4    4    0    0  0.42705388283E+03  0.75376451353E+01  0.25962596415E+04  0.26319990215E+04  0.66504796819E+02 0.  0.
         24    2    4    4    0    0  0.66406926118E+02  0.35686828350E+03  0.10461917886E+04  0.11101224840E+04  0.78037295258E+02 0.  0.
         11    1    5    5    0    0  0.20255701103E+03  0.33116105946E+02  0.13286017795E+04  0.13443618217E+04  0.00000000000E+00 0. -1.
        -12    1    5    5    0    0  0.22449687180E+03 -0.25578460811E+02  0.12676578621E+04  0.12876371998E+04  0.00000000000E+00 0.  1.
         13    1    3    3    0    0 -0.25452852276E+03 -0.23091095706E+03 -0.59672715755E+02  0.34880577976E+03  0.00000000000E+00 0. -1.
        -14    1    3    3    0    0 -0.23893228619E+03 -0.13349497157E+03 -0.74011470653E+02  0.28352644076E+03  0.00000000000E+00 0.  1.
          4    1    6    6  502    0  0.46901385106E+02  0.92261023348E+02  0.23915062463E+03  0.26058560516E+03  0.00000000000E+00 0. -1.
         -1    1    6    6    0  502  0.19505541012E+02  0.26460726015E+03  0.80704116393E+03  0.84953687885E+03  0.00000000000E+00 0.  1.
<mgrwt>
<rscale>  0 0.70868921E+03</rscale>
<asrwt>0</asrwt>
<pdfrwt beam="1">  1        1 0.60640159E+00 0.70868921E+03</pdfrwt>
<pdfrwt beam="2">  1       -2 0.66591271E-01 0.70868921E+03</pdfrwt>
<totfact> 0.21993322E-01</totfact>
</mgrwt>
</event>
<event>
12    3  0.2422421E-007  0.5182942E+03  0.7818608E-02  0.1009111E+00
          1   -1    0    0  501    0  0.00000000000E+00  0.00000000000E+00  0.17092442686E+03  0.17092442686E+03  0.00000000000E+00 0. -1.
         -2   -1    0    0    0  501 -0.00000000000E+00 -0.00000000000E+00 -0.17954388705E+04  0.17954388705E+04  0.00000000000E+00 0.  1.
        -24    2    1    2    0    0  0.69503318364E+02  0.35098459382E+03 -0.83640399270E+03  0.91320285451E+03  0.79667547436E+02 0.  0.
    5000000    2    1    2    0    0 -0.69503318364E+02 -0.35098459382E+03 -0.78811045095E+03  0.10531604429E+04  0.60000661593E+03 0.  0.
        -24    2    4    4    0    0  0.20287804609E+03 -0.34175153267E+03 -0.38020141720E+03  0.55579678691E+03  0.80020866250E+02 0.  0.
         24    2    4    4    0    0 -0.27238136446E+03 -0.92330611564E+01 -0.40790903375E+03  0.49736365596E+03  0.81877770658E+02 0.  0.
         11    1    3    3    0    0  0.27676546642E+02  0.19172802156E+03 -0.35493918467E+03  0.40436054493E+03  0.00000000000E+00 0. -1.
        -12    1    3    3    0    0  0.41826771722E+02  0.15925657226E+03 -0.48146480804E+03  0.50884230958E+03  0.00000000000E+00 0.  1.
         13    1    5    5    0    0  0.63103563071E+02 -0.45368142002E+02 -0.73409803711E+02  0.10690803179E+03  0.00000000000E+00 0. -1.
        -14    1    5    5    0    0  0.13977448302E+03 -0.29638339066E+03 -0.30679161349E+03  0.44888875512E+03  0.00000000000E+00 0.  1.
          2    1    6    6  502    0 -0.12742192848E+03  0.17300735780E+01 -0.26225128708E+03  0.29157345316E+03  0.00000000000E+00 0. -1.
         -1    1    6    6    0  502 -0.14495943597E+03 -0.10963134734E+02 -0.14565774667E+03  0.20579020279E+03  0.00000000000E+00 0.  1.
<mgrwt>
<rscale>  0 0.51829424E+03</rscale>
<asrwt>0</asrwt>
<pdfrwt beam="1">  1        1 0.26296066E-01 0.51829424E+03</pdfrwt>
<pdfrwt beam="2">  1       -2 0.27622136E+00 0.51829424E+03</pdfrwt>
<totfact> 0.75563686E+00</totfact>
</mgrwt>
</event>
<event>
12    3  0.2422421E-007  0.3572270E+03  0.7818608E-02  0.1059687E+00
         -2   -1    0    0    0  501 -0.00000000000E+00  0.00000000000E+00  0.10775413291E+03  0.10775413291E+03  0.00000000000E+00 0.  1.
          1   -1    0    0  501    0  0.00000000000E+00 -0.00000000000E+00 -0.21906685242E+04  0.21906685242E+04  0.00000000000E+00 0. -1.
        -24    2    1    2    0    0  0.14071130079E+03 -0.15993639492E+03 -0.17373891371E+03  0.28592730338E+03  0.78675867252E+02 0.  0.
    5000000    2    1    2    0    0 -0.14071130079E+03  0.15993639492E+03 -0.19091754776E+04  0.20124953537E+04  0.59983933185E+03 0.  0.
        -24    2    4    4    0    0  0.14876418466E+03  0.43202829749E+02 -0.13938831804E+04  0.14047661000E+04  0.80375418663E+02 0.  0.
         24    2    4    4    0    0 -0.28947548545E+03  0.11673356518E+03 -0.51529229719E+03  0.60772925377E+03  0.79911904139E+02 0.  0.
         11    1    3    3    0    0  0.54840586458E+02 -0.12027976231E+03 -0.10861237706E+03  0.17108874772E+03  0.00000000000E+00 0. -1.
        -12    1    3    3    0    0  0.85870714331E+02 -0.39656632612E+02 -0.65126536653E+02  0.11483855566E+03  0.00000000000E+00 0.  1.
         11    1    5    5    0    0  0.15572163574E+03  0.47370856390E+02 -0.12355193785E+04  0.12461947523E+04  0.00000000000E+00 0. -1.
        -12    1    5    5    0    0 -0.69574510811E+01 -0.41680266413E+01 -0.15836380185E+03  0.15857134769E+03  0.00000000000E+00 0.  1.
          4    1    6    6  502    0 -0.15215121530E+03  0.90374165983E+02 -0.23184093401E+03  0.29166367768E+03  0.00000000000E+00 0. -1.
         -3    1    6    6    0  502 -0.13732427015E+03  0.26359399192E+02 -0.28345136318E+03  0.31606557609E+03  0.00000000000E+00 0.  1.
<mgrwt>
<rscale>  0 0.35722700E+03</rscale>
<asrwt>0</asrwt>
<pdfrwt beam="1">  1        1 0.33702592E+00 0.35722700E+03</pdfrwt>
<pdfrwt beam="2">  1       -2 0.16577559E-01 0.35722700E+03</pdfrwt>
<totfact> 0.63333195E+01</totfact>
</mgrwt>
</event>
<event>
12    3  0.2422421E-007  0.6942112E+03  0.7818608E-02  0.9727183E-01
          1   -1    0    0  501    0  0.00000000000E+00  0.00000000000E+00  0.78977422627E+03  0.78977422627E+03  0.00000000000E+00 0. -1.
         -2   -1    0    0    0  501 -0.00000000000E+00 -0.00000000000E+00 -0.78693065047E+03  0.78693065047E+03  0.00000000000E+00 0.  1.
        -24    2    1    2    0    0 -0.13002931837E+03 -0.56443726791E+03 -0.33852601975E+03  0.67559114557E+03  0.79539153153E+02 0.  0.
    5000000    2    1    2    0    0  0.13002931837E+03  0.56443726791E+03  0.34136959555E+03  0.90111373117E+03  0.59997975191E+03 0.  0.
        -24    2    4    4    0    0  0.34542318609E+03  0.35203871852E+03  0.30660639160E+03  0.58623713172E+03  0.80112785563E+02 0.  0.
         24    2    4    4    0    0 -0.21539386772E+03  0.21239854939E+03  0.34763203952E+02  0.31487659945E+03  0.80194329585E+02 0.  0.
         11    1    5    5    0    0  0.14239146033E+03  0.92908066048E+02  0.11627638260E+03  0.20597920736E+03  0.00000000000E+00 0. -1.
        -12    1    5    5    0    0  0.20303172576E+03  0.25913065248E+03  0.19033000899E+03  0.38025792436E+03  0.00000000000E+00 0.  1.
         11    1    3    3    0    0 -0.91143952237E+02 -0.22180986442E+03 -0.14187106672E+03  0.27862920801E+03  0.00000000000E+00 0. -1.
        -12    1    3    3    0    0 -0.38885366131E+02 -0.34262740349E+03 -0.19665495303E+03  0.39696193756E+03  0.00000000000E+00 0.  1.
          4    1    6    6  502    0 -0.19781848695E+03  0.17877720992E+03  0.50392687640E+01  0.26668115569E+03  0.00000000000E+00 0. -1.
         -3    1    6    6    0  502 -0.17575380771E+02  0.33621339462E+02  0.29723935188E+02  0.48195443763E+02  0.00000000000E+00 0.  1.
<mgrwt>
<rscale>  0 0.69421120E+03</rscale>
<asrwt>0</asrwt>
<pdfrwt beam="1">  1        1 0.12150373E+00 0.69421120E+03</pdfrwt>
<pdfrwt beam="2">  1       -2 0.12106625E+00 0.69421120E+03</pdfrwt>
<totfact> 0.10560716E+01</totfact>
</mgrwt>
</event>
<event>
12    3  0.2422421E-007  0.9796811E+03  0.7818608E-02  0.9331115E-01
         -2   -1    0    0    0  501 -0.00000000000E+00  0.00000000000E+00  0.21574895581E+04  0.21574895581E+04  0.00000000000E+00 0.  1.
          1   -1    0    0  501    0  0.00000000000E+00 -0.00000000000E+00 -0.68046191326E+03  0.68046191326E+03  0.00000000000E+00 0. -1.
        -24    2    1    2    0    0  0.79540424882E+02  0.94393279448E+03  0.14283063065E+04  0.17156806701E+04  0.78520424044E+02 0.  0.
    5000000    2    1    2    0    0 -0.79540424882E+02 -0.94393279448E+03  0.48721338374E+02  0.11222708013E+04  0.59981845827E+03 0.  0.
        -24    2    4    4    0    0  0.11403504142E+03 -0.49814253395E+03 -0.21788449919E+03  0.56139766844E+03  0.80893215629E+02 0.  0.
         24    2    4    4    0    0 -0.19357546630E+03 -0.44579026053E+03  0.26660583756E+03  0.56087313283E+03  0.85437585230E+02 0.  0.
         11    1    3    3    0    0  0.69764020817E+02  0.48154754664E+03  0.77979006105E+03  0.91914503621E+03  0.00000000000E+00 0. -1.
        -12    1    3    3    0    0  0.97764040647E+01  0.46238524784E+03  0.64851624545E+03  0.79653563393E+03  0.00000000000E+00 0.  1.
         13    1    5    5    0    0  0.39441504059E+02 -0.33912638820E+03 -0.13423797897E+03  0.36685443219E+03  0.00000000000E+00 0. -1.
        -14    1    5    5    0    0  0.74593537363E+02 -0.15901614575E+03 -0.83646520220E+02  0.19454323625E+03  0.00000000000E+00 0.  1.
          2    1    6    6  502    0 -0.13561320629E+03 -0.20661255379E+03  0.14182989591E+03  0.28494808033E+03  0.00000000000E+00 0. -1.
         -1    1    6    6    0  502 -0.57962260010E+02 -0.23917770674E+03  0.12477594165E+03  0.27592505251E+03  0.00000000000E+00 0.  1.
<mgrwt>
<rscale>  0 0.97968107E+03</rscale>
<asrwt>0</asrwt>
<pdfrwt beam="1">  1        1 0.10468645E+00 0.97968107E+03</pdfrwt>
<pdfrwt beam="2">  1       -2 0.33192147E+00 0.97968107E+03</pdfrwt>
<totfact> 0.51173259E-01</totfact>
</mgrwt>
</event>
<event>
12    3  0.2422421E-007  0.7332537E+03  0.7818608E-02  0.9661995E-01
         -2   -1    0    0    0  501 -0.00000000000E+00  0.00000000000E+00  0.55585858781E+03  0.55585858781E+03  0.00000000000E+00 0.  1.
          1   -1    0    0  501    0  0.00000000000E+00 -0.00000000000E+00 -0.10402612781E+04  0.10402612781E+04  0.00000000000E+00 0. -1.
        -24    2    1    2    0    0 -0.44809135400E+02  0.63747820660E+03 -0.19310117289E+03  0.67231806155E+03  0.79606472150E+02 0.  0.
    5000000    2    1    2    0    0  0.44809135400E+02 -0.63747820660E+03 -0.29130151744E+03  0.92380180439E+03  0.60013904824E+03 0.  0.
        -24    2    4    4    0    0 -0.13829491747E+03 -0.61855215664E+03 -0.10012748085E+03  0.64667116894E+03  0.80161297554E+02 0.  0.
         24    2    4    4    0    0  0.18310405287E+03 -0.18926049956E+02 -0.19117403660E+03  0.27713063546E+03  0.79803429100E+02 0.  0.
         11    1    5    5    0    0 -0.39959144801E+02 -0.21795807884E+03  0.25160101191E+01  0.22160502633E+03  0.00000000000E+00 0. -1.
        -12    1    5    5    0    0 -0.98335772667E+02 -0.40059407780E+03 -0.10264349096E+03  0.42506614261E+03  0.00000000000E+00 0.  1.
         11    1    3    3    0    0 -0.54342963869E+02  0.22766578810E+03 -0.68869310424E+02  0.24398330006E+03  0.00000000000E+00 0. -1.
        -12    1    3    3    0    0  0.95338284688E+01  0.40981241851E+03 -0.12423186246E+03  0.42833476149E+03  0.00000000000E+00 0.  1.
          2    1    6    6  502    0  0.16644737546E+03 -0.29034395289E+02 -0.13074987952E+03  0.21364282319E+03  0.00000000000E+00 0. -1.
         -3    1    6    6    0  502  0.16656677408E+02  0.10108345333E+02 -0.60424157074E+02  0.63487812262E+02  0.00000000000E+00 0.  1.
<mgrwt>
<rscale>  0 0.73325369E+03</rscale>
<asrwt>0</asrwt>
<pdfrwt beam="1">  1        1 0.16004020E+00 0.73325369E+03</pdfrwt>
<pdfrwt beam="2">  1       -2 0.85516706E-01 0.73325369E+03</pdfrwt>
<totfact> 0.15055342E+01</totfact>
</mgrwt>
</event>
<event>
12    3  0.2422421E-007  0.4578594E+03  0.7818608E-02  0.1025404E+00
         -2   -1    0    0    0  501 -0.00000000000E+00  0.00000000000E+00  0.36403630367E+03  0.36403630367E+03  0.00000000000E+00 0.  1.
          1   -1    0    0  501    0  0.00000000000E+00 -0.00000000000E+00 -0.70181641647E+03  0.70181641647E+03  0.00000000000E+00 0. -1.
        -24    2    1    2    0    0  0.17634828848E+03  0.24244484700E+03 -0.23471888081E+03  0.38770068162E+03  0.73079701891E+02 0.  0.
    5000000    2    1    2    0    0 -0.17634828848E+03 -0.24244484700E+03 -0.10306123200E+03  0.67815203852E+03  0.59949174066E+03 0.  0.
        -24    2    4    4    0    0 -0.26211658593E+03 -0.36616411320E+03 -0.17086901425E+03  0.48840508723E+03  0.81006461419E+02 0.  0.
         24    2    4    4    0    0  0.85768297451E+02  0.12371926619E+03  0.67807782251E+02  0.18974695129E+03  0.93505895621E+02 0.  0.
         13    1    3    3    0    0  0.70242910963E+02  0.47407027820E+02 -0.84174521389E+02  0.11944389008E+03  0.00000000000E+00 0. -1.
        -14    1    3    3    0    0  0.10610537752E+03  0.19503781918E+03 -0.15054435942E+03  0.26825679153E+03  0.00000000000E+00 0.  1.
         13    1    5    5    0    0 -0.68741383984E+02 -0.43487841285E+02 -0.28879733643E+02  0.86316911593E+02  0.00000000000E+00 0. -1.
        -14    1    5    5    0    0 -0.19337520195E+03 -0.32267627191E+03 -0.14198928060E+03  0.40208817564E+03  0.00000000000E+00 0.  1.
          4    1    6    6  502    0  0.69255449175E+01  0.19788682278E+02  0.54769227715E+02  0.58644892558E+02  0.00000000000E+00 0. -1.
         -3    1    6    6    0  502  0.78842752533E+02  0.10393058391E+03  0.13038554536E+02  0.13110205873E+03  0.00000000000E+00 0.  1.
<mgrwt>
<rscale>  0 0.45785940E+03</rscale>
<asrwt>0</asrwt>
<pdfrwt beam="1">  1        1 0.10797176E+00 0.45785940E+03</pdfrwt>
<pdfrwt beam="2">  1       -2 0.56005586E-01 0.45785940E+03</pdfrwt>
<totfact> 0.74290460E+01</totfact>
</mgrwt>
</event>
<event>
12    3  0.2422421E-007  0.9865086E+03  0.7818608E-02  0.9323467E-01
         -2   -1    0    0    0  501 -0.00000000000E+00  0.00000000000E+00  0.51162169729E+03  0.51162169729E+03  0.00000000000E+00 0.  1.
          1   -1    0    0  501    0  0.00000000000E+00 -0.00000000000E+00 -0.26867584709E+04  0.26867584709E+04  0.00000000000E+00 0. -1.
        -24    2    1    2    0    0 -0.88655265293E+03 -0.32164306187E+03 -0.17732385673E+04  0.20105061491E+04  0.91269345653E+02 0.  0.
    5000000    2    1    2    0    0  0.88655265293E+03  0.32164306187E+03 -0.40189820631E+03  0.11878740191E+04  0.60007720442E+03 0.  0.
        -24    2    4    4    0    0  0.66543151695E+03  0.53629145931E+02 -0.47232088474E+03  0.82355461071E+03  0.97365238235E+02 0.  0.
         24    2    4    4    0    0  0.22112113597E+03  0.26801391594E+03  0.70422678424E+02  0.36431940835E+03  0.83924142835E+02 0.  0.
         11    1    5    5    0    0  0.35235018949E+03  0.53079593835E+02 -0.20004273109E+03  0.40863821844E+03  0.00000000000E+00 0. -1.
        -12    1    5    5    0    0  0.31308132747E+03  0.54955209643E+00 -0.27227815365E+03  0.41491639227E+03  0.00000000000E+00 0.  1.
         13    1    3    3    0    0 -0.23355877150E+03 -0.12820155439E+03 -0.49177943335E+03  0.55931417768E+03  0.00000000000E+00 0. -1.
        -14    1    3    3    0    0 -0.65299388143E+03 -0.19344150749E+03 -0.12814591339E+04  0.14511919714E+04  0.00000000000E+00 0.  1.
          4    1    6    6  502    0  0.21006929362E+03  0.20984077786E+03  0.70192493334E+02  0.30510530362E+03  0.00000000000E+00 0. -1.
         -3    1    6    6    0  502  0.11051842350E+02  0.58173138086E+02  0.23018508979E+00  0.59214104733E+02  0.00000000000E+00 0.  1.
<mgrwt>
<rscale>  0 0.98650856E+03</rscale>
<asrwt>0</asrwt>
<pdfrwt beam="1">  1        1 0.41334745E+00 0.98650856E+03</pdfrwt>
<pdfrwt beam="2">  1       -2 0.78711032E-01 0.98650856E+03</pdfrwt>
<totfact> 0.12876302E+00</totfact>
</mgrwt>
</event>
<event>
12    3  0.2422421E-007  0.5233508E+03  0.7818608E-02  0.1007858E+00
          1   -1    0    0  501    0  0.00000000000E+00  0.00000000000E+00  0.90139481495E+03  0.90139481495E+03  0.00000000000E+00 0. -1.
         -2   -1    0    0    0  501 -0.00000000000E+00 -0.00000000000E+00 -0.43556750688E+03  0.43556750688E+03  0.00000000000E+00 0.  1.
        -24    2    1    2    0    0 -0.28022388326E+03  0.25403020233E+03 -0.13280414405E+03  0.40884868091E+03  0.80396111570E+02 0.  0.
    5000000    2    1    2    0    0  0.28022388326E+03 -0.25403020233E+03  0.59863145212E+03  0.92811364093E+03  0.59998212186E+03 0.  0.
        -24    2    4    4    0    0  0.21629825525E+03 -0.42324794994E+03  0.51726719256E+03  0.70687509090E+03  0.78633855851E+02 0.  0.
         24    2    4    4    0    0  0.63925628013E+02  0.16921774760E+03  0.81364259566E+02  0.22123855003E+03  0.98006230747E+02 0.  0.
         11    1    5    5    0    0  0.73129826146E+02 -0.86406426552E+02  0.92601035596E+02  0.14624976518E+03  0.00000000000E+00 0. -1.
        -12    1    5    5    0    0  0.14316842910E+03 -0.33684152338E+03  0.42466615696E+03  0.56062532572E+03  0.00000000000E+00 0.  1.
         11    1    3    3    0    0 -0.14088531219E+03  0.17022904451E+03 -0.50750733540E+02  0.22672061163E+03  0.00000000000E+00 0. -1.
        -12    1    3    3    0    0 -0.13933857107E+03  0.83801157828E+02 -0.82053410511E+02  0.18212806928E+03  0.00000000000E+00 0.  1.
          2    1    6    6  502    0  0.49757701720E+02  0.84682463292E+02  0.92358200424E+02  0.13482205181E+03  0.00000000000E+00 0. -1.
         -1    1    6    6    0  502  0.14167926292E+02  0.84535284309E+02 -0.10993940858E+02  0.86416498217E+02  0.00000000000E+00 0.  1.
<mgrwt>
<rscale>  0 0.52335083E+03</rscale>
<asrwt>0</asrwt>
<pdfrwt beam="1">  1        1 0.13867613E+00 0.52335083E+03</pdfrwt>
<pdfrwt beam="2">  1       -2 0.67010386E-01 0.52335083E+03</pdfrwt>
<totfact> 0.34049324E+01</totfact>
</mgrwt>
</event>
<event>
12    3  0.2422421E-007  0.7494899E+03  0.7818608E-02  0.9636151E-01
         -2   -1    0    0    0  501 -0.00000000000E+00  0.00000000000E+00  0.55430197504E+03  0.55430197504E+03  0.00000000000E+00 0.  1.
          1   -1    0    0  501    0  0.00000000000E+00 -0.00000000000E+00 -0.12240175142E+04  0.12240175142E+04  0.00000000000E+00 0. -1.
        -24    2    1    2    0    0 -0.53645036732E+03  0.45769792005E+03 -0.19188616670E+03  0.73665797652E+03  0.92619062777E+02 0.  0.
    5000000    2    1    2    0    0  0.53645036732E+03 -0.45769792005E+03 -0.47782937251E+03  0.10416615128E+04  0.59955935096E+03 0.  0.
        -24    2    4    4    0    0  0.50274942576E+03 -0.48409238136E+03 -0.17405425491E+03  0.72393948560E+03  0.81798999737E+02 0.  0.
         24    2    4    4    0    0  0.33700941555E+02  0.26394461310E+02 -0.30377511760E+03  0.31772202717E+03  0.82677345291E+02 0.  0.
         11    1    5    5    0    0  0.31147168977E+03 -0.35298272629E+03 -0.11255811483E+03  0.48402556523E+03  0.00000000000E+00 0. -1.
        -12    1    5    5    0    0  0.19127773599E+03 -0.13110965508E+03 -0.61496140080E+02  0.23991392036E+03  0.00000000000E+00 0.  1.
         13    1    3    3    0    0 -0.26307427584E+03  0.28099655896E+03 -0.12125523102E+03  0.40357152006E+03  0.00000000000E+00 0. -1.
        -14    1    3    3    0    0 -0.27337609147E+03  0.17670136109E+03 -0.70630935681E+02  0.33308645646E+03  0.00000000000E+00 0.  1.
          4    1    6    6  502    0  0.53794813588E+02  0.13927090664E+01 -0.24421926975E+03  0.25007773456E+03  0.00000000000E+00 0. -1.
         -3    1    6    6    0  502 -0.20093872033E+02  0.25001752244E+02 -0.59555847852E+02  0.67644292604E+02  0.00000000000E+00 0.  1.
<mgrwt>
<rscale>  0 0.74948990E+03</rscale>
<asrwt>0</asrwt>
<pdfrwt beam="1">  1        1 0.18831038E+00 0.74948990E+03</pdfrwt>
<pdfrwt beam="2">  1       -2 0.85277228E-01 0.74948990E+03</pdfrwt>
<totfact> 0.11061492E+01</totfact>
</mgrwt>
</event>
<event>
12    3  0.2422421E-007  0.4556120E+03  0.7818608E-02  0.1026062E+00
         -2   -1    0    0    0  501 -0.00000000000E+00  0.00000000000E+00  0.49346849084E+03  0.49346849084E+03  0.00000000000E+00 0.  1.
          1   -1    0    0  501    0  0.00000000000E+00 -0.00000000000E+00 -0.46120137060E+03  0.46120137060E+03  0.00000000000E+00 0. -1.
        -24    2    1    2    0    0  0.20939193078E+03  0.15616988195E+03  0.11345754997E+03  0.29528389467E+03  0.78012499662E+02 0.  0.
    5000000    2    1    2    0    0 -0.20939193078E+03 -0.15616988195E+03 -0.81190429733E+02  0.65938596677E+03  0.59996996140E+03 0.  0.
        -24    2    4    4    0    0  0.15210014069E+03 -0.21687497800E+03 -0.62776168526E+02  0.28376049117E+03  0.80062226651E+02 0.  0.
         24    2    4    4    0    0 -0.36149207148E+03  0.60705096044E+02 -0.18414261207E+02  0.37562547559E+03  0.79961156015E+02 0.  0.
         13    1    5    5    0    0  0.42654962129E+02 -0.71522577257E+02  0.17160458476E+02  0.85025914796E+02  0.00000000000E+00 0. -1.
        -14    1    5    5    0    0  0.10944517856E+03 -0.14535240074E+03 -0.79936627002E+02  0.19873457638E+03  0.00000000000E+00 0.  1.
         13    1    3    3    0    0  0.18578568462E+03  0.16314198912E+03  0.10926314629E+03  0.27031475055E+03  0.00000000000E+00 0. -1.
        -14    1    3    3    0    0  0.23606246165E+02 -0.69721071707E+01  0.41944036730E+01  0.24969144129E+02  0.00000000000E+00 0.  1.
          2    1    6    6  502    0 -0.82461230975E+02  0.46670767912E+02  0.74643291287E+01  0.95045943631E+02  0.00000000000E+00 0. -1.
         -1    1    6    6    0  502 -0.27903084050E+03  0.14034328132E+02 -0.25878590336E+02  0.28057953196E+03  0.00000000000E+00 0.  1.
<mgrwt>
<rscale>  0 0.45561197E+03</rscale>
<asrwt>0</asrwt>
<pdfrwt beam="1">  1        1 0.70954057E-01 0.45561197E+03</pdfrwt>
<pdfrwt beam="2">  1       -2 0.75918229E-01 0.45561197E+03</pdfrwt>
<totfact> 0.69950035E+01</totfact>
</mgrwt>
</event>
<event>
12    3  0.2422421E-007  0.1808401E+04  0.7818608E-02  0.8701845E-01
          1   -1    0    0  501    0  0.00000000000E+00  0.00000000000E+00  0.31559973451E+04  0.31559973451E+04  0.00000000000E+00 0. -1.
         -2   -1    0    0    0  501 -0.00000000000E+00 -0.00000000000E+00 -0.11270417735E+04  0.11270417735E+04  0.00000000000E+00 0.  1.
        -24    2    1    2    0    0 -0.61435204525E+03 -0.16712398355E+04  0.15039104305E+04  0.23320743918E+04  0.79707981898E+02 0.  0.
    5000000    2    1    2    0    0  0.61435204525E+03  0.16712398355E+04  0.52504514111E+03  0.19509647269E+04  0.60009994348E+03 0.  0.
        -24    2    4    4    0    0  0.63674237623E+03  0.16254370186E+04  0.39795775689E+03  0.17922420505E+04  0.79213862276E+02 0.  0.
         24    2    4    4    0    0 -0.22390330982E+02  0.45802816904E+02  0.12708738422E+03  0.15872267647E+03  0.80264935303E+02 0.  0.
         11    1    5    5    0    0  0.39036356389E+03  0.10898504697E+04  0.27964879817E+03  0.11909497087E+04  0.00000000000E+00 0. -1.
        -12    1    5    5    0    0  0.24637881234E+03  0.53558654896E+03  0.11830895872E+03  0.60129234180E+03  0.00000000000E+00 0.  1.
         11    1    3    3    0    0 -0.12826655395E+03 -0.28089549548E+03  0.23625081599E+03  0.38880462484E+03  0.00000000000E+00 0. -1.
        -12    1    3    3    0    0 -0.48608549130E+03 -0.13903443400E+04  0.12676596145E+04  0.19432697669E+04  0.00000000000E+00 0.  1.
          2    1    6    6  502    0 -0.23381425479E+02  0.64819344897E+02  0.12005199026E+03  0.13842224856E+03  0.00000000000E+00 0. -1.
         -1    1    6    6    0  502  0.99109449693E+00 -0.19016527993E+02  0.70353939622E+01  0.20300427912E+02  0.00000000000E+00 0.  1.
<mgrwt>
<rscale>  0 0.18084011E+04</rscale>
<asrwt>0</asrwt>
<pdfrwt beam="1">  1        1 0.48553805E+00 0.18084011E+04</pdfrwt>
<pdfrwt beam="2">  1       -2 0.17339104E+00 0.18084011E+04</pdfrwt>
<totfact> 0.74175173E-02</totfact>
</mgrwt>
</event>
<event>
12    3  0.2422421E-007  0.7889262E+03  0.7818608E-02  0.9576186E-01
         -2   -1    0    0    0  501 -0.00000000000E+00  0.00000000000E+00  0.10779955589E+04  0.10779955589E+04  0.00000000000E+00 0.  1.
          1   -1    0    0  501    0  0.00000000000E+00 -0.00000000000E+00 -0.99122843482E+03  0.99122843482E+03  0.00000000000E+00 0. -1.
        -24    2    1    2    0    0  0.41196347949E+03 -0.60813616019E+03  0.63475291054E+03  0.97386092999E+03  0.77138549115E+02 0.  0.
    5000000    2    1    2    0    0 -0.41196347949E+03  0.60813616019E+03 -0.54798578647E+03  0.10953630637E+04  0.59999026780E+03 0.  0.
        -24    2    4    4    0    0  0.66353858729E+02  0.87707339721E+02 -0.32096380344E+03  0.34858389780E+03  0.79984740287E+02 0.  0.
         24    2    4    4    0    0 -0.47831733821E+03  0.52042882047E+03 -0.22702198303E+03  0.74677916593E+03  0.80662932469E+02 0.  0.
         11    1    3    3    0    0  0.14178868100E+03 -0.21008604645E+03  0.17172085398E+03  0.30615066334E+03  0.00000000000E+00 0. -1.
        -12    1    3    3    0    0  0.27017479849E+03 -0.39805011374E+03  0.46303205656E+03  0.66771026664E+03  0.00000000000E+00 0.  1.
         13    1    5    5    0    0  0.11814777286E+01 -0.13755324494E+02 -0.52405525721E+02  0.54193578657E+02  0.00000000000E+00 0. -1.
        -14    1    5    5    0    0  0.65172381000E+02  0.10146266421E+03 -0.26855827772E+03  0.29439031915E+03  0.00000000000E+00 0.  1.
          2    1    6    6  502    0 -0.93364720832E+02  0.71865128021E+02 -0.61692065663E+02  0.13299428066E+03  0.00000000000E+00 0. -1.
         -1    1    6    6    0  502 -0.38495261738E+03  0.44856369244E+03 -0.16532991736E+03  0.61378488527E+03  0.00000000000E+00 0.  1.
<mgrwt>
<rscale>  0 0.78892622E+03</rscale>
<asrwt>0</asrwt>
<pdfrwt beam="1">  1        1 0.15249668E+00 0.78892622E+03</pdfrwt>
<pdfrwt beam="2">  1       -2 0.16584547E+00 0.78892622E+03</pdfrwt>
<totfact> 0.31429623E+00</totfact>
</mgrwt>
</event>
<event>
12    3  0.2422421E-007  0.5501646E+03  0.7818608E-02  0.1001456E+00
          1   -1    0    0  501    0  0.00000000000E+00  0.00000000000E+00  0.18574823849E+04  0.18574823849E+04  0.00000000000E+00 0. -1.
         -2   -1    0    0    0  501 -0.00000000000E+00 -0.00000000000E+00 -0.29053819608E+03  0.29053819608E+03  0.00000000000E+00 0.  1.
        -24    2    1    2    0    0 -0.22470712702E+03  0.40096415035E+03  0.71002762238E+02  0.47184612330E+03  0.79572790753E+02 0.  0.
    5000000    2    1    2    0    0  0.22470712702E+03 -0.40096415035E+03  0.14959414265E+04  0.16761744576E+04  0.60037864550E+03 0.  0.
        -24    2    4    4    0    0  0.29100699472E+03 -0.99943593081E+02  0.29556700306E+03  0.43406231012E+03  0.79852633028E+02 0.  0.
         24    2    4    4    0    0 -0.66299867697E+02 -0.30102055727E+03  0.12003744235E+04  0.12421121475E+04  0.83275338948E+02 0.  0.
         11    1    3    3    0    0 -0.11605848909E+03  0.13088194855E+03  0.16868982237E+02  0.17573906767E+03  0.00000000000E+00 0. -1.
        -12    1    3    3    0    0 -0.10864863793E+03  0.27008220180E+03  0.54133780001E+02  0.29610705563E+03  0.00000000000E+00 0.  1.
         13    1    5    5    0    0  0.21539749505E+02  0.11414716383E+02  0.11365096937E+02  0.26896505112E+02  0.00000000000E+00 0. -1.
        -14    1    5    5    0    0  0.26946724521E+03 -0.11135830946E+03  0.28420190612E+03  0.40716580501E+03  0.00000000000E+00 0.  1.
          2    1    6    6  502    0  0.10658384122E+02 -0.13418236655E+03  0.55539531733E+03  0.57147394267E+03  0.00000000000E+00 0. -1.
         -1    1    6    6    0  502 -0.76958251819E+02 -0.16683819072E+03  0.64497910616E+03  0.67063820484E+03  0.00000000000E+00 0.  1.
<mgrwt>
<rscale>  0 0.55016464E+03</rscale>
<asrwt>0</asrwt>
<pdfrwt beam="1">  1        1 0.28576651E+00 0.55016464E+03</pdfrwt>
<pdfrwt beam="2">  1       -2 0.44698185E-01 0.55016464E+03</pdfrwt>
<totfact> 0.16604297E+01</totfact>
</mgrwt>
</event>
<event>
12    3  0.2422421E-007  0.4430318E+03  0.7818608E-02  0.1029821E+00
          1   -1    0    0  501    0  0.00000000000E+00  0.00000000000E+00  0.41402538170E+03  0.41402538170E+03  0.00000000000E+00 0. -1.
         -2   -1    0    0    0  501 -0.00000000000E+00 -0.00000000000E+00 -0.48637545428E+03  0.48637545428E+03  0.00000000000E+00 0.  1.
        -24    2    1    2    0    0  0.18684465857E+03 -0.14747007132E+03 -0.34725926132E+02  0.25381667117E+03  0.80985580478E+02 0.  0.
    5000000    2    1    2    0    0 -0.18684465857E+03  0.14747007132E+03 -0.37624146444E+02  0.64658416481E+03  0.59999763118E+03 0.  0.
        -24    2    4    4    0    0  0.16314506292E+03 -0.97003295277E+02 -0.47585657532E+02  0.21197443163E+03  0.81503460128E+02 0.  0.
         24    2    4    4    0    0 -0.34998972149E+03  0.24447336660E+03  0.99615110887E+01  0.43460973318E+03  0.80785867267E+02 0.  0.
         11    1    5    5    0    0  0.15755915232E+03 -0.67486923720E+02 -0.56771185968E+02  0.18056117774E+03  0.00000000000E+00 0. -1.
        -12    1    5    5    0    0  0.55859106031E+01 -0.29516371557E+02  0.91855284359E+01  0.31413253888E+02  0.00000000000E+00 0.  1.
         13    1    3    3    0    0  0.13231305704E+03 -0.54810296589E+02 -0.10465014811E+02  0.14359815532E+03  0.00000000000E+00 0. -1.
        -14    1    3    3    0    0  0.54531601536E+02 -0.92659774729E+02 -0.24260911321E+02  0.11021851585E+03  0.00000000000E+00 0.  1.
          2    1    6    6  502    0 -0.30141611523E+02  0.53382081615E+02  0.94342971334E+01  0.62025553969E+02  0.00000000000E+00 0. -1.
         -1    1    6    6    0  502 -0.31984810997E+03  0.19109128498E+03  0.52721395530E+00  0.37258417921E+03  0.00000000000E+00 0.  1.
<mgrwt>
<rscale>  0 0.44303182E+03</rscale>
<asrwt>0</asrwt>
<pdfrwt beam="1">  1        1 0.63696213E-01 0.44303182E+03</pdfrwt>
<pdfrwt beam="2">  1       -2 0.74826992E-01 0.44303182E+03</pdfrwt>
<totfact> 0.83401480E+01</totfact>
</mgrwt>
</event>
<event>
12    3  0.2422421E-007  0.7761952E+03  0.7818608E-02  0.9595127E-01
          1   -1    0    0  501    0  0.00000000000E+00  0.00000000000E+00  0.18790572329E+04  0.18790572329E+04  0.00000000000E+00 0. -1.
         -2   -1    0    0    0  501 -0.00000000000E+00 -0.00000000000E+00 -0.41074594625E+03  0.41074594625E+03  0.00000000000E+00 0.  1.
        -24    2    1    2    0    0 -0.43562598119E+03  0.61922335084E+03  0.85629914359E+03  0.11462143436E+04  0.85741147525E+02 0.  0.
    5000000    2    1    2    0    0  0.43562598119E+03 -0.61922335084E+03  0.61201214305E+03  0.11435888356E+04  0.60002417274E+03 0.  0.
        -24    2    4    4    0    0  0.64555322596E+02 -0.25895775118E+03  0.55013361796E+03  0.61656168017E+03  0.79213643234E+02 0.  0.
         24    2    4    4    0    0  0.37107065859E+03 -0.36026559966E+03  0.61878525089E+02  0.52702715539E+03  0.80274122125E+02 0.  0.
         11    1    5    5    0    0  0.30338919780E+01 -0.14250379445E+03  0.33859149435E+03  0.36737002597E+03  0.00000000000E+00 0. -1.
        -12    1    5    5    0    0  0.61521430618E+02 -0.11645395673E+03  0.21154212361E+03  0.24919165420E+03  0.00000000000E+00 0.  1.
         13    1    3    3    0    0 -0.35296087369E+03  0.52376404980E+03  0.66628244246E+03  0.91806451372E+03  0.00000000000E+00 0. -1.
        -14    1    3    3    0    0 -0.82665107493E+02  0.95459301043E+02  0.19001670113E+03  0.22814982985E+03  0.00000000000E+00 0.  1.
          2    1    6    6  502    0  0.72967882688E+02 -0.10471804871E+03 -0.93464792955E+01  0.12797475651E+03  0.00000000000E+00 0. -1.
         -1    1    6    6    0  502  0.29810277590E+03 -0.25554755096E+03  0.71225004384E+02  0.39905239888E+03  0.00000000000E+00 0.  1.
<mgrwt>
<rscale>  0 0.77619516E+03</rscale>
<asrwt>0</asrwt>
<pdfrwt beam="1">  1        1 0.28908572E+00 0.77619516E+03</pdfrwt>
<pdfrwt beam="2">  1       -2 0.63191685E-01 0.77619516E+03</pdfrwt>
<totfact> 0.75943007E+00</totfact>
</mgrwt>
</event>
<event>
12    3  0.2422421E-007  0.1200239E+04  0.7818608E-02  0.9112648E-01
         -2   -1    0    0    0  501 -0.00000000000E+00  0.00000000000E+00  0.56686473030E+03  0.56686473030E+03  0.00000000000E+00 0.  1.
          1   -1    0    0  501    0  0.00000000000E+00 -0.00000000000E+00 -0.28119542315E+04  0.28119542315E+04  0.00000000000E+00 0. -1.
        -24    2    1    2    0    0  0.40789190384E+03  0.10955878309E+04 -0.13566077360E+04  0.17926048632E+04  0.79744252977E+02 0.  0.
    5000000    2    1    2    0    0 -0.40789190384E+03 -0.10955878309E+04 -0.88848176517E+03  0.15862140985E+04  0.59998901577E+03 0.  0.
        -24    2    4    4    0    0 -0.18078878470E+03 -0.11295249766E+03  0.15843203425E+02  0.22924300665E+03  0.82816046765E+02 0.  0.
         24    2    4    4    0    0 -0.22710311914E+03 -0.98263533320E+03 -0.90432496859E+03  0.13569710919E+04  0.80117854755E+02 0.  0.
         11    1    5    5    0    0 -0.13904199050E+03 -0.55740492270E+02 -0.17767071037E+02  0.15084875344E+03  0.00000000000E+00 0. -1.
        -12    1    5    5    0    0 -0.41746794195E+02 -0.57212005392E+02  0.33610274461E+02  0.78394253208E+02  0.00000000000E+00 0.  1.
         13    1    3    3    0    0  0.25728939407E+03  0.64301792548E+03 -0.74868787731E+03  0.10199036339E+04  0.00000000000E+00 0. -1.
        -14    1    3    3    0    0  0.15060250977E+03  0.45256990538E+03 -0.60791985868E+03  0.77270122931E+03  0.00000000000E+00 0.  1.
          4    1    6    6  502    0 -0.19718572812E+03 -0.73967556428E+03 -0.65383241107E+03  0.10067268614E+04  0.00000000000E+00 0. -1.
         -3    1    6    6    0  502 -0.29917391022E+02 -0.24295976892E+03 -0.25049255752E+03  0.35024423047E+03  0.00000000000E+00 0.  1.
<mgrwt>
<rscale>  0 0.12002387E+04</rscale>
<asrwt>0</asrwt>
<pdfrwt beam="1">  1        1 0.43260834E+00 0.12002387E+04</pdfrwt>
<pdfrwt beam="2">  1       -2 0.87209959E-01 0.12002387E+04</pdfrwt>
<totfact> 0.80831633E-01</totfact>
</mgrwt>
</event>
<event>
12    3  0.2422421E-007  0.4911313E+03  0.7818608E-02  0.1016120E+00
         -2   -1    0    0    0  501 -0.00000000000E+00  0.00000000000E+00  0.34524011173E+03  0.34524011173E+03  0.00000000000E+00 0.  1.
          1   -1    0    0  501    0  0.00000000000E+00 -0.00000000000E+00 -0.85594722337E+03  0.85594722337E+03  0.00000000000E+00 0. -1.
        -24    2    1    2    0    0  0.21181790097E+03 -0.24003404961E+03 -0.38931588266E+03  0.51020362853E+03  0.79105738946E+02 0.  0.
    5000000    2    1    2    0    0 -0.21181790097E+03  0.24003404961E+03 -0.12139122898E+03  0.69098370656E+03  0.60019953692E+03 0.  0.
        -24    2    4    4    0    0 -0.36184101247E+03 -0.10453926762E+02 -0.18386907497E+02  0.37108890078E+03  0.79565639723E+02 0.  0.
         24    2    4    4    0    0  0.15002311150E+03  0.25048797638E+03 -0.10300432149E+03  0.31989480578E+03  0.80446480522E+02 0.  0.
         13    1    5    5    0    0 -0.16087932984E+03  0.52984976870E+01 -0.46527370178E+02  0.16755604741E+03  0.00000000000E+00 0. -1.
        -14    1    5    5    0    0 -0.20096168263E+03 -0.15752424449E+02  0.28140462682E+02  0.20353285337E+03  0.00000000000E+00 0.  1.
         13    1    3    3    0    0  0.12121005115E+03 -0.97227266946E+02 -0.14139265883E+03  0.21008784332E+03  0.00000000000E+00 0. -1.
        -14    1    3    3    0    0  0.90607849821E+02 -0.14280678267E+03 -0.24792322382E+03  0.30011578522E+03  0.00000000000E+00 0.  1.
          4    1    6    6  502    0  0.11438979661E+03  0.22140962232E+03 -0.11167780713E+03  0.27309188752E+03  0.00000000000E+00 0. -1.
         -3    1    6    6    0  502  0.35633314892E+02  0.29078354052E+02  0.86734856393E+01  0.46802918260E+02  0.00000000000E+00 0.  1.
<mgrwt>
<rscale>  0 0.49113134E+03</rscale>
<asrwt>0</asrwt>
<pdfrwt beam="1">  1        1 0.13168419E+00 0.49113134E+03</pdfrwt>
<pdfrwt beam="2">  1       -2 0.53113864E-01 0.49113134E+03</pdfrwt>
<totfact> 0.60621180E+01</totfact>
</mgrwt>
</event>
<event>
12    3  0.2422421E-007  0.4718786E+03  0.7818608E-02  0.1021391E+00
          1   -1    0    0  501    0  0.00000000000E+00  0.00000000000E+00  0.96747539824E+03  0.96747539824E+03  0.00000000000E+00 0. -1.
         -2   -1    0    0    0  501 -0.00000000000E+00 -0.00000000000E+00 -0.30913873509E+03  0.30913873509E+03  0.00000000000E+00 0.  1.
        -24    2    1    2    0    0 -0.29072958870E+03 -0.16622004176E+03  0.29259332623E+02  0.34500878193E+03  0.77602545312E+02 0.  0.
    5000000    2    1    2    0    0  0.29072958870E+03  0.16622004176E+03  0.62907733053E+03  0.93160535139E+03  0.59999787244E+03 0.  0.
        -24    2    4    4    0    0 -0.10334638569E+03  0.15720351421E+03  0.44579686798E+03  0.49038348692E+03  0.79672432030E+02 0.  0.
         24    2    4    4    0    0  0.39407597439E+03  0.90165275466E+01  0.18328046255E+03  0.44122186448E+03  0.75550210964E+02 0.  0.
         11    1    5    5    0    0 -0.92598662353E+02  0.69499925161E+02  0.26263542690E+03  0.28702285507E+03  0.00000000000E+00 0. -1.
        -12    1    5    5    0    0 -0.10747723340E+02  0.87703589048E+02  0.18316144108E+03  0.20336063185E+03  0.00000000000E+00 0.  1.
         13    1    3    3    0    0 -0.62145004228E+02 -0.71931642564E+02 -0.59613370937E+01  0.95245473868E+02  0.00000000000E+00 0. -1.
        -14    1    3    3    0    0 -0.22858458447E+03 -0.94288399191E+02  0.35220669716E+02  0.24976330806E+03  0.00000000000E+00 0.  1.
          2    1    6    6  502    0  0.12655292073E+02  0.95781567214E+01 -0.39053898271E+01  0.16344710867E+02  0.00000000000E+00 0. -1.
         -1    1    6    6    0  502  0.38142068232E+03 -0.56162917477E+00  0.18718585238E+03  0.42487715361E+03  0.00000000000E+00 0.  1.
<mgrwt>
<rscale>  0 0.47187859E+03</rscale>
<asrwt>0</asrwt>
<pdfrwt beam="1">  1        1 0.14884237E+00 0.47187859E+03</pdfrwt>
<pdfrwt beam="2">  1       -2 0.47559806E-01 0.47187859E+03</pdfrwt>
<totfact> 0.61897757E+01</totfact>
</mgrwt>
</event>
<event>
12    3  0.2422421E-007  0.5288164E+03  0.7818608E-02  0.1006520E+00
          1   -1    0    0  501    0  0.00000000000E+00  0.00000000000E+00  0.27585196777E+04  0.27585196777E+04  0.00000000000E+00 0. -1.
         -2   -1    0    0    0  501 -0.00000000000E+00 -0.00000000000E+00 -0.10932018650E+03  0.10932018650E+03  0.00000000000E+00 0.  1.
        -24    2    1    2    0    0 -0.22871698912E+03  0.27477537785E+03  0.12691143753E+04  0.13210254751E+04  0.81510974092E+02 0.  0.
    5000000    2    1    2    0    0  0.22871698912E+03 -0.27477537785E+03  0.13800851160E+04  0.15468143892E+04  0.60015569466E+03 0.  0.
        -24    2    4    4    0    0  0.33868193215E+03  0.41806554830E+02  0.62621671716E+03  0.71784473252E+03  0.81856239641E+02 0.  0.
         24    2    4    4    0    0 -0.10996494303E+03 -0.31658193268E+03  0.75386839880E+03  0.82896965664E+03  0.80973576663E+02 0.  0.
         13    1    3    3    0    0 -0.20712579199E+03  0.27218199054E+03  0.12248433377E+04  0.12717017463E+04  0.00000000000E+00 0. -1.
        -14    1    3    3    0    0 -0.21591197124E+02  0.25933873133E+01  0.44271037577E+02  0.49323728763E+02  0.00000000000E+00 0.  1.
         13    1    5    5    0    0  0.11240209529E+03 -0.24656399271E+02  0.20183442356E+03  0.23233446491E+03  0.00000000000E+00 0. -1.
        -14    1    5    5    0    0  0.22627983686E+03  0.66462954101E+02  0.42438229360E+03  0.48551026762E+03  0.00000000000E+00 0.  1.
          2    1    6    6  502    0 -0.10391181283E+03 -0.19284666186E+03  0.43937457902E+03  0.49095572155E+03  0.00000000000E+00 0. -1.
         -1    1    6    6    0  502 -0.60531302010E+01 -0.12373527082E+03  0.31449381979E+03  0.33801393509E+03  0.00000000000E+00 0.  1.
<mgrwt>
<rscale>  0 0.52881643E+03</rscale>
<asrwt>0</asrwt>
<pdfrwt beam="1">  1        1 0.42438759E+00 0.52881643E+03</pdfrwt>
<pdfrwt beam="2">  1       -2 0.16818492E-01 0.52881643E+03</pdfrwt>
<totfact> 0.24670978E+01</totfact>
</mgrwt>
</event>
<event>
12    3  0.2422421E-007  0.5418584E+03  0.7818608E-02  0.1003396E+00
          1   -1    0    0  501    0  0.00000000000E+00  0.00000000000E+00  0.41049008803E+04  0.41049008803E+04  0.00000000000E+00 0. -1.
         -2   -1    0    0    0  501 -0.00000000000E+00 -0.00000000000E+00 -0.83165301296E+02  0.83165301296E+02  0.00000000000E+00 0.  1.
        -24    2    1    2    0    0 -0.22889162015E+03 -0.33219019770E+03  0.19823981818E+04  0.20244161126E+04  0.74942273531E+02 0.  0.
    5000000    2    1    2    0    0  0.22889162015E+03  0.33219019770E+03  0.20393373972E+04  0.21636500691E+04  0.59978571206E+03 0.  0.
        -24    2    4    4    0    0  0.22331797495E+03 -0.92922454399E+02  0.11052904817E+04  0.11342680920E+04  0.79947201454E+02 0.  0.
         24    2    4    4    0    0  0.55736451991E+01  0.42511265210E+03  0.93404691550E+03  0.10293819771E+04  0.80198390794E+02 0.  0.
         13    1    5    5    0    0  0.21739634692E+03 -0.74276256744E+02  0.10647701269E+04  0.10892720308E+04  0.00000000000E+00 0. -1.
        -14    1    5    5    0    0  0.59216280366E+01 -0.18646197655E+02  0.40520354844E+02  0.44996061186E+02  0.00000000000E+00 0.  1.
         13    1    3    3    0    0 -0.78279026214E+02 -0.12234721572E+03  0.89862558900E+03  0.91028808426E+03  0.00000000000E+00 0. -1.
        -14    1    3    3    0    0 -0.15061259394E+03 -0.20984298197E+03  0.10837725928E+04  0.11141280283E+04  0.00000000000E+00 0.  1.
          4    1    6    6  502    0  0.30090662783E+02  0.36069094991E+03  0.81628054482E+03  0.89292627757E+03  0.00000000000E+00 0. -1.
         -3    1    6    6    0  502 -0.24517017583E+02  0.64421702182E+02  0.11776637068E+03  0.13645569950E+03  0.00000000000E+00 0.  1.
<mgrwt>
<rscale>  0 0.54185844E+03</rscale>
<asrwt>0</asrwt>
<pdfrwt beam="1">  1        1 0.63152305E+00 0.54185844E+03</pdfrwt>
<pdfrwt beam="2">  1       -2 0.12794665E-01 0.54185844E+03</pdfrwt>
<totfact> 0.36008430E+00</totfact>
</mgrwt>
</event>
<event>
12    3  0.2422421E-007  0.3662014E+03  0.7818608E-02  0.1056155E+00
          1   -1    0    0  501    0  0.00000000000E+00  0.00000000000E+00  0.85167416324E+03  0.85167416324E+03  0.00000000000E+00 0. -1.
         -2   -1    0    0    0  501 -0.00000000000E+00 -0.00000000000E+00 -0.34070641031E+03  0.34070641031E+03  0.00000000000E+00 0.  1.
        -24    2    1    2    0    0  0.91385117375E+01  0.32727139071E+03  0.35843927498E+03  0.49206837464E+03  0.80389650448E+02 0.  0.
    5000000    2    1    2    0    0 -0.91385117375E+01 -0.32727139071E+03  0.15252847794E+03  0.70031219890E+03  0.59998513630E+03 0.  0.
        -24    2    4    4    0    0 -0.64438304431E+02 -0.27861232771E+03 -0.18242038611E+03  0.34824737461E+03  0.78879100072E+02 0.  0.
         24    2    4    4    0    0  0.55299792694E+02 -0.48659063004E+02  0.33494886406E+03  0.35206482429E+03  0.79580949267E+02 0.  0.
         11    1    5    5    0    0 -0.16370628892E+01  0.42577189530E+01 -0.10197951135E+02  0.11171676371E+02  0.00000000000E+00 0. -1.
        -12    1    5    5    0    0 -0.62801241542E+02 -0.28287004666E+03 -0.17222243498E+03  0.33707569824E+03  0.00000000000E+00 0.  1.
         13    1    3    3    0    0  0.23546561356E+02  0.15563069089E+03  0.12002197144E+03  0.19794096627E+03  0.00000000000E+00 0. -1.
        -14    1    3    3    0    0 -0.14408049619E+02  0.17164069982E+03  0.23841730354E+03  0.29412740838E+03  0.00000000000E+00 0.  1.
          4    1    6    6  502    0 -0.40943565272E+01  0.18404259725E+02  0.57655638137E+02  0.60660144580E+02  0.00000000000E+00 0. -1.
         -3    1    6    6    0  502  0.59394149221E+02 -0.67063322729E+02  0.27729322592E+03  0.29140467971E+03  0.00000000000E+00 0.  1.
<mgrwt>
<rscale>  0 0.36620142E+03</rscale>
<asrwt>0</asrwt>
<pdfrwt beam="1">  1        1 0.13102679E+00 0.36620142E+03</pdfrwt>
<pdfrwt beam="2">  1       -2 0.52416371E-01 0.36620142E+03</pdfrwt>
<totfact> 0.63868152E+01</totfact>
</mgrwt>
</event>
<event>
12    3  0.2422421E-007  0.6055709E+03  0.7818608E-02  0.9893915E-01
          1   -1    0    0  501    0  0.00000000000E+00  0.00000000000E+00  0.78107443704E+03  0.78107443704E+03  0.00000000000E+00 0. -1.
         -2   -1    0    0    0  501 -0.00000000000E+00 -0.00000000000E+00 -0.54207722787E+03  0.54207722787E+03  0.00000000000E+00 0.  1.
        -24    2    1    2    0    0 -0.29078460606E+03  0.36625458165E+03  0.29712849103E+03  0.56011458205E+03  0.82127334904E+02 0.  0.
    5000000    2    1    2    0    0  0.29078460606E+03 -0.36625458165E+03 -0.58131281862E+02  0.76303708286E+03  0.60012351911E+03 0.  0.
        -24    2    4    4    0    0  0.24020774500E+02 -0.45326334633E+03 -0.90009544620E+02  0.46967451232E+03  0.80422451248E+02 0.  0.
         24    2    4    4    0    0  0.26676383157E+03  0.87008764677E+02  0.31878262757E+02  0.29336257055E+03  0.79447512229E+02 0.  0.
         13    1    5    5    0    0 -0.74721097396E+01 -0.34005665566E+03 -0.41931221793E+02  0.34271356677E+03  0.00000000000E+00 0. -1.
        -14    1    5    5    0    0  0.31492884239E+02 -0.11320669066E+03 -0.48078322827E+02  0.12696094555E+03  0.00000000000E+00 0.  1.
         13    1    3    3    0    0 -0.25289421099E+03  0.31574246093E+03  0.28738186378E+03  0.49622285237E+03  0.00000000000E+00 0. -1.
        -14    1    3    3    0    0 -0.37890395074E+02  0.50512120722E+02  0.97466272530E+01  0.63891729680E+02  0.00000000000E+00 0.  1.
          2    1    6    6  502    0  0.14448977378E+03  0.75439283980E+02  0.46939863114E+02  0.16962231883E+03  0.00000000000E+00 0. -1.
         -1    1    6    6    0  502  0.12227405779E+03  0.11569480697E+02 -0.15061600357E+02  0.12374025172E+03  0.00000000000E+00 0.  1.
<mgrwt>
<rscale>  0 0.60557089E+03</rscale>
<asrwt>0</asrwt>
<pdfrwt beam="1">  1        1 0.12016530E+00 0.60557089E+03</pdfrwt>
<pdfrwt beam="2">  1       -2 0.83396496E-01 0.60557089E+03</pdfrwt>
<totfact> 0.26229721E+01</totfact>
</mgrwt>
</event>
<event>
12    3  0.2422421E-007  0.1384016E+04  0.7818608E-02  0.8965470E-01
          1   -1    0    0  501    0  0.00000000000E+00  0.00000000000E+00  0.33055043359E+04  0.33055043359E+04  0.00000000000E+00 0. -1.
         -2   -1    0    0    0  501 -0.00000000000E+00 -0.00000000000E+00 -0.67552397908E+03  0.67552397908E+03  0.00000000000E+00 0.  1.
        -24    2    1    2    0    0 -0.13282029085E+04  0.26465069063E+03  0.18868086148E+04  0.23237452592E+04  0.74714969224E+02 0.  0.
    5000000    2    1    2    0    0  0.13282029085E+04 -0.26465069063E+03  0.74317174199E+03  0.16572830558E+04  0.60009993732E+03 0.  0.
        -24    2    4    4    0    0  0.86037218062E+03  0.26955646369E+02  0.67678293312E+03  0.10962989297E+04  0.53565927713E+02 0.  0.
         24    2    4    4    0    0  0.46783072784E+03 -0.29160633700E+03  0.66388808875E+02  0.56098412609E+03  0.79974183911E+02 0.  0.
         13    1    5    5    0    0  0.64040146981E+03  0.87894148258E+01  0.47677685367E+03  0.79844064560E+03  0.00000000000E+00 0. -1.
        -14    1    5    5    0    0  0.21997071081E+03  0.18166231543E+02  0.20000607945E+03  0.29785828408E+03  0.00000000000E+00 0.  1.
         13    1    3    3    0    0 -0.11128608166E+04  0.24240760507E+03  0.15530646553E+04  0.19259362574E+04  0.00000000000E+00 0. -1.
        -14    1    3    3    0    0 -0.21534209184E+03  0.22243085561E+02  0.33374395949E+03  0.39780900174E+03  0.00000000000E+00 0.  1.
          2    1    6    6  502    0  0.36797904186E+03 -0.22339831972E+03  0.84539247124E+02  0.43870521857E+03  0.00000000000E+00 0. -1.
         -1    1    6    6    0  502  0.99851685982E+02 -0.68208017280E+02 -0.18150438249E+02  0.12227890752E+03  0.00000000000E+00 0.  1.
<mgrwt>
<rscale>  0 0.13840161E+04</rscale>
<asrwt>0</asrwt>
<pdfrwt beam="1">  1        1 0.50853912E+00 0.13840161E+04</pdfrwt>
<pdfrwt beam="2">  1       -2 0.10392677E+00 0.13840161E+04</pdfrwt>
<totfact> 0.22737512E-01</totfact>
</mgrwt>
</event>
<event>
12    3  0.2422421E-007  0.7184057E+03  0.7818608E-02  0.9686264E-01
          1   -1    0    0  501    0  0.00000000000E+00  0.00000000000E+00  0.11428844338E+04  0.11428844338E+04  0.00000000000E+00 0. -1.
         -2   -1    0    0    0  501 -0.00000000000E+00 -0.00000000000E+00 -0.58499829112E+03  0.58499829112E+03  0.00000000000E+00 0.  1.
        -24    2    1    2    0    0 -0.45980186335E+03  0.53247147075E+03  0.29145503360E+03  0.76557213721E+03  0.78810151379E+02 0.  0.
    5000000    2    1    2    0    0  0.45980186335E+03 -0.53247147075E+03  0.26643110909E+03  0.96231058771E+03  0.60009375154E+03 0.  0.
        -24    2    4    4    0    0  0.26033158992E+03 -0.39032176766E+03  0.44255586835E+03  0.64990004934E+03  0.79942219764E+02 0.  0.
         24    2    4    4    0    0  0.19947027342E+03 -0.14214970309E+03 -0.17612475926E+03  0.31241053837E+03  0.81151004883E+02 0.  0.
         11    1    3    3    0    0 -0.21084177525E+03  0.28235742610E+03  0.17859671711E+03  0.39506551055E+03  0.00000000000E+00 0. -1.
        -12    1    3    3    0    0 -0.24896008810E+03  0.25011404465E+03  0.11285831649E+03  0.37050662666E+03  0.00000000000E+00 0.  1.
         13    1    5    5    0    0  0.22129808272E+03 -0.36856661246E+03  0.38551409226E+03  0.57743857212E+03  0.00000000000E+00 0. -1.
        -14    1    5    5    0    0  0.39033507204E+02 -0.21755155204E+02  0.57041776086E+02  0.72461477225E+02  0.00000000000E+00 0.  1.
          2    1    6    6  502    0  0.11953448192E+03 -0.12909621243E+03 -0.13371730631E+03  0.22098561591E+03  0.00000000000E+00 0. -1.
         -3    1    6    6    0  502  0.79935791506E+02 -0.13053490658E+02 -0.42407452954E+02  0.91424922466E+02  0.00000000000E+00 0.  1.
<mgrwt>
<rscale>  0 0.71840567E+03</rscale>
<asrwt>0</asrwt>
<pdfrwt beam="1">  1        1 0.17582837E+00 0.71840567E+03</pdfrwt>
<pdfrwt beam="2">  1       -2 0.89999738E-01 0.71840567E+03</pdfrwt>
<totfact> 0.11241532E+01</totfact>
</mgrwt>
</event>
<event>
12    3  0.2422421E-007  0.7273465E+03  0.7818608E-02  0.9671576E-01
         -2   -1    0    0    0  501 -0.00000000000E+00  0.00000000000E+00  0.10676806968E+04  0.10676806968E+04  0.00000000000E+00 0.  1.
          1   -1    0    0  501    0  0.00000000000E+00 -0.00000000000E+00 -0.65092939521E+03  0.65092939521E+03  0.00000000000E+00 0. -1.
        -24    2    1    2    0    0  0.71606736689E+03 -0.70525448711E+02  0.25664849829E+03  0.76816919518E+03  0.80555247580E+02 0.  0.
    5000000    2    1    2    0    0 -0.71606736689E+03  0.70525448711E+02  0.16010280332E+03  0.95044089684E+03  0.59998223133E+03 0.  0.
        -24    2    4    4    0    0 -0.12922902007E+03 -0.18112851106E+02  0.30022914388E+03  0.33543479277E+03  0.73148796020E+02 0.  0.
         24    2    4    4    0    0 -0.58683834683E+03  0.88638299817E+02 -0.14012634056E+03  0.61500610407E+03  0.79756650043E+02 0.  0.
         11    1    3    3    0    0  0.40316566137E+03 -0.53092432881E+02  0.10481127172E+03  0.41993661380E+03  0.00000000000E+00 0. -1.
        -12    1    3    3    0    0  0.31290170552E+03 -0.17433015830E+02  0.15183722657E+03  0.34823258138E+03  0.00000000000E+00 0.  1.
         13    1    5    5    0    0 -0.31063220102E+02  0.12193255681E+02  0.14844558139E+03  0.15215022104E+03  0.00000000000E+00 0. -1.
        -14    1    5    5    0    0 -0.98165799964E+02 -0.30306106787E+02  0.15178356249E+03  0.18328457173E+03  0.00000000000E+00 0.  1.
          2    1    6    6  502    0 -0.40981883384E+03  0.25508298061E+02 -0.10480447667E+03  0.42377603539E+03  0.00000000000E+00 0. -1.
         -1    1    6    6    0  502 -0.17701951298E+03  0.63130001756E+02 -0.35321863894E+02  0.19123006868E+03  0.00000000000E+00 0.  1.
<mgrwt>
<rscale>  0 0.72734654E+03</rscale>
<asrwt>0</asrwt>
<pdfrwt beam="1">  1        1 0.10014298E+00 0.72734654E+03</pdfrwt>
<pdfrwt beam="2">  1       -2 0.16425857E+00 0.72734654E+03</pdfrwt>
<totfact> 0.63960542E+00</totfact>
</mgrwt>
</event>
<event>
12    3  0.2422421E-007  0.1411812E+04  0.7818608E-02  0.8945313E-01
         -2   -1    0    0    0  501 -0.00000000000E+00  0.00000000000E+00  0.14105325033E+04  0.14105325033E+04  0.00000000000E+00 0.  1.
          1   -1    0    0  501    0  0.00000000000E+00 -0.00000000000E+00 -0.15428878023E+04  0.15428878023E+04  0.00000000000E+00 0. -1.
        -24    2    1    2    0    0 -0.13080074129E+03  0.13473057775E+04 -0.47007276555E+03  0.14347253735E+04  0.71601678371E+02 0.  0.
    5000000    2    1    2    0    0  0.13080074129E+03 -0.13473057775E+04  0.33771746660E+03  0.15186949321E+04  0.60003293033E+03 0.  0.
        -24    2    4    4    0    0 -0.21902629231E+03 -0.63428806038E+03  0.10666480614E+03  0.68769721527E+03  0.10609532858E+03 0.  0.
         24    2    4    4    0    0  0.34982703360E+03 -0.71301771716E+03  0.23105266047E+03  0.83099771685E+03  0.79991593869E+02 0.  0.
         11    1    5    5    0    0 -0.14081663525E+03 -0.47407166460E+03  0.12005996620E+03  0.50890830552E+03  0.00000000000E+00 0. -1.
        -12    1    5    5    0    0 -0.78209657064E+02 -0.16021639579E+03 -0.13395160068E+02  0.17878890975E+03  0.00000000000E+00 0.  1.
         11    1    3    3    0    0 -0.40441117514E+02  0.18186493301E+03 -0.74860631905E+02  0.20078459117E+03  0.00000000000E+00 0. -1.
        -12    1    3    3    0    0 -0.90359623773E+02  0.11654408445E+04 -0.39521213365E+03  0.12339407823E+04  0.00000000000E+00 0.  1.
          2    1    6    6  502    0  0.28937804102E+03 -0.62536087255E+03  0.17629354898E+03  0.71126316294E+03  0.00000000000E+00 0. -1.
         -1    1    6    6    0  502  0.60448992573E+02 -0.87656844602E+02  0.54759111487E+02  0.11973455391E+03  0.00000000000E+00 0.  1.
<mgrwt>
<rscale>  0 0.14118117E+04</rscale>
<asrwt>0</asrwt>
<pdfrwt beam="1">  1        1 0.23736736E+00 0.14118117E+04</pdfrwt>
<pdfrwt beam="2">  1       -2 0.21700500E+00 0.14118117E+04</pdfrwt>
<totfact> 0.52628048E-01</totfact>
</mgrwt>
</event>
<event>
12    3  0.2422421E-007  0.6605725E+03  0.7818608E-02  0.9787140E-01
          3   -1    0    0  501    0  0.00000000000E+00  0.00000000000E+00  0.55614298228E+03  0.55614298228E+03  0.00000000000E+00 0. -1.
         -4   -1    0    0    0  501 -0.00000000000E+00 -0.00000000000E+00 -0.92514744901E+03  0.92514744901E+03  0.00000000000E+00 0.  1.
        -24    2    1    2    0    0  0.38504964667E+03 -0.38688473264E+03 -0.38052135423E+03  0.67013280428E+03  0.79614367950E+02 0.  0.
    5000000    2    1    2    0    0 -0.38504964667E+03  0.38688473264E+03  0.11516887507E+02  0.81115762701E+03  0.59991751967E+03 0.  0.
        -24    2    4    4    0    0 -0.52370836990E+03  0.31305139323E+03 -0.64641277981E+02  0.61881468708E+03  0.80507705355E+02 0.  0.
         24    2    4    4    0    0  0.13865872323E+03  0.73833339418E+02  0.76158165488E+02  0.19234293993E+03  0.80734979010E+02 0.  0.
         11    1    5    5    0    0 -0.39266522999E+03  0.19225968236E+03 -0.46382483490E+02  0.43966021321E+03  0.00000000000E+00 0. -1.
        -12    1    5    5    0    0 -0.13104313991E+03  0.12079171086E+03 -0.18258794491E+02  0.17915447387E+03  0.00000000000E+00 0.  1.
         13    1    3    3    0    0  0.17719663355E+03 -0.13954791469E+03 -0.19110610568E+03  0.29562444260E+03  0.00000000000E+00 0. -1.
        -14    1    3    3    0    0  0.20785301312E+03 -0.24733681795E+03 -0.18941524856E+03  0.37450836167E+03  0.00000000000E+00 0.  1.
          4    1    6    6  502    0  0.89615276890E+02  0.47545913265E+02  0.44058689417E+01  0.10154271713E+03  0.00000000000E+00 0. -1.
         -3    1    6    6    0  502  0.49043446335E+02  0.26287426153E+02  0.71752296546E+02  0.90800222807E+02  0.00000000000E+00 0.  1.
<mgrwt>
<rscale>  0 0.66057251E+03</rscale>
<asrwt>0</asrwt>
<pdfrwt beam="1">  1        3 0.85560460E-01 0.66057251E+03</pdfrwt>
<pdfrwt beam="2">  1       -4 0.14233037E+00 0.66057251E+03</pdfrwt>
<totfact> 0.96834860E-01</totfact>
</mgrwt>
</event>
<event>
12    3  0.2422421E-007  0.5919939E+03  0.7818608E-02  0.9922157E-01
          1   -1    0    0  501    0  0.00000000000E+00  0.00000000000E+00  0.56876701323E+03  0.56876701323E+03  0.00000000000E+00 0. -1.
         -2   -1    0    0    0  501 -0.00000000000E+00 -0.00000000000E+00 -0.96167254135E+03  0.96167254135E+03  0.00000000000E+00 0.  1.
        -24    2    1    2    0    0 -0.33687958797E+03  0.34121444915E+03  0.23222526121E+03  0.54014578356E+03  0.88959195433E+02 0.  0.
    5000000    2    1    2    0    0  0.33687958797E+03 -0.34121444915E+03 -0.62513078933E+03  0.99029377102E+03  0.59998174310E+03 0.  0.
        -24    2    4    4    0    0 -0.41838194673E+02 -0.30541407784E+03 -0.92120461618E+02  0.33084382708E+03  0.77092574168E+02 0.  0.
         24    2    4    4    0    0  0.37871778265E+03 -0.35800371310E+02 -0.53301032771E+03  0.65944994394E+03  0.77880637115E+02 0.  0.
         11    1    3    3    0    0 -0.87171571273E+02  0.14480163992E+03  0.96938414086E+02  0.19484212554E+03  0.00000000000E+00 0. -1.
        -12    1    3    3    0    0 -0.24970801670E+03  0.19641280924E+03  0.13528684712E+03  0.34530365802E+03  0.00000000000E+00 0.  1.
         11    1    5    5    0    0 -0.59499125917E+02 -0.23499064831E+03 -0.88815133824E+02  0.25816444134E+03  0.00000000000E+00 0. -1.
        -12    1    5    5    0    0  0.17660931244E+02 -0.70423429532E+02 -0.33053277938E+01  0.72679385738E+02  0.00000000000E+00 0.  1.
          2    1    6    6  502    0  0.20385917312E+03 -0.41178713487E+00 -0.34147915473E+03  0.39770182945E+03  0.00000000000E+00 0. -1.
         -1    1    6    6    0  502  0.17485860952E+03 -0.35388584175E+02 -0.19153117298E+03  0.26174811449E+03  0.00000000000E+00 0.  1.
<mgrwt>
<rscale>  0 0.59199387E+03</rscale>
<asrwt>0</asrwt>
<pdfrwt beam="1">  1        1 0.87502619E-01 0.59199387E+03</pdfrwt>
<pdfrwt beam="2">  1       -2 0.14794962E+00 0.59199387E+03</pdfrwt>
<totfact> 0.10453627E+01</totfact>
</mgrwt>
</event>
<event>
12    3  0.2422421E-007  0.7480783E+03  0.7818608E-02  0.9638370E-01
         -2   -1    0    0    0  501 -0.00000000000E+00  0.00000000000E+00  0.32389390982E+03  0.32389390982E+03  0.00000000000E+00 0.  1.
          1   -1    0    0  501    0  0.00000000000E+00 -0.00000000000E+00 -0.23303203617E+04  0.23303203617E+04  0.00000000000E+00 0. -1.
        -24    2    1    2    0    0  0.59939463938E+03  0.42449339873E+03 -0.57118420641E+03  0.93405417236E+03  0.82080569932E+02 0.  0.
    5000000    2    1    2    0    0 -0.59939463938E+03 -0.42449339873E+03 -0.14352422455E+04  0.17201600992E+04  0.59963479245E+03 0.  0.
        -24    2    4    4    0    0 -0.35658739810E+03 -0.16212998431E+03 -0.12444931901E+04  0.13071183329E+04  0.79714063591E+02 0.  0.
         24    2    4    4    0    0 -0.24280724128E+03 -0.26236341442E+03 -0.19074905540E+03  0.41304176621E+03  0.80177184127E+02 0.  0.
         13    1    5    5    0    0 -0.17602043430E+03 -0.36781668194E+02 -0.57533483488E+03  0.60278209714E+03  0.00000000000E+00 0. -1.
        -14    1    5    5    0    0 -0.18056696381E+03 -0.12534831611E+03 -0.66915835518E+03  0.70433623581E+03  0.00000000000E+00 0.  1.
         13    1    3    3    0    0  0.13652404852E+03  0.56682587845E+02 -0.11150446885E+03  0.18516203219E+03  0.00000000000E+00 0. -1.
        -14    1    3    3    0    0  0.46287059086E+03  0.36781081088E+03 -0.45967973756E+03  0.74889214017E+03  0.00000000000E+00 0.  1.
          2    1    6    6  502    0 -0.87279208552E+02 -0.96142793410E+02 -0.26999754507E+02  0.13262761294E+03  0.00000000000E+00 0. -1.
         -1    1    6    6    0  502 -0.15552803273E+03 -0.16622062101E+03 -0.16374930089E+03  0.28041415327E+03  0.00000000000E+00 0.  1.
<mgrwt>
<rscale>  0 0.74807832E+03</rscale>
<asrwt>0</asrwt>
<pdfrwt beam="1">  1        1 0.35851083E+00 0.74807832E+03</pdfrwt>
<pdfrwt beam="2">  1       -2 0.49829831E-01 0.74807832E+03</pdfrwt>
<totfact> 0.62341710E+00</totfact>
</mgrwt>
</event>
<event>
12    3  0.2422421E-007  0.1763978E+04  0.7818608E-02  0.8725694E-01
         -2   -1    0    0    0  501 -0.00000000000E+00  0.00000000000E+00  0.10952892007E+04  0.10952892007E+04  0.00000000000E+00 0.  1.
          1   -1    0    0  501    0  0.00000000000E+00 -0.00000000000E+00 -0.43649159564E+04  0.43649159564E+04  0.00000000000E+00 0. -1.
        -24    2    1    2    0    0  0.71019372165E+03 -0.16065215854E+04 -0.68276776031E+02  0.17595746307E+04  0.78450214134E+02 0.  0.
    5000000    2    1    2    0    0 -0.71019372165E+03  0.16065215854E+04 -0.32013499797E+04  0.37006305265E+04  0.60061458053E+03 0.  0.
        -24    2    4    4    0    0 -0.43893084365E+03  0.78424532639E+03 -0.10748825726E+04  0.14032393402E+04  0.77505376462E+02 0.  0.
         24    2    4    4    0    0 -0.27126287800E+03  0.82227625904E+03 -0.21264674070E+04  0.22973911863E+04  0.80130109899E+02 0.  0.
         11    1    3    3    0    0  0.59839393878E+03 -0.13085253944E+04 -0.31765023135E+02  0.14392091684E+04  0.00000000000E+00 0. -1.
        -12    1    3    3    0    0  0.11179978287E+03 -0.29799619104E+03 -0.36511752897E+02  0.32036546228E+03  0.00000000000E+00 0.  1.
         13    1    5    5    0    0 -0.49844438797E+02  0.14489974519E+03 -0.16743451036E+03  0.22696854296E+03  0.00000000000E+00 0. -1.
        -14    1    5    5    0    0 -0.38908640485E+03  0.63934558120E+03 -0.90744806228E+03  0.11762707972E+04  0.00000000000E+00 0.  1.
          4    1    6    6  502    0 -0.20962977287E+03  0.52011425111E+03 -0.13379148199E+04  0.14506824399E+04  0.00000000000E+00 0. -1.
         -3    1    6    6    0  502 -0.61633105127E+02  0.30216200793E+03 -0.78855258709E+03  0.84670874643E+03  0.00000000000E+00 0.  1.
<mgrwt>
<rscale>  0 0.17639782E+04</rscale>
<asrwt>0</asrwt>
<pdfrwt beam="1">  1        1 0.67152554E+00 0.17639782E+04</pdfrwt>
<pdfrwt beam="2">  1       -2 0.16850603E+00 0.17639782E+04</pdfrwt>
<totfact> 0.78242605E-03</totfact>
</mgrwt>
</event>
<event>
12    3  0.2422421E-007  0.3813237E+03  0.7818608E-02  0.1050446E+00
          1   -1    0    0  501    0  0.00000000000E+00  0.00000000000E+00  0.21419908582E+03  0.21419908582E+03  0.00000000000E+00 0. -1.
         -2   -1    0    0    0  501 -0.00000000000E+00 -0.00000000000E+00 -0.69927368259E+03  0.69927368259E+03  0.00000000000E+00 0.  1.
        -24    2    1    2    0    0 -0.37566790002E+02 -0.12626290846E+03 -0.12301655418E+03  0.20028877088E+03  0.87343765503E+02 0.  0.
    5000000    2    1    2    0    0  0.37566790002E+02  0.12626290846E+03 -0.36205804259E+03  0.71318399753E+03  0.60015981402E+03 0.  0.
        -24    2    4    4    0    0  0.56903082329E+02 -0.22940802760E+03 -0.15256344987E+03  0.29244363502E+03  0.79885352365E+02 0.  0.
         24    2    4    4    0    0 -0.19336292327E+02  0.35567093606E+03 -0.20949459272E+03  0.42074036251E+03  0.79112333474E+02 0.  0.
         11    1    5    5    0    0 -0.13692870701E+02 -0.88819697364E+02 -0.74955094253E+02  0.11702435431E+03  0.00000000000E+00 0. -1.
        -12    1    5    5    0    0  0.70595953030E+02 -0.14058833024E+03 -0.77608355617E+02  0.17541928071E+03  0.00000000000E+00 0.  1.
         11    1    3    3    0    0  0.20809128354E+02 -0.54165430376E+02 -0.77890429634E+02  0.97127919257E+02  0.00000000000E+00 0. -1.
        -12    1    3    3    0    0 -0.58375918356E+02 -0.72097478082E+02 -0.45126124549E+02  0.10316085162E+03  0.00000000000E+00 0.  1.
          2    1    6    6  502    0 -0.36437177168E+02  0.33842553093E+03 -0.19898523096E+03  0.39427735163E+03  0.00000000000E+00 0. -1.
         -1    1    6    6    0  502  0.17100884841E+02  0.17245405131E+02 -0.10509361759E+02  0.26463010884E+02  0.00000000000E+00 0.  1.
<mgrwt>
<rscale>  0 0.38132368E+03</rscale>
<asrwt>0</asrwt>
<pdfrwt beam="1">  1        1 0.32953706E-01 0.38132368E+03</pdfrwt>
<pdfrwt beam="2">  1       -2 0.10758057E+00 0.38132368E+03</pdfrwt>
<totfact> 0.85100514E+01</totfact>
</mgrwt>
</event>
<event>
12    3  0.2422421E-007  0.8695400E+03  0.7818608E-02  0.9464480E-01
         -2   -1    0    0    0  501 -0.00000000000E+00  0.00000000000E+00  0.24603096269E+03  0.24603096269E+03  0.00000000000E+00 0.  1.
          1   -1    0    0  501    0  0.00000000000E+00 -0.00000000000E+00 -0.37301096128E+04  0.37301096128E+04  0.00000000000E+00 0. -1.
        -24    2    1    2    0    0  0.22109704843E+03 -0.81337246561E+03 -0.19494405382E+04  0.21253465568E+04  0.79504098347E+02 0.  0.
    5000000    2    1    2    0    0 -0.22109704843E+03  0.81337246561E+03 -0.15346381119E+04  0.18507940187E+04  0.59988806675E+03 0.  0.
        -24    2    4    4    0    0 -0.27957459445E+03  0.48842188515E+03 -0.13489861049E+04  0.14638727813E+04  0.80262797913E+02 0.  0.
         24    2    4    4    0    0  0.58477546022E+02  0.32495058046E+03 -0.18565200695E+03  0.38692123743E+03  0.78923210529E+02 0.  0.
         11    1    5    5    0    0 -0.22639620742E+03  0.36020883949E+03 -0.93519661922E+03  0.10274231686E+04  0.00000000000E+00 0. -1.
        -12    1    5    5    0    0 -0.53178387033E+02  0.12821304566E+03 -0.41378948568E+03  0.43644961265E+03  0.00000000000E+00 0.  1.
         13    1    3    3    0    0  0.14922829997E+03 -0.48376031284E+03 -0.10806321343E+04  0.11933394050E+04  0.00000000000E+00 0. -1.
        -14    1    3    3    0    0  0.71868748461E+02 -0.32961215277E+03 -0.86880840391E+03  0.93200715177E+03  0.00000000000E+00 0.  1.
          4    1    6    6  502    0  0.39335830808E+02  0.27364920886E+03 -0.18408576927E+03  0.33214269154E+03  0.00000000000E+00 0. -1.
         -3    1    6    6    0  502  0.19141715214E+02  0.51301371603E+02 -0.15662376779E+01  0.54778545893E+02  0.00000000000E+00 0.  1.
<mgrwt>
<rscale>  0 0.86953996E+03</rscale>
<asrwt>0</asrwt>
<pdfrwt beam="1">  1        1 0.57386297E+00 0.86953996E+03</pdfrwt>
<pdfrwt beam="2">  1       -2 0.37850921E-01 0.86953996E+03</pdfrwt>
<totfact> 0.10062130E+00</totfact>
</mgrwt>
</event>
<event>
12    3  0.2422421E-007  0.1062323E+04  0.7818608E-02  0.9242713E-01
          1   -1    0    0  501    0  0.00000000000E+00  0.00000000000E+00  0.90834751785E+03  0.90834751785E+03  0.00000000000E+00 0. -1.
         -2   -1    0    0    0  501 -0.00000000000E+00 -0.00000000000E+00 -0.14556768811E+04  0.14556768811E+04  0.00000000000E+00 0.  1.
        -24    2    1    2    0    0 -0.10163535457E+04  0.28926071099E+03 -0.42854611809E+03  0.11430658516E+04  0.79381842233E+02 0.  0.
    5000000    2    1    2    0    0  0.10163535457E+04 -0.28926071099E+03 -0.11878324512E+03  0.12209585473E+04  0.59998668827E+03 0.  0.
        -24    2    4    4    0    0  0.72702993820E+03 -0.14233711266E+03  0.18674355295E+03  0.76808522977E+03  0.79053026191E+02 0.  0.
         24    2    4    4    0    0  0.28932360754E+03 -0.14692359833E+03 -0.30552679807E+03  0.45287331754E+03  0.80330092643E+02 0.  0.
         11    1    5    5    0    0  0.10828422952E+03 -0.23222728114E+02 -0.49524354487E+00  0.11074752697E+03  0.00000000000E+00 0. -1.
        -12    1    5    5    0    0  0.61874570868E+03 -0.11911438455E+03  0.18723879650E+03  0.65733770281E+03  0.00000000000E+00 0.  1.
         13    1    3    3    0    0 -0.51119864080E+03  0.15856091823E+03 -0.17637709543E+03  0.56353748317E+03  0.00000000000E+00 0. -1.
        -14    1    3    3    0    0 -0.50515490494E+03  0.13069979276E+03 -0.25216902265E+03  0.57952836841E+03  0.00000000000E+00 0.  1.
          2    1    6    6  502    0  0.19850867271E+03 -0.80242664621E+02 -0.15261440402E+03  0.26293675035E+03  0.00000000000E+00 0. -1.
         -1    1    6    6    0  502  0.90814934823E+02 -0.66680933707E+02 -0.15291239404E+03  0.18993656720E+03  0.00000000000E+00 0.  1.
<mgrwt>
<rscale>  0 0.10623235E+04</rscale>
<asrwt>0</asrwt>
<pdfrwt beam="1">  1        1 0.13974577E+00 0.10623235E+04</pdfrwt>
<pdfrwt beam="2">  1       -2 0.22395029E+00 0.10623235E+04</pdfrwt>
<totfact> 0.14522893E+00</totfact>
</mgrwt>
</event>
<event>
12    3  0.2422421E-007  0.5178588E+03  0.7818608E-02  0.1009220E+00
          1   -1    0    0  501    0  0.00000000000E+00  0.00000000000E+00  0.13814038221E+04  0.13814038221E+04  0.00000000000E+00 0. -1.
         -2   -1    0    0    0  501 -0.00000000000E+00 -0.00000000000E+00 -0.48370264125E+03  0.48370264125E+03  0.00000000000E+00 0.  1.
        -24    2    1    2    0    0 -0.41753426210E+03 -0.22442862262E+03  0.98469091141E+03  0.10954244169E+04  0.75069271179E+02 0.  0.
    5000000    2    1    2    0    0  0.41753426210E+03  0.22442862262E+03 -0.86989730582E+02  0.76968204642E+03  0.60011679919E+03 0.  0.
        -24    2    4    4    0    0  0.13690474821E+03  0.22465570072E+03  0.21554439860E+03  0.34945397923E+03  0.80284505895E+02 0.  0.
         24    2    4    4    0    0  0.28062951390E+03 -0.22707810261E+00 -0.30253412918E+03  0.42022806718E+03  0.79446544889E+02 0.  0.
         13    1    5    5    0    0  0.13292462152E+03  0.23119889115E+03  0.21323622774E+03  0.34145507917E+03  0.00000000000E+00 0. -1.
        -14    1    5    5    0    0  0.39801266904E+01 -0.65431904277E+01  0.23081708616E+01  0.79989000600E+01  0.00000000000E+00 0.  1.
         13    1    3    3    0    0 -0.18943020066E+03 -0.99540343133E+02  0.53082196825E+03  0.57233210884E+03  0.00000000000E+00 0. -1.
        -14    1    3    3    0    0 -0.22810406144E+03 -0.12488827949E+03  0.45386894316E+03  0.52309230807E+03  0.00000000000E+00 0.  1.
          4    1    6    6  502    0  0.21523343177E+03  0.26140018920E+02 -0.19480738464E+03  0.29147666777E+03  0.00000000000E+00 0. -1.
         -3    1    6    6    0  502  0.65396082124E+02 -0.26367097023E+02 -0.10772674454E+03  0.12875139942E+03  0.00000000000E+00 0.  1.
<mgrwt>
<rscale>  0 0.51785885E+03</rscale>
<asrwt>0</asrwt>
<pdfrwt beam="1">  1        1 0.21252366E+00 0.51785885E+03</pdfrwt>
<pdfrwt beam="2">  1       -2 0.74415792E-01 0.51785885E+03</pdfrwt>
<totfact> 0.12049064E+01</totfact>
</mgrwt>
</event>
<event>
12    3  0.2422421E-007  0.4938800E+03  0.7818608E-02  0.1015389E+00
         -2   -1    0    0    0  501 -0.00000000000E+00  0.00000000000E+00  0.10822440905E+03  0.10822440905E+03  0.00000000000E+00 0.  1.
          1   -1    0    0  501    0  0.00000000000E+00 -0.00000000000E+00 -0.29348572794E+04  0.29348572794E+04  0.00000000000E+00 0. -1.
        -24    2    1    2    0    0 -0.17266595913E+03 -0.34410324453E+03 -0.74501102046E+03  0.84280909276E+03  0.84054565034E+02 0.  0.
    5000000    2    1    2    0    0  0.17266595913E+03  0.34410324453E+03 -0.20816218499E+04  0.22002725957E+04  0.59985781066E+03 0.  0.
        -24    2    4    4    0    0  0.28181391993E+03  0.38292059221E+03 -0.10052736992E+04  0.11146963457E+04  0.76977057643E+02 0.  0.
         24    2    4    4    0    0 -0.10914796079E+03 -0.38817347677E+02 -0.10763481507E+04  0.10855762500E+04  0.80810823542E+02 0.  0.
         13    1    5    5    0    0  0.17023916486E+03  0.21297696922E+03 -0.65864531893E+03  0.71284936615E+03  0.00000000000E+00 0. -1.
        -14    1    5    5    0    0  0.11157475507E+03  0.16994362299E+03 -0.34662838028E+03  0.40184697956E+03  0.00000000000E+00 0.  1.
         13    1    3    3    0    0 -0.83826745071E+02 -0.82591604591E+02 -0.21061515995E+03  0.24126135608E+03  0.00000000000E+00 0. -1.
        -14    1    3    3    0    0 -0.88839214064E+02 -0.26151163994E+03 -0.53439586051E+03  0.60154773669E+03  0.00000000000E+00 0.  1.
          4    1    6    6  502    0 -0.68432872812E+02 -0.12793918926E+02 -0.31067266815E+03  0.31837752618E+03  0.00000000000E+00 0. -1.
         -3    1    6    6    0  502 -0.40715087982E+02 -0.26023428751E+02 -0.76567548258E+03  0.76719872384E+03  0.00000000000E+00 0.  1.
<mgrwt>
<rscale>  0 0.49388005E+03</rscale>
<asrwt>0</asrwt>
<pdfrwt beam="1">  1        1 0.45151650E+00 0.49388005E+03</pdfrwt>
<pdfrwt beam="2">  1       -2 0.16649909E-01 0.49388005E+03</pdfrwt>
<totfact> 0.19041347E+01</totfact>
</mgrwt>
</event>
<event>
12    3  0.2422421E-007  0.1103388E+04  0.7818608E-02  0.9201896E-01
          1   -1    0    0  501    0  0.00000000000E+00  0.00000000000E+00  0.11423523060E+04  0.11423523060E+04  0.00000000000E+00 0. -1.
         -2   -1    0    0    0  501 -0.00000000000E+00 -0.00000000000E+00 -0.11531090924E+04  0.11531090924E+04  0.00000000000E+00 0.  1.
        -24    2    1    2    0    0 -0.46337572632E+03 -0.93050485700E+03 -0.24864151146E+03  0.10718879613E+04  0.81023748168E+02 0.  0.
    5000000    2    1    2    0    0  0.46337572632E+03  0.93050485700E+03  0.23788472509E+03  0.12235734370E+04  0.59998871718E+03 0.  0.
        -24    2    4    4    0    0  0.51393416613E+03  0.46203497778E+03  0.26646568411E+03  0.74490345403E+03  0.79199414152E+02 0.  0.
         24    2    4    4    0    0 -0.50558439813E+02  0.46846987922E+03 -0.28580959022E+02  0.47866998301E+03  0.79296266229E+02 0.  0.
         11    1    5    5    0    0  0.45046757984E+03  0.41806714909E+03  0.26037442398E+03  0.66745488409E+03  0.00000000000E+00 0. -1.
        -12    1    5    5    0    0  0.63466586295E+02  0.43967828692E+02  0.60912601391E+01  0.77448569941E+02  0.00000000000E+00 0.  1.
         13    1    3    3    0    0 -0.21164564031E+03 -0.47902289937E+03 -0.15861894911E+03  0.54718989958E+03  0.00000000000E+00 0. -1.
        -14    1    3    3    0    0 -0.25173008601E+03 -0.45148195763E+03 -0.90022562341E+02  0.52469806175E+03  0.00000000000E+00 0.  1.
          4    1    6    6  502    0 -0.50787765907E+01  0.29511815643E+03  0.10060193035E+02  0.29533324857E+03  0.00000000000E+00 0. -1.
         -3    1    6    6    0  502 -0.45479663223E+02  0.17335172279E+03 -0.38641152057E+02  0.18333673444E+03  0.00000000000E+00 0.  1.
<mgrwt>
<rscale>  0 0.11033880E+04</rscale>
<asrwt>0</asrwt>
<pdfrwt beam="1">  1        1 0.17574651E+00 0.11033880E+04</pdfrwt>
<pdfrwt beam="2">  1       -2 0.17740140E+00 0.11033880E+04</pdfrwt>
<totfact> 0.19235503E+00</totfact>
</mgrwt>
</event>
<event>
12    3  0.2422421E-007  0.8743192E+03  0.7818608E-02  0.9458265E-01
         -2   -1    0    0    0  501 -0.00000000000E+00  0.00000000000E+00  0.10294497676E+04  0.10294497676E+04  0.00000000000E+00 0.  1.
          1   -1    0    0  501    0  0.00000000000E+00 -0.00000000000E+00 -0.82512545839E+03  0.82512545839E+03  0.00000000000E+00 0. -1.
        -24    2    1    2    0    0 -0.61439790675E+03 -0.47720425594E+03 -0.17505396944E+03  0.80138256185E+03  0.79758563839E+02 0.  0.
    5000000    2    1    2    0    0  0.61439790675E+03  0.47720425594E+03  0.37937827869E+03  0.10531926642E+04  0.60006517963E+03 0.  0.
        -24    2    4    4    0    0  0.66979235526E+02  0.39369416109E+03  0.24510677981E+03  0.47779897984E+03  0.93451705002E+02 0.  0.
         24    2    4    4    0    0  0.54741867123E+03  0.83510094858E+02  0.13427149888E+03  0.57539368432E+03  0.80049478437E+02 0.  0.
         13    1    5    5    0    0 -0.23498857748E+02  0.68204465406E+02  0.48427055004E+02  0.86886276668E+02  0.00000000000E+00 0. -1.
        -14    1    5    5    0    0  0.90478093274E+02  0.32548969568E+03  0.19667972480E+03  0.39091270318E+03  0.00000000000E+00 0.  1.
         13    1    3    3    0    0 -0.45874283534E+03 -0.39583365272E+03 -0.12397280514E+03  0.61846465220E+03  0.00000000000E+00 0. -1.
        -14    1    3    3    0    0 -0.15565507141E+03 -0.81370603222E+02 -0.51081164302E+02  0.18291790965E+03  0.00000000000E+00 0.  1.
          4    1    6    6  502    0  0.17229620585E+03  0.55216335170E+02  0.18901869674E+02  0.18191236048E+03  0.00000000000E+00 0. -1.
         -3    1    6    6    0  502  0.37512246538E+03  0.28293759688E+02  0.11536962920E+03  0.39348132384E+03  0.00000000000E+00 0.  1.
<mgrwt>
<rscale>  0 0.87431925E+03</rscale>
<asrwt>0</asrwt>
<pdfrwt beam="1">  1        1 0.12694238E+00 0.87431925E+03</pdfrwt>
<pdfrwt beam="2">  1       -2 0.15837689E+00 0.87431925E+03</pdfrwt>
<totfact> 0.48151749E+00</totfact>
</mgrwt>
</event>
<event>
12    3  0.2422421E-007  0.8002943E+03  0.7818608E-02  0.9559591E-01
          1   -1    0    0  501    0  0.00000000000E+00  0.00000000000E+00  0.67735625644E+03  0.67735625644E+03  0.00000000000E+00 0. -1.
         -2   -1    0    0    0  501 -0.00000000000E+00 -0.00000000000E+00 -0.13198812070E+04  0.13198812070E+04  0.00000000000E+00 0.  1.
        -24    2    1    2    0    0 -0.47735130752E+03  0.49969721522E+03  0.23006210792E+03  0.73273709851E+03  0.80084357616E+02 0.  0.
    5000000    2    1    2    0    0  0.47735130752E+03 -0.49969721522E+03 -0.87258705845E+03  0.12645003649E+04  0.59999285041E+03 0.  0.
        -24    2    4    4    0    0 -0.52032553516E+02 -0.34206553154E+03 -0.37861091373E+03  0.51898774672E+03  0.79283306932E+02 0.  0.
         24    2    4    4    0    0  0.52938386104E+03 -0.15763168368E+03 -0.49397614472E+03  0.74551261817E+03  0.81741129625E+02 0.  0.
         11    1    3    3    0    0 -0.26825820843E+03  0.33497571486E+03  0.15324516189E+03  0.45569208417E+03  0.00000000000E+00 0. -1.
        -12    1    3    3    0    0 -0.20909309910E+03  0.16472150036E+03  0.76816946034E+02  0.27704501434E+03  0.00000000000E+00 0.  1.
         11    1    5    5    0    0 -0.54816220950E+02 -0.32856337960E+03 -0.33168374547E+03  0.47007746118E+03  0.00000000000E+00 0. -1.
        -12    1    5    5    0    0  0.27836674336E+01 -0.13502151934E+02 -0.46927168256E+02  0.48910285542E+02  0.00000000000E+00 0.  1.
          4    1    6    6  502    0  0.49920082861E+03 -0.12645114824E+03 -0.45650132579E+03  0.68817499273E+03  0.00000000000E+00 0. -1.
         -3    1    6    6    0  502  0.30183032433E+02 -0.31180535444E+02 -0.37474818927E+02  0.57337625439E+02  0.00000000000E+00 0.  1.
<mgrwt>
<rscale>  0 0.80029430E+03</rscale>
<asrwt>0</asrwt>
<pdfrwt beam="1">  1        1 0.10420865E+00 0.80029430E+03</pdfrwt>
<pdfrwt beam="2">  1       -2 0.20305865E+00 0.80029430E+03</pdfrwt>
<totfact> 0.32519754E+00</totfact>
</mgrwt>
</event>
<event>
12    3  0.2422421E-007  0.5422711E+03  0.7818608E-02  0.1003299E+00
          1   -1    0    0  501    0  0.00000000000E+00  0.00000000000E+00  0.72705796137E+03  0.72705796137E+03  0.00000000000E+00 0. -1.
         -2   -1    0    0    0  501 -0.00000000000E+00 -0.00000000000E+00 -0.47988263435E+03  0.47988263435E+03  0.00000000000E+00 0.  1.
        -24    2    1    2    0    0 -0.28713900149E+03  0.31952544450E+03  0.53028851438E+02  0.44406079011E+03  0.99159519839E+02 0.  0.
    5000000    2    1    2    0    0  0.28713900149E+03 -0.31952544450E+03  0.19414647558E+03  0.76287980560E+03  0.59978948637E+03 0.  0.
        -24    2    4    4    0    0  0.29667275825E+03  0.25076118444E+02 -0.76687295435E+02  0.31697579227E+03  0.77130891347E+02 0.  0.
         24    2    4    4    0    0 -0.95337567651E+01 -0.34460156294E+03  0.27083377102E+03  0.44590401333E+03  0.81475934364E+02 0.  0.
         11    1    5    5    0    0  0.19417987400E+03  0.29126684771E+02 -0.14193102946E+02  0.19686450011E+03  0.00000000000E+00 0. -1.
        -12    1    5    5    0    0  0.10249288425E+03 -0.40505663262E+01 -0.62494192489E+02  0.12011129216E+03  0.00000000000E+00 0.  1.
         11    1    3    3    0    0 -0.67206564497E+02  0.12949520532E+03 -0.11424090009E+02  0.14634288621E+03  0.00000000000E+00 0. -1.
        -12    1    3    3    0    0 -0.21993243699E+03  0.19003023918E+03  0.64452941447E+02  0.29771790390E+03  0.00000000000E+00 0.  1.
          2    1    6    6  502    0  0.21008449992E+02 -0.80293743572E+02  0.98936336063E+02  0.12913883545E+03  0.00000000000E+00 0. -1.
         -1    1    6    6    0  502 -0.30542206757E+02 -0.26430781937E+03  0.17189743496E+03  0.31676517788E+03  0.00000000000E+00 0.  1.
<mgrwt>
<rscale>  0 0.54227106E+03</rscale>
<asrwt>0</asrwt>
<pdfrwt beam="1">  1        1 0.11185507E+00 0.54227106E+03</pdfrwt>
<pdfrwt beam="2">  1       -2 0.73828097E-01 0.54227106E+03</pdfrwt>
<totfact> 0.38725577E+01</totfact>
</mgrwt>
</event>
<event>
12    3  0.2422421E-007  0.4931910E+03  0.7818608E-02  0.1015572E+00
          1   -1    0    0  501    0  0.00000000000E+00  0.00000000000E+00  0.14048676561E+04  0.14048676561E+04  0.00000000000E+00 0. -1.
         -2   -1    0    0    0  501 -0.00000000000E+00 -0.00000000000E+00 -0.81823809465E+03  0.81823809465E+03  0.00000000000E+00 0.  1.
        -24    2    1    2    0    0  0.31846476777E+03 -0.30437028569E+03 -0.64432234924E+03  0.78459180512E+03  0.79824381102E+02 0.  0.
    5000000    2    1    2    0    0 -0.31846476777E+03  0.30437028569E+03  0.12309519107E+04  0.14385139457E+04  0.60001557167E+03 0.  0.
        -24    2    4    4    0    0  0.30228178204E+02  0.14917775344E+02 -0.35941913814E+02  0.90576500155E+02  0.75999989690E+02 0.  0.
         24    2    4    4    0    0 -0.34869294597E+03  0.28945251034E+03  0.12668938245E+04  0.13479374455E+04  0.80906538943E+02 0.  0.
         11    1    5    5    0    0  0.32122054963E+02  0.42916254150E+02 -0.15322225952E+02  0.55753043805E+02  0.00000000000E+00 0. -1.
        -12    1    5    5    0    0 -0.18938767592E+01 -0.27998478806E+02 -0.20619687862E+02  0.34823456350E+02  0.00000000000E+00 0.  1.
         13    1    3    3    0    0  0.28474442141E+03 -0.29528757694E+03 -0.61352780494E+03  0.73803150749E+03  0.00000000000E+00 0. -1.
        -14    1    3    3    0    0  0.33720346361E+02 -0.90827087451E+01 -0.30794544305E+02  0.46560297634E+02  0.00000000000E+00 0.  1.
          4    1    6    6  502    0 -0.23025764847E+03  0.23573995761E+03  0.87251610593E+03  0.93267157531E+03  0.00000000000E+00 0. -1.
         -3    1    6    6    0  502 -0.11843529750E+03  0.53712552735E+02  0.39437771861E+03  0.41526587020E+03  0.00000000000E+00 0.  1.
<mgrwt>
<rscale>  0 0.49319102E+03</rscale>
<asrwt>0</asrwt>
<pdfrwt beam="1">  1        1 0.21613349E+00 0.49319102E+03</pdfrwt>
<pdfrwt beam="2">  1       -2 0.12588278E+00 0.49319102E+03</pdfrwt>
<totfact> 0.34139210E+00</totfact>
</mgrwt>
</event>
<event>
12    3  0.2422421E-007  0.6495573E+03  0.7818608E-02  0.9807610E-01
         -2   -1    0    0    0  501 -0.00000000000E+00  0.00000000000E+00  0.37197915610E+03  0.37197915610E+03  0.00000000000E+00 0.  1.
          1   -1    0    0  501    0  0.00000000000E+00 -0.00000000000E+00 -0.14255951976E+04  0.14255951976E+04  0.00000000000E+00 0. -1.
        -24    2    1    2    0    0 -0.27812815945E+03  0.45977539266E+03 -0.10614020516E+03  0.55402156762E+03  0.83219405566E+02 0.  0.
    5000000    2    1    2    0    0  0.27812815945E+03 -0.45977539266E+03 -0.94747583631E+03  0.12435527861E+04  0.59997032141E+03 0.  0.
        -24    2    4    4    0    0 -0.87485015008E+02 -0.36659675895E+03 -0.29033804990E+03  0.48142549860E+03  0.73671676741E+02 0.  0.
         24    2    4    4    0    0  0.36561317446E+03 -0.93178633705E+02 -0.65713778640E+03  0.76212728747E+03  0.81563967929E+02 0.  0.
         11    1    3    3    0    0 -0.10345789715E+03  0.17506141420E+03  0.63131912072E+00  0.20334806069E+03  0.00000000000E+00 0. -1.
        -12    1    3    3    0    0 -0.17467026230E+03  0.28471397846E+03 -0.10677152428E+03  0.35067350693E+03  0.00000000000E+00 0.  1.
         13    1    5    5    0    0  0.49405452785E+01 -0.12692760571E+03 -0.90272912631E+02  0.15583396560E+03  0.00000000000E+00 0. -1.
        -14    1    5    5    0    0 -0.92425560287E+02 -0.23966915324E+03 -0.20006513727E+03  0.32559153300E+03  0.00000000000E+00 0.  1.
          2    1    6    6  502    0  0.17734133580E+03 -0.55684100293E+02 -0.24552692179E+03  0.30795151848E+03  0.00000000000E+00 0. -1.
         -1    1    6    6    0  502  0.18827183865E+03 -0.37494533412E+02 -0.41161086462E+03  0.45417576899E+03  0.00000000000E+00 0.  1.
<mgrwt>
<rscale>  0 0.64955733E+03</rscale>
<asrwt>0</asrwt>
<pdfrwt beam="1">  1        1 0.21932234E+00 0.64955733E+03</pdfrwt>
<pdfrwt beam="2">  1       -2 0.57227562E-01 0.64955733E+03</pdfrwt>
<totfact> 0.19304310E+01</totfact>
</mgrwt>
</event>
<event>
12    3  0.2422421E-007  0.6459536E+03  0.7818608E-02  0.9814402E-01
         -2   -1    0    0    0  501 -0.00000000000E+00  0.00000000000E+00  0.50399507118E+03  0.50399507118E+03  0.00000000000E+00 0.  1.
          1   -1    0    0  501    0  0.00000000000E+00 -0.00000000000E+00 -0.14588643691E+04  0.14588643691E+04  0.00000000000E+00 0. -1.
        -24    2    1    2    0    0 -0.58219998205E+03  0.18948419051E+03  0.75879435417E+02  0.62231051943E+03  0.81557441898E+02 0.  0.
    5000000    2    1    2    0    0  0.58219998205E+03 -0.18948419051E+03 -0.10307487333E+04  0.13405489208E+04  0.59980611896E+03 0.  0.
        -24    2    4    4    0    0  0.11087457781E+02 -0.25142786343E+02  0.56322122338E+02  0.98877382696E+02  0.76481788153E+02 0.  0.
         24    2    4    4    0    0  0.57111252427E+03 -0.16434140416E+03 -0.10870708557E+04  0.12416715381E+04  0.82749929840E+02 0.  0.
         13    1    5    5    0    0 -0.17876545827E+02 -0.42332043847E+02  0.42084320936E+02  0.62311017450E+02  0.00000000000E+00 0. -1.
        -14    1    5    5    0    0  0.28964003608E+02  0.17189257504E+02  0.14237801402E+02  0.36566365246E+02  0.00000000000E+00 0.  1.
         13    1    3    3    0    0 -0.20602814547E+03  0.27657561608E+02  0.34531576489E+02  0.21072486141E+03  0.00000000000E+00 0. -1.
        -14    1    3    3    0    0 -0.37617183657E+03  0.16182662890E+03  0.41347858928E+02  0.41158565802E+03  0.00000000000E+00 0.  1.
          2    1    6    6  502    0  0.11526982673E+03 -0.44508838227E+02 -0.29718943675E+03  0.32185358620E+03  0.00000000000E+00 0. -1.
         -1    1    6    6    0  502  0.45584269754E+03 -0.11983256593E+03 -0.78988141891E+03  0.91981795193E+03  0.00000000000E+00 0.  1.
<mgrwt>
<rscale>  0 0.64595356E+03</rscale>
<asrwt>0</asrwt>
<pdfrwt beam="1">  1        1 0.22444067E+00 0.64595356E+03</pdfrwt>
<pdfrwt beam="2">  1       -2 0.77537704E-01 0.64595356E+03</pdfrwt>
<totfact> 0.95205877E+00</totfact>
</mgrwt>
</event>
<event>
12    3  0.2422421E-007  0.8155247E+03  0.7818608E-02  0.9537814E-01
          1   -1    0    0  501    0  0.00000000000E+00  0.00000000000E+00  0.87441971119E+03  0.87441971119E+03  0.00000000000E+00 0. -1.
         -2   -1    0    0    0  501 -0.00000000000E+00 -0.00000000000E+00 -0.11509126954E+04  0.11509126954E+04  0.00000000000E+00 0.  1.
        -24    2    1    2    0    0 -0.71449303764E+03 -0.26480445559E+03 -0.63159269421E+03  0.99283200031E+03  0.78640631448E+02 0.  0.
    5000000    2    1    2    0    0  0.71449303764E+03  0.26480445559E+03  0.35509971004E+03  0.10325004062E+04  0.59944940093E+03 0.  0.
        -24    2    4    4    0    0  0.53786243003E+03  0.29119713277E+01 -0.92445973709E+01  0.54392821589E+03  0.80423679632E+02 0.  0.
         24    2    4    4    0    0  0.17663060761E+03  0.26189248426E+03  0.36434430741E+03  0.48857219035E+03  0.78549130986E+02 0.  0.
         11    1    5    5    0    0  0.14615695719E+03 -0.29305500741E+02 -0.22069551723E+02  0.15069085448E+03  0.00000000000E+00 0. -1.
        -12    1    5    5    0    0  0.39170547284E+03  0.32217472069E+02  0.12824954352E+02  0.39323736142E+03  0.00000000000E+00 0.  1.
         11    1    3    3    0    0 -0.53170355929E+03 -0.16924468860E+03 -0.43039738551E+03  0.70469450760E+03  0.00000000000E+00 0. -1.
        -12    1    3    3    0    0 -0.18278947835E+03 -0.95559766989E+02 -0.20119530870E+03  0.28813749271E+03  0.00000000000E+00 0.  1.
          2    1    6    6  502    0  0.47151472312E+01  0.57207811678E+02  0.78108345583E+02  0.96932347439E+02  0.00000000000E+00 0. -1.
         -1    1    6    6    0  502  0.17191546038E+03  0.20468467259E+03  0.28623596183E+03  0.39163984291E+03  0.00000000000E+00 0.  1.
<mgrwt>
<rscale>  0 0.81552473E+03</rscale>
<asrwt>0</asrwt>
<pdfrwt beam="1">  1        1 0.13452611E+00 0.81552473E+03</pdfrwt>
<pdfrwt beam="2">  1       -2 0.17706349E+00 0.81552473E+03</pdfrwt>
<totfact> 0.32383394E+00</totfact>
</mgrwt>
</event>
<event>
12    3  0.2422421E-007  0.9597248E+03  0.7818608E-02  0.9353855E-01
          1   -1    0    0  501    0  0.00000000000E+00  0.00000000000E+00  0.18321046477E+04  0.18321046477E+04  0.00000000000E+00 0. -1.
         -2   -1    0    0    0  501 -0.00000000000E+00 -0.00000000000E+00 -0.60774874390E+03  0.60774874390E+03  0.00000000000E+00 0.  1.
        -24    2    1    2    0    0  0.85381104431E+03 -0.37483671803E+03  0.86556720689E+03  0.12745081053E+04  0.75289150915E+02 0.  0.
    5000000    2    1    2    0    0 -0.85381104431E+03  0.37483671803E+03  0.35878869689E+03  0.11653452863E+04  0.59983701343E+03 0.  0.
        -24    2    4    4    0    0 -0.25840596200E+03  0.25644926231E+03  0.40585896685E+03  0.55121739066E+03  0.81112548102E+02 0.  0.
         24    2    4    4    0    0 -0.59540508231E+03  0.11838745573E+03 -0.47070269964E+02  0.61412789562E+03  0.80091573532E+02 0.  0.
         11    1    3    3    0    0  0.52347517625E+03 -0.26193948600E+03  0.51270493940E+03  0.77814195965E+03  0.00000000000E+00 0. -1.
        -12    1    3    3    0    0  0.33033586805E+03 -0.11289723203E+03  0.35286226749E+03  0.49636614564E+03  0.00000000000E+00 0.  1.
         11    1    5    5    0    0 -0.19414720830E+03  0.13889864404E+03  0.24923654108E+03  0.34511566933E+03  0.00000000000E+00 0. -1.
        -12    1    5    5    0    0 -0.64258753700E+02  0.11755061827E+03  0.15662242577E+03  0.20610172133E+03  0.00000000000E+00 0.  1.
          2    1    6    6  502    0 -0.48805968060E+03  0.64814530111E+02 -0.36806702787E+02  0.49371845064E+03  0.00000000000E+00 0. -1.
         -1    1    6    6    0  502 -0.10734540171E+03  0.53572925615E+02 -0.10263567178E+02  0.12040944497E+03  0.00000000000E+00 0.  1.
<mgrwt>
<rscale>  0 0.95972476E+03</rscale>
<asrwt>0</asrwt>
<pdfrwt beam="1">  1        1 0.28186225E+00 0.95972476E+03</pdfrwt>
<pdfrwt beam="2">  1       -2 0.93499808E-01 0.95972476E+03</pdfrwt>
<totfact> 0.33203906E+00</totfact>
</mgrwt>
</event>
<event>
12    3  0.2422421E-007  0.6251619E+03  0.7818608E-02  0.9854536E-01
          1   -1    0    0  501    0  0.00000000000E+00  0.00000000000E+00  0.63362343995E+03  0.63362343995E+03  0.00000000000E+00 0. -1.
         -2   -1    0    0    0  501 -0.00000000000E+00 -0.00000000000E+00 -0.72511104150E+03  0.72511104150E+03  0.00000000000E+00 0.  1.
        -24    2    1    2    0    0 -0.48025136609E+03  0.18520647633E+03 -0.20525460830E+03  0.56000670762E+03  0.80840861237E+02 0.  0.
    5000000    2    1    2    0    0  0.48025136609E+03 -0.18520647633E+03  0.11376700675E+03  0.79872777383E+03  0.60006692240E+03 0.  0.
        -24    2    4    4    0    0  0.47283485597E+03  0.55596369944E+02  0.20937903811E+03  0.52641875099E+03  0.81322582488E+02 0.  0.
         24    2    4    4    0    0  0.74165101208E+01 -0.24080284627E+03 -0.95612031360E+02  0.27230902284E+03  0.83483698923E+02 0.  0.
         11    1    5    5    0    0  0.11602470875E+03  0.49343278221E+02  0.57700562096E+02  0.13865730061E+03  0.00000000000E+00 0. -1.
        -12    1    5    5    0    0  0.35681014721E+03  0.62530917228E+01  0.15167847601E+03  0.38776145038E+03  0.00000000000E+00 0.  1.
         13    1    3    3    0    0 -0.71363752265E+02 -0.85638425355E+00 -0.36145351483E+02  0.80000031033E+02  0.00000000000E+00 0. -1.
        -14    1    3    3    0    0 -0.40888761382E+03  0.18606286058E+03 -0.16910925682E+03  0.48000667658E+03  0.00000000000E+00 0.  1.
          2    1    6    6  502    0  0.30486596876E+02 -0.15199869349E+03 -0.92456835122E+02  0.18050291347E+03  0.00000000000E+00 0. -1.
         -1    1    6    6    0  502 -0.23070086755E+02 -0.88804152783E+02 -0.31551962381E+01  0.91806109370E+02  0.00000000000E+00 0.  1.
<mgrwt>
<rscale>  0 0.62516194E+03</rscale>
<asrwt>0</asrwt>
<pdfrwt beam="1">  1        1 0.97480529E-01 0.62516194E+03</pdfrwt>
<pdfrwt beam="2">  1       -2 0.11155554E+00 0.62516194E+03</pdfrwt>
<totfact> 0.18156733E+01</totfact>
</mgrwt>
</event>
<event>
12    3  0.2422421E-007  0.1569035E+04  0.7818608E-02  0.8839800E-01
          1   -1    0    0  501    0  0.00000000000E+00  0.00000000000E+00  0.50217943185E+03  0.50217943185E+03  0.00000000000E+00 0. -1.
         -2   -1    0    0    0  501 -0.00000000000E+00 -0.00000000000E+00 -0.53111478022E+04  0.53111478022E+04  0.00000000000E+00 0.  1.
        -24    2    1    2    0    0 -0.31057811881E+03 -0.15335575471E+04 -0.19740577878E+04  0.25201912427E+04  0.78754251299E+02 0.  0.
    5000000    2    1    2    0    0  0.31057811881E+03  0.15335575471E+04 -0.28349105826E+04  0.32931359914E+04  0.59980757594E+03 0.  0.
        -24    2    4    4    0    0  0.17928636631E+03  0.80877777492E+03 -0.92409139926E+03  0.12436176864E+04  0.79843255698E+02 0.  0.
         24    2    4    4    0    0  0.13129175251E+03  0.72477977220E+03 -0.19108191834E+04  0.20495183050E+04  0.82171092184E+02 0.  0.
         11    1    3    3    0    0 -0.11654036021E+03 -0.60212943129E+03 -0.71301065240E+03  0.94049226367E+03  0.00000000000E+00 0. -1.
        -12    1    3    3    0    0 -0.19403775860E+03 -0.93142811584E+03 -0.12610471354E+04  0.15796989790E+04  0.00000000000E+00 0.  1.
         13    1    5    5    0    0  0.15725152806E+03  0.78138445411E+03 -0.88244902832E+03  0.11891198408E+04  0.00000000000E+00 0. -1.
        -14    1    5    5    0    0  0.22034838242E+02  0.27393320813E+02 -0.41642370933E+02  0.54497845631E+02  0.00000000000E+00 0.  1.
          2    1    6    6  502    0  0.13912317329E+02  0.30323247580E+03 -0.78754442234E+03  0.84401996666E+03  0.00000000000E+00 0. -1.
         -1    1    6    6    0  502  0.11737943518E+03  0.42154729640E+03 -0.11232747610E+04  0.12054983383E+04  0.00000000000E+00 0.  1.
<mgrwt>
<rscale>  0 0.15690353E+04</rscale>
<asrwt>0</asrwt>
<pdfrwt beam="1">  1        1 0.77258373E-01 0.15690353E+04</pdfrwt>
<pdfrwt beam="2">  1       -2 0.81709968E+00 0.15690353E+04</pdfrwt>
<totfact> 0.22832370E-03</totfact>
</mgrwt>
</event>
<event>
12    3  0.2422421E-007  0.1010648E+04  0.7818608E-02  0.9296943E-01
         -2   -1    0    0    0  501 -0.00000000000E+00  0.00000000000E+00  0.13701632681E+04  0.13701632681E+04  0.00000000000E+00 0.  1.
          1   -1    0    0  501    0  0.00000000000E+00 -0.00000000000E+00 -0.17259601089E+04  0.17259601089E+04  0.00000000000E+00 0. -1.
        -24    2    1    2    0    0 -0.15786174586E+03 -0.91621710069E+03 -0.13280690998E+04  0.16231502331E+04  0.80467626681E+02 0.  0.
    5000000    2    1    2    0    0  0.15786174586E+03  0.91621710069E+03  0.97227225894E+03  0.14729731439E+04  0.59996869142E+03 0.  0.
        -24    2    4    4    0    0  0.26745552686E+03  0.13881177180E+03  0.20824628510E+03  0.37461280187E+03  0.78530689741E+02 0.  0.
         24    2    4    4    0    0 -0.10959378100E+03  0.77740532889E+03  0.76402597385E+03  0.10983603420E+04  0.79308952617E+02 0.  0.
         13    1    3    3    0    0 -0.10596293895E+03 -0.59831469071E+03 -0.80000403822E+03  0.10045969713E+04  0.00000000000E+00 0. -1.
        -14    1    3    3    0    0 -0.51898806914E+02 -0.31790240998E+03 -0.52806506158E+03  0.61855326181E+03  0.00000000000E+00 0.  1.
         13    1    5    5    0    0  0.70121796243E+02  0.23219300024E+02  0.92255704667E+02  0.11818340512E+03  0.00000000000E+00 0. -1.
        -14    1    5    5    0    0  0.19733373062E+03  0.11559247177E+03  0.11599058043E+03  0.25642939675E+03  0.00000000000E+00 0.  1.
          2    1    6    6  502    0 -0.90585167237E+02  0.75109988056E+03  0.72920899574E+03  0.10507628003E+04  0.00000000000E+00 0. -1.
         -1    1    6    6    0  502 -0.19008613761E+02  0.26305448335E+02  0.34816978106E+02  0.47597541676E+02  0.00000000000E+00 0.  1.
<mgrwt>
<rscale>  0 0.10106482E+04</rscale>
<asrwt>0</asrwt>
<pdfrwt beam="1">  1        1 0.26553232E+00 0.10106482E+04</pdfrwt>
<pdfrwt beam="2">  1       -2 0.21079435E+00 0.10106482E+04</pdfrwt>
<totfact> 0.45441446E-01</totfact>
</mgrwt>
</event>
<event>
12    3  0.2422421E-007  0.1304902E+04  0.7818608E-02  0.9025687E-01
          1   -1    0    0  501    0  0.00000000000E+00  0.00000000000E+00  0.29114750205E+04  0.29114750205E+04  0.00000000000E+00 0. -1.
         -2   -1    0    0    0  501 -0.00000000000E+00 -0.00000000000E+00 -0.76908343515E+03  0.76908343515E+03  0.00000000000E+00 0.  1.
        -24    2    1    2    0    0 -0.69973508780E+03 -0.10992547279E+04  0.17686029823E+04  0.21981225255E+04  0.76131321078E+02 0.  0.
    5000000    2    1    2    0    0  0.69973508780E+03  0.10992547279E+04  0.37378860302E+03  0.14824359301E+04  0.59992350943E+03 0.  0.
        -24    2    4    4    0    0  0.34701205454E+03  0.56900610406E+03  0.48904495652E+03  0.83046855808E+03  0.79547118132E+02 0.  0.
         24    2    4    4    0    0  0.35272303326E+03  0.53024862388E+03 -0.11525635350E+03  0.65196737205E+03  0.78741894002E+02 0.  0.
         11    1    5    5    0    0  0.18895648081E+03  0.28633088752E+03  0.29827362121E+03  0.45459551460E+03  0.00000000000E+00 0. -1.
        -12    1    5    5    0    0  0.15805557373E+03  0.28267521654E+03  0.19077133530E+03  0.37587304347E+03  0.00000000000E+00 0.  1.
         13    1    3    3    0    0 -0.36965735570E+03 -0.51830483066E+03  0.83257877007E+03  0.10480810400E+04  0.00000000000E+00 0. -1.
        -14    1    3    3    0    0 -0.33007773211E+03 -0.58094989728E+03  0.93602421224E+03  0.11500414855E+04  0.00000000000E+00 0.  1.
          4    1    6    6  502    0  0.99037571857E+02  0.18250404757E+03 -0.53514083555E+01  0.20771327736E+03  0.00000000000E+00 0. -1.
         -3    1    6    6    0  502  0.25368546141E+03  0.34774457630E+03 -0.10990494514E+03  0.44425409469E+03  0.00000000000E+00 0.  1.
<mgrwt>
<rscale>  0 0.13049022E+04</rscale>
<asrwt>0</asrwt>
<pdfrwt beam="1">  1        1 0.44791923E+00 0.13049022E+04</pdfrwt>
<pdfrwt beam="2">  1       -2 0.11832053E+00 0.13049022E+04</pdfrwt>
<totfact> 0.32623905E-01</totfact>
</mgrwt>
</event>
<event>
12    3  0.2422421E-007  0.6298415E+03  0.7818608E-02  0.9845358E-01
         -4   -1    0    0    0  501 -0.00000000000E+00  0.00000000000E+00  0.18571883314E+04  0.18571883314E+04  0.00000000000E+00 0.  1.
          1   -1    0    0  501    0  0.00000000000E+00 -0.00000000000E+00 -0.21588715618E+03  0.21588715618E+03  0.00000000000E+00 0. -1.
        -24    2    1    2    0    0  0.22673377288E+03 -0.43061335971E+03  0.59308971443E+03  0.77100615055E+03  0.76544140863E+02 0.  0.
    5000000    2    1    2    0    0 -0.22673377288E+03  0.43061335971E+03  0.10482114608E+04  0.13020693370E+04  0.59983432926E+03 0.  0.
        -24    2    4    4    0    0 -0.39530988118E+03  0.42338556949E+03  0.81101708866E+03  0.99997852387E+03  0.81750152918E+02 0.  0.
         24    2    4    4    0    0  0.16857610830E+03  0.72277902252E+01  0.23719437213E+03  0.30209081315E+03  0.80793217407E+02 0.  0.
         13    1    5    5    0    0 -0.17262364191E+03  0.14976496939E+03  0.37452485402E+03  0.43874518126E+03  0.00000000000E+00 0. -1.
        -14    1    5    5    0    0 -0.22268623927E+03  0.27362060010E+03  0.43649223464E+03  0.56123334261E+03  0.00000000000E+00 0.  1.
         13    1    3    3    0    0  0.13472334397E+03 -0.18194800285E+03  0.29896567901E+03  0.37501457622E+03  0.00000000000E+00 0. -1.
        -14    1    3    3    0    0  0.92010428912E+02 -0.24866535686E+03  0.29412403542E+03  0.39599157433E+03  0.00000000000E+00 0.  1.
          2    1    6    6  502    0 -0.15258144669E+01 -0.15176064938E+02  0.15317982917E+02  0.21616698578E+02  0.00000000000E+00 0. -1.
         -1    1    6    6    0  502  0.17010192277E+03  0.22403855163E+02  0.22187638922E+03  0.28047411457E+03  0.00000000000E+00 0.  1.
<mgrwt>
<rscale>  0 0.62984154E+03</rscale>
<asrwt>0</asrwt>
<pdfrwt beam="1">  1        1 0.33213410E-01 0.62984154E+03</pdfrwt>
<pdfrwt beam="2">  1       -4 0.28572127E+00 0.62984154E+03</pdfrwt>
<totfact> 0.25151352E+00</totfact>
</mgrwt>
</event>
<event>
12    3  0.2422421E-007  0.7452288E+03  0.7818608E-02  0.9642865E-01
          1   -1    0    0  501    0  0.00000000000E+00  0.00000000000E+00  0.60008098471E+03  0.60008098471E+03  0.00000000000E+00 0. -1.
         -2   -1    0    0    0  501 -0.00000000000E+00 -0.00000000000E+00 -0.12392268124E+04  0.12392268124E+04  0.00000000000E+00 0.  1.
        -24    2    1    2    0    0 -0.67610914393E+03 -0.98681735257E+02 -0.62555800230E+03  0.92991200743E+03  0.80943609662E+02 0.  0.
    5000000    2    1    2    0    0  0.67610914393E+03  0.98681735257E+02 -0.13587825340E+02  0.90939578964E+03  0.59996201033E+03 0.  0.
        -24    2    4    4    0    0  0.18337666263E+03 -0.15770200837E+03 -0.20006489493E+03  0.31811672540E+03  0.51723930205E+02 0.  0.
         24    2    4    4    0    0  0.49273248130E+03  0.25638374363E+03  0.18647706959E+03  0.59127906424E+03  0.79494101694E+02 0.  0.
         11    1    3    3    0    0 -0.44201153743E+03 -0.28286222315E+02 -0.38309205860E+03  0.58560552845E+03  0.00000000000E+00 0. -1.
        -12    1    3    3    0    0 -0.23409760650E+03 -0.70395512942E+02 -0.24246594371E+03  0.34430647898E+03  0.00000000000E+00 0.  1.
         13    1    5    5    0    0  0.80749617926E+02 -0.37041568191E+02 -0.75978474363E+02  0.11689870459E+03  0.00000000000E+00 0. -1.
        -14    1    5    5    0    0  0.10262704471E+03 -0.12066044018E+03 -0.12408642056E+03  0.20121802081E+03  0.00000000000E+00 0.  1.
          2    1    6    6  502    0  0.21592840728E+03  0.10055292783E+03  0.40191017026E+02  0.24156010891E+03  0.00000000000E+00 0. -1.
         -1    1    6    6    0  502  0.27680407401E+03  0.15583081580E+03  0.14628605256E+03  0.34971895533E+03  0.00000000000E+00 0.  1.
<mgrwt>
<rscale>  0 0.74522879E+03</rscale>
<asrwt>0</asrwt>
<pdfrwt beam="1">  1        1 0.92320153E-01 0.74522879E+03</pdfrwt>
<pdfrwt beam="2">  1       -2 0.19065028E+00 0.74522879E+03</pdfrwt>
<totfact> 0.47180216E+00</totfact>
</mgrwt>
</event>
<event>
12    3  0.2422421E-007  0.7287538E+03  0.7818608E-02  0.9669285E-01
         -2   -1    0    0    0  501 -0.00000000000E+00  0.00000000000E+00  0.86596574478E+03  0.86596574478E+03  0.00000000000E+00 0.  1.
          1   -1    0    0  501    0  0.00000000000E+00 -0.00000000000E+00 -0.86360095971E+03  0.86360095971E+03  0.00000000000E+00 0. -1.
        -24    2    1    2    0    0  0.67364055473E+02 -0.69764428475E+03  0.29067318237E+03  0.76287648874E+03  0.79020086768E+02 0.  0.
    5000000    2    1    2    0    0 -0.67364055473E+02  0.69764428475E+03 -0.28830839730E+03  0.96669021574E+03  0.60010230565E+03 0.  0.
        -24    2    4    4    0    0  0.92024022353E+02  0.13129739377E+03 -0.32455264728E+03  0.37185475854E+03  0.85053596583E+02 0.  0.
         24    2    4    4    0    0 -0.15938807783E+03  0.56634689098E+03  0.36244249980E+02  0.59483545720E+03  0.79763495487E+02 0.  0.
         11    1    3    3    0    0  0.43876166489E+02 -0.34344475250E+03  0.10240160652E+03  0.36106163605E+03  0.00000000000E+00 0. -1.
        -12    1    3    3    0    0  0.23487888983E+02 -0.35419953225E+03  0.18827157585E+03  0.40181485269E+03  0.00000000000E+00 0.  1.
         11    1    5    5    0    0  0.50316584799E+02  0.34429034646E+02 -0.53893054752E+02  0.81373082054E+02  0.00000000000E+00 0. -1.
        -12    1    5    5    0    0  0.41707437555E+02  0.96868359126E+02 -0.27065959253E+03  0.29048167649E+03  0.00000000000E+00 0.  1.
          2    1    6    6  502    0 -0.56817595074E+02  0.13467479574E+03  0.38438723952E+02  0.15113925770E+03  0.00000000000E+00 0. -1.
         -1    1    6    6    0  502 -0.10257048275E+03  0.43167209523E+03 -0.21944739720E+01  0.44369619950E+03  0.00000000000E+00 0.  1.
<mgrwt>
<rscale>  0 0.72875380E+03</rscale>
<asrwt>0</asrwt>
<pdfrwt beam="1">  1        1 0.13286169E+00 0.72875380E+03</pdfrwt>
<pdfrwt beam="2">  1       -2 0.13322550E+00 0.72875380E+03</pdfrwt>
<totfact> 0.71552351E+00</totfact>
</mgrwt>
</event>
<event>
12    3  0.2422421E-007  0.2730754E+03  0.7818608E-02  0.1099532E+00
         -2   -1    0    0    0  501 -0.00000000000E+00  0.00000000000E+00  0.10259339932E+03  0.10259339932E+03  0.00000000000E+00 0.  1.
          1   -1    0    0  501    0  0.00000000000E+00 -0.00000000000E+00 -0.21054625071E+04  0.21054625071E+04  0.00000000000E+00 0. -1.
        -24    2    1    2    0    0 -0.54746738284E+02 -0.24240381773E+03 -0.74854078990E+03  0.79547396132E+03  0.10348281404E+03 0.  0.
    5000000    2    1    2    0    0  0.54746738284E+02  0.24240381773E+03 -0.12543283179E+04  0.14125819451E+04  0.60024278949E+03 0.  0.
        -24    2    4    4    0    0 -0.10113376248E+02  0.16000068984E+03 -0.12682540320E+04  0.12805473643E+04  0.75038398744E+02 0.  0.
         24    2    4    4    0    0  0.64860114532E+02  0.82403127897E+02  0.13925714136E+02  0.13203458082E+03  0.79006930535E+02 0.  0.
         13    1    5    5    0    0  0.12710234644E+02  0.12815393723E+03 -0.76442034741E+03  0.77519252397E+03  0.00000000000E+00 0. -1.
        -14    1    5    5    0    0 -0.22823610892E+02  0.31846752607E+02 -0.50383368461E+03  0.50535484030E+03  0.00000000000E+00 0.  1.
         13    1    3    3    0    0 -0.99359924474E+01 -0.61113915918E+02 -0.78970736623E+02  0.10034944896E+03  0.00000000000E+00 0. -1.
        -14    1    3    3    0    0 -0.44810745837E+02 -0.18128990181E+03 -0.66957005327E+03  0.69512451236E+03  0.00000000000E+00 0.  1.
          2    1    6    6  502    0  0.53754539354E+02  0.80581494705E+01  0.16550060569E+02  0.56818912159E+02  0.00000000000E+00 0. -1.
         -1    1    6    6    0  502  0.11105575178E+02  0.74344978426E+02 -0.26243464330E+01  0.75215668656E+02  0.00000000000E+00 0.  1.
<mgrwt>
<rscale>  0 0.27307538E+03</rscale>
<asrwt>0</asrwt>
<pdfrwt beam="1">  1        1 0.32391731E+00 0.27307538E+03</pdfrwt>
<pdfrwt beam="2">  1       -2 0.15783600E-01 0.27307538E+03</pdfrwt>
<totfact> 0.79954641E+01</totfact>
</mgrwt>
</event>
<event>
12    3  0.2422421E-007  0.6507866E+03  0.7818608E-02  0.9805304E-01
          1   -1    0    0  501    0  0.00000000000E+00  0.00000000000E+00  0.16779653284E+04  0.16779653284E+04  0.00000000000E+00 0. -1.
         -2   -1    0    0    0  501 -0.00000000000E+00 -0.00000000000E+00 -0.26141648736E+03  0.26141648736E+03  0.00000000000E+00 0.  1.
        -24    2    1    2    0    0  0.85899740212E+02  0.51459162748E+03  0.61752964043E+03  0.81217619168E+03  0.78128106951E+02 0.  0.
    5000000    2    1    2    0    0 -0.85899740212E+02 -0.51459162748E+03  0.79901920064E+03  0.11272056241E+04  0.59998127270E+03 0.  0.
        -24    2    4    4    0    0  0.24526549846E+03 -0.16184168457E+03  0.32376156734E+03  0.44438102818E+03  0.79404345735E+02 0.  0.
         24    2    4    4    0    0 -0.33116523867E+03 -0.35274994291E+03  0.47525763330E+03  0.68282459593E+03  0.79225458445E+02 0.  0.
         11    1    3    3    0    0  0.48473448401E+02  0.40770314160E+03  0.44188940719E+03  0.60318966756E+03  0.00000000000E+00 0. -1.
        -12    1    3    3    0    0  0.37426291811E+02  0.10688848587E+03  0.17564023324E+03  0.20898652412E+03  0.00000000000E+00 0.  1.
         13    1    5    5    0    0  0.23258924997E+03 -0.15399846652E+03  0.32627377847E+03  0.42926433047E+03  0.00000000000E+00 0. -1.
        -14    1    5    5    0    0  0.12676248487E+02 -0.78432180435E+01 -0.25122111294E+01  0.15116697713E+02  0.00000000000E+00 0.  1.
          4    1    6    6  502    0 -0.15036091296E+03 -0.15518582674E+03  0.26754015457E+03  0.34390228158E+03  0.00000000000E+00 0. -1.
         -3    1    6    6    0  502 -0.18080432571E+03 -0.19756411617E+03  0.20771747873E+03  0.33892231435E+03  0.00000000000E+00 0.  1.
<mgrwt>
<rscale>  0 0.65078658E+03</rscale>
<asrwt>0</asrwt>
<pdfrwt beam="1">  1        1 0.25814851E+00 0.65078658E+03</pdfrwt>
<pdfrwt beam="2">  1       -2 0.40217922E-01 0.65078658E+03</pdfrwt>
<totfact> 0.26487768E+01</totfact>
</mgrwt>
</event>
<event>
12    3  0.2422421E-007  0.2021755E+04  0.7818608E-02  0.8596516E-01
          1   -1    0    0  501    0  0.00000000000E+00  0.00000000000E+00  0.29941788281E+04  0.29941788281E+04  0.00000000000E+00 0. -1.
         -2   -1    0    0    0  501 -0.00000000000E+00 -0.00000000000E+00 -0.14397485877E+04  0.14397485877E+04  0.00000000000E+00 0.  1.
        -24    2    1    2    0    0 -0.41555642574E+03 -0.19700576473E+04  0.10554826358E+04  0.22747075677E+04  0.80228720060E+02 0.  0.
    5000000    2    1    2    0    0  0.41555642574E+03  0.19700576473E+04  0.49894760454E+03  0.21592198481E+04  0.59955597195E+03 0.  0.
        -24    2    4    4    0    0  0.20391693145E+02  0.33700132861E+02 -0.55513339092E+02  0.10512073912E+03  0.80106921498E+02 0.  0.
         24    2    4    4    0    0  0.39516473259E+03  0.19363575145E+04  0.55446094364E+03  0.20540991089E+04  0.79124090540E+02 0.  0.
         13    1    3    3    0    0 -0.23028957033E+03 -0.11582908108E+04  0.57708380888E+03  0.13144187350E+04  0.00000000000E+00 0. -1.
        -14    1    3    3    0    0 -0.18526685541E+03 -0.81176683654E+03  0.47839882694E+03  0.96028883272E+03  0.00000000000E+00 0.  1.
         13    1    5    5    0    0  0.68267388841E+01  0.37755528798E+02 -0.73091582469E+02  0.82549765271E+02  0.00000000000E+00 0. -1.
        -14    1    5    5    0    0  0.13564954261E+02 -0.40553959367E+01  0.17578243376E+02  0.22570973849E+02  0.00000000000E+00 0.  1.
          2    1    6    6  502    0  0.45163746335E+02  0.34812789654E+03  0.11560448133E+03  0.36959057406E+03  0.00000000000E+00 0. -1.
         -1    1    6    6    0  502  0.35000098626E+03  0.15882296179E+04  0.43885646231E+03  0.16845085349E+04  0.00000000000E+00 0.  1.
<mgrwt>
<rscale>  0 0.20217553E+04</rscale>
<asrwt>0</asrwt>
<pdfrwt beam="1">  1        1 0.46064290E+00 0.20217553E+04</pdfrwt>
<pdfrwt beam="2">  1       -2 0.22149978E+00 0.20217553E+04</pdfrwt>
<totfact> 0.45508929E-02</totfact>
</mgrwt>
</event>
<event>
12    3  0.2422421E-007  0.9226411E+03  0.7818608E-02  0.9397713E-01
          1   -1    0    0  501    0  0.00000000000E+00  0.00000000000E+00  0.45370761190E+04  0.45370761190E+04  0.00000000000E+00 0. -1.
         -2   -1    0    0    0  501 -0.00000000000E+00 -0.00000000000E+00 -0.27099888298E+03  0.27099888298E+03  0.00000000000E+00 0.  1.
        -24    2    1    2    0    0  0.60139108725E+03  0.57224179142E+03  0.32869616741E+04  0.33911290647E+04  0.80668326961E+02 0.  0.
    5000000    2    1    2    0    0 -0.60139108725E+03 -0.57224179142E+03  0.97911556195E+03  0.14169459373E+04  0.59994716257E+03 0.  0.
        -24    2    4    4    0    0 -0.13197006441E+03 -0.51371244515E+03  0.60614834261E+03  0.80943810913E+03  0.80359598474E+02 0.  0.
         24    2    4    4    0    0 -0.46942102284E+03 -0.58529346274E+02  0.37296721933E+03  0.60750782815E+03  0.78609372907E+02 0.  0.
         11    1    5    5    0    0 -0.53843859018E+02 -0.35634730307E+03  0.42131482033E+03  0.55442649593E+03  0.00000000000E+00 0. -1.
        -12    1    5    5    0    0 -0.78126205388E+02 -0.15736514208E+03  0.18483352228E+03  0.25501161320E+03  0.00000000000E+00 0.  1.
         11    1    3    3    0    0  0.28889636163E+03  0.27891290226E+03  0.14269835240E+04  0.14824086794E+04  0.00000000000E+00 0. -1.
        -12    1    3    3    0    0  0.31249472562E+03  0.29332888916E+03  0.18599781501E+04  0.19087203854E+04  0.00000000000E+00 0.  1.
          4    1    6    6  502    0 -0.18258067077E+03  0.14166869900E+02  0.12913651776E+03  0.22408177472E+03  0.00000000000E+00 0. -1.
         -3    1    6    6    0  502 -0.28684035207E+03 -0.72696216174E+02  0.24383070158E+03  0.38342605343E+03  0.00000000000E+00 0.  1.
<mgrwt>
<rscale>  0 0.92264115E+03</rscale>
<asrwt>0</asrwt>
<pdfrwt beam="1">  1        1 0.69801165E+00 0.92264115E+03</pdfrwt>
<pdfrwt beam="2">  1       -2 0.41692139E-01 0.92264115E+03</pdfrwt>
<totfact> 0.15387053E-01</totfact>
</mgrwt>
</event>
<event>
12    3  0.2422421E-007  0.6498992E+03  0.7818608E-02  0.9806968E-01
         -4   -1    0    0    0  501 -0.00000000000E+00  0.00000000000E+00  0.23024161943E+03  0.23024161943E+03  0.00000000000E+00 0.  1.
          3   -1    0    0  501    0  0.00000000000E+00 -0.00000000000E+00 -0.21912691984E+04  0.21912691984E+04  0.00000000000E+00 0. -1.
        -24    2    1    2    0    0 -0.17688480033E+03  0.50683030437E+03 -0.43186778465E+03  0.69337217107E+03  0.78038414817E+02 0.  0.
    5000000    2    1    2    0    0  0.17688480033E+03 -0.50683030437E+03 -0.15291597944E+04  0.17281386468E+04  0.59997359598E+03 0.  0.
        -24    2    4    4    0    0  0.19112027229E+03  0.40985659710E+02 -0.69890245073E+03  0.73011938062E+03  0.80018070051E+02 0.  0.
         24    2    4    4    0    0 -0.14235471968E+02 -0.54781596408E+03 -0.83025734363E+03  0.99801926619E+03  0.80063848681E+02 0.  0.
         13    1    5    5    0    0  0.10230669596E+03 -0.15349306742E+02 -0.28970203017E+03  0.30761912740E+03  0.00000000000E+00 0. -1.
        -14    1    5    5    0    0  0.88813576337E+02  0.56334966452E+02 -0.40920042056E+03  0.42250025322E+03  0.00000000000E+00 0.  1.
         13    1    3    3    0    0  0.16262266645E+01  0.64908291746E+02 -0.39259181890E+02  0.75874991356E+02  0.00000000000E+00 0. -1.
        -14    1    3    3    0    0 -0.17851102699E+03  0.44192201262E+03 -0.39260860276E+03  0.61749717972E+03  0.00000000000E+00 0.  1.
          4    1    6    6  502    0  0.13815440524E+02 -0.28197692389E+03 -0.36505282725E+03  0.46148176419E+03  0.00000000000E+00 0. -1.
         -3    1    6    6    0  502 -0.28050912492E+02 -0.26583904019E+03 -0.46520451639E+03  0.53653750200E+03  0.00000000000E+00 0.  1.
<mgrwt>
<rscale>  0 0.64989919E+03</rscale>
<asrwt>0</asrwt>
<pdfrwt beam="1">  1        3 0.33711832E+00 0.64989919E+03</pdfrwt>
<pdfrwt beam="2">  1       -4 0.35421790E-01 0.64989919E+03</pdfrwt>
<totfact> 0.44263328E-01</totfact>
</mgrwt>
</event>
<event>
12    3  0.2422421E-007  0.7036970E+03  0.7818608E-02  0.9710931E-01
          1   -1    0    0  501    0  0.00000000000E+00  0.00000000000E+00  0.13972629060E+04  0.13972629060E+04  0.00000000000E+00 0. -1.
         -2   -1    0    0    0  501 -0.00000000000E+00 -0.00000000000E+00 -0.53898257890E+03  0.53898257890E+03  0.00000000000E+00 0.  1.
        -24    2    1    2    0    0 -0.58949081619E+03  0.15365054111E+03 -0.13157195846E+03  0.62824740982E+03  0.79219420205E+02 0.  0.
    5000000    2    1    2    0    0  0.58949081619E+03 -0.15365054111E+03  0.98985228557E+03  0.13079980751E+04  0.59995291987E+03 0.  0.
        -24    2    4    4    0    0  0.36727622956E+03  0.15922353388E+03  0.27275025873E+03  0.49078157410E+03  0.78929635107E+02 0.  0.
         24    2    4    4    0    0  0.22221458663E+03 -0.31287407499E+03  0.71710202684E+03  0.81721650100E+03  0.79611452080E+02 0.  0.
         13    1    3    3    0    0 -0.20261235801E+03  0.38744059590E+02 -0.80552508430E+02  0.22145332778E+03  0.00000000000E+00 0. -1.
        -14    1    3    3    0    0 -0.38687845818E+03  0.11490648152E+03 -0.51019450029E+02  0.40679408204E+03  0.00000000000E+00 0.  1.
         13    1    5    5    0    0  0.13337206730E+03  0.97976996542E+02  0.96502146797E+02  0.19157313101E+03  0.00000000000E+00 0. -1.
        -14    1    5    5    0    0  0.23390416226E+03  0.61246537334E+02  0.17624811194E+03  0.29920844309E+03  0.00000000000E+00 0.  1.
          2    1    6    6  502    0  0.79083237984E+02 -0.58499899895E+02  0.21515683759E+03  0.23657739025E+03  0.00000000000E+00 0. -1.
         -1    1    6    6    0  502  0.14313134865E+03 -0.25437417509E+03  0.50194518925E+03  0.58063911075E+03  0.00000000000E+00 0.  1.
<mgrwt>
<rscale>  0 0.70369700E+03</rscale>
<asrwt>0</asrwt>
<pdfrwt beam="1">  1        1 0.21496352E+00 0.70369700E+03</pdfrwt>
<pdfrwt beam="2">  1       -2 0.82920397E-01 0.70369700E+03</pdfrwt>
<totfact> 0.89511789E+00</totfact>
</mgrwt>
</event>
<event>
12    3  0.2422421E-007  0.1173830E+04  0.7818608E-02  0.9136077E-01
          1   -1    0    0  501    0  0.00000000000E+00  0.00000000000E+00  0.30831777261E+04  0.30831777261E+04  0.00000000000E+00 0. -1.
         -2   -1    0    0    0  501 -0.00000000000E+00 -0.00000000000E+00 -0.49564421798E+03  0.49564421798E+03  0.00000000000E+00 0.  1.
        -24    2    1    2    0    0  0.96551432456E+03 -0.64060836343E+03  0.13465049743E+04  0.17781375380E+04  0.78105518719E+02 0.  0.
    5000000    2    1    2    0    0 -0.96551432456E+03  0.64060836343E+03  0.12410285338E+04  0.18006844060E+04  0.59976288834E+03 0.  0.
        -24    2    4    4    0    0 -0.88494608531E+03  0.48396979982E+03  0.71001834869E+03  0.12357270564E+04  0.74424199770E+02 0.  0.
         24    2    4    4    0    0 -0.80568239249E+02  0.15663856362E+03  0.53101018511E+03  0.56495734960E+03  0.78600950300E+02 0.  0.
         11    1    3    3    0    0  0.26156132059E+03 -0.15302930766E+03  0.39863289858E+03  0.50073993376E+03  0.00000000000E+00 0. -1.
        -12    1    3    3    0    0  0.70395300397E+03 -0.48757905578E+03  0.94787207570E+03  0.12773976042E+04  0.00000000000E+00 0.  1.
         13    1    5    5    0    0 -0.45232908288E+03  0.27633354363E+03  0.40574492742E+03  0.66752585919E+03  0.00000000000E+00 0. -1.
        -14    1    5    5    0    0 -0.43261700243E+03  0.20763625619E+03  0.30427342127E+03  0.56820119726E+03  0.00000000000E+00 0.  1.
          2    1    6    6  502    0 -0.20894927697E+02  0.70924550033E+02  0.12055205536E+03  0.14142025263E+03  0.00000000000E+00 0. -1.
         -1    1    6    6    0  502 -0.59673311553E+02  0.85714013583E+02  0.41045812975E+03  0.42353709697E+03  0.00000000000E+00 0.  1.
<mgrwt>
<rscale>  0 0.11738300E+04</rscale>
<asrwt>0</asrwt>
<pdfrwt beam="1">  1        1 0.47433502E+00 0.11738300E+04</pdfrwt>
<pdfrwt beam="2">  1       -2 0.76252958E-01 0.11738300E+04</pdfrwt>
<totfact> 0.70201043E-01</totfact>
</mgrwt>
</event>
<event>
12    3  0.2422421E-007  0.8622886E+03  0.7818608E-02  0.9473990E-01
         -2   -1    0    0    0  501 -0.00000000000E+00  0.00000000000E+00  0.33631235301E+03  0.33631235301E+03  0.00000000000E+00 0.  1.
          1   -1    0    0  501    0  0.00000000000E+00 -0.00000000000E+00 -0.26149630939E+04  0.26149630939E+04  0.00000000000E+00 0. -1.
        -24    2    1    2    0    0  0.76137857001E+03 -0.21027839177E+03 -0.57657894170E+03  0.98123114382E+03  0.80355165887E+02 0.  0.
    5000000    2    1    2    0    0 -0.76137857001E+03  0.21027839177E+03 -0.17020717992E+04  0.19700443031E+04  0.60009317411E+03 0.  0.
        -24    2    4    4    0    0 -0.53050634774E+03  0.36723918616E+03 -0.85233408395E+03  0.10720568204E+04  0.80813555252E+02 0.  0.
         24    2    4    4    0    0 -0.23087222227E+03 -0.15696079440E+03 -0.84973771529E+03  0.89798748270E+03  0.79929095554E+02 0.  0.
         11    1    3    3    0    0  0.66006634792E+02 -0.36525130152E+01 -0.28252746520E+02  0.71891824110E+02  0.00000000000E+00 0. -1.
        -12    1    3    3    0    0  0.69537193522E+03 -0.20662587875E+03 -0.54832619518E+03  0.90933931971E+03  0.00000000000E+00 0.  1.
         13    1    5    5    0    0 -0.32696859612E+03  0.26350031229E+03 -0.59018270211E+03  0.72433176052E+03  0.00000000000E+00 0. -1.
        -14    1    5    5    0    0 -0.20353775162E+03  0.10373887387E+03 -0.26215138184E+03  0.34772505991E+03  0.00000000000E+00 0.  1.
          2    1    6    6  502    0 -0.17954294728E+03 -0.91593180657E+02 -0.67573600548E+03  0.70515539406E+03  0.00000000000E+00 0. -1.
         -1    1    6    6    0  502 -0.51329274985E+02 -0.65367613739E+02 -0.17400170981E+03  0.19283208865E+03  0.00000000000E+00 0.  1.
<mgrwt>
<rscale>  0 0.86228858E+03</rscale>
<asrwt>0</asrwt>
<pdfrwt beam="1">  1        1 0.40230202E+00 0.86228858E+03</pdfrwt>
<pdfrwt beam="2">  1       -2 0.51740361E-01 0.86228858E+03</pdfrwt>
<totfact> 0.36237049E+00</totfact>
</mgrwt>
</event>
<event>
12    3  0.2422421E-007  0.7682878E+03  0.7818608E-02  0.9607089E-01
         -2   -1    0    0    0  501 -0.00000000000E+00  0.00000000000E+00  0.57067418758E+03  0.57067418758E+03  0.00000000000E+00 0.  1.
          1   -1    0    0  501    0  0.00000000000E+00 -0.00000000000E+00 -0.13585139625E+04  0.13585139625E+04  0.00000000000E+00 0. -1.
        -24    2    1    2    0    0  0.44248158946E+03  0.48043338374E+03 -0.80811643341E+03  0.10421001494E+04  0.79462936370E+02 0.  0.
    5000000    2    1    2    0    0 -0.44248158946E+03 -0.48043338374E+03  0.20276658509E+02  0.88708800065E+03  0.59992314907E+03 0.  0.
        -24    2    4    4    0    0 -0.24019847801E+03  0.93790192686E+02  0.35782207121E+02  0.27286080230E+03  0.81735806125E+02 0.  0.
         24    2    4    4    0    0 -0.20228311145E+03 -0.57422357642E+03 -0.15505548611E+02  0.61422719834E+03  0.79896534645E+02 0.  0.
         11    1    5    5    0    0 -0.19981615809E+03  0.40938031031E+02  0.28544936767E+02  0.20595444359E+03  0.00000000000E+00 0. -1.
        -12    1    5    5    0    0 -0.40382319917E+02  0.52852161655E+02  0.72372703537E+01  0.66906358709E+02  0.00000000000E+00 0.  1.
         13    1    3    3    0    0  0.40398059535E+03  0.46212175855E+03 -0.73638328956E+03  0.95865384279E+03  0.00000000000E+00 0. -1.
        -14    1    3    3    0    0  0.38500994112E+02  0.18311625186E+02 -0.71733143849E+02  0.83446306635E+02  0.00000000000E+00 0.  1.
          2    1    6    6  502    0 -0.85752020219E+02 -0.19729044235E+03 -0.40504314410E+02  0.21890072430E+03  0.00000000000E+00 0. -1.
         -1    1    6    6    0  502 -0.11653109123E+03 -0.37693313408E+03  0.24998765799E+02  0.39532647404E+03  0.00000000000E+00 0.  1.
<mgrwt>
<rscale>  0 0.76828776E+03</rscale>
<asrwt>0</asrwt>
<pdfrwt beam="1">  1        1 0.20900215E+00 0.76828776E+03</pdfrwt>
<pdfrwt beam="2">  1       -2 0.87796029E-01 0.76828776E+03</pdfrwt>
<totfact> 0.82891191E+00</totfact>
</mgrwt>
</event>
<event>
12    3  0.2422421E-007  0.2320716E+04  0.7818608E-02  0.8469798E-01
         -2   -1    0    0    0  501 -0.00000000000E+00  0.00000000000E+00  0.26851148287E+04  0.26851148287E+04  0.00000000000E+00 0.  1.
          1   -1    0    0  501    0  0.00000000000E+00 -0.00000000000E+00 -0.22959150918E+04  0.22959150918E+04  0.00000000000E+00 0. -1.
        -24    2    1    2    0    0  0.59158784873E+02 -0.22868146384E+04 -0.67673174513E+03  0.23869551186E+04  0.81042772827E+02 0.  0.
    5000000    2    1    2    0    0 -0.59158784873E+02  0.22868146384E+04  0.10659314821E+04  0.25940748019E+04  0.59999433402E+03 0.  0.
        -24    2    4    4    0    0  0.22361718717E+03  0.15124644521E+04  0.77640866298E+03  0.17166611377E+04  0.81004225049E+02 0.  0.
         24    2    4    4    0    0 -0.28277597204E+03  0.77435018633E+03  0.28952281912E+03  0.87741366418E+03  0.80316958758E+02 0.  0.
         13    1    3    3    0    0  0.41185896043E+02 -0.79352994068E+03 -0.26910494125E+03  0.83892998169E+03  0.00000000000E+00 0. -1.
        -14    1    3    3    0    0  0.17972888830E+02 -0.14932846978E+04 -0.40762680388E+03  0.15480251369E+04  0.00000000000E+00 0.  1.
         13    1    5    5    0    0  0.50678590706E+02  0.31511119567E+03  0.19935434922E+03  0.37630511788E+03  0.00000000000E+00 0. -1.
        -14    1    5    5    0    0  0.17293859646E+03  0.11973532564E+04  0.57705431376E+03  0.13403560198E+04  0.00000000000E+00 0.  1.
          2    1    6    6  502    0 -0.17407276451E+03  0.45519955923E+03  0.21199326677E+03  0.53145941635E+03  0.00000000000E+00 0. -1.
         -1    1    6    6    0  502 -0.10870320753E+03  0.31915062710E+03  0.77529552349E+02  0.34595424784E+03  0.00000000000E+00 0.  1.
<mgrwt>
<rscale>  0 0.23207161E+04</rscale>
<asrwt>0</asrwt>
<pdfrwt beam="1">  1        1 0.35321770E+00 0.23207161E+04</pdfrwt>
<pdfrwt beam="2">  1       -2 0.41309459E+00 0.23207161E+04</pdfrwt>
<totfact> 0.85421595E-03</totfact>
</mgrwt>
</event>
<event>
12    3  0.2422421E-007  0.4316563E+03  0.7818608E-02  0.1033338E+00
          1   -1    0    0  501    0  0.00000000000E+00  0.00000000000E+00  0.30467248838E+03  0.30467248838E+03  0.00000000000E+00 0. -1.
         -2   -1    0    0    0  501 -0.00000000000E+00 -0.00000000000E+00 -0.10616590823E+04  0.10616590823E+04  0.00000000000E+00 0.  1.
        -24    2    1    2    0    0 -0.36158129940E+03 -0.18194735416E+03 -0.24387223423E+03  0.47911543760E+03  0.78943398441E+02 0.  0.
    5000000    2    1    2    0    0  0.36158129940E+03  0.18194735416E+03 -0.51311435973E+03  0.88721613311E+03  0.60001687054E+03 0.  0.
        -24    2    4    4    0    0  0.39609594255E+02  0.27066938584E+02  0.12274570319E+03  0.15352650168E+03  0.78754935999E+02 0.  0.
         24    2    4    4    0    0  0.32197170514E+03  0.15488041558E+03 -0.63586006292E+03  0.73368963143E+03  0.79553338126E+02 0.  0.
         13    1    5    5    0    0  0.45342235363E+01  0.50063526245E+02  0.67794877824E+02  0.84398230446E+02  0.00000000000E+00 0. -1.
        -14    1    5    5    0    0  0.35075370719E+02 -0.22996587661E+02  0.54950825369E+02  0.69128271234E+02  0.00000000000E+00 0.  1.
         13    1    3    3    0    0 -0.68702764561E+02 -0.44314315792E+02 -0.15937651075E+02  0.83293680218E+02  0.00000000000E+00 0. -1.
        -14    1    3    3    0    0 -0.29287853484E+03 -0.13763303837E+03 -0.22793458316E+03  0.39582175738E+03  0.00000000000E+00 0.  1.
          2    1    6    6  502    0  0.11431138695E+03  0.97644244531E+02 -0.27593769757E+03  0.31423415571E+03  0.00000000000E+00 0. -1.
         -1    1    6    6    0  502  0.20766031820E+03  0.57236171047E+02 -0.35992236535E+03  0.41945547572E+03  0.00000000000E+00 0.  1.
<mgrwt>
<rscale>  0 0.43165625E+03</rscale>
<asrwt>0</asrwt>
<pdfrwt beam="1">  1        1 0.46872690E-01 0.43165625E+03</pdfrwt>
<pdfrwt beam="2">  1       -2 0.16333217E+00 0.43165625E+03</pdfrwt>
<totfact> 0.18808772E+01</totfact>
</mgrwt>
</event>
<event>
12    3  0.2422421E-007  0.4135903E+03  0.7818608E-02  0.1039173E+00
          1   -1    0    0  501    0  0.00000000000E+00  0.00000000000E+00  0.48631339677E+03  0.48631339677E+03  0.00000000000E+00 0. -1.
         -2   -1    0    0    0  501 -0.00000000000E+00 -0.00000000000E+00 -0.56556757039E+03  0.56556757039E+03  0.00000000000E+00 0.  1.
        -24    2    1    2    0    0 -0.12261682742E+03 -0.16535563216E+03  0.25283126336E+03  0.33587977973E+03  0.80710639001E+02 0.  0.
    5000000    2    1    2    0    0  0.12261682742E+03  0.16535563216E+03 -0.33208543699E+03  0.71600118743E+03  0.59999965958E+03 0.  0.
        -24    2    4    4    0    0  0.23050809722E+03 -0.15366022787E+03 -0.16662374738E+03  0.33236753485E+03  0.77196220874E+02 0.  0.
         24    2    4    4    0    0 -0.10789126980E+03  0.31901586003E+03 -0.16546168961E+03  0.38363365258E+03  0.79909721678E+02 0.  0.
         13    1    5    5    0    0  0.61970681195E+02 -0.60604403232E+02 -0.90583325159E+02  0.12537383226E+03  0.00000000000E+00 0. -1.
        -14    1    5    5    0    0  0.16853741602E+03 -0.93055824639E+02 -0.76040422219E+02  0.20699370258E+03  0.00000000000E+00 0.  1.
         13    1    3    3    0    0 -0.63609673885E+02 -0.12218129470E+03  0.20998892563E+03  0.25113703087E+03  0.00000000000E+00 0. -1.
        -14    1    3    3    0    0 -0.59007153532E+02 -0.43174337452E+02  0.42842337736E+02  0.84742748864E+02  0.00000000000E+00 0.  1.
          4    1    6    6  502    0 -0.67235067321E+02  0.17494747886E+03 -0.13471266842E+03  0.23081307950E+03  0.00000000000E+00 0. -1.
         -3    1    6    6    0  502 -0.40656202479E+02  0.14406838117E+03 -0.30749021188E+02  0.15282057308E+03  0.00000000000E+00 0.  1.
<mgrwt>
<rscale>  0 0.41359032E+03</rscale>
<asrwt>0</asrwt>
<pdfrwt beam="1">  1        1 0.74817446E-01 0.41359032E+03</pdfrwt>
<pdfrwt beam="2">  1       -2 0.87010395E-01 0.41359032E+03</pdfrwt>
<totfact> 0.48235311E+01</totfact>
</mgrwt>
</event>
<event>
12    3  0.2422421E-007  0.7134968E+03  0.7818608E-02  0.9694425E-01
         -2   -1    0    0    0  501 -0.00000000000E+00  0.00000000000E+00  0.80036978871E+03  0.80036978871E+03  0.00000000000E+00 0.  1.
          1   -1    0    0  501    0  0.00000000000E+00 -0.00000000000E+00 -0.10907176035E+04  0.10907176035E+04  0.00000000000E+00 0. -1.
        -24    2    1    2    0    0 -0.12450659436E+03  0.58706968812E+03  0.45870886357E+03  0.75922352099E+03  0.76510277517E+02 0.  0.
    5000000    2    1    2    0    0  0.12450659436E+03 -0.58706968812E+03 -0.74905667832E+03  0.11318638712E+04  0.59989766194E+03 0.  0.
        -24    2    4    4    0    0 -0.50175605906E+02  0.90289315739E+02 -0.50918655530E+02  0.14026737078E+03  0.80077923676E+02 0.  0.
         24    2    4    4    0    0  0.17468220026E+03 -0.67735900385E+03 -0.69813802279E+03  0.99159650040E+03  0.80856845968E+02 0.  0.
         11    1    3    3    0    0 -0.69344568880E+02  0.16163266124E+03  0.12694490027E+03  0.21690733993E+03  0.00000000000E+00 0. -1.
        -12    1    3    3    0    0 -0.55162025476E+02  0.42543702688E+03  0.33176396330E+03  0.54231618106E+03  0.00000000000E+00 0.  1.
         11    1    5    5    0    0 -0.66357866052E+02  0.75868582821E+02 -0.59396532399E+02  0.11699297546E+03  0.00000000000E+00 0. -1.
        -12    1    5    5    0    0  0.16182260146E+02  0.14420732918E+02  0.84778768689E+01  0.23274395320E+02  0.00000000000E+00 0.  1.
          2    1    6    6  502    0  0.13368807393E+03 -0.49492674289E+03 -0.55926787467E+03  0.75868671899E+03  0.00000000000E+00 0. -1.
         -1    1    6    6    0  502  0.40994126335E+02 -0.18243226096E+03 -0.13887014813E+03  0.23290978141E+03  0.00000000000E+00 0.  1.
<mgrwt>
<rscale>  0 0.71349680E+03</rscale>
<asrwt>0</asrwt>
<pdfrwt beam="1">  1        1 0.16780271E+00 0.71349680E+03</pdfrwt>
<pdfrwt beam="2">  1       -2 0.12313381E+00 0.71349680E+03</pdfrwt>
<totfact> 0.58010514E+00</totfact>
</mgrwt>
</event>
<event>
12    3  0.2422421E-007  0.1199769E+04  0.7818608E-02  0.9113058E-01
         -2   -1    0    0    0  501 -0.00000000000E+00  0.00000000000E+00  0.54176322109E+03  0.54176322109E+03  0.00000000000E+00 0.  1.
          1   -1    0    0  501    0  0.00000000000E+00 -0.00000000000E+00 -0.29080655087E+04  0.29080655087E+04  0.00000000000E+00 0. -1.
        -24    2    1    2    0    0  0.91800207188E+02  0.11562600702E+04 -0.80392310629E+03  0.14135424477E+04  0.80282393890E+02 0.  0.
    5000000    2    1    2    0    0 -0.91800207188E+02 -0.11562600702E+04 -0.15623791813E+04  0.20362862820E+04  0.60005707090E+03 0.  0.
        -24    2    4    4    0    0 -0.23427132805E+03 -0.41415397874E+03 -0.31644353863E+03  0.57686269246E+03  0.78914381208E+02 0.  0.
         24    2    4    4    0    0  0.14247112087E+03 -0.74210609145E+03 -0.12459356426E+04  0.14594235896E+04  0.80883353730E+02 0.  0.
         11    1    3    3    0    0  0.18192860101E+02  0.66881329977E+03 -0.43963048778E+03  0.80057302970E+03  0.00000000000E+00 0. -1.
        -12    1    3    3    0    0  0.73607347087E+02  0.48744677041E+03 -0.36429261851E+03  0.61296941803E+03  0.00000000000E+00 0.  1.
         13    1    5    5    0    0 -0.90709753756E+02 -0.93062383976E+02 -0.72374892093E+02  0.14875144283E+03  0.00000000000E+00 0. -1.
        -14    1    5    5    0    0 -0.14356157430E+03 -0.32109159476E+03 -0.24406864653E+03  0.42811124963E+03  0.00000000000E+00 0.  1.
          4    1    6    6  502    0  0.95467188221E+02 -0.45646496130E+03 -0.69308072693E+03  0.83536527278E+03  0.00000000000E+00 0. -1.
         -3    1    6    6    0  502  0.47003932646E+02 -0.28564113014E+03 -0.55285491571E+03  0.62405831678E+03  0.00000000000E+00 0.  1.
<mgrwt>
<rscale>  0 0.11997694E+04</rscale>
<asrwt>0</asrwt>
<pdfrwt beam="1">  1        1 0.44739469E+00 0.11997694E+04</pdfrwt>
<pdfrwt beam="2">  1       -2 0.83348188E-01 0.11997694E+04</pdfrwt>
<totfact> 0.76600614E-01</totfact>
</mgrwt>
</event>
<event>
12    3  0.2422421E-007  0.1912857E+04  0.7818608E-02  0.8648483E-01
          1   -1    0    0  501    0  0.00000000000E+00  0.00000000000E+00  0.42813874278E+04  0.42813874278E+04  0.00000000000E+00 0. -1.
         -2   -1    0    0    0  501 -0.00000000000E+00 -0.00000000000E+00 -0.11181960862E+04  0.11181960862E+04  0.00000000000E+00 0.  1.
        -24    2    1    2    0    0 -0.85448419107E+03 -0.16934148820E+04  0.31292674690E+03  0.19237828368E+04  0.72249976163E+02 0.  0.
    5000000    2    1    2    0    0  0.85448419107E+03  0.16934148820E+04  0.28502645947E+04  0.34758006771E+04  0.59948719092E+03 0.  0.
        -24    2    4    4    0    0  0.52169503856E+02  0.36206384470E+03  0.26750600848E+03  0.46028788035E+03  0.80582773886E+02 0.  0.
         24    2    4    4    0    0  0.80231468721E+03  0.13313510373E+04  0.25827585862E+04  0.30155127968E+04  0.80442968259E+02 0.  0.
         11    1    5    5    0    0 -0.11558467947E+02  0.16379041630E+03  0.93867419006E+02  0.18913484873E+03  0.00000000000E+00 0. -1.
        -12    1    5    5    0    0  0.63727971803E+02  0.19827342840E+03  0.17363858948E+03  0.27115303162E+03  0.00000000000E+00 0.  1.
         13    1    3    3    0    0 -0.34876821923E+03 -0.68974542837E+03  0.16352963028E+03  0.79001896603E+03  0.00000000000E+00 0. -1.
        -14    1    3    3    0    0 -0.50571597184E+03 -0.10036694536E+04  0.14939711662E+03  0.11337638708E+04  0.00000000000E+00 0.  1.
          2    1    6    6  502    0  0.59100628632E+03  0.90958879337E+03  0.18083240935E+04  0.21087143549E+04  0.00000000000E+00 0. -1.
         -1    1    6    6    0  502  0.21130840089E+03  0.42176224391E+03  0.77443449270E+03  0.90679844186E+03  0.00000000000E+00 0.  1.
<mgrwt>
<rscale>  0 0.19128569E+04</rscale>
<asrwt>0</asrwt>
<pdfrwt beam="1">  1        1 0.65867498E+00 0.19128569E+04</pdfrwt>
<pdfrwt beam="2">  1       -2 0.17203017E+00 0.19128569E+04</pdfrwt>
<totfact> 0.87188970E-03</totfact>
</mgrwt>
</event>
<event>
12    3  0.2422421E-007  0.4735468E+03  0.7818608E-02  0.1020924E+00
         -2   -1    0    0    0  501 -0.00000000000E+00  0.00000000000E+00  0.11272546372E+04  0.11272546372E+04  0.00000000000E+00 0.  1.
          1   -1    0    0  501    0  0.00000000000E+00 -0.00000000000E+00 -0.32119895521E+03  0.32119895521E+03  0.00000000000E+00 0. -1.
        -24    2    1    2    0    0 -0.12174749052E+03  0.30687350890E+03  0.66867252077E+03  0.75039204909E+03  0.83495421377E+02 0.  0.
    5000000    2    1    2    0    0  0.12174749052E+03 -0.30687350890E+03  0.13738316123E+03  0.69806154334E+03  0.59951812598E+03 0.  0.
        -24    2    4    4    0    0  0.31754077621E+03 -0.18423160077E+03  0.22456485455E+03  0.43792407176E+03  0.81084471061E+02 0.  0.
         24    2    4    4    0    0 -0.19579328568E+03 -0.12264190813E+03 -0.87181693322E+02  0.26013747158E+03  0.81821807129E+02 0.  0.
         11    1    3    3    0    0 -0.49268118652E+02  0.22485319906E+03  0.42716396843E+03  0.48523743113E+03  0.00000000000E+00 0. -1.
        -12    1    3    3    0    0 -0.72479371873E+02  0.82020309842E+02  0.24150855234E+03  0.26515461796E+03  0.00000000000E+00 0.  1.
         13    1    5    5    0    0  0.63910617910E+02 -0.25282206520E+01  0.37707846563E+02  0.74248506205E+02  0.00000000000E+00 0. -1.
        -14    1    5    5    0    0  0.25363015830E+03 -0.18170338012E+03  0.18685700799E+03  0.36367556555E+03  0.00000000000E+00 0.  1.
          4    1    6    6  502    0 -0.66356100175E+02 -0.33561103646E+02 -0.69908918410E+02  0.10206241513E+03  0.00000000000E+00 0. -1.
         -3    1    6    6    0  502 -0.12943718551E+03 -0.89080804482E+02 -0.17272774911E+02  0.15807505645E+03  0.00000000000E+00 0.  1.
<mgrwt>
<rscale>  0 0.47354682E+03</rscale>
<asrwt>0</asrwt>
<pdfrwt beam="1">  1        1 0.49415224E-01 0.47354682E+03</pdfrwt>
<pdfrwt beam="2">  1       -2 0.17342379E+00 0.47354682E+03</pdfrwt>
<totfact> 0.14833847E+01</totfact>
</mgrwt>
</event>
<event>
12    3  0.2422421E-007  0.5159457E+03  0.7818608E-02  0.1009699E+00
          1   -1    0    0  501    0  0.00000000000E+00  0.00000000000E+00  0.95733548042E+03  0.95733548042E+03  0.00000000000E+00 0. -1.
         -2   -1    0    0    0  501 -0.00000000000E+00 -0.00000000000E+00 -0.90859443745E+03  0.90859443745E+03  0.00000000000E+00 0.  1.
        -24    2    1    2    0    0 -0.21931897013E+03 -0.38270618084E+03 -0.68619602144E+03  0.81964023921E+03  0.79876845094E+02 0.  0.
    5000000    2    1    2    0    0  0.21931897013E+03  0.38270618084E+03  0.73493706441E+03  0.10462896787E+04  0.60002064257E+03 0.  0.
        -24    2    4    4    0    0 -0.10156979607E+03  0.14928401275E+03  0.58202824821E+03  0.61477807859E+03  0.81197686290E+02 0.  0.
         24    2    4    4    0    0  0.32088876620E+03  0.23342216808E+03  0.15290881620E+03  0.43151160007E+03  0.73250570636E+02 0.  0.
         13    1    5    5    0    0 -0.16847024024E+02  0.64358164932E+02  0.31640151214E+03  0.32331983004E+03  0.00000000000E+00 0. -1.
        -14    1    5    5    0    0 -0.84722772046E+02  0.84925847820E+02  0.26562673607E+03  0.29145824855E+03  0.00000000000E+00 0.  1.
         13    1    3    3    0    0 -0.11352434328E+03 -0.26231007507E+03 -0.40003535067E+03  0.49165296072E+03  0.00000000000E+00 0. -1.
        -14    1    3    3    0    0 -0.10579462685E+03 -0.12039610576E+03 -0.28616067078E+03  0.32798727849E+03  0.00000000000E+00 0.  1.
          4    1    6    6  502    0  0.53369674257E+02  0.60940077051E+02  0.57080083111E+02  0.99096675066E+02  0.00000000000E+00 0. -1.
         -3    1    6    6    0  502  0.26751909194E+03  0.17248209103E+03  0.95828733090E+02  0.33241492500E+03  0.00000000000E+00 0.  1.
<mgrwt>
<rscale>  0 0.51594571E+03</rscale>
<asrwt>0</asrwt>
<pdfrwt beam="1">  1        1 0.14728238E+00 0.51594571E+03</pdfrwt>
<pdfrwt beam="2">  1       -2 0.13978376E+00 0.51594571E+03</pdfrwt>
<totfact> 0.54968387E+00</totfact>
</mgrwt>
</event>
<event>
12    3  0.2422421E-007  0.1208171E+04  0.7818608E-02  0.9105734E-01
          1   -1    0    0  501    0  0.00000000000E+00  0.00000000000E+00  0.12115605105E+04  0.12115605105E+04  0.00000000000E+00 0. -1.
         -2   -1    0    0    0  501 -0.00000000000E+00 -0.00000000000E+00 -0.12137423252E+04  0.12137423252E+04  0.00000000000E+00 0.  1.
        -24    2    1    2    0    0 -0.44163734457E+03  0.10446942815E+04  0.79184701510E+02  0.11396237140E+04  0.77732276429E+02 0.  0.
    5000000    2    1    2    0    0  0.44163734457E+03 -0.10446942815E+04 -0.81366516189E+02  0.12856791217E+04  0.59993383654E+03 0.  0.
        -24    2    4    4    0    0  0.57155886509E+03 -0.92046606595E+03 -0.68562589715E+02  0.10883406247E+04  0.76466802083E+02 0.  0.
         24    2    4    4    0    0 -0.12992152051E+03 -0.12422821551E+03 -0.12803926474E+02  0.19733849703E+03  0.80413250491E+02 0.  0.
         13    1    5    5    0    0  0.12566541186E+03 -0.19317557202E+03 -0.45687643424E+02  0.23493820065E+03  0.00000000000E+00 0. -1.
        -14    1    5    5    0    0  0.44589345323E+03 -0.72729049393E+03 -0.22874946292E+02  0.85340242404E+03  0.00000000000E+00 0.  1.
         13    1    3    3    0    0 -0.28108715083E+03  0.56615610120E+03  0.40433153056E+02  0.63338578856E+03  0.00000000000E+00 0. -1.
        -14    1    3    3    0    0 -0.16055019374E+03  0.47853818026E+03  0.38751548454E+02  0.50623792547E+03  0.00000000000E+00 0.  1.
          2    1    6    6  502    0  0.10772515308E+02 -0.10385198619E+02 -0.63076228456E+01  0.16238397161E+02  0.00000000000E+00 0. -1.
         -1    1    6    6    0  502 -0.14069403582E+03 -0.11384301689E+03 -0.64963036285E+01  0.18110009987E+03  0.00000000000E+00 0.  1.
<mgrwt>
<rscale>  0 0.12081711E+04</rscale>
<asrwt>0</asrwt>
<pdfrwt beam="1">  1        1 0.18639392E+00 0.12081711E+04</pdfrwt>
<pdfrwt beam="2">  1       -2 0.18672959E+00 0.12081711E+04</pdfrwt>
<totfact> 0.14591767E+00</totfact>
</mgrwt>
</event>
<event>
12    3  0.2422421E-007  0.6729538E+03  0.7818608E-02  0.9764636E-01
         -2   -1    0    0    0  501 -0.00000000000E+00  0.00000000000E+00  0.48542593939E+03  0.48542593939E+03  0.00000000000E+00 0.  1.
          1   -1    0    0  501    0  0.00000000000E+00 -0.00000000000E+00 -0.12076469756E+04  0.12076469756E+04  0.00000000000E+00 0. -1.
        -24    2    1    2    0    0  0.46272899274E+03  0.33061913664E+03 -0.64357620120E+03  0.86262930417E+03  0.80696068132E+02 0.  0.
    5000000    2    1    2    0    0 -0.46272899274E+03 -0.33061913664E+03 -0.78644835027E+02  0.83044361085E+03  0.60002037172E+03 0.  0.
        -24    2    4    4    0    0  0.21255312678E+02 -0.27562494056E+03  0.10911827704E+03  0.30290247579E+03  0.58499703280E+02 0.  0.
         24    2    4    4    0    0 -0.48398430542E+03 -0.54994196083E+02 -0.18776311206E+03  0.52754113505E+03  0.76022979572E+02 0.  0.
         13    1    5    5    0    0 -0.96022397658E+01 -0.19605711695E+03  0.64612057600E+02  0.20665264117E+03  0.00000000000E+00 0. -1.
        -14    1    5    5    0    0  0.30857552443E+02 -0.79567823609E+02  0.44506219438E+02  0.96249834625E+02  0.00000000000E+00 0.  1.
         13    1    3    3    0    0  0.25135765434E+03  0.22556138265E+03 -0.39868193275E+03  0.52249965669E+03  0.00000000000E+00 0. -1.
        -14    1    3    3    0    0  0.21137133840E+03  0.10505775399E+03 -0.24489426846E+03  0.34012964748E+03  0.00000000000E+00 0.  1.
          2    1    6    6  502    0 -0.19469667598E+03 -0.50694268424E+02 -0.51144287639E+02  0.20758719288E+03  0.00000000000E+00 0. -1.
         -1    1    6    6    0  502 -0.28928762944E+03 -0.42999276595E+01 -0.13661882443E+03  0.31995394218E+03  0.00000000000E+00 0.  1.
<mgrwt>
<rscale>  0 0.67295380E+03</rscale>
<asrwt>0</asrwt>
<pdfrwt beam="1">  1        1 0.18579184E+00 0.67295380E+03</pdfrwt>
<pdfrwt beam="2">  1       -2 0.74680914E-01 0.67295380E+03</pdfrwt>
<totfact> 0.15460728E+01</totfact>
</mgrwt>
</event>
<event>
12    3  0.2422421E-007  0.7528564E+03  0.7818608E-02  0.9630880E-01
          1   -1    0    0  501    0  0.00000000000E+00  0.00000000000E+00  0.10309865456E+04  0.10309865456E+04  0.00000000000E+00 0. -1.
         -2   -1    0    0    0  501 -0.00000000000E+00 -0.00000000000E+00 -0.65854391462E+03  0.65854391462E+03  0.00000000000E+00 0.  1.
        -24    2    1    2    0    0 -0.19602038763E+03  0.68370839439E+03  0.12587237450E+03  0.72683300367E+03  0.81001232328E+02 0.  0.
    5000000    2    1    2    0    0  0.19602038763E+03 -0.68370839439E+03  0.24657025647E+03  0.96269745653E+03  0.60009027697E+03 0.  0.
        -24    2    4    4    0    0 -0.24260614477E+02 -0.48929748763E+03 -0.94786117125E+02  0.50551522281E+03  0.80997677001E+02 0.  0.
         24    2    4    4    0    0  0.22028100211E+03 -0.19441090676E+03  0.34135637359E+03  0.45718223372E+03  0.78562716864E+02 0.  0.
         11    1    3    3    0    0 -0.55888446643E+01  0.14137232480E+02 -0.91376918765E+01  0.17736796208E+02  0.00000000000E+00 0. -1.
        -12    1    3    3    0    0 -0.19043154297E+03  0.66957116191E+03  0.13501006637E+03  0.70909620747E+03  0.00000000000E+00 0.  1.
         11    1    5    5    0    0  0.28465294763E+02 -0.23884631187E+03 -0.50217232484E+02  0.24572261625E+03  0.00000000000E+00 0. -1.
        -12    1    5    5    0    0 -0.52725909240E+02 -0.25045117576E+03 -0.44568884641E+02  0.25979260656E+03  0.00000000000E+00 0.  1.
          4    1    6    6  502    0  0.21693235704E+03 -0.17643344730E+03  0.29082901925E+03  0.40344755210E+03  0.00000000000E+00 0. -1.
         -3    1    6    6    0  502  0.33486450714E+01 -0.17977459463E+02  0.50527354338E+02  0.53734681622E+02  0.00000000000E+00 0.  1.
<mgrwt>
<rscale>  0 0.75285640E+03</rscale>
<asrwt>0</asrwt>
<pdfrwt beam="1">  1        1 0.15861332E+00 0.75285640E+03</pdfrwt>
<pdfrwt beam="2">  1       -2 0.10131445E+00 0.75285640E+03</pdfrwt>
<totfact> 0.10292045E+01</totfact>
</mgrwt>
</event>
<event>
12    3  0.2422421E-007  0.1407516E+04  0.7818608E-02  0.8948396E-01
         -2   -1    0    0    0  501 -0.00000000000E+00  0.00000000000E+00  0.10305692157E+04  0.10305692157E+04  0.00000000000E+00 0.  1.
          1   -1    0    0  501    0  0.00000000000E+00 -0.00000000000E+00 -0.19454183977E+04  0.19454183977E+04  0.00000000000E+00 0. -1.
        -24    2    1    2    0    0 -0.10117768813E+04  0.89545104373E+03 -0.45035136483E+03  0.14264009746E+04  0.79236098371E+02 0.  0.
    5000000    2    1    2    0    0  0.10117768813E+04 -0.89545104373E+03 -0.46449781712E+03  0.15495866387E+04  0.59994624715E+03 0.  0.
        -24    2    4    4    0    0  0.18393913061E+03  0.61133620618E+02 -0.72193062014E+02  0.22269081931E+03  0.82513268409E+02 0.  0.
         24    2    4    4    0    0  0.82783775073E+03 -0.95658466435E+03 -0.39230475510E+03  0.13268958194E+04  0.79874483367E+02 0.  0.
         13    1    5    5    0    0  0.77058654987E+02  0.31515905066E+02 -0.74554866586E+02  0.11175740115E+03  0.00000000000E+00 0. -1.
        -14    1    5    5    0    0  0.10688047562E+03  0.29617715552E+02  0.23618045719E+01  0.11093341816E+03  0.00000000000E+00 0.  1.
         13    1    3    3    0    0 -0.42620330043E+03  0.32711324217E+03 -0.16848117950E+03  0.56306148363E+03  0.00000000000E+00 0. -1.
        -14    1    3    3    0    0 -0.58557358091E+03  0.56833780156E+03 -0.28187018533E+03  0.86333949100E+03  0.00000000000E+00 0.  1.
          4    1    6    6  502    0  0.23916008120E+03 -0.22298464787E+03 -0.10126782607E+03  0.34230815097E+03  0.00000000000E+00 0. -1.
         -3    1    6    6    0  502  0.58867766954E+03 -0.73360001648E+03 -0.29103692903E+03  0.98458766844E+03  0.00000000000E+00 0.  1.
<mgrwt>
<rscale>  0 0.14075161E+04</rscale>
<asrwt>0</asrwt>
<pdfrwt beam="1">  1        1 0.29929514E+00 0.14075161E+04</pdfrwt>
<pdfrwt beam="2">  1       -2 0.15854911E+00 0.14075161E+04</pdfrwt>
<totfact> 0.70158103E-01</totfact>
</mgrwt>
</event>
<event>
12    3  0.2422421E-007  0.4235467E+03  0.7818608E-02  0.1035918E+00
          1   -1    0    0  501    0  0.00000000000E+00  0.00000000000E+00  0.99301760241E+03  0.99301760241E+03  0.00000000000E+00 0. -1.
         -2   -1    0    0    0  501 -0.00000000000E+00 -0.00000000000E+00 -0.41980541018E+03  0.41980541018E+03  0.00000000000E+00 0.  1.
        -24    2    1    2    0    0 -0.24586851848E+03  0.83314431860E+02  0.69649763556E+03  0.74752554016E+03  0.79327510416E+02 0.  0.
    5000000    2    1    2    0    0  0.24586851848E+03 -0.83314431860E+02 -0.12328544334E+03  0.66529747243E+03  0.60002400231E+03 0.  0.
        -24    2    4    4    0    0  0.38991611251E+03  0.70238077901E+01 -0.21892586567E+03  0.45439366321E+03  0.80381327632E+02 0.  0.
         24    2    4    4    0    0 -0.14404759404E+03 -0.90338239650E+02  0.95640422331E+02  0.21090380922E+03  0.80141246996E+02 0.  0.
         13    1    5    5    0    0  0.35240608067E+03 -0.14418266823E+02 -0.17881885313E+03  0.39544166996E+03  0.00000000000E+00 0. -1.
        -14    1    5    5    0    0  0.37510031850E+02  0.21442074613E+02 -0.40107012539E+02  0.58951993247E+02  0.00000000000E+00 0.  1.
         13    1    3    3    0    0 -0.82725948193E+02  0.61412194929E+01  0.14266174134E+03  0.16502626919E+03  0.00000000000E+00 0. -1.
        -14    1    3    3    0    0 -0.16314257029E+03  0.77173212367E+02  0.55383589422E+03  0.58249927096E+03  0.00000000000E+00 0.  1.
          2    1    6    6  502    0 -0.13562286015E+03 -0.10454552137E+03  0.89991894836E+02  0.19344732454E+03  0.00000000000E+00 0. -1.
         -1    1    6    6    0  502 -0.84247338840E+01  0.14207281716E+02  0.56485274946E+01  0.17456484687E+02  0.00000000000E+00 0.  1.
<mgrwt>
<rscale>  0 0.42354671E+03</rscale>
<asrwt>0</asrwt>
<pdfrwt beam="1">  1        1 0.15277194E+00 0.42354671E+03</pdfrwt>
<pdfrwt beam="2">  1       -2 0.64585448E-01 0.42354671E+03</pdfrwt>
<totfact> 0.31701363E+01</totfact>
</mgrwt>
</event>
<event>
12    3  0.2422421E-007  0.5084031E+03  0.7818608E-02  0.1011609E+00
         -2   -1    0    0    0  501 -0.00000000000E+00  0.00000000000E+00  0.62986609917E+03  0.62986609917E+03  0.00000000000E+00 0.  1.
          1   -1    0    0  501    0  0.00000000000E+00 -0.00000000000E+00 -0.12215346858E+04  0.12215346858E+04  0.00000000000E+00 0. -1.
        -24    2    1    2    0    0  0.27100718225E+03  0.41898110640E+03 -0.88345972230E+03  0.10180823520E+04  0.83669195126E+02 0.  0.
    5000000    2    1    2    0    0 -0.27100718225E+03 -0.41898110640E+03  0.29179113565E+03  0.83331843297E+03  0.60023952181E+03 0.  0.
        -24    2    4    4    0    0 -0.36588740359E+02 -0.17454652220E+03  0.41937303684E+03  0.46275777731E+03  0.80410149211E+02 0.  0.
         24    2    4    4    0    0 -0.23441844189E+03 -0.24443458420E+03 -0.12758190119E+03  0.37056065566E+03  0.79610213937E+02 0.  0.
         11    1    3    3    0    0  0.10636794611E+03  0.16640457352E+03 -0.43453309935E+03  0.47730874335E+03  0.00000000000E+00 0. -1.
        -12    1    3    3    0    0  0.16463923614E+03  0.25257653288E+03 -0.44892662295E+03  0.54077360867E+03  0.00000000000E+00 0.  1.
         11    1    5    5    0    0 -0.19248355185E+01 -0.39246978988E+02  0.19147750174E+03  0.19546780815E+03  0.00000000000E+00 0. -1.
        -12    1    5    5    0    0 -0.34663904841E+02 -0.13529954321E+03  0.22789553511E+03  0.26728996916E+03  0.00000000000E+00 0.  1.
          2    1    6    6  502    0 -0.10846503542E+03 -0.12094769208E+03 -0.10326939100E+03  0.19250344217E+03  0.00000000000E+00 0. -1.
         -1    1    6    6    0  502 -0.12595340647E+03 -0.12348689212E+03 -0.24312510192E+02  0.17805721350E+03  0.00000000000E+00 0.  1.
<mgrwt>
<rscale>  0 0.50840308E+03</rscale>
<asrwt>0</asrwt>
<pdfrwt beam="1">  1        1 0.18792841E+00 0.50840308E+03</pdfrwt>
<pdfrwt beam="2">  1       -2 0.96902477E-01 0.50840308E+03</pdfrwt>
<totfact> 0.85851072E+00</totfact>
</mgrwt>
</event>
<event>
12    3  0.2422421E-007  0.1074003E+04  0.7818608E-02  0.9230908E-01
          1   -1    0    0  501    0  0.00000000000E+00  0.00000000000E+00  0.87851563069E+03  0.87851563069E+03  0.00000000000E+00 0. -1.
         -2   -1    0    0    0  501 -0.00000000000E+00 -0.00000000000E+00 -0.16868714489E+04  0.16868714489E+04  0.00000000000E+00 0.  1.
        -24    2    1    2    0    0  0.96029058025E+03 -0.44121413589E+03 -0.83594763810E+03  0.13498213632E+04  0.79883331396E+02 0.  0.
    5000000    2    1    2    0    0 -0.96029058025E+03  0.44121413589E+03  0.27591819940E+02  0.12155657164E+04  0.60000899164E+03 0.  0.
        -24    2    4    4    0    0 -0.34602977661E+03  0.38278319819E+02 -0.23929783792E+03  0.42999273576E+03  0.80177687068E+02 0.  0.
         24    2    4    4    0    0 -0.61426080364E+03  0.40293581607E+03  0.26688965786E+03  0.78557298061E+03  0.78874657687E+02 0.  0.
         11    1    3    3    0    0  0.16237479693E+03 -0.51925501012E+02 -0.10882751939E+03  0.20225049149E+03  0.00000000000E+00 0. -1.
        -12    1    3    3    0    0  0.79791578333E+03 -0.38928863488E+03 -0.72712011870E+03  0.11475708717E+04  0.00000000000E+00 0.  1.
         11    1    5    5    0    0 -0.29234173841E+01  0.10056643937E+02 -0.17722825777E+02  0.20585942048E+02  0.00000000000E+00 0. -1.
        -12    1    5    5    0    0 -0.34310635923E+03  0.28221675882E+02 -0.22157501214E+03  0.40940679371E+03  0.00000000000E+00 0.  1.
          4    1    6    6  502    0 -0.17281068978E+03  0.12571085143E+03  0.11468819991E+03  0.24252862897E+03  0.00000000000E+00 0. -1.
         -3    1    6    6    0  502 -0.44145011386E+03  0.27722496465E+03  0.15220145795E+03  0.54304435164E+03  0.00000000000E+00 0.  1.
<mgrwt>
<rscale>  0 0.10740025E+04</rscale>
<asrwt>0</asrwt>
<pdfrwt beam="1">  1        1 0.13515625E+00 0.10740025E+04</pdfrwt>
<pdfrwt beam="2">  1       -2 0.25951868E+00 0.10740025E+04</pdfrwt>
<totfact> 0.92698872E-01</totfact>
</mgrwt>
</event>
<event>
12    3  0.2422421E-007  0.1027678E+04  0.7818608E-02  0.9278698E-01
         -2   -1    0    0    0  501 -0.00000000000E+00  0.00000000000E+00  0.73111608252E+03  0.73111608252E+03  0.00000000000E+00 0.  1.
          1   -1    0    0  501    0  0.00000000000E+00 -0.00000000000E+00 -0.16292569327E+04  0.16292569327E+04  0.00000000000E+00 0. -1.
        -24    2    1    2    0    0  0.55440230661E+03  0.77395295647E+03 -0.59968032522E+02  0.95724361045E+03  0.79712410818E+02 0.  0.
    5000000    2    1    2    0    0 -0.55440230661E+03 -0.77395295647E+03 -0.83817281770E+03  0.14031294048E+04  0.59989445566E+03 0.  0.
        -24    2    4    4    0    0  0.27634926206E+02 -0.40081605545E+03 -0.44020675145E+03  0.60144708675E+03  0.80866647527E+02 0.  0.
         24    2    4    4    0    0 -0.58203723281E+03 -0.37313690102E+03 -0.39796606625E+03  0.80168231807E+03  0.79492527571E+02 0.  0.
         11    1    3    3    0    0  0.35459292942E+03  0.46419896742E+03 -0.22312508100E+01  0.58414193945E+03  0.00000000000E+00 0. -1.
        -12    1    3    3    0    0  0.19980937719E+03  0.30975398904E+03 -0.57736781712E+02  0.37310167100E+03  0.00000000000E+00 0.  1.
         13    1    5    5    0    0  0.45077757802E+02 -0.13566395302E+03 -0.13294044346E+03  0.19521750410E+03  0.00000000000E+00 0. -1.
        -14    1    5    5    0    0 -0.17442831596E+02 -0.26515210242E+03 -0.30726630799E+03  0.40622958265E+03  0.00000000000E+00 0.  1.
          2    1    6    6  502    0 -0.19386891952E+03 -0.15820506743E+03 -0.11464849533E+03  0.27524221842E+03  0.00000000000E+00 0. -1.
         -1    1    6    6    0  502 -0.38816831329E+03 -0.21493183359E+03 -0.28331757092E+03  0.52644009965E+03  0.00000000000E+00 0.  1.
<mgrwt>
<rscale>  0 0.10276779E+04</rscale>
<asrwt>0</asrwt>
<pdfrwt beam="1">  1        1 0.25065491E+00 0.10276779E+04</pdfrwt>
<pdfrwt beam="2">  1       -2 0.11247940E+00 0.10276779E+04</pdfrwt>
<totfact> 0.29031421E+00</totfact>
</mgrwt>
</event>
<event>
12    3  0.2422421E-007  0.1689963E+04  0.7818608E-02  0.8767109E-01
          3   -1    0    0  501    0  0.00000000000E+00  0.00000000000E+00  0.16623410667E+04  0.16623410667E+04  0.00000000000E+00 0. -1.
         -4   -1    0    0    0  501 -0.00000000000E+00 -0.00000000000E+00 -0.20251293024E+04  0.20251293024E+04  0.00000000000E+00 0.  1.
        -24    2    1    2    0    0  0.36377903919E+03 -0.16202461473E+04 -0.83389121040E+03  0.18600529341E+04  0.83003612706E+02 0.  0.
    5000000    2    1    2    0    0 -0.36377903919E+03  0.16202461473E+04  0.47110297478E+03  0.18274174350E+04  0.59998641772E+03 0.  0.
        -24    2    4    4    0    0 -0.30237213854E+03  0.42831598027E+03 -0.29139635556E+02  0.53094361366E+03  0.78539884177E+02 0.  0.
         24    2    4    4    0    0 -0.61406900647E+02  0.11919301671E+04  0.50024261033E+03  0.12964738213E+04  0.78315831874E+02 0.  0.
         11    1    3    3    0    0  0.14613309879E+03 -0.73358212698E+03 -0.41712744932E+03  0.85644201705E+03  0.00000000000E+00 0. -1.
        -12    1    3    3    0    0  0.21764594040E+03 -0.88666402034E+03 -0.41676376108E+03  0.10036109171E+04  0.00000000000E+00 0.  1.
         13    1    5    5    0    0 -0.26561237622E+02  0.56110747659E+02 -0.26956824524E+02  0.67680024640E+02  0.00000000000E+00 0. -1.
        -14    1    5    5    0    0 -0.27581090092E+03  0.37220523261E+03 -0.21828110324E+01  0.46326358902E+03  0.00000000000E+00 0.  1.
          2    1    6    6  502    0  0.56561694936E+00  0.44933915120E+02  0.37418812529E+01  0.45092996417E+02  0.00000000000E+00 0. -1.
         -1    1    6    6    0  502 -0.61972517596E+02  0.11469962519E+04  0.49650072908E+03  0.12513808249E+04  0.00000000000E+00 0.  1.
<mgrwt>
<rscale>  0 0.16899632E+04</rscale>
<asrwt>0</asrwt>
<pdfrwt beam="1">  1        3 0.25574478E+00 0.16899632E+04</pdfrwt>
<pdfrwt beam="2">  1       -4 0.31155835E+00 0.16899632E+04</pdfrwt>
<totfact> 0.36699559E-03</totfact>
</mgrwt>
</event>
<event>
12    3  0.2422421E-007  0.3341380E+03  0.7818608E-02  0.1069320E+00
         -2   -1    0    0    0  501 -0.00000000000E+00  0.00000000000E+00  0.20848822413E+03  0.20848822413E+03  0.00000000000E+00 0.  1.
          1   -1    0    0  501    0  0.00000000000E+00 -0.00000000000E+00 -0.16507147952E+04  0.16507147952E+04  0.00000000000E+00 0. -1.
        -24    2    1    2    0    0 -0.31972545238E+02  0.27613250839E+03 -0.10529535870E+04  0.10918097662E+04  0.77883910028E+02 0.  0.
    5000000    2    1    2    0    0  0.31972545238E+02 -0.27613250839E+03 -0.38927298407E+03  0.76739325309E+03  0.60007294800E+03 0.  0.
        -24    2    4    4    0    0 -0.87404451431E+02 -0.23877521627E+03  0.74406425623E+02  0.28025993594E+03  0.91412107986E+02 0.  0.
         24    2    4    4    0    0  0.11937699667E+03 -0.37357292123E+02 -0.46367940970E+03  0.48713331715E+03  0.81571067730E+02 0.  0.
         11    1    3    3    0    0 -0.12984087570E+02  0.11614626479E+03 -0.30325729492E+03  0.32499773580E+03  0.00000000000E+00 0. -1.
        -12    1    3    3    0    0 -0.18988457668E+02  0.15998624361E+03 -0.74969629205E+03  0.76681203041E+03  0.00000000000E+00 0.  1.
         13    1    5    5    0    0  0.11605515315E+02 -0.88325170226E+01  0.18821159853E+02  0.23810447305E+02  0.00000000000E+00 0. -1.
        -14    1    5    5    0    0 -0.99009966746E+02 -0.22994269925E+03  0.55585265770E+02  0.25644948864E+03  0.00000000000E+00 0.  1.
          2    1    6    6  502    0  0.76490013073E+02 -0.28076281059E+02 -0.15275043057E+03  0.17312334821E+03  0.00000000000E+00 0. -1.
         -1    1    6    6    0  502  0.42886983596E+02 -0.92810110634E+01 -0.31092897913E+03  0.31400996893E+03  0.00000000000E+00 0.  1.
<mgrwt>
<rscale>  0 0.33413799E+03</rscale>
<asrwt>0</asrwt>
<pdfrwt beam="1">  1        1 0.25395612E+00 0.33413799E+03</pdfrwt>
<pdfrwt beam="2">  1       -2 0.32075112E-01 0.33413799E+03</pdfrwt>
<totfact> 0.44975355E+01</totfact>
</mgrwt>
</event>
<event>
12    3  0.2422421E-007  0.4230889E+03  0.7818608E-02  0.1036066E+00
          1   -1    0    0  501    0  0.00000000000E+00  0.00000000000E+00  0.17449349282E+04  0.17449349282E+04  0.00000000000E+00 0. -1.
         -2   -1    0    0    0  501 -0.00000000000E+00 -0.00000000000E+00 -0.14984422327E+03  0.14984422327E+03  0.00000000000E+00 0.  1.
        -24    2    1    2    0    0 -0.13544551740E+03  0.22233022181E+03  0.90079807443E+03  0.94093421177E+03  0.78382423246E+02 0.  0.
    5000000    2    1    2    0    0  0.13544551740E+03 -0.22233022181E+03  0.69429263045E+03  0.95384493966E+03  0.60000141375E+03 0.  0.
        -24    2    4    4    0    0  0.18659357323E+03  0.11293835905E+03  0.50723990633E+03  0.55773055629E+03  0.78732562031E+02 0.  0.
         24    2    4    4    0    0 -0.51148055827E+02 -0.33526858086E+03  0.18705272412E+03  0.39611438337E+03  0.83046602500E+02 0.  0.
         11    1    3    3    0    0 -0.33642728902E+02  0.13034631954E+03  0.45605972749E+03  0.47551285079E+03  0.00000000000E+00 0. -1.
        -12    1    3    3    0    0 -0.10180278850E+03  0.91983902268E+02  0.44473834694E+03  0.46542136099E+03  0.00000000000E+00 0.  1.
         13    1    5    5    0    0  0.92875366369E+02  0.12378279611E+02  0.22759623118E+03  0.24612821848E+03  0.00000000000E+00 0. -1.
        -14    1    5    5    0    0  0.93718206856E+02  0.10056007944E+03  0.27964367515E+03  0.31160233781E+03  0.00000000000E+00 0.  1.
          4    1    6    6  502    0 -0.56097258166E+02 -0.19672612971E+03  0.14669367731E+03  0.25172824126E+03  0.00000000000E+00 0. -1.
         -3    1    6    6    0  502  0.49492023395E+01 -0.13854245115E+03  0.40359046804E+02  0.14438614211E+03  0.00000000000E+00 0.  1.
<mgrwt>
<rscale>  0 0.42308887E+03</rscale>
<asrwt>0</asrwt>
<pdfrwt beam="1">  1        1 0.26845151E+00 0.42308887E+03</pdfrwt>
<pdfrwt beam="2">  1       -2 0.23052959E-01 0.42308887E+03</pdfrwt>
<totfact> 0.69455639E+01</totfact>
</mgrwt>
</event>
<event>
12    3  0.2422421E-007  0.5009887E+03  0.7818608E-02  0.1013521E+00
          1   -1    0    0  501    0  0.00000000000E+00  0.00000000000E+00  0.27796027209E+04  0.27796027209E+04  0.00000000000E+00 0. -1.
         -2   -1    0    0    0  501 -0.00000000000E+00 -0.00000000000E+00 -0.19099528406E+03  0.19099528406E+03  0.00000000000E+00 0.  1.
        -24    2    1    2    0    0 -0.28873260433E+03  0.36160011518E+03  0.18636351401E+04  0.19219088381E+04  0.80476621550E+02 0.  0.
    5000000    2    1    2    0    0  0.28873260433E+03 -0.36160011518E+03  0.72497229675E+03  0.10486891668E+04  0.60003581350E+03 0.  0.
        -24    2    4    4    0    0  0.87342964213E+02 -0.29282201746E+03  0.75727676481E+03  0.82021585268E+03  0.76892256798E+02 0.  0.
         24    2    4    4    0    0  0.20138964012E+03 -0.68778097727E+02 -0.32304468065E+02  0.22847331415E+03  0.76604587009E+02 0.  0.
         11    1    5    5    0    0  0.73830932787E+02 -0.11479155097E+03  0.31958012406E+03  0.34750476616E+03  0.00000000000E+00 0. -1.
        -12    1    5    5    0    0  0.13512031426E+02 -0.17803046649E+03  0.43769664075E+03  0.47271108652E+03  0.00000000000E+00 0.  1.
         13    1    3    3    0    0 -0.20434242466E+03  0.25913839880E+03  0.14666228602E+04  0.15032934345E+04  0.00000000000E+00 0. -1.
        -14    1    3    3    0    0 -0.84390179669E+02  0.10246171639E+03  0.39701227990E+03  0.41861540361E+03  0.00000000000E+00 0.  1.
          4    1    6    6  502    0  0.12618433972E+03 -0.61593228444E+01 -0.33136054795E+02  0.13060789784E+03  0.00000000000E+00 0. -1.
         -3    1    6    6    0  502  0.75205300391E+02 -0.62618774883E+02  0.83158673002E+00  0.97865416319E+02  0.00000000000E+00 0.  1.
<mgrwt>
<rscale>  0 0.50098873E+03</rscale>
<asrwt>0</asrwt>
<pdfrwt beam="1">  1        1 0.42763116E+00 0.50098873E+03</pdfrwt>
<pdfrwt beam="2">  1       -2 0.29383892E-01 0.50098873E+03</pdfrwt>
<totfact> 0.89634590E+00</totfact>
</mgrwt>
</event>
<event>
12    3  0.2422421E-007  0.1017867E+04  0.7818608E-02  0.9289163E-01
         -2   -1    0    0    0  501 -0.00000000000E+00  0.00000000000E+00  0.76339188078E+03  0.76339188078E+03  0.00000000000E+00 0.  1.
          1   -1    0    0  501    0  0.00000000000E+00 -0.00000000000E+00 -0.16132306224E+04  0.16132306224E+04  0.00000000000E+00 0. -1.
        -24    2    1    2    0    0 -0.50576567867E+03  0.85526055873E+03 -0.11606633042E+03  0.10034066176E+04  0.77999372486E+02 0.  0.
    5000000    2    1    2    0    0  0.50576567867E+03 -0.85526055873E+03 -0.73377241122E+03  0.13732158856E+04  0.60002530947E+03 0.  0.
        -24    2    4    4    0    0  0.66573354789E+02 -0.24943589982E+02 -0.33181088583E+03  0.34843167562E+03  0.79069427550E+02 0.  0.
         24    2    4    4    0    0  0.43919232388E+03 -0.83031696875E+03 -0.40196152539E+03  0.10247842100E+04  0.79331224689E+02 0.  0.
         11    1    5    5    0    0  0.62268807131E+02  0.10728908583E+02 -0.14458179359E+03  0.15778595900E+03  0.00000000000E+00 0. -1.
        -12    1    5    5    0    0  0.43045476581E+01 -0.35672498565E+02 -0.18722909224E+03  0.19064571662E+03  0.00000000000E+00 0.  1.
         13    1    3    3    0    0 -0.41409680306E+03  0.73866738253E+03 -0.11850263381E+03  0.85507224170E+03  0.00000000000E+00 0. -1.
        -14    1    3    3    0    0 -0.91668875604E+02  0.11659317621E+03  0.24363033894E+01  0.14833437588E+03  0.00000000000E+00 0.  1.
          2    1    6    6  502    0  0.13277113341E+02 -0.82498144266E+01 -0.13824457672E+02  0.20867601843E+02  0.00000000000E+00 0. -1.
         -1    1    6    6    0  502  0.42591521054E+03 -0.82206715432E+03 -0.38813706772E+03  0.10039166082E+04  0.00000000000E+00 0.  1.
<mgrwt>
<rscale>  0 0.10178671E+04</rscale>
<asrwt>0</asrwt>
<pdfrwt beam="1">  1        1 0.24818933E+00 0.10178671E+04</pdfrwt>
<pdfrwt beam="2">  1       -2 0.11744491E+00 0.10178671E+04</pdfrwt>
<totfact> 0.26809238E+00</totfact>
</mgrwt>
</event>
<event>
12    3  0.2422421E-007  0.3963860E+03  0.7818608E-02  0.1045038E+00
          1   -1    0    0  501    0  0.00000000000E+00  0.00000000000E+00  0.13756598658E+04  0.13756598658E+04  0.00000000000E+00 0. -1.
         -2   -1    0    0    0  501 -0.00000000000E+00 -0.00000000000E+00 -0.52245141105E+03  0.52245141105E+03  0.00000000000E+00 0.  1.
        -24    2    1    2    0    0  0.26947864201E+03 -0.45999345848E+02  0.11433167827E+04  0.11777237465E+04  0.71591054236E+02 0.  0.
    5000000    2    1    2    0    0 -0.26947864201E+03  0.45999345848E+02 -0.29010832795E+03  0.72038753039E+03  0.60005055926E+03 0.  0.
        -24    2    4    4    0    0  0.38483457681E+02 -0.13648072735E+03  0.95195927302E+02  0.18845101351E+03  0.79646434099E+02 0.  0.
         24    2    4    4    0    0 -0.30796209969E+03  0.18248007320E+03 -0.38530425526E+03  0.53193651687E+03  0.79733662304E+02 0.  0.
         11    1    5    5    0    0  0.52323494600E+01 -0.11739865018E+03  0.46275525844E+02  0.12629823766E+03  0.00000000000E+00 0. -1.
        -12    1    5    5    0    0  0.33251108221E+02 -0.19082077179E+02  0.48920401458E+02  0.62152775853E+02  0.00000000000E+00 0.  1.
         11    1    3    3    0    0  0.75811544090E+02  0.37302833693E+01  0.21183027525E+03  0.22501860089E+03  0.00000000000E+00 0. -1.
        -12    1    3    3    0    0  0.19366709792E+03 -0.49729629218E+02  0.93148650747E+03  0.95270514560E+03  0.00000000000E+00 0.  1.
          4    1    6    6  502    0 -0.15154812251E+03  0.62476729577E+02 -0.12906383236E+03  0.20863280662E+03  0.00000000000E+00 0. -1.
         -3    1    6    6    0  502 -0.15641397718E+03  0.12000334363E+03 -0.25624042289E+03  0.32330371025E+03  0.00000000000E+00 0.  1.
<mgrwt>
<rscale>  0 0.39638604E+03</rscale>
<asrwt>0</asrwt>
<pdfrwt beam="1">  1        1 0.21163998E+00 0.39638604E+03</pdfrwt>
<pdfrwt beam="2">  1       -2 0.80377141E-01 0.39638604E+03</pdfrwt>
<totfact> 0.10525810E+01</totfact>
</mgrwt>
</event>
<event>
12    3  0.2422421E-007  0.1141977E+04  0.7818608E-02  0.9165217E-01
          1   -1    0    0  501    0  0.00000000000E+00  0.00000000000E+00  0.13151667906E+04  0.13151667906E+04  0.00000000000E+00 0. -1.
         -2   -1    0    0    0  501 -0.00000000000E+00 -0.00000000000E+00 -0.12076002580E+04  0.12076002580E+04  0.00000000000E+00 0.  1.
        -24    2    1    2    0    0 -0.71780268534E+03 -0.82049784549E+03  0.52198467010E+03  0.12111870044E+04  0.77772451387E+02 0.  0.
    5000000    2    1    2    0    0  0.71780268534E+03  0.82049784549E+03 -0.41441813753E+03  0.13115800443E+04  0.60003534090E+03 0.  0.
        -24    2    4    4    0    0  0.31559089674E+02 -0.36184949140E+02  0.61722229208E+02  0.11243894856E+03  0.80793297299E+02 0.  0.
         24    2    4    4    0    0  0.68624359566E+03  0.85668279463E+03 -0.47614036674E+03  0.11991410957E+04  0.79962712788E+02 0.  0.
         13    1    3    3    0    0 -0.34076292276E+02 -0.67766117694E+02  0.30679344242E+02  0.81820917654E+02  0.00000000000E+00 0. -1.
        -14    1    3    3    0    0 -0.68372639306E+03 -0.75273172780E+03  0.49130532586E+03  0.11293660867E+04  0.00000000000E+00 0.  1.
         13    1    5    5    0    0  0.49122822149E+02 -0.48630507279E+02  0.58733784605E+02  0.90706313717E+02  0.00000000000E+00 0. -1.
        -14    1    5    5    0    0 -0.17563732475E+02  0.12445558140E+02  0.29884446029E+01  0.21732634838E+02  0.00000000000E+00 0.  1.
          2    1    6    6  502    0  0.15405335730E+03  0.24871274460E+03 -0.12475156826E+03  0.31804625450E+03  0.00000000000E+00 0. -1.
         -1    1    6    6    0  502  0.53219023837E+03  0.60797005003E+03 -0.35138879848E+03  0.88109484123E+03  0.00000000000E+00 0.  1.
<mgrwt>
<rscale>  0 0.11419767E+04</rscale>
<asrwt>0</asrwt>
<pdfrwt beam="1">  1        1 0.20233335E+00 0.11419767E+04</pdfrwt>
<pdfrwt beam="2">  1       -2 0.18578466E+00 0.11419767E+04</pdfrwt>
<totfact> 0.12554996E+00</totfact>
</mgrwt>
</event>
<event>
12    3  0.2422421E-007  0.4365122E+03  0.7818608E-02  0.1031822E+00
         -2   -1    0    0    0  501 -0.00000000000E+00  0.00000000000E+00  0.34993992773E+03  0.34993992773E+03  0.00000000000E+00 0.  1.
          1   -1    0    0  501    0  0.00000000000E+00 -0.00000000000E+00 -0.12192455205E+04  0.12192455205E+04  0.00000000000E+00 0. -1.
        -24    2    1    2    0    0  0.60912418360E+02 -0.41075726966E+03  0.14058815490E+02  0.42360348830E+03  0.82525194440E+02 0.  0.
    5000000    2    1    2    0    0 -0.60912418360E+02  0.41075726966E+03 -0.88336440826E+03  0.11455819599E+04  0.59966114750E+03 0.  0.
        -24    2    4    4    0    0 -0.13405407690E+02  0.79170457654E+02 -0.77713268248E+03  0.78514666840E+03  0.77925723615E+02 0.  0.
         24    2    4    4    0    0 -0.47507010669E+02  0.33158681201E+03 -0.10623172578E+03  0.36043529152E+03  0.80135446881E+02 0.  0.
         13    1    5    5    0    0  0.10747711732E+02  0.85079161559E+02 -0.54808132961E+03  0.55474960198E+03  0.00000000000E+00 0. -1.
        -14    1    5    5    0    0 -0.24153119422E+02 -0.59087039050E+01 -0.22905135288E+03  0.23039706642E+03  0.00000000000E+00 0.  1.
         13    1    3    3    0    0  0.19189485261E+01 -0.27853281000E+03  0.63924637386E+01  0.27861276389E+03  0.00000000000E+00 0. -1.
        -14    1    3    3    0    0  0.58993469834E+02 -0.13222445966E+03  0.76663517510E+01  0.14499072441E+03  0.00000000000E+00 0.  1.
          2    1    6    6  502    0 -0.79706769431E+00  0.18963996974E+03 -0.90640163547E+02  0.21018942097E+03  0.00000000000E+00 0. -1.
         -1    1    6    6    0  502 -0.46709942975E+02  0.14194684227E+03 -0.15591562229E+02  0.15024587055E+03  0.00000000000E+00 0.  1.
<mgrwt>
<rscale>  0 0.43651217E+03</rscale>
<asrwt>0</asrwt>
<pdfrwt beam="1">  1        1 0.18757623E+00 0.43651217E+03</pdfrwt>
<pdfrwt beam="2">  1       -2 0.53836912E-01 0.43651217E+03</pdfrwt>
<totfact> 0.31558849E+01</totfact>
</mgrwt>
</event>
<event>
12    3  0.2422421E-007  0.5106728E+03  0.7818608E-02  0.1011030E+00
         -2   -1    0    0    0  501 -0.00000000000E+00  0.00000000000E+00  0.92880531941E+02  0.92880531941E+02  0.00000000000E+00 0.  1.
          1   -1    0    0  501    0  0.00000000000E+00 -0.00000000000E+00 -0.42346830912E+04  0.42346830912E+04  0.00000000000E+00 0. -1.
        -24    2    1    2    0    0  0.32296016093E+03  0.35445333930E+03 -0.16326677182E+04  0.17034861599E+04  0.79503355733E+02 0.  0.
    5000000    2    1    2    0    0 -0.32296016093E+03 -0.35445333930E+03 -0.25091348411E+04  0.26240774633E+04  0.60007036861E+03 0.  0.
        -24    2    4    4    0    0  0.60103064406E+01 -0.79890277476E+02 -0.45533298583E+02  0.12210645686E+03  0.80113203088E+02 0.  0.
         24    2    4    4    0    0 -0.32897046737E+03 -0.27456306182E+03 -0.24636015425E+04  0.25019710065E+04  0.83186017069E+02 0.  0.
         11    1    5    5    0    0 -0.10219422706E+02  0.13026679241E+02  0.16515082495E+01  0.16639064036E+02  0.00000000000E+00 0. -1.
        -12    1    5    5    0    0  0.16229729147E+02 -0.92916956717E+02 -0.47184806832E+02  0.10546739283E+03  0.00000000000E+00 0.  1.
         13    1    3    3    0    0  0.16765143652E+03  0.21649143878E+03 -0.81154392777E+03  0.85649231983E+03  0.00000000000E+00 0. -1.
        -14    1    3    3    0    0  0.15530872441E+03  0.13796190052E+03 -0.82112379042E+03  0.84699384004E+03  0.00000000000E+00 0.  1.
          2    1    6    6  502    0 -0.13430549261E+03 -0.12430234107E+03 -0.12870608434E+04  0.13000056354E+04  0.00000000000E+00 0. -1.
         -1    1    6    6    0  502 -0.19466497476E+03 -0.15026072075E+03 -0.11765406991E+04  0.12019653711E+04  0.00000000000E+00 0.  1.
<mgrwt>
<rscale>  0 0.51067275E+03</rscale>
<asrwt>0</asrwt>
<pdfrwt beam="1">  1        1 0.65148956E+00 0.51067275E+03</pdfrwt>
<pdfrwt beam="2">  1       -2 0.14289316E-01 0.51067275E+03</pdfrwt>
<totfact> 0.23136174E+00</totfact>
</mgrwt>
</event>
<event>
12    3  0.2422421E-007  0.5297680E+03  0.7818608E-02  0.1006288E+00
         -2   -1    0    0    0  501 -0.00000000000E+00  0.00000000000E+00  0.94358056267E+02  0.94358056267E+02  0.00000000000E+00 0.  1.
          1   -1    0    0  501    0  0.00000000000E+00 -0.00000000000E+00 -0.32199111977E+04  0.32199111977E+04  0.00000000000E+00 0. -1.
        -24    2    1    2    0    0 -0.12213512601E+03 -0.36237390159E+03 -0.11499966445E+04  0.12144856916E+04  0.79065663796E+02 0.  0.
    5000000    2    1    2    0    0  0.12213512601E+03  0.36237390159E+03 -0.19755564969E+04  0.20997835623E+04  0.60002975146E+03 0.  0.
        -24    2    4    4    0    0 -0.16830740461E+03 -0.41170133647E+02 -0.34379257037E+03  0.39207218642E+03  0.74195050868E+02 0.  0.
         24    2    4    4    0    0  0.29044253062E+03  0.40354403523E+03 -0.16317639265E+04  0.17077113759E+04  0.80124774755E+02 0.  0.
         11    1    5    5    0    0 -0.11119473260E+03 -0.21842019440E+02 -0.28968038381E+03  0.31105637292E+03  0.00000000000E+00 0. -1.
        -12    1    5    5    0    0 -0.57112672009E+02 -0.19328114207E+02 -0.54112186563E+02  0.81015813502E+02  0.00000000000E+00 0.  1.
         11    1    3    3    0    0 -0.28677411067E+01 -0.96142824861E+01 -0.98307432874E+02  0.98818063759E+02  0.00000000000E+00 0. -1.
        -12    1    3    3    0    0 -0.11926738490E+03 -0.35275961910E+03 -0.10516892116E+04  0.11156676278E+04  0.00000000000E+00 0.  1.
          2    1    6    6  502    0  0.66149747497E+01  0.48572713514E+02 -0.16915366646E+03  0.17611368279E+03  0.00000000000E+00 0. -1.
         -1    1    6    6    0  502  0.28382755587E+03  0.35497132172E+03 -0.14626102601E+04  0.15315976931E+04  0.00000000000E+00 0.  1.
<mgrwt>
<rscale>  0 0.52976805E+03</rscale>
<asrwt>0</asrwt>
<pdfrwt beam="1">  1        1 0.49537086E+00 0.52976805E+03</pdfrwt>
<pdfrwt beam="2">  1       -2 0.14516627E-01 0.52976805E+03</pdfrwt>
<totfact> 0.14853373E+01</totfact>
</mgrwt>
</event>
<event>
12    3  0.2422421E-007  0.4668408E+03  0.7818608E-02  0.1022816E+00
          1   -1    0    0  501    0  0.00000000000E+00  0.00000000000E+00  0.11501723744E+04  0.11501723744E+04  0.00000000000E+00 0. -1.
         -2   -1    0    0    0  501 -0.00000000000E+00 -0.00000000000E+00 -0.30640883564E+03  0.30640883564E+03  0.00000000000E+00 0.  1.
        -24    2    1    2    0    0 -0.33870996808E+03 -0.25557534568E+03  0.44814315612E+03  0.62200409374E+03  0.77547433554E+02 0.  0.
    5000000    2    1    2    0    0  0.33870996808E+03  0.25557534568E+03  0.39562038262E+03  0.83457711629E+03  0.59996689583E+03 0.  0.
        -24    2    4    4    0    0  0.51335823464E+02  0.19857980707E+03 -0.10875822782E+03  0.24704465746E+03  0.84459482073E+02 0.  0.
         24    2    4    4    0    0  0.28737414462E+03  0.56995538606E+02  0.50437861044E+03  0.58753245883E+03  0.70457200458E+02 0.  0.
         11    1    3    3    0    0 -0.28810468267E+03 -0.19190713018E+03  0.32771987644E+03  0.47668959733E+03  0.00000000000E+00 0. -1.
        -12    1    3    3    0    0 -0.50605285410E+02 -0.63668215497E+02  0.12042327968E+03  0.14531449640E+03  0.00000000000E+00 0.  1.
         13    1    5    5    0    0  0.18148913319E+02  0.79282553161E+02 -0.90835481344E+02  0.12192699029E+03  0.00000000000E+00 0. -1.
        -14    1    5    5    0    0  0.33186910145E+02  0.11929725391E+03 -0.17922746474E+02  0.12511766717E+03  0.00000000000E+00 0.  1.
          4    1    6    6  502    0  0.21366633138E+03  0.72633214759E+02  0.38927365180E+03  0.44995873260E+03  0.00000000000E+00 0. -1.
         -3    1    6    6    0  502  0.73707813234E+02 -0.15637676153E+02  0.11510495864E+03  0.13757372624E+03  0.00000000000E+00 0.  1.
<mgrwt>
<rscale>  0 0.46684082E+03</rscale>
<asrwt>0</asrwt>
<pdfrwt beam="1">  1        1 0.17694959E+00 0.46684082E+03</pdfrwt>
<pdfrwt beam="2">  1       -2 0.47139821E-01 0.46684082E+03</pdfrwt>
<totfact> 0.46035407E+01</totfact>
</mgrwt>
</event>
<event>
12    3  0.2422421E-007  0.1438418E+04  0.7818608E-02  0.8926469E-01
         -2   -1    0    0    0  501 -0.00000000000E+00  0.00000000000E+00  0.76111440455E+03  0.76111440455E+03  0.00000000000E+00 0.  1.
          1   -1    0    0  501    0  0.00000000000E+00 -0.00000000000E+00 -0.33824247892E+04  0.33824247892E+04  0.00000000000E+00 0. -1.
        -24    2    1    2    0    0  0.43259475346E+02  0.14325646383E+04 -0.51230429159E+03  0.15240016056E+04  0.77539548469E+02 0.  0.
    5000000    2    1    2    0    0 -0.43259475346E+02 -0.14325646383E+04 -0.21090060931E+04  0.26195375882E+04  0.59996470728E+03 0.  0.
        -24    2    4    4    0    0  0.52980612244E+02 -0.23607777259E+03 -0.81028927386E+03  0.84922512809E+03  0.77941971109E+02 0.  0.
         24    2    4    4    0    0 -0.96240087591E+02 -0.11964868657E+04 -0.12987168192E+04  0.17703124601E+04  0.80609276526E+02 0.  0.
         11    1    5    5    0    0  0.42879620845E+02 -0.17461179466E+03 -0.69831914123E+03  0.72109469817E+03  0.00000000000E+00 0. -1.
        -12    1    5    5    0    0  0.10100991399E+02 -0.61465977935E+02 -0.11197013263E+03  0.12813042992E+03  0.00000000000E+00 0.  1.
         11    1    3    3    0    0 -0.91394140765E+01  0.35509850154E+03 -0.15577243856E+03  0.38787050326E+03  0.00000000000E+00 0. -1.
        -12    1    3    3    0    0  0.52398889423E+02  0.10774661368E+04 -0.35653185303E+03  0.11361311024E+04  0.00000000000E+00 0.  1.
          2    1    6    6  502    0 -0.25345231283E+02 -0.51571289403E+03 -0.50503931458E+03  0.72226510305E+03  0.00000000000E+00 0. -1.
         -1    1    6    6    0  502 -0.70894856308E+02 -0.68077397170E+03 -0.79367750467E+03  0.10480473570E+04  0.00000000000E+00 0.  1.
<mgrwt>
<rscale>  0 0.14384183E+04</rscale>
<asrwt>0</asrwt>
<pdfrwt beam="1">  1        1 0.52037305E+00 0.14384183E+04</pdfrwt>
<pdfrwt beam="2">  1       -2 0.11709452E+00 0.14384183E+04</pdfrwt>
<totfact> 0.14736269E-01</totfact>
</mgrwt>
</event>
<event>
12    3  0.2422421E-007  0.1165787E+04  0.7818608E-02  0.9143342E-01
         -2   -1    0    0    0  501 -0.00000000000E+00  0.00000000000E+00  0.94472789355E+03  0.94472789355E+03  0.00000000000E+00 0.  1.
          1   -1    0    0  501    0  0.00000000000E+00 -0.00000000000E+00 -0.16000196156E+04  0.16000196156E+04  0.00000000000E+00 0. -1.
        -24    2    1    2    0    0  0.68852393329E+03 -0.89302541150E+03 -0.56650641867E+03  0.12643500290E+04  0.78050503473E+02 0.  0.
    5000000    2    1    2    0    0 -0.68852393329E+03  0.89302541150E+03 -0.88785303423E+02  0.12803974802E+04  0.59997940376E+03 0.  0.
        -24    2    4    4    0    0  0.35541467750E+02  0.84300409215E+02 -0.14507500429E+03  0.19047124119E+03  0.82841909243E+02 0.  0.
         24    2    4    4    0    0 -0.72406540104E+03  0.80872500229E+03  0.56289700868E+02  0.10899262390E+04  0.80398021033E+02 0.  0.
         11    1    5    5    0    0  0.57111100288E+02  0.56138871753E+02 -0.12827611536E+03  0.15122173279E+03  0.00000000000E+00 0. -1.
        -12    1    5    5    0    0 -0.21569632538E+02  0.28161537462E+02 -0.16798888934E+02  0.39249508398E+02  0.00000000000E+00 0.  1.
         13    1    3    3    0    0  0.23343176494E+03 -0.29330684490E+03 -0.22938255543E+03  0.43947201377E+03  0.00000000000E+00 0. -1.
        -14    1    3    3    0    0  0.45509216835E+03 -0.59971856660E+03 -0.33712386324E+03  0.82487801521E+03  0.00000000000E+00 0.  1.
          4    1    6    6  502    0 -0.65858972682E+03  0.76570722258E+03  0.47480016625E+02  0.10110896750E+04  0.00000000000E+00 0. -1.
         -3    1    6    6    0  502 -0.65475674217E+02  0.43017779707E+02  0.88096842432E+01  0.78836563989E+02  0.00000000000E+00 0.  1.
<mgrwt>
<rscale>  0 0.11657869E+04</rscale>
<asrwt>0</asrwt>
<pdfrwt beam="1">  1        1 0.24615686E+00 0.11657869E+04</pdfrwt>
<pdfrwt beam="2">  1       -2 0.14534275E+00 0.11657869E+04</pdfrwt>
<totfact> 0.15618878E+00</totfact>
</mgrwt>
</event>
<event>
12    3  0.2422421E-007  0.6969840E+03  0.7818608E-02  0.9722404E-01
         -2   -1    0    0    0  501 -0.00000000000E+00  0.00000000000E+00  0.23133365811E+03  0.23133365811E+03  0.00000000000E+00 0.  1.
          1   -1    0    0  501    0  0.00000000000E+00 -0.00000000000E+00 -0.22239039630E+04  0.22239039630E+04  0.00000000000E+00 0. -1.
        -24    2    1    2    0    0 -0.12089599209E+03  0.57340163214E+03 -0.92060349738E+03  0.10941319303E+04  0.78794725717E+02 0.  0.
    5000000    2    1    2    0    0  0.12089599209E+03 -0.57340163214E+03 -0.10719668075E+04  0.13611056908E+04  0.60007548905E+03 0.  0.
        -24    2    4    4    0    0  0.14525658363E+03  0.62099898147E+02 -0.37187738006E+03  0.41198167283E+03  0.80499941033E+02 0.  0.
         24    2    4    4    0    0 -0.24360591532E+02 -0.63550153029E+03 -0.70008942743E+03  0.94912401799E+03  0.79092109017E+02 0.  0.
         11    1    3    3    0    0 -0.29324975580E+02  0.41701120940E+02 -0.64715263337E+02  0.82383268867E+02  0.00000000000E+00 0. -1.
        -12    1    3    3    0    0 -0.91571016514E+02  0.53170051120E+03 -0.85588823405E+03  0.10117486614E+04  0.00000000000E+00 0.  1.
         13    1    5    5    0    0  0.73788571650E+02  0.59455913593E+02 -0.13791578158E+03  0.16733356440E+03  0.00000000000E+00 0. -1.
        -14    1    5    5    0    0  0.71468011976E+02  0.26439845546E+01 -0.23396159849E+03  0.24464810843E+03  0.00000000000E+00 0.  1.
          4    1    6    6  502    0 -0.31364770119E+01 -0.50148895849E+03 -0.50697495774E+03  0.71310912261E+03  0.00000000000E+00 0. -1.
         -3    1    6    6    0  502 -0.21224114520E+02 -0.13401257180E+03 -0.19311446969E+03  0.23601489538E+03  0.00000000000E+00 0.  1.
<mgrwt>
<rscale>  0 0.69698404E+03</rscale>
<asrwt>0</asrwt>
<pdfrwt beam="1">  1        1 0.34213906E+00 0.69698404E+03</pdfrwt>
<pdfrwt beam="2">  1       -2 0.35589795E-01 0.69698404E+03</pdfrwt>
<totfact> 0.14378673E+01</totfact>
</mgrwt>
</event>
<event>
12    3  0.2422421E-007  0.5777475E+03  0.7818608E-02  0.9952680E-01
          1   -1    0    0  501    0  0.00000000000E+00  0.00000000000E+00  0.11029097405E+04  0.11029097405E+04  0.00000000000E+00 0. -1.
         -2   -1    0    0    0  501 -0.00000000000E+00 -0.00000000000E+00 -0.13507687563E+04  0.13507687563E+04  0.00000000000E+00 0.  1.
        -24    2    1    2    0    0  0.42103754413E+02  0.44323695965E+03 -0.11772205828E+04  0.12611726171E+04  0.80475717484E+02 0.  0.
    5000000    2    1    2    0    0 -0.42103754413E+02 -0.44323695965E+03  0.92936156697E+03  0.11925058796E+04  0.60010467607E+03 0.  0.
        -24    2    4    4    0    0  0.13548221165E+03  0.56814954649E+02  0.75178815864E+02  0.18369876854E+03  0.80684660643E+02 0.  0.
         24    2    4    4    0    0 -0.17758596606E+03 -0.50005191430E+03  0.85418275111E+03  0.10088071111E+04  0.80466904682E+02 0.  0.
         11    1    3    3    0    0  0.54596148413E+02  0.18124522760E+03 -0.45529980489E+03  0.49308060627E+03  0.00000000000E+00 0. -1.
        -12    1    3    3    0    0 -0.12492394000E+02  0.26199173205E+03 -0.72192077793E+03  0.76809201088E+03  0.00000000000E+00 0.  1.
         13    1    5    5    0    0  0.53690037376E+02 -0.17747046788E+02  0.31377303934E+02  0.64669258426E+02  0.00000000000E+00 0. -1.
        -14    1    5    5    0    0  0.81792174272E+02  0.74562001437E+02  0.43801511929E+02  0.11902951011E+03  0.00000000000E+00 0.  1.
          4    1    6    6  502    0 -0.10674324806E+03 -0.40066663915E+03  0.66391327797E+03  0.78275712542E+03  0.00000000000E+00 0. -1.
         -3    1    6    6    0  502 -0.70842717998E+02 -0.99385275151E+02  0.19026947314E+03  0.22604998566E+03  0.00000000000E+00 0.  1.
<mgrwt>
<rscale>  0 0.57774748E+03</rscale>
<asrwt>0</asrwt>
<pdfrwt beam="1">  1        1 0.16967842E+00 0.57774748E+03</pdfrwt>
<pdfrwt beam="2">  1       -2 0.20781058E+00 0.57774748E+03</pdfrwt>
<totfact> 0.14005578E+00</totfact>
</mgrwt>
</event>
<event>
12    3  0.2422421E-007  0.8329520E+03  0.7818608E-02  0.9513508E-01
         -2   -1    0    0    0  501 -0.00000000000E+00  0.00000000000E+00  0.54005111468E+03  0.54005111468E+03  0.00000000000E+00 0.  1.
          1   -1    0    0  501    0  0.00000000000E+00 -0.00000000000E+00 -0.13885208188E+04  0.13885208188E+04  0.00000000000E+00 0. -1.
        -24    2    1    2    0    0  0.47940977933E+03 -0.57992827722E+03 -0.25798360061E+03  0.79949954333E+03  0.80581873665E+02 0.  0.
    5000000    2    1    2    0    0 -0.47940977933E+03  0.57992827722E+03 -0.59048610348E+03  0.11290723901E+04  0.59998340019E+03 0.  0.
        -24    2    4    4    0    0 -0.56769892683E+03  0.37106875710E+03 -0.28520195508E+03  0.74029878141E+03  0.82024609417E+02 0.  0.
         24    2    4    4    0    0  0.88289147507E+02  0.20885952011E+03 -0.30528414840E+03  0.38877360871E+03  0.80803680942E+02 0.  0.
         13    1    5    5    0    0 -0.28572517005E+02  0.26854834304E+02 -0.37843843339E+02  0.54495204671E+02  0.00000000000E+00 0. -1.
        -14    1    5    5    0    0 -0.53912640983E+03  0.34421392280E+03 -0.24735811174E+03  0.68580357674E+03  0.00000000000E+00 0.  1.
         13    1    3    3    0    0  0.22939626132E+03 -0.21519412312E+03 -0.10827978933E+03  0.33264946732E+03  0.00000000000E+00 0. -1.
        -14    1    3    3    0    0  0.25001351800E+03 -0.36473415410E+03 -0.14970381128E+03  0.46685007600E+03  0.00000000000E+00 0.  1.
          2    1    6    6  502    0 -0.35961390302E+01  0.19703960448E+02 -0.71831145654E+02  0.74571387001E+02  0.00000000000E+00 0. -1.
         -1    1    6    6    0  502  0.91885286537E+02  0.18915555967E+03 -0.23345300275E+03  0.31420222171E+03  0.00000000000E+00 0.  1.
<mgrwt>
<rscale>  0 0.83295200E+03</rscale>
<asrwt>0</asrwt>
<pdfrwt beam="1">  1        1 0.21361859E+00 0.83295200E+03</pdfrwt>
<pdfrwt beam="2">  1       -2 0.83084787E-01 0.83295200E+03</pdfrwt>
<totfact> 0.88856922E+00</totfact>
</mgrwt>
</event>
<event>
12    3  0.2422421E-007  0.4960318E+03  0.7818608E-02  0.1014820E+00
         -2   -1    0    0    0  501 -0.00000000000E+00  0.00000000000E+00  0.24585602545E+03  0.24585602545E+03  0.00000000000E+00 0.  1.
          1   -1    0    0  501    0  0.00000000000E+00 -0.00000000000E+00 -0.12952299722E+04  0.12952299722E+04  0.00000000000E+00 0. -1.
        -24    2    1    2    0    0  0.51984793419E+02 -0.30867188289E+03 -0.39704682805E+02  0.32558552558E+03  0.80303938856E+02 0.  0.
    5000000    2    1    2    0    0 -0.51984793419E+02  0.30867188289E+03 -0.10096692639E+04  0.12155004720E+04  0.60002385370E+03 0.  0.
        -24    2    4    4    0    0 -0.27046819220E+03 -0.11256307366E+02 -0.38351015285E+03  0.47547721793E+03  0.75622747790E+02 0.  0.
         24    2    4    4    0    0  0.21848339878E+03  0.31992819025E+03 -0.62615911105E+03  0.74002325410E+03  0.73960406938E+02 0.  0.
         11    1    3    3    0    0  0.64266657175E+02 -0.14414917653E+03 -0.11856321762E+02  0.15827116188E+03  0.00000000000E+00 0. -1.
        -12    1    3    3    0    0 -0.12281863755E+02 -0.16452270636E+03 -0.27848361043E+02  0.16731436370E+03  0.00000000000E+00 0.  1.
         13    1    5    5    0    0 -0.22566314898E+03 -0.28506821158E+02 -0.27540013161E+03  0.35718584540E+03  0.00000000000E+00 0. -1.
        -14    1    5    5    0    0 -0.44805043227E+02  0.17250513791E+02 -0.10811002123E+03  0.11829137253E+03  0.00000000000E+00 0.  1.
          4    1    6    6  502    0  0.16796131964E+02  0.15018294395E+01 -0.19243724993E+02  0.25586842170E+02  0.00000000000E+00 0. -1.
         -3    1    6    6    0  502  0.20168726682E+03  0.31842636081E+03 -0.60691538606E+03  0.71443641193E+03  0.00000000000E+00 0.  1.
<mgrwt>
<rscale>  0 0.49603185E+03</rscale>
<asrwt>0</asrwt>
<pdfrwt beam="1">  1        1 0.19926615E+00 0.49603185E+03</pdfrwt>
<pdfrwt beam="2">  1       -2 0.37824004E-01 0.49603185E+03</pdfrwt>
<totfact> 0.55615421E+01</totfact>
</mgrwt>
</event>
<event>
12    3  0.2422421E-007  0.1131244E+04  0.7818608E-02  0.9175264E-01
         -2   -1    0    0    0  501 -0.00000000000E+00  0.00000000000E+00  0.90975702122E+03  0.90975702122E+03  0.00000000000E+00 0.  1.
          1   -1    0    0  501    0  0.00000000000E+00 -0.00000000000E+00 -0.18192915922E+04  0.18192915922E+04  0.00000000000E+00 0. -1.
        -24    2    1    2    0    0  0.75376600062E+03 -0.74258588203E+03 -0.10643000599E+04  0.15028881960E+04  0.79632506862E+02 0.  0.
    5000000    2    1    2    0    0 -0.75376600062E+03  0.74258588203E+03  0.15476548890E+03  0.12261604175E+04  0.59993336045E+03 0.  0.
        -24    2    4    4    0    0 -0.75857509914E+03  0.40072741809E+03  0.63561348295E+02  0.86396073123E+03  0.79808868308E+02 0.  0.
         24    2    4    4    0    0  0.48090985263E+01  0.34185846394E+03  0.91204140607E+02  0.36219968626E+03  0.77330981272E+02 0.  0.
         13    1    5    5    0    0 -0.28506715506E+03  0.17444777004E+03 -0.80163051397E+01  0.33430460439E+03  0.00000000000E+00 0. -1.
        -14    1    5    5    0    0 -0.47350794408E+03  0.22627964806E+03  0.71577653435E+02  0.52965612685E+03  0.00000000000E+00 0.  1.
         13    1    3    3    0    0  0.29628182411E+03 -0.29970866100E+03 -0.36982048228E+03  0.56069188499E+03  0.00000000000E+00 0. -1.
        -14    1    3    3    0    0  0.45748417651E+03 -0.44287722103E+03 -0.69447957765E+03  0.94219631099E+03  0.00000000000E+00 0.  1.
          2    1    6    6  502    0  0.26236830682E+02  0.22269962014E+03  0.29069178446E+02  0.22611614102E+03  0.00000000000E+00 0. -1.
         -1    1    6    6    0  502 -0.21427732156E+02  0.11915884380E+03  0.62134962162E+02  0.13608354524E+03  0.00000000000E+00 0.  1.
<mgrwt>
<rscale>  0 0.11312435E+04</rscale>
<asrwt>0</asrwt>
<pdfrwt beam="1">  1        1 0.27989101E+00 0.11312435E+04</pdfrwt>
<pdfrwt beam="2">  1       -2 0.13996262E+00 0.11312435E+04</pdfrwt>
<totfact> 0.12278473E+00</totfact>
</mgrwt>
</event>
<event>
12    3  0.2422421E-007  0.1287075E+03  0.7818608E-02  0.1229386E+00
         -2   -1    0    0    0  501 -0.00000000000E+00  0.00000000000E+00  0.19279550152E+03  0.19279550152E+03  0.00000000000E+00 0.  1.
          1   -1    0    0  501    0  0.00000000000E+00 -0.00000000000E+00 -0.70323152448E+03  0.70323152448E+03  0.00000000000E+00 0. -1.
        -24    2    1    2    0    0  0.27260532795E+02 -0.74311976272E+02 -0.15768994948E+03  0.19553472981E+03  0.84275167930E+02 0.  0.
    5000000    2    1    2    0    0 -0.27260532795E+02  0.74311976272E+02 -0.35274607347E+03  0.70049229618E+03  0.59999521514E+03 0.  0.
        -24    2    4    4    0    0  0.33654998728E+02  0.40805594597E+02 -0.50584155787E+03  0.51469219005E+03  0.78959567747E+02 0.  0.
         24    2    4    4    0    0 -0.60915531523E+02  0.33506381676E+02  0.15309548440E+03  0.18580010613E+03  0.79057400033E+02 0.  0.
         11    1    3    3    0    0  0.10704428540E+02 -0.38223257295E+02 -0.14990791524E+03  0.15507412821E+03  0.00000000000E+00 0. -1.
        -12    1    3    3    0    0  0.16556104255E+02 -0.36088718977E+02 -0.77820342487E+01  0.40460601609E+02  0.00000000000E+00 0.  1.
         13    1    5    5    0    0  0.48245435532E+02  0.89243958505E+01 -0.40433565874E+03  0.40730159810E+03  0.00000000000E+00 0. -1.
        -14    1    5    5    0    0 -0.14590436804E+02  0.31881198746E+02 -0.10150589914E+03  0.10739059195E+03  0.00000000000E+00 0.  1.
          4    1    6    6  502    0 -0.27905558296E+02  0.49794648255E+02  0.13093029037E+03  0.14283195761E+03  0.00000000000E+00 0. -1.
         -3    1    6    6    0  502 -0.33009973226E+02 -0.16288266579E+02  0.22165194029E+02  0.42968148516E+02  0.00000000000E+00 0.  1.
<mgrwt>
<rscale>  0 0.12870746E+03</rscale>
<asrwt>0</asrwt>
<pdfrwt beam="1">  1        1 0.10818946E+00 0.12870746E+03</pdfrwt>
<pdfrwt beam="2">  1       -2 0.29660847E-01 0.12870746E+03</pdfrwt>
<totfact> 0.26377472E+02</totfact>
</mgrwt>
</event>
<event>
12    3  0.2422421E-007  0.8751134E+03  0.7818608E-02  0.9457237E-01
         -2   -1    0    0    0  501 -0.00000000000E+00  0.00000000000E+00  0.20152644749E+04  0.20152644749E+04  0.00000000000E+00 0.  1.
          1   -1    0    0  501    0  0.00000000000E+00 -0.00000000000E+00 -0.50166383688E+03  0.50166383688E+03  0.00000000000E+00 0. -1.
        -24    2    1    2    0    0 -0.81451730483E+03 -0.13500042630E+03  0.11819027265E+04  0.14434013724E+04  0.69641307894E+02 0.  0.
    5000000    2    1    2    0    0  0.81451730483E+03  0.13500042630E+03  0.33169791146E+03  0.10735269394E+04  0.60064384638E+03 0.  0.
        -24    2    4    4    0    0  0.54069228183E+03 -0.10840467500E+03  0.40804024972E+03  0.69081477944E+03  0.81415581465E+02 0.  0.
         24    2    4    4    0    0  0.27382502300E+03  0.24340510130E+03 -0.76342338262E+02  0.38271215997E+03  0.80089064280E+02 0.  0.
         11    1    3    3    0    0 -0.56451025858E+03 -0.96218427813E+02  0.76235878461E+03  0.95347822962E+03  0.00000000000E+00 0. -1.
        -12    1    3    3    0    0 -0.25000704625E+03 -0.38781998491E+02  0.41954394193E+03  0.48992314274E+03  0.00000000000E+00 0.  1.
         11    1    5    5    0    0  0.27951292346E+03 -0.97470453346E+02  0.21753008554E+03  0.36735174122E+03  0.00000000000E+00 0. -1.
        -12    1    5    5    0    0  0.26117935837E+03 -0.10934221651E+02  0.19051016418E+03  0.32346303823E+03  0.00000000000E+00 0.  1.
          2    1    6    6  502    0  0.32022337225E+02  0.18844158209E+02 -0.33353165739E+02  0.49929610901E+02  0.00000000000E+00 0. -1.
         -1    1    6    6    0  502  0.24180268577E+03  0.22456094309E+03 -0.42989172523E+02  0.33278254907E+03  0.00000000000E+00 0.  1.
<mgrwt>
<rscale>  0 0.87511339E+03</rscale>
<asrwt>0</asrwt>
<pdfrwt beam="1">  1        1 0.77179053E-01 0.87511339E+03</pdfrwt>
<pdfrwt beam="2">  1       -2 0.31004069E+00 0.87511339E+03</pdfrwt>
<totfact> 0.10961407E+00</totfact>
</mgrwt>
</event>
<event>
12    3  0.2422421E-007  0.6632697E+03  0.7818608E-02  0.9782193E-01
          1   -1    0    0  501    0  0.00000000000E+00  0.00000000000E+00  0.18727636183E+04  0.18727636183E+04  0.00000000000E+00 0. -1.
         -2   -1    0    0    0  501 -0.00000000000E+00 -0.00000000000E+00 -0.34765602317E+03  0.34765602317E+03  0.00000000000E+00 0.  1.
        -24    2    1    2    0    0 -0.51143373517E+03 -0.39692831412E+03  0.99794854407E+03  0.11922473745E+04  0.80224393864E+02 0.  0.
    5000000    2    1    2    0    0  0.51143373517E+03  0.39692831412E+03  0.52715905106E+03  0.10281722670E+04  0.60010415216E+03 0.  0.
        -24    2    4    4    0    0  0.74749251975E+02  0.13024091471E+03 -0.11190384966E+03  0.20618886243E+03  0.86262557836E+02 0.  0.
         24    2    4    4    0    0  0.43668448319E+03  0.26668739940E+03  0.63906290072E+03  0.82198340454E+03  0.73755131377E+02 0.  0.
         13    1    5    5    0    0  0.53734453836E+02  0.12853319138E+03 -0.62925712605E+02  0.15286535946E+03  0.00000000000E+00 0. -1.
        -14    1    5    5    0    0  0.21014798139E+02  0.17077233353E+01 -0.48978137054E+02  0.53323502971E+02  0.00000000000E+00 0.  1.
         13    1    3    3    0    0 -0.41827959905E+03 -0.35830302845E+03  0.82220799014E+03  0.98962864865E+03  0.00000000000E+00 0. -1.
        -14    1    3    3    0    0 -0.93154136114E+02 -0.38625285663E+02  0.17574055393E+03  0.20261872584E+03  0.00000000000E+00 0.  1.
          4    1    6    6  502    0  0.18143583875E+03  0.79939780851E+02  0.28570430183E+03  0.34775893983E+03  0.00000000000E+00 0. -1.
         -3    1    6    6    0  502  0.25524864444E+03  0.18674761855E+03  0.35335859889E+03  0.47422446472E+03  0.00000000000E+00 0.  1.
<mgrwt>
<rscale>  0 0.66326970E+03</rscale>
<asrwt>0</asrwt>
<pdfrwt beam="1">  1        1 0.28811747E+00 0.66326970E+03</pdfrwt>
<pdfrwt beam="2">  1       -2 0.53485543E-01 0.66326970E+03</pdfrwt>
<totfact> 0.11068346E+01</totfact>
</mgrwt>
</event>
<event>
12    3  0.2422421E-007  0.5398202E+03  0.7818608E-02  0.1003878E+00
         -2   -1    0    0    0  501 -0.00000000000E+00  0.00000000000E+00  0.45965288524E+03  0.45965288524E+03  0.00000000000E+00 0.  1.
          1   -1    0    0  501    0  0.00000000000E+00 -0.00000000000E+00 -0.35194686958E+04  0.35194686958E+04  0.00000000000E+00 0. -1.
        -24    2    1    2    0    0  0.29975265133E+02  0.41975311206E+03  0.31150357892E+03  0.52906433988E+03  0.76048697846E+02 0.  0.
    5000000    2    1    2    0    0 -0.29975265133E+02 -0.41975311206E+03 -0.33713193895E+04  0.34500572411E+04  0.60000779148E+03 0.  0.
        -24    2    4    4    0    0 -0.14252201359E+03  0.58874292008E+02 -0.16194791043E+04  0.16287566397E+04  0.79730267850E+02 0.  0.
         24    2    4    4    0    0  0.11254674846E+03 -0.47862740407E+03 -0.17518402852E+04  0.18213006014E+04  0.80252934335E+02 0.  0.
         11    1    5    5    0    0 -0.12634822715E+03  0.71417728103E+02 -0.11944981265E+04  0.12032830675E+04  0.00000000000E+00 0. -1.
        -12    1    5    5    0    0 -0.16173786447E+02 -0.12543436095E+02 -0.42498097780E+03  0.42547357221E+03  0.00000000000E+00 0.  1.
         13    1    3    3    0    0  0.30789166719E+01  0.22311326334E+02  0.43395445372E+02  0.48892122982E+02  0.00000000000E+00 0. -1.
        -14    1    3    3    0    0  0.26896348461E+02  0.39744178573E+03  0.26810813355E+03  0.48017221690E+03  0.00000000000E+00 0.  1.
          2    1    6    6  502    0  0.52872231680E+02 -0.14722477956E+03 -0.44184111588E+03  0.46871545770E+03  0.00000000000E+00 0. -1.
         -1    1    6    6    0  502  0.59674516780E+02 -0.33140262451E+03 -0.13099991693E+04  0.13525851437E+04  0.00000000000E+00 0.  1.
<mgrwt>
<rscale>  0 0.53982017E+03</rscale>
<asrwt>0</asrwt>
<pdfrwt beam="1">  1        1 0.54145673E+00 0.53982017E+03</pdfrwt>
<pdfrwt beam="2">  1       -2 0.70715828E-01 0.53982017E+03</pdfrwt>
<totfact> 0.44524742E-01</totfact>
</mgrwt>
</event>
<event>
12    3  0.2422421E-007  0.3725980E+03  0.7818608E-02  0.1053704E+00
         -2   -1    0    0    0  501 -0.00000000000E+00  0.00000000000E+00  0.12433409117E+03  0.12433409117E+03  0.00000000000E+00 0.  1.
          1   -1    0    0  501    0  0.00000000000E+00 -0.00000000000E+00 -0.18127291593E+04  0.18127291593E+04  0.00000000000E+00 0. -1.
        -24    2    1    2    0    0 -0.30034707861E+02 -0.13467704890E+03 -0.22342295759E+02  0.16086593815E+03  0.79615831963E+02 0.  0.
    5000000    2    1    2    0    0  0.30034707861E+02  0.13467704890E+03 -0.16660527724E+04  0.17761973123E+04  0.60008754427E+03 0.  0.
        -24    2    4    4    0    0 -0.73181718432E+02  0.34006511462E+03 -0.79566440485E+03  0.87219885517E+03  0.81542330842E+02 0.  0.
         24    2    4    4    0    0  0.10321642629E+03 -0.20538806572E+03 -0.87038836751E+03  0.90399845714E+03  0.82458547266E+02 0.  0.
         11    1    5    5    0    0 -0.41199151756E+02  0.88732352767E+02 -0.15542103159E+03  0.18364775412E+03  0.00000000000E+00 0. -1.
        -12    1    5    5    0    0 -0.31982566676E+02  0.25133276185E+03 -0.64024337326E+03  0.68855110105E+03  0.00000000000E+00 0.  1.
         13    1    3    3    0    0 -0.43276741907E+02 -0.58962096309E+02 -0.38001582576E+02  0.82422845556E+02  0.00000000000E+00 0. -1.
        -14    1    3    3    0    0  0.13242034046E+02 -0.75714952590E+02  0.15659286817E+02  0.78443092589E+02  0.00000000000E+00 0.  1.
          2    1    6    6  502    0  0.67002066181E+02 -0.47796076703E+02 -0.31134580281E+03  0.32204029367E+03  0.00000000000E+00 0. -1.
         -1    1    6    6    0  502  0.36214360112E+02 -0.15759198902E+03 -0.55904256470E+03  0.58195816347E+03  0.00000000000E+00 0.  1.
<mgrwt>
<rscale>  0 0.37259801E+03</rscale>
<asrwt>0</asrwt>
<pdfrwt beam="1">  1        1 0.27888143E+00 0.37259801E+03</pdfrwt>
<pdfrwt beam="2">  1       -2 0.19128320E-01 0.37259801E+03</pdfrwt>
<totfact> 0.87574798E+01</totfact>
</mgrwt>
</event>
<event>
12    3  0.2422421E-007  0.1065914E+04  0.7818608E-02  0.9239066E-01
          1   -1    0    0  501    0  0.00000000000E+00  0.00000000000E+00  0.84029056508E+03  0.84029056508E+03  0.00000000000E+00 0. -1.
         -2   -1    0    0    0  501 -0.00000000000E+00 -0.00000000000E+00 -0.15461300214E+04  0.15461300214E+04  0.00000000000E+00 0.  1.
        -24    2    1    2    0    0  0.38403547008E+03  0.98624081587E+03 -0.28287961129E+03  0.10983916113E+04  0.79303644921E+02 0.  0.
    5000000    2    1    2    0    0 -0.38403547008E+03 -0.98624081587E+03 -0.42295984504E+03  0.12880289752E+04  0.59997451720E+03 0.  0.
        -24    2    4    4    0    0 -0.22751119930E+03 -0.43277140448E+03  0.10077105280E+03  0.50572222900E+03  0.80918066455E+02 0.  0.
         24    2    4    4    0    0 -0.15652427077E+03 -0.55346941139E+03 -0.52373089784E+03  0.78230674621E+03  0.82955139208E+02 0.  0.
         11    1    3    3    0    0  0.32597001588E+03  0.90075576183E+03 -0.25921974848E+03  0.99237708141E+03  0.00000000000E+00 0. -1.
        -12    1    3    3    0    0  0.58065454194E+02  0.85485054042E+02 -0.23659862808E+02  0.10601452987E+03  0.00000000000E+00 0.  1.
         11    1    5    5    0    0 -0.13760474621E+03 -0.18542161739E+03  0.27529717942E+02  0.23253844359E+03  0.00000000000E+00 0. -1.
        -12    1    5    5    0    0 -0.89906453087E+02 -0.24734978709E+03  0.73241334858E+02  0.27318378541E+03  0.00000000000E+00 0.  1.
          2    1    6    6  502    0 -0.14155228326E+03 -0.44475745875E+03 -0.38248305992E+03  0.60343975436E+03  0.00000000000E+00 0. -1.
         -1    1    6    6    0  502 -0.14971987519E+02 -0.10871195264E+03 -0.14124783792E+03  0.17886699185E+03  0.00000000000E+00 0.  1.
<mgrwt>
<rscale>  0 0.10659140E+04</rscale>
<asrwt>0</asrwt>
<pdfrwt beam="1">  1        1 0.12927547E+00 0.10659140E+04</pdfrwt>
<pdfrwt beam="2">  1       -2 0.23786616E+00 0.10659140E+04</pdfrwt>
<totfact> 0.13555601E+00</totfact>
</mgrwt>
</event>
<event>
12    3  0.2450449E-007  0.8375286E+03  0.7818608E-02  0.9507230E-01
         -2   -1    0    0    0  501 -0.00000000000E+00  0.00000000000E+00  0.34963108653E+03  0.34963108653E+03  0.00000000000E+00 0.  1.
          1   -1    0    0  501    0  0.00000000000E+00 -0.00000000000E+00 -0.22240974859E+04  0.22240974859E+04  0.00000000000E+00 0. -1.
        -24    2    1    2    0    0 -0.19298779031E+03 -0.75216728749E+03 -0.77661797023E+03  0.11012076020E+04  0.80763824482E+02 0.  0.
    5000000    2    1    2    0    0  0.19298779031E+03  0.75216728749E+03 -0.10978484291E+04  0.14725209704E+04  0.60003909834E+03 0.  0.
        -24    2    4    4    0    0 -0.12259434551E+03  0.12234220174E+03 -0.43619453026E+02  0.20200580193E+03  0.94375311677E+02 0.  0.
         24    2    4    4    0    0  0.31558213582E+03  0.62982508575E+03 -0.10542289761E+04  0.12705151685E+04  0.80859979766E+02 0.  0.
         11    1    5    5    0    0 -0.87059081246E+02  0.32731192682E+02  0.67254180405E+01  0.93251519289E+02  0.00000000000E+00 0. -1.
        -12    1    5    5    0    0 -0.35535264265E+02  0.89611009056E+02 -0.50344871066E+02  0.10875428264E+03  0.00000000000E+00 0.  1.
         11    1    3    3    0    0 -0.11629001002E+03 -0.46617001893E+03 -0.42435051996E+03  0.64102356960E+03  0.00000000000E+00 0. -1.
        -12    1    3    3    0    0 -0.76697780292E+02 -0.28599726855E+03 -0.35226745027E+03  0.46018403236E+03  0.00000000000E+00 0.  1.
          4    1    6    6  502    0  0.28542260720E+03  0.49927443633E+03 -0.85588207579E+03  0.10311523433E+04  0.00000000000E+00 0. -1.
         -3    1    6    6    0  502  0.30159528622E+02  0.13055064942E+03 -0.19834690029E+03  0.23936282519E+03  0.00000000000E+00 0.  1.
<mgrwt>
<rscale>  0 0.83752857E+03</rscale>
<asrwt>0</asrwt>
<pdfrwt beam="1">  1        1 0.34216883E+00 0.83752857E+03</pdfrwt>
<pdfrwt beam="2">  1       -2 0.53789400E-01 0.83752857E+03</pdfrwt>
<totfact> 0.61994553E+00</totfact>
</mgrwt>
</event>
<event>
12    3  0.2422421E-007  0.7368830E+03  0.7818608E-02  0.9656157E-01
          1   -1    0    0  501    0  0.00000000000E+00  0.00000000000E+00  0.28457066354E+04  0.28457066354E+04  0.00000000000E+00 0. -1.
         -2   -1    0    0    0  501 -0.00000000000E+00 -0.00000000000E+00 -0.20519847401E+03  0.20519847401E+03  0.00000000000E+00 0.  1.
        -24    2    1    2    0    0 -0.61732459458E+03 -0.15958689873E+02  0.75780800078E+03  0.98071156444E+03  0.78599438447E+02 0.  0.
    5000000    2    1    2    0    0  0.61732459458E+03  0.15958689873E+02  0.18827001606E+04  0.20701935450E+04  0.59983087950E+03 0.  0.
        -24    2    4    4    0    0  0.21035884594E+03  0.28931285623E+03  0.80714156368E+03  0.88551878167E+03  0.68653011755E+02 0.  0.
         24    2    4    4    0    0  0.40696574864E+03 -0.27335416636E+03  0.10755585969E+04  0.11846747633E+04  0.79274072254E+02 0.  0.
         11    1    5    5    0    0  0.14090237897E+03  0.16315079712E+03  0.41274679597E+03  0.46565178039E+03  0.00000000000E+00 0. -1.
        -12    1    5    5    0    0  0.69456466975E+02  0.12616205911E+03  0.39439476771E+03  0.41986700128E+03  0.00000000000E+00 0.  1.
         11    1    3    3    0    0 -0.45907690061E+01  0.39004812377E+00 -0.15264282525E+01  0.48535843267E+01  0.00000000000E+00 0. -1.
        -12    1    3    3    0    0 -0.61273382557E+03 -0.16348737997E+02  0.75933442903E+03  0.97585798011E+03  0.00000000000E+00 0.  1.
          4    1    6    6  502    0  0.27712388996E+03 -0.13995354649E+03  0.67294093866E+03  0.74110333455E+03  0.00000000000E+00 0. -1.
         -3    1    6    6    0  502  0.12984185867E+03 -0.13340061987E+03  0.40261765827E+03  0.44357142874E+03  0.00000000000E+00 0.  1.
<mgrwt>
<rscale>  0 0.73688299E+03</rscale>
<asrwt>0</asrwt>
<pdfrwt beam="1">  1        1 0.43780099E+00 0.73688299E+03</pdfrwt>
<pdfrwt beam="2">  1       -2 0.31568998E-01 0.73688299E+03</pdfrwt>
<totfact> 0.67189034E+00</totfact>
</mgrwt>
</event>
<event>
12    3  0.2422421E-007  0.6475546E+03  0.7818608E-02  0.9811379E-01
         -4   -1    0    0    0  501 -0.00000000000E+00  0.00000000000E+00  0.63572417825E+03  0.63572417825E+03  0.00000000000E+00 0.  1.
          1   -1    0    0  501    0  0.00000000000E+00 -0.00000000000E+00 -0.87912522748E+03  0.87912522748E+03  0.00000000000E+00 0. -1.
        -24    2    1    2    0    0  0.43774222701E+03 -0.28033203149E+03  0.24736190036E+03  0.58117180916E+03  0.79802611613E+02 0.  0.
    5000000    2    1    2    0    0 -0.43774222701E+03  0.28033203149E+03 -0.49076294959E+03  0.93367759657E+03  0.60058411272E+03 0.  0.
        -24    2    4    4    0    0  0.62784483885E+02 -0.10720607030E+03 -0.39681101694E+02  0.15232868904E+03  0.78704553535E+02 0.  0.
         24    2    4    4    0    0 -0.50052671089E+03  0.38753810179E+03 -0.45108184790E+03  0.78134890753E+03  0.79489075570E+02 0.  0.
         11    1    5    5    0    0  0.74399451280E+01 -0.76034494496E+02  0.18800509347E+01  0.76420754565E+02  0.00000000000E+00 0. -1.
        -12    1    5    5    0    0  0.55344538757E+02 -0.31171575802E+02 -0.41561152629E+02  0.75907934473E+02  0.00000000000E+00 0.  1.
         11    1    3    3    0    0  0.20578404813E+03 -0.10758959656E+03  0.14799754150E+03  0.27536497243E+03  0.00000000000E+00 0. -1.
        -12    1    3    3    0    0  0.23195817887E+03 -0.17274243494E+03  0.99364358867E+02  0.30580683673E+03  0.00000000000E+00 0.  1.
          4    1    6    6  502    0 -0.17210496908E+03  0.11500557792E+03 -0.10622667033E+03  0.23265964159E+03  0.00000000000E+00 0. -1.
         -1    1    6    6    0  502 -0.32842174182E+03  0.27253252387E+03 -0.34485517757E+03  0.54868926594E+03  0.00000000000E+00 0.  1.
<mgrwt>
<rscale>  0 0.64755457E+03</rscale>
<asrwt>0</asrwt>
<pdfrwt beam="1">  1        1 0.13525003E+00 0.64755457E+03</pdfrwt>
<pdfrwt beam="2">  1       -4 0.97803721E-01 0.64755457E+03</pdfrwt>
<totfact> 0.80485964E+00</totfact>
</mgrwt>
</event>
<event>
12    3  0.2422421E-007  0.5075303E+03  0.7818608E-02  0.1011832E+00
          1   -1    0    0  501    0  0.00000000000E+00  0.00000000000E+00  0.27128611931E+04  0.27128611931E+04  0.00000000000E+00 0. -1.
         -2   -1    0    0    0  501 -0.00000000000E+00 -0.00000000000E+00 -0.12077351990E+03  0.12077351990E+03  0.00000000000E+00 0.  1.
        -24    2    1    2    0    0  0.28248207680E+03  0.23355201903E+03  0.49149560686E+03  0.61851495465E+03  0.81548441193E+02 0.  0.
    5000000    2    1    2    0    0 -0.28248207680E+03 -0.23355201903E+03  0.21005920663E+04  0.22151197583E+04  0.59993820126E+03 0.  0.
        -24    2    4    4    0    0 -0.31258984478E+03  0.71341224926E+02  0.15028522073E+04  0.15386287551E+04  0.77535201190E+02 0.  0.
         24    2    4    4    0    0  0.30107767974E+02 -0.30489324396E+03  0.59773985900E+03  0.67649100326E+03  0.80503233202E+02 0.  0.
         13    1    5    5    0    0 -0.12201701075E+03 -0.68477483679E+01  0.63634796143E+03  0.64797667442E+03  0.00000000000E+00 0. -1.
        -14    1    5    5    0    0 -0.19057283403E+03  0.78188973294E+02  0.86650424589E+03  0.89065208065E+03  0.00000000000E+00 0.  1.
         13    1    3    3    0    0  0.97254923800E+02  0.46851257410E+02  0.18918895399E+03  0.21782107528E+03  0.00000000000E+00 0. -1.
        -14    1    3    3    0    0  0.18522715300E+03  0.18670076162E+03  0.30230665287E+03  0.40069387938E+03  0.00000000000E+00 0.  1.
          4    1    6    6  502    0 -0.26270635154E+02 -0.10319833743E+03  0.22557480361E+03  0.24944745969E+03  0.00000000000E+00 0. -1.
         -3    1    6    6    0  502  0.56378403129E+02 -0.20169490653E+03  0.37216505539E+03  0.42704354357E+03  0.00000000000E+00 0.  1.
<mgrwt>
<rscale>  0 0.50753026E+03</rscale>
<asrwt>0</asrwt>
<pdfrwt beam="1">  1        1 0.41736321E+00 0.50753026E+03</pdfrwt>
<pdfrwt beam="2">  1       -2 0.18580544E-01 0.50753026E+03</pdfrwt>
<totfact> 0.22467352E+01</totfact>
</mgrwt>
</event>
<event>
12    3  0.2422421E-007  0.6290487E+03  0.7818608E-02  0.9846907E-01
         -2   -1    0    0    0  501 -0.00000000000E+00  0.00000000000E+00  0.72922357996E+03  0.72922357996E+03  0.00000000000E+00 0.  1.
          1   -1    0    0  501    0  0.00000000000E+00 -0.00000000000E+00 -0.56916919190E+03  0.56916919190E+03  0.00000000000E+00 0. -1.
        -24    2    1    2    0    0 -0.49047365421E+03  0.50755882847E+00  0.16403586751E+03  0.52342144499E+03  0.80607568855E+02 0.  0.
    5000000    2    1    2    0    0  0.49047365421E+03 -0.50755882847E+00 -0.39814794584E+01  0.77497132687E+03  0.60000003516E+03 0.  0.
        -24    2    4    4    0    0  0.23321802585E+03  0.28899744756E+03  0.88161418091E+00  0.38001063300E+03  0.80604786904E+02 0.  0.
         24    2    4    4    0    0  0.25725562836E+03 -0.28950500639E+03 -0.48630936393E+01  0.39496069386E+03  0.77309074288E+02 0.  0.
         13    1    3    3    0    0 -0.21756062928E+03 -0.15863937081E+02  0.34374774891E+02  0.22083006376E+03  0.00000000000E+00 0. -1.
        -14    1    3    3    0    0 -0.27291302493E+03  0.16371495910E+02  0.12966109262E+03  0.30259138123E+03  0.00000000000E+00 0.  1.
         13    1    5    5    0    0  0.16916268474E+03  0.24735670576E+03  0.22781152334E+02  0.30053341694E+03  0.00000000000E+00 0. -1.
        -14    1    5    5    0    0  0.64055341107E+02  0.41640741805E+02 -0.21899538153E+02  0.79477216067E+02  0.00000000000E+00 0.  1.
          4    1    6    6  502    0  0.40011649424E+02 -0.76001013702E+02 -0.25699985447E+02  0.89652526040E+02  0.00000000000E+00 0. -1.
         -3    1    6    6    0  502  0.21724397894E+03 -0.21350399269E+03  0.20836891808E+02  0.30530816782E+03  0.00000000000E+00 0.  1.
<mgrwt>
<rscale>  0 0.62904869E+03</rscale>
<asrwt>0</asrwt>
<pdfrwt beam="1">  1        1 0.87564491E-01 0.62904869E+03</pdfrwt>
<pdfrwt beam="2">  1       -2 0.11218824E+00 0.62904869E+03</pdfrwt>
<totfact> 0.20874579E+01</totfact>
</mgrwt>
</event>
<event>
12    3  0.2422421E-007  0.8905888E+03  0.7818608E-02  0.9437423E-01
          1   -1    0    0  501    0  0.00000000000E+00  0.00000000000E+00  0.72592217648E+03  0.72592217648E+03  0.00000000000E+00 0. -1.
         -2   -1    0    0    0  501 -0.00000000000E+00 -0.00000000000E+00 -0.13912740082E+04  0.13912740082E+04  0.00000000000E+00 0.  1.
        -24    2    1    2    0    0 -0.54277314583E+03 -0.58222697297E+03 -0.77568460298E+03  0.11143073967E+04  0.80021466635E+02 0.  0.
    5000000    2    1    2    0    0  0.54277314583E+03  0.58222697297E+03  0.11033277130E+03  0.10028887880E+04  0.60001805363E+03 0.  0.
        -24    2    4    4    0    0  0.21471132482E+03 -0.84744505595E+02  0.71197207481E+02  0.25441704580E+03  0.79852405117E+02 0.  0.
         24    2    4    4    0    0  0.32806182100E+03  0.66697147857E+03  0.39135563816E+02  0.74847174215E+03  0.78758141324E+02 0.  0.
         11    1    3    3    0    0 -0.34398466022E+03 -0.42312679239E+03 -0.53566514419E+03  0.76439445027E+03  0.00000000000E+00 0. -1.
        -12    1    3    3    0    0 -0.19878848561E+03 -0.15910018058E+03 -0.24001945878E+03  0.34991294641E+03  0.00000000000E+00 0.  1.
         13    1    5    5    0    0  0.11596409551E+03 -0.20962210531E+02  0.69577720420E+02  0.13685081255E+03  0.00000000000E+00 0. -1.
        -14    1    5    5    0    0  0.98747229317E+02 -0.63782295064E+02  0.16194870613E+01  0.11756623325E+03  0.00000000000E+00 0.  1.
          2    1    6    6  502    0  0.13007262082E+03  0.33442932459E+03  0.43245453598E+02  0.36143053148E+03  0.00000000000E+00 0. -1.
         -1    1    6    6    0  502  0.19798920019E+03  0.33254215398E+03 -0.41098897823E+01  0.38704121067E+03  0.00000000000E+00 0.  1.
<mgrwt>
<rscale>  0 0.89058882E+03</rscale>
<asrwt>0</asrwt>
<pdfrwt beam="1">  1        1 0.11168033E+00 0.89058882E+03</pdfrwt>
<pdfrwt beam="2">  1       -2 0.21404216E+00 0.89058882E+03</pdfrwt>
<totfact> 0.24615053E+00</totfact>
</mgrwt>
</event>
<event>
12    3  0.2422421E-007  0.6758913E+03  0.7818608E-02  0.9759373E-01
         -2   -1    0    0    0  501 -0.00000000000E+00  0.00000000000E+00  0.46244452233E+03  0.46244452233E+03  0.00000000000E+00 0.  1.
          1   -1    0    0  501    0  0.00000000000E+00 -0.00000000000E+00 -0.10144357813E+04  0.10144357813E+04  0.00000000000E+00 0. -1.
        -24    2    1    2    0    0  0.24029642280E+03  0.49389669327E+03 -0.25761363422E+03  0.61185931977E+03  0.79565873453E+02 0.  0.
    5000000    2    1    2    0    0 -0.24029642280E+03 -0.49389669327E+03 -0.29437762479E+03  0.86502098389E+03  0.59993899870E+03 0.  0.
        -24    2    4    4    0    0 -0.16402325352E+03  0.93646091887E+02 -0.13612444540E+03  0.24711291776E+03  0.82835446931E+02 0.  0.
         24    2    4    4    0    0 -0.76273169281E+02 -0.58754278516E+03 -0.15825317939E+03  0.61790806613E+03  0.75777230482E+02 0.  0.
         11    1    3    3    0    0  0.15130150100E+03  0.22683689992E+03 -0.11014511816E+03  0.29407323990E+03  0.00000000000E+00 0. -1.
        -12    1    3    3    0    0  0.88994921802E+02  0.26705979335E+03 -0.14746851606E+03  0.31778607987E+03  0.00000000000E+00 0.  1.
         13    1    5    5    0    0 -0.10517674502E+03  0.16445059733E+02 -0.51161250168E+02  0.11811037720E+03  0.00000000000E+00 0. -1.
        -14    1    5    5    0    0 -0.58846508499E+02  0.77201032154E+02 -0.84963195231E+02  0.12900254056E+03  0.00000000000E+00 0.  1.
          4    1    6    6  502    0 -0.29261798301E+02 -0.97427848166E+02 -0.34664284507E+01  0.10178631816E+03  0.00000000000E+00 0. -1.
         -3    1    6    6    0  502 -0.47011370980E+02 -0.49011493699E+03 -0.15478675094E+03  0.51612174797E+03  0.00000000000E+00 0.  1.
<mgrwt>
<rscale>  0 0.67589126E+03</rscale>
<asrwt>0</asrwt>
<pdfrwt beam="1">  1        1 0.15606704E+00 0.67589126E+03</pdfrwt>
<pdfrwt beam="2">  1       -2 0.71145313E-01 0.67589126E+03</pdfrwt>
<totfact> 0.23922203E+01</totfact>
</mgrwt>
</event>
<event>
12    3  0.2422421E-007  0.6368677E+03  0.7818608E-02  0.9831738E-01
         -2   -1    0    0    0  501 -0.00000000000E+00  0.00000000000E+00  0.45575522138E+03  0.45575522138E+03  0.00000000000E+00 0.  1.
          1   -1    0    0  501    0  0.00000000000E+00 -0.00000000000E+00 -0.19442256610E+04  0.19442256610E+04  0.00000000000E+00 0. -1.
        -24    2    1    2    0    0  0.19463518874E+03  0.48100457851E+03  0.17798604462E+03  0.55437250791E+03  0.80009900655E+02 0.  0.
    5000000    2    1    2    0    0 -0.19463518874E+03 -0.48100457851E+03 -0.16664564842E+04  0.18456083745E+04  0.59995399558E+03 0.  0.
        -24    2    4    4    0    0 -0.32827735791E+03 -0.97205441659E+02 -0.53167117471E+03  0.63741163118E+03  0.80027669915E+02 0.  0.
         24    2    4    4    0    0  0.13364216917E+03 -0.38379913685E+03 -0.11347853095E+04  0.12081967433E+04  0.82702266762E+02 0.  0.
         11    1    3    3    0    0  0.87059878655E+02  0.23975801435E+03  0.12856789764E+03  0.28564494083E+03  0.00000000000E+00 0. -1.
        -12    1    3    3    0    0  0.10757531008E+03  0.24124656416E+03  0.49418146976E+02  0.26872756708E+03  0.00000000000E+00 0.  1.
         13    1    5    5    0    0 -0.25684004272E+03 -0.95479425688E+02 -0.46472623618E+03  0.53949383950E+03  0.00000000000E+00 0. -1.
        -14    1    5    5    0    0 -0.71437315188E+02 -0.17260159706E+01 -0.66944938532E+02  0.97917791680E+02  0.00000000000E+00 0.  1.
          4    1    6    6  502    0  0.42065699831E+02 -0.19133355107E+03 -0.64373822533E+03  0.67288702887E+03  0.00000000000E+00 0. -1.
         -3    1    6    6    0  502  0.91576469338E+02 -0.19246558578E+03 -0.49104708421E+03  0.53530971442E+03  0.00000000000E+00 0.  1.
<mgrwt>
<rscale>  0 0.63686772E+03</rscale>
<asrwt>0</asrwt>
<pdfrwt beam="1">  1        1 0.29911164E+00 0.63686772E+03</pdfrwt>
<pdfrwt beam="2">  1       -2 0.70116187E-01 0.63686772E+03</pdfrwt>
<totfact> 0.56169825E+00</totfact>
</mgrwt>
</event>
<event>
12    3  0.2422421E-007  0.5544482E+03  0.7818608E-02  0.1000470E+00
         -2   -1    0    0    0  501 -0.00000000000E+00  0.00000000000E+00  0.15838108214E+03  0.15838108214E+03  0.00000000000E+00 0.  1.
          1   -1    0    0  501    0  0.00000000000E+00 -0.00000000000E+00 -0.21504022188E+04  0.21504022188E+04  0.00000000000E+00 0. -1.
        -24    2    1    2    0    0 -0.39946798480E+03 -0.36715516921E+02 -0.10128267408E+04  0.10922862349E+04  0.79677550894E+02 0.  0.
    5000000    2    1    2    0    0  0.39946798480E+03  0.36715516921E+02 -0.97919439586E+03  0.12164970660E+04  0.60010061375E+03 0.  0.
        -24    2    4    4    0    0 -0.13790267851E+03 -0.29565688579E+02 -0.32533331206E+03  0.36363238698E+03  0.80594480248E+02 0.  0.
         24    2    4    4    0    0  0.53737066331E+03  0.66281205500E+02 -0.65386108380E+03  0.85286467901E+03  0.81752160892E+02 0.  0.
         11    1    3    3    0    0 -0.33482897748E+03 -0.53765742754E+02 -0.79161684929E+03  0.86119593319E+03  0.00000000000E+00 0. -1.
        -12    1    3    3    0    0 -0.64639007325E+02  0.17050225834E+02 -0.22120989148E+03  0.23109030174E+03  0.00000000000E+00 0.  1.
         13    1    5    5    0    0 -0.85277614840E+02  0.19277428455E+02 -0.14219919111E+03  0.16692663296E+03  0.00000000000E+00 0. -1.
        -14    1    5    5    0    0 -0.52625063666E+02 -0.48843117034E+02 -0.18313412095E+03  0.19670575402E+03  0.00000000000E+00 0.  1.
          4    1    6    6  502    0  0.21937643470E+03  0.25976851480E+01 -0.21500028454E+03  0.30717729477E+03  0.00000000000E+00 0. -1.
         -3    1    6    6    0  502  0.31799422860E+03  0.63683520352E+02 -0.43886079926E+03  0.54568738424E+03  0.00000000000E+00 0.  1.
<mgrwt>
<rscale>  0 0.55444819E+03</rscale>
<asrwt>0</asrwt>
<pdfrwt beam="1">  1        1 0.33083108E+00 0.55444819E+03</pdfrwt>
<pdfrwt beam="2">  1       -2 0.24366322E-01 0.55444819E+03</pdfrwt>
<totfact> 0.33164158E+01</totfact>
</mgrwt>
</event>
<event>
12    3  0.2422421E-007  0.3570670E+03  0.7818608E-02  0.1059751E+00
         -2   -1    0    0    0  501 -0.00000000000E+00  0.00000000000E+00  0.20757558913E+03  0.20757558913E+03  0.00000000000E+00 0.  1.
          1   -1    0    0  501    0  0.00000000000E+00 -0.00000000000E+00 -0.13443963227E+04  0.13443963227E+04  0.00000000000E+00 0. -1.
        -24    2    1    2    0    0 -0.34780548287E+03 -0.31543084507E+02 -0.32775216166E+03  0.48598471348E+03  0.82438111149E+02 0.  0.
    5000000    2    1    2    0    0  0.34780548287E+03  0.31543084507E+02 -0.80906857188E+03  0.10659871983E+04  0.59981091425E+03 0.  0.
        -24    2    4    4    0    0  0.62321622378E+02  0.14252390556E+01 -0.75575455384E+03  0.76281935398E+03  0.82718832386E+02 0.  0.
         24    2    4    4    0    0  0.28548386049E+03  0.30117845452E+02 -0.53314018045E+02  0.30316784434E+03  0.81610281836E+02 0.  0.
         11    1    5    5    0    0  0.10101851107E+02 -0.18480304532E+02 -0.43035561020E+02  0.47912718183E+02  0.00000000000E+00 0. -1.
        -12    1    5    5    0    0  0.52219771271E+02  0.19905543588E+02 -0.71271899282E+03  0.71490663579E+03  0.00000000000E+00 0.  1.
         13    1    3    3    0    0 -0.20862800326E+03 -0.25525864173E+02 -0.24939610654E+03  0.32615277316E+03  0.00000000000E+00 0. -1.
        -14    1    3    3    0    0 -0.13917747961E+03 -0.60172203340E+01 -0.78356055121E+02  0.15983194032E+03  0.00000000000E+00 0.  1.
          2    1    6    6  502    0  0.12202292268E+03  0.34280863384E+01  0.16973001599E+02  0.12324539837E+03  0.00000000000E+00 0. -1.
         -1    1    6    6    0  502  0.16346093781E+03  0.26689759113E+02 -0.70287019644E+02  0.17992244597E+03  0.00000000000E+00 0.  1.
<mgrwt>
<rscale>  0 0.35706698E+03</rscale>
<asrwt>0</asrwt>
<pdfrwt beam="1">  1        1 0.20683020E+00 0.35706698E+03</pdfrwt>
<pdfrwt beam="2">  1       -2 0.31934707E-01 0.35706698E+03</pdfrwt>
<totfact> 0.72390101E+01</totfact>
</mgrwt>
</event>
<event>
12    3  0.2422421E-007  0.8097634E+03  0.7818608E-02  0.9545991E-01
          1   -1    0    0  501    0  0.00000000000E+00  0.00000000000E+00  0.12759586533E+04  0.12759586533E+04  0.00000000000E+00 0. -1.
         -2   -1    0    0    0  501 -0.00000000000E+00 -0.00000000000E+00 -0.66292093019E+03  0.66292093019E+03  0.00000000000E+00 0.  1.
        -24    2    1    2    0    0  0.77460469824E+03  0.21253804616E+03  0.10173004845E+03  0.81346368866E+03  0.78672170469E+02 0.  0.
    5000000    2    1    2    0    0 -0.77460469824E+03 -0.21253804616E+03  0.51130767465E+03  0.11254158948E+04  0.59995044675E+03 0.  0.
        -24    2    4    4    0    0 -0.35770415416E+03 -0.14598665886E+03 -0.71770904093E+02  0.40108914160E+03  0.80355898159E+02 0.  0.
         24    2    4    4    0    0 -0.41690054408E+03 -0.66551387298E+02  0.58307857874E+03  0.72432675322E+03  0.80208887498E+02 0.  0.
         11    1    3    3    0    0  0.61020229377E+03  0.16848913187E+03  0.47432159630E+02  0.63481118188E+03  0.00000000000E+00 0. -1.
        -12    1    3    3    0    0  0.16440240448E+03  0.44048914287E+02  0.54297888820E+02  0.17865250678E+03  0.00000000000E+00 0.  1.
         13    1    5    5    0    0 -0.13724500677E+03 -0.31612493024E+02  0.56138634942E+01  0.14095054829E+03  0.00000000000E+00 0. -1.
        -14    1    5    5    0    0 -0.22045914739E+03 -0.11437416584E+03 -0.77384767587E+02  0.26013859331E+03  0.00000000000E+00 0.  1.
          2    1    6    6  502    0 -0.22843009105E+03 -0.38532729093E+01  0.27165152817E+03  0.35495028802E+03  0.00000000000E+00 0. -1.
         -1    1    6    6    0  502 -0.18847045303E+03 -0.62698114389E+02  0.31142705057E+03  0.36937646520E+03  0.00000000000E+00 0.  1.
<mgrwt>
<rscale>  0 0.80976344E+03</rscale>
<asrwt>0</asrwt>
<pdfrwt beam="1">  1        1 0.19630133E+00 0.80976344E+03</pdfrwt>
<pdfrwt beam="2">  1       -2 0.10198784E+00 0.80976344E+03</pdfrwt>
<totfact> 0.66423780E+00</totfact>
</mgrwt>
</event>
<event>
12    3  0.2422421E-007  0.3338931E+03  0.7818608E-02  0.1069427E+00
          1   -1    0    0  501    0  0.00000000000E+00  0.00000000000E+00  0.67280423557E+03  0.67280423557E+03  0.00000000000E+00 0. -1.
         -2   -1    0    0    0  501 -0.00000000000E+00 -0.00000000000E+00 -0.40845409891E+03  0.40845409891E+03  0.00000000000E+00 0.  1.
        -24    2    1    2    0    0  0.23293817001E+03 -0.22472484394E+03 -0.39017350448E+02  0.33565127365E+03  0.79862239770E+02 0.  0.
    5000000    2    1    2    0    0 -0.23293817001E+03  0.22472484394E+03  0.30336748711E+03  0.74560706082E+03  0.59928007674E+03 0.  0.
        -24    2    4    4    0    0 -0.11649416483E+03  0.14277366151E+03  0.47128825697E+03  0.51282775178E+03  0.83213418282E+02 0.  0.
         24    2    4    4    0    0 -0.11644400518E+03  0.81951182426E+02 -0.16792076986E+03  0.23277930904E+03  0.75588485375E+02 0.  0.
         11    1    5    5    0    0 -0.12726602282E+03  0.13037427959E+03  0.39796507560E+03  0.43768743954E+03  0.00000000000E+00 0. -1.
        -12    1    5    5    0    0  0.10771857989E+02  0.12399381924E+02  0.73323181371E+02  0.75140312237E+02  0.00000000000E+00 0.  1.
         13    1    3    3    0    0  0.10863664621E+03 -0.12632167953E+03 -0.57014436045E+02  0.17609580783E+03  0.00000000000E+00 0. -1.
        -14    1    3    3    0    0  0.12430152379E+03 -0.98403164410E+02  0.17997085597E+02  0.15955546582E+03  0.00000000000E+00 0.  1.
          4    1    6    6  502    0 -0.64999997703E+02  0.32535528542E+02 -0.13688479709E+03  0.15498712203E+03  0.00000000000E+00 0. -1.
         -1    1    6    6    0  502 -0.51444007477E+02  0.49415653884E+02 -0.31035972768E+02  0.77792187010E+02  0.00000000000E+00 0.  1.
<mgrwt>
<rscale>  0 0.33389313E+03</rscale>
<asrwt>0</asrwt>
<pdfrwt beam="1">  1        1 0.10350834E+00 0.33389313E+03</pdfrwt>
<pdfrwt beam="2">  1       -2 0.62839092E-01 0.33389313E+03</pdfrwt>
<totfact> 0.63194655E+01</totfact>
</mgrwt>
</event>
<event>
12    3  0.2422421E-007  0.1152799E+04  0.7818608E-02  0.9155205E-01
          1   -1    0    0  501    0  0.00000000000E+00  0.00000000000E+00  0.23603165545E+04  0.23603165545E+04  0.00000000000E+00 0. -1.
         -2   -1    0    0    0  501 -0.00000000000E+00 -0.00000000000E+00 -0.59348278810E+03  0.59348278810E+03  0.00000000000E+00 0.  1.
        -24    2    1    2    0    0 -0.98202448009E+03 -0.50507585254E+03  0.74518021050E+03  0.13342774736E+04  0.74358148220E+02 0.  0.
    5000000    2    1    2    0    0  0.98202448009E+03  0.50507585254E+03  0.10216535559E+04  0.16195218689E+04  0.59966774085E+03 0.  0.
        -24    2    4    4    0    0  0.56327024858E+03  0.32305907107E+02  0.71087818066E+03  0.91086763793E+03  0.77556569875E+02 0.  0.
         24    2    4    4    0    0  0.41875423151E+03  0.47276994544E+03  0.31077537523E+03  0.70865423101E+03  0.82115513539E+02 0.  0.
         11    1    3    3    0    0 -0.24638146158E+03 -0.10566346501E+03  0.15022183543E+03  0.30730309515E+03  0.00000000000E+00 0. -1.
        -12    1    3    3    0    0 -0.73564301851E+03 -0.39941238754E+03  0.59495837507E+03  0.10269743785E+04  0.00000000000E+00 0.  1.
         13    1    5    5    0    0  0.90495614954E+02  0.31420544157E+00  0.16352862754E+03  0.18689881507E+03  0.00000000000E+00 0. -1.
        -14    1    5    5    0    0  0.47277463362E+03  0.31991701665E+02  0.54734955312E+03  0.72396882286E+03  0.00000000000E+00 0.  1.
          4    1    6    6  502    0  0.46207665452E+02  0.94338069439E+02  0.64694583609E+02  0.12337021051E+03  0.00000000000E+00 0. -1.
         -3    1    6    6    0  502  0.37254656606E+03  0.37843187600E+03  0.24608079162E+03  0.58528402050E+03  0.00000000000E+00 0.  1.
<mgrwt>
<rscale>  0 0.11527995E+04</rscale>
<asrwt>0</asrwt>
<pdfrwt beam="1">  1        1 0.36312562E+00 0.11527995E+04</pdfrwt>
<pdfrwt beam="2">  1       -2 0.91305046E-01 0.11527995E+04</pdfrwt>
<totfact> 0.15058108E+00</totfact>
</mgrwt>
</event>
<event>
12    3  0.2422421E-007  0.5652463E+03  0.7818608E-02  0.9980253E-01
         -2   -1    0    0    0  501 -0.00000000000E+00  0.00000000000E+00  0.66989648875E+03  0.66989648875E+03  0.00000000000E+00 0.  1.
          1   -1    0    0  501    0  0.00000000000E+00 -0.00000000000E+00 -0.69330380744E+03  0.69330380744E+03  0.00000000000E+00 0. -1.
        -24    2    1    2    0    0  0.29007926114E+03 -0.40300472719E+03  0.21752076375E+03  0.54792477970E+03  0.79671159608E+02 0.  0.
    5000000    2    1    2    0    0 -0.29007926114E+03  0.40300472719E+03 -0.24092808244E+03  0.81527551649E+03  0.60005752974E+03 0.  0.
        -24    2    4    4    0    0  0.59793026540E+02  0.21306778955E+03 -0.32515529975E+03  0.40102844717E+03  0.78260830042E+02 0.  0.
         24    2    4    4    0    0 -0.34987228768E+03  0.18993693763E+03  0.84227217306E+02  0.41424706931E+03  0.77587062949E+02 0.  0.
         11    1    3    3    0    0  0.20167515840E+03 -0.21314311208E+03  0.12393980902E+03  0.31853403586E+03  0.00000000000E+00 0. -1.
        -12    1    3    3    0    0  0.88404102735E+02 -0.18986161510E+03  0.93580954737E+02  0.22939074384E+03  0.00000000000E+00 0.  1.
         11    1    5    5    0    0  0.22683125040E+02  0.13683158275E+03 -0.13845772883E+03  0.19597946034E+03  0.00000000000E+00 0. -1.
        -12    1    5    5    0    0  0.37109901501E+02  0.76236206800E+02 -0.18669757092E+03  0.20504898684E+03  0.00000000000E+00 0.  1.
          2    1    6    6  502    0 -0.75605134206E+02  0.75830127056E+02  0.69672786779E+01  0.10730744364E+03  0.00000000000E+00 0. -1.
         -1    1    6    6    0  502 -0.27426715347E+03  0.11410681058E+03  0.77259938628E+02  0.30693962568E+03  0.00000000000E+00 0.  1.
<mgrwt>
<rscale>  0 0.56524635E+03</rscale>
<asrwt>0</asrwt>
<pdfrwt beam="1">  1        1 0.10666212E+00 0.56524635E+03</pdfrwt>
<pdfrwt beam="2">  1       -2 0.10306100E+00 0.56524635E+03</pdfrwt>
<totfact> 0.19368095E+01</totfact>
</mgrwt>
</event>
<event>
12    3  0.2422421E-007  0.7584579E+03  0.7818608E-02  0.9622174E-01
          1   -1    0    0  501    0  0.00000000000E+00  0.00000000000E+00  0.97063346237E+03  0.97063346237E+03  0.00000000000E+00 0. -1.
         -2   -1    0    0    0  501 -0.00000000000E+00 -0.00000000000E+00 -0.69905473740E+03  0.69905473740E+03  0.00000000000E+00 0.  1.
        -24    2    1    2    0    0  0.67115031083E+03  0.23205239041E+03  0.17199328201E+03  0.73491965905E+03  0.78956725973E+02 0.  0.
    5000000    2    1    2    0    0 -0.67115031083E+03 -0.23205239041E+03  0.99585442960E+02  0.93476854072E+03  0.59965316029E+03 0.  0.
        -24    2    4    4    0    0 -0.28522073373E+03 -0.27761601571E+03  0.28542750428E+03  0.49663507206E+03  0.82194984494E+02 0.  0.
         24    2    4    4    0    0 -0.38592957710E+03  0.45563625291E+02 -0.18584206132E+03  0.43813346866E+03  0.80037379865E+02 0.  0.
         13    1    3    3    0    0  0.23012355943E+03  0.41190627250E+02  0.48674008184E+02  0.23879421988E+03  0.00000000000E+00 0. -1.
        -14    1    3    3    0    0  0.44102675140E+03  0.19086176316E+03  0.12331927382E+03  0.49612543916E+03  0.00000000000E+00 0.  1.
         13    1    5    5    0    0 -0.74365196637E+02 -0.27510678679E+02  0.55126092373E+02  0.96570730413E+02  0.00000000000E+00 0. -1.
        -14    1    5    5    0    0 -0.21085553709E+03 -0.25010533703E+03  0.23030141190E+03  0.40006434165E+03  0.00000000000E+00 0.  1.
          4    1    6    6  502    0 -0.30933550662E+03  0.67239989275E+02 -0.13862983209E+03  0.34558342286E+03  0.00000000000E+00 0. -1.
         -3    1    6    6    0  502 -0.76594070480E+02 -0.21676363983E+02 -0.47212229227E+02  0.92550045796E+02  0.00000000000E+00 0.  1.
<mgrwt>
<rscale>  0 0.75845785E+03</rscale>
<asrwt>0</asrwt>
<pdfrwt beam="1">  1        1 0.14932822E+00 0.75845785E+03</pdfrwt>
<pdfrwt beam="2">  1       -2 0.10754688E+00 0.75845785E+03</pdfrwt>
<totfact> 0.99279091E+00</totfact>
</mgrwt>
</event>
<event>
12    3  0.2422421E-007  0.3288108E+03  0.7818608E-02  0.1071664E+00
          1   -1    0    0  501    0  0.00000000000E+00  0.00000000000E+00  0.30540575944E+04  0.30540575944E+04  0.00000000000E+00 0. -1.
         -2   -1    0    0    0  501 -0.00000000000E+00 -0.00000000000E+00 -0.85784002201E+02  0.85784002201E+02  0.00000000000E+00 0.  1.
        -24    2    1    2    0    0  0.11911432098E+03 -0.22821873249E+03  0.35258509777E+03  0.44386292137E+03  0.80162525377E+02 0.  0.
    5000000    2    1    2    0    0 -0.11911432098E+03  0.22821873249E+03  0.26156884945E+04  0.26959786753E+04  0.60016889796E+03 0.  0.
        -24    2    4    4    0    0 -0.13960070706E+03  0.28634396616E+03  0.65321849430E+03  0.73089781399E+03  0.77691626516E+02 0.  0.
         24    2    4    4    0    0  0.20486386077E+02 -0.58125233669E+02  0.19624700002E+04  0.19650808613E+04  0.80349579940E+02 0.  0.
         11    1    5    5    0    0 -0.30042538431E+02  0.92295519536E+02  0.27845725136E+03  0.29488889073E+03  0.00000000000E+00 0. -1.
        -12    1    5    5    0    0 -0.10955816863E+03  0.19404844663E+03  0.37476124294E+03  0.43600892326E+03  0.00000000000E+00 0.  1.
         13    1    3    3    0    0  0.12286880686E+02 -0.63658720387E+02  0.14169638852E+03  0.15582447381E+03  0.00000000000E+00 0. -1.
        -14    1    3    3    0    0  0.10682744030E+03 -0.16456001211E+03  0.21088870925E+03  0.28803844756E+03  0.00000000000E+00 0.  1.
          4    1    6    6  502    0  0.30341742198E+02 -0.17795595682E+02  0.15750514658E+04  0.15754441991E+04  0.00000000000E+00 0. -1.
         -3    1    6    6    0  502 -0.98553561206E+01 -0.40329637987E+02  0.38741853436E+03  0.38963666218E+03  0.00000000000E+00 0.  1.
<mgrwt>
<rscale>  0 0.32881079E+03</rscale>
<asrwt>0</asrwt>
<pdfrwt beam="1">  1        1 0.46985493E+00 0.32881079E+03</pdfrwt>
<pdfrwt beam="2">  1       -2 0.13197541E-01 0.32881079E+03</pdfrwt>
<totfact> 0.24216813E+01</totfact>
</mgrwt>
</event>
<event>
12    3  0.2422421E-007  0.4940780E+03  0.7818608E-02  0.1015336E+00
         -2   -1    0    0    0  501 -0.00000000000E+00  0.00000000000E+00  0.71066263557E+03  0.71066263557E+03  0.00000000000E+00 0.  1.
          1   -1    0    0  501    0  0.00000000000E+00 -0.00000000000E+00 -0.49618196385E+03  0.49618196385E+03  0.00000000000E+00 0. -1.
        -24    2    1    2    0    0  0.13582478142E+03 -0.35324105554E+03 -0.14217815898E+03  0.41285361725E+03  0.83701050258E+02 0.  0.
    5000000    2    1    2    0    0 -0.13582478142E+03  0.35324105554E+03  0.35665883071E+03  0.79399098217E+03  0.59999045299E+03 0.  0.
        -24    2    4    4    0    0  0.12614281153E+03  0.30793996042E+03  0.38435973372E+03  0.51502772071E+03  0.82353628114E+02 0.  0.
         24    2    4    4    0    0 -0.26196759295E+03  0.45301095122E+02 -0.27700903015E+02  0.27896326146E+03  0.79837035522E+02 0.  0.
         11    1    5    5    0    0 -0.76036201452E+01  0.12428381484E+02  0.37001977893E+02  0.39767148171E+02  0.00000000000E+00 0. -1.
        -12    1    5    5    0    0  0.13374643168E+03  0.29551157894E+03  0.34735775583E+03  0.47526057254E+03  0.00000000000E+00 0.  1.
         13    1    3    3    0    0  0.42810410041E+02 -0.48869788804E+02 -0.17743753115E+01  0.64993352532E+02  0.00000000000E+00 0. -1.
        -14    1    3    3    0    0  0.93014371381E+02 -0.30437126674E+03 -0.14040378367E+03  0.34786026472E+03  0.00000000000E+00 0.  1.
          2    1    6    6  502    0 -0.25623578063E+03  0.43066728660E+02 -0.97777354247E+01  0.26001369676E+03  0.00000000000E+00 0. -1.
         -1    1    6    6    0  502 -0.57318123244E+01  0.22343664621E+01 -0.17923167590E+02  0.18949564704E+02  0.00000000000E+00 0.  1.
<mgrwt>
<rscale>  0 0.49407802E+03</rscale>
<asrwt>0</asrwt>
<pdfrwt beam="1">  1        1 0.76335687E-01 0.49407802E+03</pdfrwt>
<pdfrwt beam="2">  1       -2 0.10933271E+00 0.49407802E+03</pdfrwt>
<totfact> 0.27266552E+01</totfact>
</mgrwt>
</event>
<event>
12    3  0.2422421E-007  0.1430455E+04  0.7818608E-02  0.8932064E-01
          1   -1    0    0  501    0  0.00000000000E+00  0.00000000000E+00  0.10731259587E+04  0.10731259587E+04  0.00000000000E+00 0. -1.
         -2   -1    0    0    0  501 -0.00000000000E+00 -0.00000000000E+00 -0.27181815202E+04  0.27181815202E+04  0.00000000000E+00 0.  1.
        -24    2    1    2    0    0  0.10720588191E+04 -0.85331929404E+03  0.23116739490E+03  0.13918057492E+04  0.78872998533E+02 0.  0.
    5000000    2    1    2    0    0 -0.10720588191E+04  0.85331929404E+03 -0.18762229564E+04  0.23995017296E+04  0.59994336335E+03 0.  0.
        -24    2    4    4    0    0 -0.38787749445E+03  0.67495636446E+03 -0.10557749763E+04  0.13141187018E+04  0.78943758863E+02 0.  0.
         24    2    4    4    0    0 -0.68418132463E+03  0.17836292959E+03 -0.82044798009E+03  0.10853830279E+04  0.70739024288E+02 0.  0.
         11    1    3    3    0    0  0.68119188172E+03 -0.50117258320E+03  0.16375918377E+03  0.86140200147E+03  0.00000000000E+00 0. -1.
        -12    1    3    3    0    0  0.39086693736E+03 -0.35214671085E+03  0.67408211135E+02  0.53040374773E+03  0.00000000000E+00 0.  1.
         13    1    5    5    0    0 -0.10374860785E+03  0.23792602798E+03 -0.31177207742E+03  0.40567770050E+03  0.00000000000E+00 0. -1.
        -14    1    5    5    0    0 -0.28412888660E+03  0.43703033648E+03 -0.74400289890E+03  0.90844100127E+03  0.00000000000E+00 0.  1.
          4    1    6    6  502    0 -0.39605111659E+03  0.81895481718E+02 -0.42492799855E+03  0.58662352563E+03  0.00000000000E+00 0. -1.
         -3    1    6    6    0  502 -0.28813020804E+03  0.96467447869E+02 -0.39551998154E+03  0.49875950225E+03  0.00000000000E+00 0.  1.
<mgrwt>
<rscale>  0 0.14304551E+04</rscale>
<asrwt>0</asrwt>
<pdfrwt beam="1">  1        1 0.16509630E+00 0.14304551E+04</pdfrwt>
<pdfrwt beam="2">  1       -2 0.41818177E+00 0.14304551E+04</pdfrwt>
<totfact> 0.62870370E-02</totfact>
</mgrwt>
</event>
<event>
12    3  0.2422421E-007  0.1174329E+04  0.7818608E-02  0.9135628E-01
          1   -1    0    0  501    0  0.00000000000E+00  0.00000000000E+00  0.98686421027E+03  0.98686421027E+03  0.00000000000E+00 0. -1.
         -2   -1    0    0    0  501 -0.00000000000E+00 -0.00000000000E+00 -0.14134239058E+04  0.14134239058E+04  0.00000000000E+00 0.  1.
        -24    2    1    2    0    0 -0.10461325791E+04 -0.35044760295E+03 -0.18730290076E+03  0.11218231680E+04  0.78727048448E+02 0.  0.
    5000000    2    1    2    0    0  0.10461325791E+04  0.35044760295E+03 -0.23925679479E+03  0.12784649481E+04  0.60001826160E+03 0.  0.
        -24    2    4    4    0    0  0.39979590788E+03 -0.14568612609E+03 -0.13305112252E+03  0.45284730719E+03  0.79415786443E+02 0.  0.
         24    2    4    4    0    0  0.64633667121E+03  0.49613372904E+03 -0.10620567227E+03  0.82561764092E+03  0.80405687232E+02 0.  0.
         11    1    5    5    0    0  0.36854799534E+03 -0.12528237991E+03 -0.97455365141E+02  0.40127403078E+03  0.00000000000E+00 0. -1.
        -12    1    5    5    0    0  0.31247912536E+02 -0.20403746179E+02 -0.35595757382E+02  0.51573276409E+02  0.00000000000E+00 0.  1.
         11    1    3    3    0    0 -0.38093600513E+03 -0.14705261402E+03 -0.35661071812E+02  0.40988830593E+03  0.00000000000E+00 0. -1.
        -12    1    3    3    0    0 -0.66519657395E+03 -0.20339498893E+03 -0.15164182895E+03  0.71193486205E+03  0.00000000000E+00 0.  1.
          4    1    6    6  502    0  0.34474211787E+03  0.21803575611E+03 -0.36996917492E+02  0.40957965120E+03  0.00000000000E+00 0. -1.
         -3    1    6    6    0  502  0.30159455334E+03  0.27809797293E+03 -0.69208754778E+02  0.41603798972E+03  0.00000000000E+00 0.  1.
<mgrwt>
<rscale>  0 0.11743287E+04</rscale>
<asrwt>0</asrwt>
<pdfrwt beam="1">  1        1 0.15182526E+00 0.11743287E+04</pdfrwt>
<pdfrwt beam="2">  1       -2 0.21744983E+00 0.11743287E+04</pdfrwt>
<totfact> 0.13635304E+00</totfact>
</mgrwt>
</event>
<event>
12    3  0.2422421E-007  0.8118610E+03  0.7818608E-02  0.9543006E-01
         -2   -1    0    0    0  501 -0.00000000000E+00  0.00000000000E+00  0.15429613035E+04  0.15429613035E+04  0.00000000000E+00 0.  1.
          1   -1    0    0  501    0  0.00000000000E+00 -0.00000000000E+00 -0.12312417614E+04  0.12312417614E+04  0.00000000000E+00 0. -1.
        -24    2    1    2    0    0 -0.31293051292E+03  0.67437853254E+03 -0.93885413758E+03  0.12004603370E+04  0.83342773890E+02 0.  0.
    5000000    2    1    2    0    0  0.31293051292E+03 -0.67437853254E+03  0.12505736797E+04  0.15737427279E+04  0.60001644503E+03 0.  0.
        -24    2    4    4    0    0  0.43761074231E+03 -0.51101746775E+03  0.66988415409E+03  0.95264807803E+03  0.78431922970E+02 0.  0.
         24    2    4    4    0    0 -0.12468022939E+03 -0.16336106479E+03  0.58068952559E+03  0.62109464989E+03  0.79537675980E+02 0.  0.
         11    1    3    3    0    0 -0.19548193563E+02  0.57014948283E+02 -0.11613961068E+03  0.13084817678E+03  0.00000000000E+00 0. -1.
        -12    1    3    3    0    0 -0.29338231936E+03  0.61736358425E+03 -0.82271452691E+03  0.10696121602E+04  0.00000000000E+00 0.  1.
         11    1    5    5    0    0  0.24280327806E+03 -0.24824278796E+03  0.38954416360E+03  0.52184534970E+03  0.00000000000E+00 0. -1.
        -12    1    5    5    0    0  0.19480746425E+03 -0.26277467979E+03  0.28033999049E+03  0.43080272833E+03  0.00000000000E+00 0.  1.
          2    1    6    6  502    0 -0.11531355153E+03 -0.15320008371E+03  0.57503624952E+03  0.60616348379E+03  0.00000000000E+00 0. -1.
         -1    1    6    6    0  502 -0.93666778685E+01 -0.10160981080E+02  0.56532760659E+01  0.14931166099E+02  0.00000000000E+00 0.  1.
<mgrwt>
<rscale>  0 0.81186099E+03</rscale>
<asrwt>0</asrwt>
<pdfrwt beam="1">  1        1 0.18942181E+00 0.81186099E+03</pdfrwt>
<pdfrwt beam="2">  1       -2 0.23737866E+00 0.81186099E+03</pdfrwt>
<totfact> 0.70507309E-01</totfact>
</mgrwt>
</event>
<event>
12    3  0.2422421E-007  0.7450635E+03  0.7818608E-02  0.9643127E-01
         -2   -1    0    0    0  501 -0.00000000000E+00  0.00000000000E+00  0.93918560890E+03  0.93918560890E+03  0.00000000000E+00 0.  1.
          1   -1    0    0  501    0  0.00000000000E+00 -0.00000000000E+00 -0.12614366143E+04  0.12614366143E+04  0.00000000000E+00 0. -1.
        -24    2    1    2    0    0  0.38300270497E+03  0.58219697000E+03 -0.87991316354E+03  0.11252015786E+04  0.78657697055E+02 0.  0.
    5000000    2    1    2    0    0 -0.38300270497E+03 -0.58219697000E+03  0.55766215811E+03  0.10754206446E+04  0.59991507426E+03 0.  0.
        -24    2    4    4    0    0 -0.58898624980E+02  0.23954460566E+02  0.33159229407E+03  0.34731226063E+03  0.81421696671E+02 0.  0.
         24    2    4    4    0    0 -0.32410407999E+03 -0.60615143056E+03  0.22606986404E+03  0.72810838396E+03  0.81063086064E+02 0.  0.
         11    1    5    5    0    0 -0.93245039074E+01  0.47421358666E+02  0.16403376650E+03  0.17100528701E+03  0.00000000000E+00 0. -1.
        -12    1    5    5    0    0 -0.49574121073E+02 -0.23466898099E+02  0.16755852757E+03  0.17630697362E+03  0.00000000000E+00 0.  1.
         11    1    3    3    0    0  0.13098880549E+03  0.22430887785E+03 -0.27208127922E+03  0.37616587079E+03  0.00000000000E+00 0. -1.
        -12    1    3    3    0    0  0.25201389948E+03  0.35788809215E+03 -0.60783188432E+03  0.74903570784E+03  0.00000000000E+00 0.  1.
          2    1    6    6  502    0 -0.38074175716E+02 -0.11466845360E+03  0.15938533132E+02  0.12187097253E+03  0.00000000000E+00 0. -1.
         -1    1    6    6    0  502 -0.28602990427E+03 -0.49148297697E+03  0.21013133091E+03  0.60623741143E+03  0.00000000000E+00 0.  1.
<mgrwt>
<rscale>  0 0.74506346E+03</rscale>
<asrwt>0</asrwt>
<pdfrwt beam="1">  1        1 0.19406717E+00 0.74506346E+03</pdfrwt>
<pdfrwt beam="2">  1       -2 0.14449010E+00 0.74506346E+03</pdfrwt>
<totfact> 0.28832543E+00</totfact>
</mgrwt>
</event>
<event>
12    3  0.2422421E-007  0.1035342E+04  0.7818608E-02  0.9270610E-01
          1   -1    0    0  501    0  0.00000000000E+00  0.00000000000E+00  0.16474346932E+04  0.16474346932E+04  0.00000000000E+00 0. -1.
         -2   -1    0    0    0  501 -0.00000000000E+00 -0.00000000000E+00 -0.75070458789E+03  0.75070458789E+03  0.00000000000E+00 0.  1.
        -24    2    1    2    0    0 -0.33320197916E+03 -0.97133201911E+03  0.49407668716E+03  0.11424280806E+04  0.80750828492E+02 0.  0.
    5000000    2    1    2    0    0  0.33320197916E+03  0.97133201911E+03  0.40265341816E+03  0.12557112005E+04  0.60014281102E+03 0.  0.
        -24    2    4    4    0    0  0.24528352536E+03  0.85893733046E+03  0.53617835726E+03  0.10449382527E+04  0.80444861348E+02 0.  0.
         24    2    4    4    0    0  0.87918453800E+02  0.11239468865E+03 -0.13352493909E+03  0.21077294778E+03  0.78956352508E+02 0.  0.
         13    1    3    3    0    0 -0.23748583838E+02 -0.90827283870E+02  0.21537932811E+02  0.96319641191E+02  0.00000000000E+00 0. -1.
        -14    1    3    3    0    0 -0.30945339532E+03 -0.88050473524E+03  0.47253875435E+03  0.10461084394E+04  0.00000000000E+00 0.  1.
         13    1    5    5    0    0  0.18139769582E+03  0.70225714670E+03  0.40404866856E+03  0.83025631627E+03  0.00000000000E+00 0. -1.
        -14    1    5    5    0    0  0.63885829543E+02  0.15668018376E+03  0.13212968870E+03  0.21468193645E+03  0.00000000000E+00 0.  1.
          2    1    6    6  502    0  0.92854297804E+02  0.10613808943E+03 -0.14130521237E+03  0.19963561228E+03  0.00000000000E+00 0. -1.
         -1    1    6    6    0  502 -0.49358440043E+01  0.62565992179E+01  0.77802732741E+01  0.11137335500E+02  0.00000000000E+00 0.  1.
<mgrwt>
<rscale>  0 0.10353419E+04</rscale>
<asrwt>0</asrwt>
<pdfrwt beam="1">  1        1 0.25345149E+00 0.10353419E+04</pdfrwt>
<pdfrwt beam="2">  1       -2 0.11549301E+00 0.10353419E+04</pdfrwt>
<totfact> 0.26421864E+00</totfact>
</mgrwt>
</event>
<event>
12    3  0.2422421E-007  0.6720073E+03  0.7818608E-02  0.9766338E-01
          1   -1    0    0  501    0  0.00000000000E+00  0.00000000000E+00  0.61959284531E+03  0.61959284531E+03  0.00000000000E+00 0. -1.
         -2   -1    0    0    0  501 -0.00000000000E+00 -0.00000000000E+00 -0.85379910815E+03  0.85379910815E+03  0.00000000000E+00 0.  1.
        -24    2    1    2    0    0 -0.50463916463E+03 -0.30821926910E+03  0.97593147605E+01  0.59639944481E+03  0.77053547800E+02 0.  0.
    5000000    2    1    2    0    0  0.50463916463E+03  0.30821926910E+03 -0.24396557759E+03  0.87699250865E+03  0.59994737507E+03 0.  0.
        -24    2    4    4    0    0  0.33987376632E+03 -0.56643508543E+02  0.72615002987E+02  0.36107299553E+03  0.79863041208E+02 0.  0.
         24    2    4    4    0    0  0.16476539831E+03  0.36486277764E+03 -0.31658058058E+03  0.51591951312E+03  0.75347176631E+02 0.  0.
         11    1    3    3    0    0 -0.17460936357E+03 -0.65035734126E+02 -0.27209284403E+00  0.18632807248E+03  0.00000000000E+00 0. -1.
        -12    1    3    3    0    0 -0.33002980106E+03 -0.24318353497E+03  0.10031407605E+02  0.41007137233E+03  0.00000000000E+00 0.  1.
         13    1    5    5    0    0  0.21334747659E+03 -0.15436709994E+02  0.10341572346E+02  0.21415505107E+03  0.00000000000E+00 0. -1.
        -14    1    5    5    0    0  0.12652628973E+03 -0.41206798549E+02  0.62273430641E+02  0.14691794446E+03  0.00000000000E+00 0.  1.
          4    1    6    6  502    0  0.15160472030E+03  0.32154688411E+03 -0.30686072375E+03  0.46961675191E+03  0.00000000000E+00 0. -1.
         -1    1    6    6    0  502  0.13160678015E+02  0.43315893531E+02 -0.97198568268E+01  0.46302761202E+02  0.00000000000E+00 0.  1.
<mgrwt>
<rscale>  0 0.67200733E+03</rscale>
<asrwt>0</asrwt>
<pdfrwt beam="1">  1        1 0.95321976E-01 0.67200733E+03</pdfrwt>
<pdfrwt beam="2">  1       -2 0.13135371E+00 0.67200733E+03</pdfrwt>
<totfact> 0.12449234E+01</totfact>
</mgrwt>
</event>
<event>
12    3  0.2422421E-007  0.6315134E+03  0.7818608E-02  0.9842100E-01
          1   -1    0    0  501    0  0.00000000000E+00  0.00000000000E+00  0.18673534470E+04  0.18673534470E+04  0.00000000000E+00 0. -1.
         -2   -1    0    0    0  501 -0.00000000000E+00 -0.00000000000E+00 -0.23676324337E+03  0.23676324337E+03  0.00000000000E+00 0.  1.
        -24    2    1    2    0    0  0.28055149026E+03  0.41323225334E+03  0.91110514375E+03  0.10423533912E+04  0.83174367356E+02 0.  0.
    5000000    2    1    2    0    0 -0.28055149026E+03 -0.41323225334E+03  0.71948505989E+03  0.10617632991E+04  0.60017707228E+03 0.  0.
        -24    2    4    4    0    0  0.10262697059E+03  0.74254014815E+02  0.17061370048E+03  0.22963860781E+03  0.87056887157E+02 0.  0.
         24    2    4    4    0    0 -0.38317846085E+03 -0.48748626816E+03  0.54887135942E+03  0.83212469132E+03  0.81872695197E+02 0.  0.
         11    1    5    5    0    0  0.10595484714E+03  0.77319310184E+02  0.17792080691E+03  0.22104415597E+03  0.00000000000E+00 0. -1.
        -12    1    5    5    0    0 -0.33278765528E+01 -0.30652953697E+01 -0.73071064314E+01  0.85944518414E+01  0.00000000000E+00 0.  1.
         13    1    3    3    0    0  0.58184367004E+02  0.14959306921E+03  0.31957182628E+03  0.35761663702E+03  0.00000000000E+00 0. -1.
        -14    1    3    3    0    0  0.22236712326E+03  0.26363918413E+03  0.59153331747E+03  0.68473675423E+03  0.00000000000E+00 0.  1.
          4    1    6    6  502    0 -0.37305368134E+03 -0.48428618437E+03  0.54878940466E+03  0.82150591489E+03  0.00000000000E+00 0. -1.
         -3    1    6    6    0  502 -0.10124779508E+02 -0.32000837911E+01  0.81954756779E-01  0.10618776433E+02  0.00000000000E+00 0.  1.
<mgrwt>
<rscale>  0 0.63151345E+03</rscale>
<asrwt>0</asrwt>
<pdfrwt beam="1">  1        1 0.28728514E+00 0.63151345E+03</pdfrwt>
<pdfrwt beam="2">  1       -2 0.36425116E-01 0.63151345E+03</pdfrwt>
<totfact> 0.24029635E+01</totfact>
</mgrwt>
</event>
<event>
12    3  0.2422421E-007  0.8390147E+03  0.7818608E-02  0.9505201E-01
         -2   -1    0    0    0  501 -0.00000000000E+00  0.00000000000E+00  0.65335086642E+03  0.65335086642E+03  0.00000000000E+00 0.  1.
          1   -1    0    0  501    0  0.00000000000E+00 -0.00000000000E+00 -0.13792448839E+04  0.13792448839E+04  0.00000000000E+00 0. -1.
        -24    2    1    2    0    0  0.83176798820E+03  0.57191901732E+02 -0.51778991051E+03  0.98456907350E+03  0.78491841996E+02 0.  0.
    5000000    2    1    2    0    0 -0.83176798820E+03 -0.57191901732E+02 -0.20810410699E+03  0.10480266768E+04  0.59995307832E+03 0.  0.
        -24    2    4    4    0    0 -0.41871206449E+03 -0.85427249421E+02 -0.39461394361E+03  0.58689134204E+03  0.78126019837E+02 0.  0.
         24    2    4    4    0    0 -0.41305592370E+03  0.28235347690E+02  0.18650983663E+03  0.46113533479E+03  0.80295995320E+02 0.  0.
         11    1    3    3    0    0  0.43933479410E+03  0.20062440999E+02 -0.31744695062E+03  0.54239296575E+03  0.00000000000E+00 0. -1.
        -12    1    3    3    0    0  0.39243319410E+03  0.37129460733E+02 -0.20034295989E+03  0.44217610775E+03  0.00000000000E+00 0.  1.
         11    1    5    5    0    0 -0.17020318641E+03 -0.30769965858E+02 -0.10932334073E+03  0.20461551332E+03  0.00000000000E+00 0. -1.
        -12    1    5    5    0    0 -0.24850887809E+03 -0.54657283564E+02 -0.28529060289E+03  0.38227582873E+03  0.00000000000E+00 0.  1.
          4    1    6    6  502    0 -0.17666128630E+03  0.35239823685E+02  0.45535480852E+02  0.18580779119E+03  0.00000000000E+00 0. -1.
         -3    1    6    6    0  502 -0.23639463741E+03 -0.70044759953E+01  0.14097435577E+03  0.27532754360E+03  0.00000000000E+00 0.  1.
<mgrwt>
<rscale>  0 0.83901465E+03</rscale>
<asrwt>0</asrwt>
<pdfrwt beam="1">  1        1 0.21219152E+00 0.83901465E+03</pdfrwt>
<pdfrwt beam="2">  1       -2 0.10051552E+00 0.83901465E+03</pdfrwt>
<totfact> 0.57934530E+00</totfact>
</mgrwt>
</event>
<event>
12    3  0.2422421E-007  0.8220572E+03  0.7818608E-02  0.9528628E-01
         -2   -1    0    0    0  501 -0.00000000000E+00  0.00000000000E+00  0.40733888936E+03  0.40733888936E+03  0.00000000000E+00 0.  1.
          1   -1    0    0  501    0  0.00000000000E+00 -0.00000000000E+00 -0.17803609084E+04  0.17803609084E+04  0.00000000000E+00 0. -1.
        -24    2    1    2    0    0  0.30228195674E+03 -0.65154573435E+03 -0.85024870344E+03  0.11157419635E+04  0.77916918614E+02 0.  0.
    5000000    2    1    2    0    0 -0.30228195674E+03  0.65154573435E+03 -0.52277331564E+03  0.10719578343E+04  0.59992952384E+03 0.  0.
        -24    2    4    4    0    0 -0.55914618504E+01 -0.96283871222E+02 -0.48473075330E+02  0.13467458808E+03  0.80534199806E+02 0.  0.
         24    2    4    4    0    0 -0.29669049488E+03  0.74782960557E+03 -0.47430024031E+03  0.93728324619E+03  0.79150470001E+02 0.  0.
         11    1    3    3    0    0  0.14501005994E+03 -0.28611284632E+03 -0.32271314198E+03  0.45500796731E+03  0.00000000000E+00 0. -1.
        -12    1    3    3    0    0  0.15727189679E+03 -0.36543288803E+03 -0.52753556146E+03  0.66073399624E+03  0.00000000000E+00 0.  1.
         13    1    5    5    0    0 -0.27120110305E+02 -0.10580414149E+02 -0.34614438040E+02  0.45228363527E+02  0.00000000000E+00 0. -1.
        -14    1    5    5    0    0  0.21528648454E+02 -0.85703457073E+02 -0.13858637290E+02  0.89446224549E+02  0.00000000000E+00 0.  1.
          2    1    6    6  502    0 -0.70986891460E+02  0.10508464243E+03 -0.85065771579E+02  0.15270267296E+03  0.00000000000E+00 0. -1.
         -1    1    6    6    0  502 -0.22570360342E+03  0.64274496314E+03 -0.38923446873E+03  0.78458057323E+03  0.00000000000E+00 0.  1.
<mgrwt>
<rscale>  0 0.82205721E+03</rscale>
<asrwt>0</asrwt>
<pdfrwt beam="1">  1        1 0.27390168E+00 0.82205721E+03</pdfrwt>
<pdfrwt beam="2">  1       -2 0.62667522E-01 0.82205721E+03</pdfrwt>
<totfact> 0.89466854E+00</totfact>
</mgrwt>
</event>
<event>
12    3  0.2422421E-007  0.1162119E+04  0.7818608E-02  0.9146675E-01
         -2   -1    0    0    0  501 -0.00000000000E+00  0.00000000000E+00  0.15865388598E+04  0.15865388598E+04  0.00000000000E+00 0.  1.
          1   -1    0    0  501    0  0.00000000000E+00 -0.00000000000E+00 -0.15320529890E+04  0.15320529890E+04  0.00000000000E+00 0. -1.
        -24    2    1    2    0    0 -0.91068975550E+03  0.66229299791E+03  0.10176842474E+04  0.15199822120E+04  0.81712004033E+02 0.  0.
    5000000    2    1    2    0    0  0.91068975550E+03 -0.66229299791E+03 -0.96319837662E+03  0.15986096369E+04  0.59984482367E+03 0.  0.
        -24    2    4    4    0    0  0.26514773239E+02  0.26420121630E+02  0.46497658812E+02  0.88076618698E+02  0.64764206623E+02 0.  0.
         24    2    4    4    0    0  0.88417498226E+03 -0.68871311954E+03 -0.10096960354E+04  0.15105330182E+04  0.78311906580E+02 0.  0.
         11    1    5    5    0    0  0.38424935547E+02  0.40714436751E+02  0.37712704194E+02  0.67501030284E+02  0.00000000000E+00 0. -1.
        -12    1    5    5    0    0 -0.11910162308E+02 -0.14294315121E+02  0.87849546180E+01  0.20575588415E+02  0.00000000000E+00 0.  1.
         13    1    3    3    0    0 -0.43470058794E+03  0.26854899058E+03  0.47845181533E+03  0.69999950078E+03  0.00000000000E+00 0. -1.
        -14    1    3    3    0    0 -0.47598916756E+03  0.39374400733E+03  0.53923243207E+03  0.81998271124E+03  0.00000000000E+00 0.  1.
          4    1    6    6  502    0  0.19424946308E+03 -0.16236347049E+03 -0.18681529560E+03  0.31463424023E+03  0.00000000000E+00 0. -1.
         -3    1    6    6    0  502  0.68992551918E+03 -0.52634964905E+03 -0.82288073982E+03  0.11958987779E+04  0.00000000000E+00 0.  1.
<mgrwt>
<rscale>  0 0.11621195E+04</rscale>
<asrwt>0</asrwt>
<pdfrwt beam="1">  1        1 0.23570046E+00 0.11621195E+04</pdfrwt>
<pdfrwt beam="2">  1       -2 0.24408290E+00 0.11621195E+04</pdfrwt>
<totfact> 0.37344447E-01</totfact>
</mgrwt>
</event>
<event>
12    3  0.2422421E-007  0.4507585E+03  0.7818608E-02  0.1027496E+00
         -2   -1    0    0    0  501 -0.00000000000E+00  0.00000000000E+00  0.59968604413E+03  0.59968604413E+03  0.00000000000E+00 0.  1.
          1   -1    0    0  501    0  0.00000000000E+00 -0.00000000000E+00 -0.60213103972E+03  0.60213103972E+03  0.00000000000E+00 0. -1.
        -24    2    1    2    0    0  0.32035698478E+03 -0.31074511584E+03  0.14628232539E+02  0.45371219684E+03  0.80309698422E+02 0.  0.
    5000000    2    1    2    0    0 -0.32035698478E+03  0.31074511584E+03 -0.17073228131E+02  0.74810488701E+03  0.60014856673E+03 0.  0.
        -24    2    4    4    0    0 -0.22835858208E+03  0.18002923765E+03  0.27385826948E+03  0.40709264515E+03  0.78535988893E+02 0.  0.
         24    2    4    4    0    0 -0.91998402694E+02  0.13071587818E+03 -0.29093149761E+03  0.34101224187E+03  0.78088833341E+02 0.  0.
         11    1    3    3    0    0  0.16376145754E+03 -0.17486952181E+03 -0.30559631844E+02  0.24151823064E+03  0.00000000000E+00 0. -1.
        -12    1    3    3    0    0  0.15659552724E+03 -0.13587559403E+03  0.45187864383E+02  0.21219396620E+03  0.00000000000E+00 0.  1.
         13    1    5    5    0    0 -0.21908191264E+03  0.15652444173E+03  0.22037196308E+03  0.34793762001E+03  0.00000000000E+00 0. -1.
        -14    1    5    5    0    0 -0.92766694423E+01  0.23504795924E+02  0.53486306396E+02  0.59155025139E+02  0.00000000000E+00 0.  1.
          4    1    6    6  502    0 -0.23916564099E+02  0.27509089957E+02 -0.16495325267E+02  0.40010596399E+02  0.00000000000E+00 0. -1.
         -3    1    6    6    0  502 -0.68081838595E+02  0.10320678823E+03 -0.27443617234E+03  0.30100164547E+03  0.00000000000E+00 0.  1.
<mgrwt>
<rscale>  0 0.45075846E+03</rscale>
<asrwt>0</asrwt>
<pdfrwt beam="1">  1        1 0.92635544E-01 0.45075846E+03</pdfrwt>
<pdfrwt beam="2">  1       -2 0.92259392E-01 0.45075846E+03</pdfrwt>
<totfact> 0.31275201E+01</totfact>
</mgrwt>
</event>
<event>
12    3  0.2422421E-007  0.4479645E+03  0.7818608E-02  0.1028331E+00
         -2   -1    0    0    0  501 -0.00000000000E+00  0.00000000000E+00  0.27926988608E+03  0.27926988608E+03  0.00000000000E+00 0.  1.
          1   -1    0    0  501    0  0.00000000000E+00 -0.00000000000E+00 -0.11095715967E+04  0.11095715967E+04  0.00000000000E+00 0. -1.
        -24    2    1    2    0    0  0.47563160047E+02  0.25330709366E+03  0.68897369694E+02  0.27768447923E+03  0.77039500012E+02 0.  0.
    5000000    2    1    2    0    0 -0.47563160047E+02 -0.25330709366E+03 -0.89919908036E+03  0.11111570036E+04  0.59973674445E+03 0.  0.
        -24    2    4    4    0    0  0.20600381670E+03  0.60488550864E+02 -0.24588606129E+03  0.33918671068E+03  0.92147882670E+02 0.  0.
         24    2    4    4    0    0 -0.25356697675E+03 -0.31379564452E+03 -0.65331301907E+03  0.77197029292E+03  0.79726495297E+02 0.  0.
         11    1    5    5    0    0  0.89846426158E+02 -0.72663955674E+01 -0.14635101786E+03  0.17188310338E+03  0.00000000000E+00 0. -1.
        -12    1    5    5    0    0  0.11615739055E+03  0.67754946431E+02 -0.99535043425E+02  0.16730360729E+03  0.00000000000E+00 0.  1.
         13    1    3    3    0    0 -0.68241260258E+01  0.15946553535E+02 -0.11994378254E+02  0.21088536587E+02  0.00000000000E+00 0. -1.
        -14    1    3    3    0    0  0.54387286073E+02  0.23736054012E+03  0.80891747948E+02  0.25659594264E+03  0.00000000000E+00 0.  1.
          2    1    6    6  502    0 -0.11502329751E+03 -0.20192020043E+03 -0.34609306161E+03  0.41687232291E+03  0.00000000000E+00 0. -1.
         -1    1    6    6    0  502 -0.13854367924E+03 -0.11187544409E+03 -0.30721995746E+03  0.35509797002E+03  0.00000000000E+00 0.  1.
<mgrwt>
<rscale>  0 0.44796446E+03</rscale>
<asrwt>0</asrwt>
<pdfrwt beam="1">  1        1 0.17070332E+00 0.44796446E+03</pdfrwt>
<pdfrwt beam="2">  1       -2 0.42964598E-01 0.44796446E+03</pdfrwt>
<totfact> 0.59371503E+01</totfact>
</mgrwt>
</event>
<event>
12    3  0.2422421E-007  0.9010690E+03  0.7818608E-02  0.9424246E-01
         -4   -1    0    0    0  501 -0.00000000000E+00  0.00000000000E+00  0.27177742888E+03  0.27177742888E+03  0.00000000000E+00 0.  1.
          1   -1    0    0  501    0  0.00000000000E+00 -0.00000000000E+00 -0.32071251497E+04  0.32071251497E+04  0.00000000000E+00 0. -1.
        -24    2    1    2    0    0 -0.74261428079E+03  0.35633367214E+03 -0.15756667714E+04  0.17797585346E+04  0.79781020787E+02 0.  0.
    5000000    2    1    2    0    0  0.74261428079E+03 -0.35633367214E+03 -0.13596809495E+04  0.16991440440E+04  0.59992378006E+03 0.  0.
        -24    2    4    4    0    0  0.46577748238E+03  0.64840387909E+02 -0.86794083713E+03  0.99050329425E+03  0.81378990877E+02 0.  0.
         24    2    4    4    0    0  0.27683679841E+03 -0.42117406005E+03 -0.49174011237E+03  0.70864074975E+03  0.79606358298E+02 0.  0.
         13    1    5    5    0    0  0.25669898528E+03  0.31983414801E+02 -0.39244083785E+03  0.47002884920E+03  0.00000000000E+00 0. -1.
        -14    1    5    5    0    0  0.20907849710E+03  0.32856973108E+02 -0.47549999928E+03  0.52047444505E+03  0.00000000000E+00 0.  1.
         13    1    3    3    0    0 -0.44992313260E+03  0.17225620310E+03 -0.91849953352E+03  0.10371809957E+04  0.00000000000E+00 0. -1.
        -14    1    3    3    0    0 -0.29269114819E+03  0.18407746904E+03 -0.65716723783E+03  0.74257753892E+03  0.00000000000E+00 0.  1.
          4    1    6    6  502    0  0.31117570280E+02 -0.57323666188E+02 -0.10467537893E+03  0.12333385926E+03  0.00000000000E+00 0. -1.
         -3    1    6    6    0  502  0.24571922813E+03 -0.36385039386E+03 -0.38706473344E+03  0.58530689049E+03  0.00000000000E+00 0.  1.
<mgrwt>
<rscale>  0 0.90106903E+03</rscale>
<asrwt>0</asrwt>
<pdfrwt beam="1">  1        1 0.49340385E+00 0.90106903E+03</pdfrwt>
<pdfrwt beam="2">  1       -4 0.41811914E-01 0.90106903E+03</pdfrwt>
<totfact> 0.11916564E+00</totfact>
</mgrwt>
</event>
<event>
12    3  0.2422421E-007  0.9123284E+03  0.7818608E-02  0.9410300E-01
         -2   -1    0    0    0  501 -0.00000000000E+00  0.00000000000E+00  0.32144998674E+03  0.32144998674E+03  0.00000000000E+00 0.  1.
          1   -1    0    0  501    0  0.00000000000E+00 -0.00000000000E+00 -0.29941648005E+04  0.29941648005E+04  0.00000000000E+00 0. -1.
        -24    2    1    2    0    0 -0.57681303295E+03 -0.66031684303E+03 -0.14444988088E+04  0.16916453064E+04  0.79720924992E+02 0.  0.
    5000000    2    1    2    0    0  0.57681303295E+03  0.66031684303E+03 -0.12282160050E+04  0.16239694809E+04  0.60002559256E+03 0.  0.
        -24    2    4    4    0    0  0.19059368272E+03  0.48575385866E+03 -0.10126826719E+04  0.11420359148E+04  0.80231375643E+02 0.  0.
         24    2    4    4    0    0  0.38621935022E+03  0.17456298437E+03 -0.21553333313E+03  0.48193356610E+03  0.78534848619E+02 0.  0.
         11    1    3    3    0    0 -0.29934973799E+03 -0.37104991991E+03 -0.71697831898E+03  0.86101464481E+03  0.00000000000E+00 0. -1.
        -12    1    3    3    0    0 -0.27746329495E+03 -0.28926692312E+03 -0.72752048982E+03  0.83063066158E+03  0.00000000000E+00 0.  1.
         13    1    5    5    0    0  0.87644797349E+02  0.21686574917E+03 -0.54130437433E+03  0.58968024330E+03  0.00000000000E+00 0. -1.
        -14    1    5    5    0    0  0.10294888537E+03  0.26888810949E+03 -0.47137829754E+03  0.55235567148E+03  0.00000000000E+00 0.  1.
          2    1    6    6  502    0  0.14700136184E+03  0.48130125242E+02 -0.11711765490E+03  0.19401663441E+03  0.00000000000E+00 0. -1.
         -1    1    6    6    0  502  0.23921798839E+03  0.12643285913E+03 -0.98415678228E+02  0.28791693169E+03  0.00000000000E+00 0.  1.
<mgrwt>
<rscale>  0 0.91232843E+03</rscale>
<asrwt>0</asrwt>
<pdfrwt beam="1">  1        1 0.46064074E+00 0.91232843E+03</pdfrwt>
<pdfrwt beam="2">  1       -2 0.49453843E-01 0.91232843E+03</pdfrwt>
<totfact> 0.21321274E+00</totfact>
</mgrwt>
</event>
<event>
12    3  0.2422421E-007  0.1098318E+04  0.7818608E-02  0.9206833E-01
          1   -1    0    0  501    0  0.00000000000E+00  0.00000000000E+00  0.13327996614E+04  0.13327996614E+04  0.00000000000E+00 0. -1.
         -2   -1    0    0    0  501 -0.00000000000E+00 -0.00000000000E+00 -0.99105862702E+03  0.99105862702E+03  0.00000000000E+00 0.  1.
        -24    2    1    2    0    0  0.10420870891E+04  0.20450274201E+03  0.32213332145E+02  0.10653507944E+04  0.78534983423E+02 0.  0.
    5000000    2    1    2    0    0 -0.10420870891E+04 -0.20450274201E+03  0.30952770227E+03  0.12585074940E+04  0.60022232645E+03 0.  0.
        -24    2    4    4    0    0 -0.47918227399E+03  0.97243427287E+02  0.36120749286E+03  0.61289652668E+03  0.78098422913E+02 0.  0.
         24    2    4    4    0    0 -0.56290481515E+03 -0.30174616930E+03 -0.51679790591E+02  0.64561096733E+03  0.78931228141E+02 0.  0.
         13    1    3    3    0    0  0.85801574317E+03  0.17948490652E+03 -0.12981944254E+01  0.87658857653E+03  0.00000000000E+00 0. -1.
        -14    1    3    3    0    0  0.18407134596E+03  0.25017835489E+02  0.33511526570E+02  0.18876221791E+03  0.00000000000E+00 0.  1.
         13    1    5    5    0    0 -0.35098951895E+03  0.10544271913E+03  0.25961374405E+03  0.44912259521E+03  0.00000000000E+00 0. -1.
        -14    1    5    5    0    0 -0.12819275504E+03 -0.81992918403E+01  0.10159374881E+03  0.16377393147E+03  0.00000000000E+00 0.  1.
          4    1    6    6  502    0 -0.30631282088E+03 -0.18061805933E+03 -0.65274615343E+02  0.36154004342E+03  0.00000000000E+00 0. -1.
         -3    1    6    6    0  502 -0.25659199427E+03 -0.12112810997E+03  0.13594824752E+02  0.28407092391E+03  0.00000000000E+00 0.  1.
<mgrwt>
<rscale>  0 0.10983179E+04</rscale>
<asrwt>0</asrwt>
<pdfrwt beam="1">  1        1 0.20504610E+00 0.10983179E+04</pdfrwt>
<pdfrwt beam="2">  1       -2 0.15247056E+00 0.10983179E+04</pdfrwt>
<totfact> 0.21263489E+00</totfact>
</mgrwt>
</event>
<event>
12    3  0.2422421E-007  0.1366485E+04  0.7818608E-02  0.8978443E-01
          1   -1    0    0  501    0  0.00000000000E+00  0.00000000000E+00  0.16621082184E+04  0.16621082184E+04  0.00000000000E+00 0. -1.
         -2   -1    0    0    0  501 -0.00000000000E+00 -0.00000000000E+00 -0.13194818710E+04  0.13194818710E+04  0.00000000000E+00 0.  1.
        -24    2    1    2    0    0  0.12395789932E+04  0.49134829566E+03 -0.32406829966E+03  0.13745672203E+04  0.80221894259E+02 0.  0.
    5000000    2    1    2    0    0 -0.12395789932E+04 -0.49134829566E+03  0.66669464709E+03  0.16070228690E+04  0.60005126542E+03 0.  0.
        -24    2    4    4    0    0 -0.22196474669E+03 -0.26455617751E+03 -0.19609005655E+02  0.35620982025E+03  0.85103484701E+02 0.  0.
         24    2    4    4    0    0 -0.10176142465E+04 -0.22679211814E+03  0.68630365274E+03  0.12508130488E+04  0.80914520912E+02 0.  0.
         11    1    5    5    0    0 -0.16144923939E+03 -0.13367643900E+03 -0.29523323231E+02  0.21167634223E+03  0.00000000000E+00 0. -1.
        -12    1    5    5    0    0 -0.60515507291E+02 -0.13087973851E+03  0.99143175764E+01  0.14453347802E+03  0.00000000000E+00 0.  1.
         13    1    3    3    0    0  0.92091264088E+03  0.38786722094E+03 -0.27087967198E+03  0.10353245240E+04  0.00000000000E+00 0. -1.
        -14    1    3    3    0    0  0.31866635232E+03  0.10348107471E+03 -0.53188627687E+02  0.33924269637E+03  0.00000000000E+00 0.  1.
          2    1    6    6  502    0 -0.83987734050E+03 -0.15995865710E+03  0.54172014541E+03  0.10121469434E+04  0.00000000000E+00 0. -1.
         -1    1    6    6    0  502 -0.17773690601E+03 -0.66833461048E+02  0.14458350733E+03  0.23866610540E+03  0.00000000000E+00 0.  1.
<mgrwt>
<rscale>  0 0.13664845E+04</rscale>
<asrwt>0</asrwt>
<pdfrwt beam="1">  1        1 0.25570896E+00 0.13664845E+04</pdfrwt>
<pdfrwt beam="2">  1       -2 0.20299721E+00 0.13664845E+04</pdfrwt>
<totfact> 0.53906695E-01</totfact>
</mgrwt>
</event>
<event>
12    3  0.2422421E-007  0.4021614E+03  0.7818608E-02  0.1043034E+00
         -2   -1    0    0    0  501 -0.00000000000E+00  0.00000000000E+00  0.14251539028E+03  0.14251539028E+03  0.00000000000E+00 0.  1.
          1   -1    0    0  501    0  0.00000000000E+00 -0.00000000000E+00 -0.12309499431E+04  0.12309499431E+04  0.00000000000E+00 0. -1.
        -24    2    1    2    0    0 -0.18778108981E+03 -0.11421091209E+02 -0.20905547369E+03  0.29232504497E+03  0.79734320225E+02 0.  0.
    5000000    2    1    2    0    0  0.18778108981E+03  0.11421091209E+02 -0.87937907908E+03  0.10811402884E+04  0.60013713381E+03 0.  0.
        -24    2    4    4    0    0 -0.17195105006E+03  0.11725311084E+03 -0.47152389908E+03  0.52142808748E+03  0.78974726314E+02 0.  0.
         24    2    4    4    0    0  0.35973213986E+03 -0.10583201963E+03 -0.40785518000E+03  0.55971220088E+03  0.79525286113E+02 0.  0.
         11    1    5    5    0    0 -0.15107020016E+03  0.64328065770E+02 -0.37521710314E+03  0.40957072639E+03  0.00000000000E+00 0. -1.
        -12    1    5    5    0    0 -0.20880849892E+02  0.52925045065E+02 -0.96306795937E+02  0.11185736109E+03  0.00000000000E+00 0.  1.
         11    1    3    3    0    0 -0.67635339469E+02  0.33557476623E+02 -0.87814586859E+02  0.11581038402E+03  0.00000000000E+00 0. -1.
        -12    1    3    3    0    0 -0.12014575034E+03 -0.44978567832E+02 -0.12124088683E+03  0.17651466094E+03  0.00000000000E+00 0.  1.
          4    1    6    6  502    0  0.65986779880E+02 -0.43845578478E+02 -0.55108434099E+02  0.96507146781E+02  0.00000000000E+00 0. -1.
         -3    1    6    6    0  502  0.29374535998E+03 -0.61986441148E+02 -0.35274674590E+03  0.46320505410E+03  0.00000000000E+00 0.  1.
<mgrwt>
<rscale>  0 0.40216137E+03</rscale>
<asrwt>0</asrwt>
<pdfrwt beam="1">  1        1 0.18937691E+00 0.40216137E+03</pdfrwt>
<pdfrwt beam="2">  1       -2 0.21925446E-01 0.40216137E+03</pdfrwt>
<totfact> 0.16955348E+02</totfact>
</mgrwt>
</event>
<event>
12    3  0.2422421E-007  0.7469059E+03  0.7818608E-02  0.9640217E-01
         -2   -1    0    0    0  501 -0.00000000000E+00  0.00000000000E+00  0.36139094286E+03  0.36139094286E+03  0.00000000000E+00 0.  1.
          1   -1    0    0  501    0  0.00000000000E+00 -0.00000000000E+00 -0.17239138231E+04  0.17239138231E+04  0.00000000000E+00 0. -1.
        -24    2    1    2    0    0 -0.16209210216E+03 -0.63834228760E+03 -0.40595816206E+03  0.77810343466E+03  0.82995180360E+02 0.  0.
    5000000    2    1    2    0    0  0.16209210216E+03  0.63834228760E+03 -0.95656471819E+03  0.13072013313E+04  0.60000377898E+03 0.  0.
        -24    2    4    4    0    0  0.17492735152E+03 -0.35512287669E+01 -0.58089441977E+02  0.20082291046E+03  0.79644639259E+02 0.  0.
         24    2    4    4    0    0 -0.12835249364E+02  0.64189351637E+03 -0.89847527621E+03  0.11063784209E+04  0.67995280568E+02 0.  0.
         11    1    5    5    0    0  0.82351729289E+02  0.30931840514E+02 -0.51221786069E+02  0.10179517396E+03  0.00000000000E+00 0. -1.
        -12    1    5    5    0    0  0.92575622232E+02 -0.34483069281E+02 -0.68676559074E+01  0.99027736500E+02  0.00000000000E+00 0.  1.
         13    1    3    3    0    0 -0.68273820554E+02 -0.13185061785E+03 -0.99321848418E+02  0.17863574551E+03  0.00000000000E+00 0. -1.
        -14    1    3    3    0    0 -0.93818281602E+02 -0.50649166975E+03 -0.30663631364E+03  0.59946768915E+03  0.00000000000E+00 0.  1.
          2    1    6    6  502    0  0.13638954870E+02  0.37868617145E+03 -0.57291998664E+03  0.68689631577E+03  0.00000000000E+00 0. -1.
         -1    1    6    6    0  502 -0.26474204234E+02  0.26320734492E+03 -0.32555528958E+03  0.41948210508E+03  0.00000000000E+00 0.  1.
<mgrwt>
<rscale>  0 0.74690587E+03</rscale>
<asrwt>0</asrwt>
<pdfrwt beam="1">  1        1 0.26521752E+00 0.74690587E+03</pdfrwt>
<pdfrwt beam="2">  1       -2 0.55598606E-01 0.74690587E+03</pdfrwt>
<totfact> 0.12689414E+01</totfact>
</mgrwt>
</event>
<event>
12    3  0.2422421E-007  0.1402550E+04  0.7818608E-02  0.8951975E-01
          1   -1    0    0  501    0  0.00000000000E+00  0.00000000000E+00  0.28835608997E+04  0.28835608997E+04  0.00000000000E+00 0. -1.
         -2   -1    0    0    0  501 -0.00000000000E+00 -0.00000000000E+00 -0.88095264738E+03  0.88095264738E+03  0.00000000000E+00 0.  1.
        -24    2    1    2    0    0 -0.98619513762E+03  0.98868635276E+03  0.17228116564E+04  0.22191263515E+04  0.79750905417E+02 0.  0.
    5000000    2    1    2    0    0  0.98619513762E+03 -0.98868635276E+03  0.27979659585E+03  0.15453871955E+04  0.59987823382E+03 0.  0.
        -24    2    4    4    0    0  0.73623437626E+03 -0.64415017309E+03  0.45033993538E+03  0.10797579208E+04  0.78106388231E+02 0.  0.
         24    2    4    4    0    0  0.24996076136E+03 -0.34453617968E+03 -0.17054333953E+03  0.46562927470E+03  0.80870448723E+02 0.  0.
         11    1    5    5    0    0  0.76904014126E+02 -0.95273005577E+02  0.72964662407E+02  0.14253075086E+03  0.00000000000E+00 0. -1.
        -12    1    5    5    0    0  0.65933036213E+03 -0.54887716751E+03  0.37737527298E+03  0.93722716995E+03  0.00000000000E+00 0.  1.
         13    1    3    3    0    0 -0.50437601295E+03  0.54812345830E+03  0.95949890210E+03  0.12146903437E+04  0.00000000000E+00 0. -1.
        -14    1    3    3    0    0 -0.48181912467E+03  0.44056289446E+03  0.76331275434E+03  0.10044360078E+04  0.00000000000E+00 0.  1.
          4    1    6    6  502    0  0.17170080196E+03 -0.20870346018E+03 -0.69252078401E+02  0.27898772383E+03  0.00000000000E+00 0. -1.
         -3    1    6    6    0  502  0.78259959401E+02 -0.13583271949E+03 -0.10129126113E+03  0.18664155087E+03  0.00000000000E+00 0.  1.
<mgrwt>
<rscale>  0 0.14025501E+04</rscale>
<asrwt>0</asrwt>
<pdfrwt beam="1">  1        1 0.44362475E+00 0.14025501E+04</pdfrwt>
<pdfrwt beam="2">  1       -2 0.13553118E+00 0.14025501E+04</pdfrwt>
<totfact> 0.23912160E-01</totfact>
</mgrwt>
</event>
<event>
12    3  0.2422421E-007  0.7699384E+03  0.7818608E-02  0.9604579E-01
         -2   -1    0    0    0  501 -0.00000000000E+00  0.00000000000E+00  0.65755980305E+03  0.65755980305E+03  0.00000000000E+00 0.  1.
          1   -1    0    0  501    0  0.00000000000E+00 -0.00000000000E+00 -0.10335578796E+04  0.10335578796E+04  0.00000000000E+00 0. -1.
        -24    2    1    2    0    0  0.13435645399E+03 -0.69678250841E+03 -0.23150315202E+03  0.75062866364E+03  0.79323139965E+02 0.  0.
    5000000    2    1    2    0    0 -0.13435645399E+03  0.69678250841E+03 -0.14449492455E+03  0.94048901903E+03  0.60006940510E+03 0.  0.
        -24    2    4    4    0    0 -0.22097241161E+03  0.16289247788E+03 -0.25428843763E+03  0.38285565124E+03  0.80951060094E+02 0.  0.
         24    2    4    4    0    0  0.86615957619E+02  0.53389003053E+03  0.10979351309E+03  0.55763336779E+03  0.79746276061E+02 0.  0.
         11    1    5    5    0    0 -0.11584244048E+02 -0.79716823093E+01 -0.42900592021E+01  0.14701939905E+02  0.00000000000E+00 0. -1.
        -12    1    5    5    0    0 -0.20938816756E+03  0.17086416019E+03 -0.24999837843E+03  0.36815371134E+03  0.00000000000E+00 0.  1.
         11    1    3    3    0    0  0.77279355496E+02 -0.38611622838E+03 -0.16964557029E+03  0.42876270841E+03  0.00000000000E+00 0. -1.
        -12    1    3    3    0    0  0.57077098496E+02 -0.31066628003E+03 -0.61857581722E+02  0.32186595523E+03  0.00000000000E+00 0.  1.
          2    1    6    6  502    0  0.58291358129E+01  0.26715947433E+03  0.68804990379E+02  0.27593892486E+03  0.00000000000E+00 0. -1.
         -1    1    6    6    0  502  0.80786821806E+02  0.26673055619E+03  0.40988522707E+02  0.28169444293E+03  0.00000000000E+00 0.  1.
<mgrwt>
<rscale>  0 0.76993840E+03</rscale>
<asrwt>0</asrwt>
<pdfrwt beam="1">  1        1 0.15900891E+00 0.76993840E+03</pdfrwt>
<pdfrwt beam="2">  1       -2 0.10116305E+00 0.76993840E+03</pdfrwt>
<totfact> 0.10261519E+01</totfact>
</mgrwt>
</event>
<event>
12    3  0.2422421E-007  0.5154655E+03  0.7818608E-02  0.1009819E+00
          3   -1    0    0  501    0  0.00000000000E+00  0.00000000000E+00  0.99532561279E+03  0.99532561279E+03  0.00000000000E+00 0. -1.
         -4   -1    0    0    0  501 -0.00000000000E+00 -0.00000000000E+00 -0.62108598950E+03  0.62108598950E+03  0.00000000000E+00 0.  1.
        -24    2    1    2    0    0 -0.17196663836E+03 -0.36924490713E+03  0.70605193731E+03  0.81891568993E+03  0.78735270888E+02 0.  0.
    5000000    2    1    2    0    0  0.17196663836E+03  0.36924490713E+03 -0.33181231402E+03  0.79749591236E+03  0.59998832685E+03 0.  0.
        -24    2    4    4    0    0  0.10586092861E+03 -0.95901410096E+02  0.68483226383E+02  0.17731259221E+03  0.79662954990E+02 0.  0.
         24    2    4    4    0    0  0.66105709751E+02  0.46514631722E+03 -0.40029554040E+03  0.62018332015E+03  0.60496029918E+02 0.  0.
         11    1    5    5    0    0  0.53476365539E+02 -0.28285315394E+02  0.69016013551E+02  0.91776853643E+02  0.00000000000E+00 0. -1.
        -12    1    5    5    0    0  0.52384563070E+02 -0.67616094702E+02 -0.53278716796E+00  0.85535738571E+02  0.00000000000E+00 0.  1.
         13    1    3    3    0    0 -0.75523740116E+02 -0.23126790321E+03  0.36609355845E+03  0.43956020284E+03  0.00000000000E+00 0. -1.
        -14    1    3    3    0    0 -0.96442898243E+02 -0.13797700392E+03  0.33995837886E+03  0.37935548709E+03  0.00000000000E+00 0.  1.
          4    1    6    6  502    0  0.10837055474E+01  0.20896208378E+03 -0.16371020597E+03  0.26545688616E+03  0.00000000000E+00 0. -1.
         -3    1    6    6    0  502  0.65022004203E+02  0.25618423345E+03 -0.23658533443E+03  0.35472643398E+03  0.00000000000E+00 0.  1.
<mgrwt>
<rscale>  0 0.51546548E+03</rscale>
<asrwt>0</asrwt>
<pdfrwt beam="1">  1        3 0.15312702E+00 0.51546548E+03</pdfrwt>
<pdfrwt beam="2">  1       -4 0.95551690E-01 0.51546548E+03</pdfrwt>
<totfact> 0.64062493E-01</totfact>
</mgrwt>
</event>
<event>
12    3  0.2442843E-007  0.1150618E+04  0.7818608E-02  0.9157214E-01
         -2   -1    0    0    0  501 -0.00000000000E+00  0.00000000000E+00  0.63948473178E+03  0.63948473178E+03  0.00000000000E+00 0.  1.
          1   -1    0    0  501    0  0.00000000000E+00 -0.00000000000E+00 -0.21190333099E+04  0.21190333099E+04  0.00000000000E+00 0. -1.
        -24    2    1    2    0    0 -0.85014299353E+03 -0.66277361175E+03 -0.83992898797E+03  0.13688796778E+04  0.79617193607E+02 0.  0.
    5000000    2    1    2    0    0  0.85014299353E+03  0.66277361175E+03 -0.63961959019E+03  0.13896383639E+04  0.59997465989E+03 0.  0.
        -24    2    4    4    0    0  0.45186814321E+03  0.68783217085E+03 -0.42594602131E+03  0.92993708102E+03  0.77814185500E+02 0.  0.
         24    2    4    4    0    0  0.39827485032E+03 -0.25058559099E+02 -0.21367356888E+03  0.45970128293E+03  0.80112968448E+02 0.  0.
         11    1    5    5    0    0  0.22084404541E+03  0.34451739465E+03 -0.16833441996E+03  0.44249384691E+03  0.00000000000E+00 0. -1.
        -12    1    5    5    0    0  0.23102409781E+03  0.34331477620E+03 -0.25761160135E+03  0.48744323411E+03  0.00000000000E+00 0.  1.
         11    1    3    3    0    0 -0.21887980794E+03 -0.14721325517E+03 -0.24269099547E+03  0.35843971893E+03  0.00000000000E+00 0. -1.
        -12    1    3    3    0    0 -0.63126318559E+03 -0.51556035658E+03 -0.59723799251E+03  0.10104399589E+04  0.00000000000E+00 0.  1.
          4    1    6    6  502    0  0.12718431687E+03 -0.56961089073E+00 -0.28060785898E+02  0.13024431895E+03  0.00000000000E+00 0. -1.
         -3    1    6    6    0  502  0.27109053344E+03 -0.24488948209E+02 -0.18561278298E+03  0.32945696398E+03  0.00000000000E+00 0.  1.
<mgrwt>
<rscale>  0 0.11506180E+04</rscale>
<asrwt>0</asrwt>
<pdfrwt beam="1">  1        1 0.32600512E+00 0.11506180E+04</pdfrwt>
<pdfrwt beam="2">  1       -2 0.98382267E-01 0.11506180E+04</pdfrwt>
<totfact> 0.18434809E+00</totfact>
</mgrwt>
</event>
<event>
12    3  0.2422421E-007  0.1198154E+04  0.7818608E-02  0.9114474E-01
         -2   -1    0    0    0  501 -0.00000000000E+00  0.00000000000E+00  0.16465826806E+04  0.16465826806E+04  0.00000000000E+00 0.  1.
          1   -1    0    0  501    0  0.00000000000E+00 -0.00000000000E+00 -0.10113262906E+04  0.10113262906E+04  0.00000000000E+00 0. -1.
        -24    2    1    2    0    0 -0.40496493650E+03 -0.11134756796E+04  0.59687772297E+03  0.13291189610E+04  0.80433248361E+02 0.  0.
    5000000    2    1    2    0    0  0.40496493650E+03  0.11134756796E+04  0.38378666973E+02  0.13287900102E+04  0.60032098108E+03 0.  0.
        -24    2    4    4    0    0  0.42207746928E+03  0.90097827431E+03 -0.17952190230E+03  0.10135900884E+04  0.72287710559E+02 0.  0.
         24    2    4    4    0    0 -0.17112532775E+02  0.21249740530E+03  0.21790056927E+03  0.31519992180E+03  0.80139544416E+02 0.  0.
         13    1    5    5    0    0  0.18366726487E+03  0.44545549714E+03 -0.58265284473E+02  0.48534431849E+03  0.00000000000E+00 0. -1.
        -14    1    5    5    0    0  0.23841020441E+03  0.45552277717E+03 -0.12125661783E+03  0.52824576993E+03  0.00000000000E+00 0.  1.
         13    1    3    3    0    0 -0.35930105475E+03 -0.90562410943E+03  0.50382712863E+03  0.10968564405E+04  0.00000000000E+00 0. -1.
        -14    1    3    3    0    0 -0.45663881747E+02 -0.20785157017E+03  0.93050594340E+02  0.23226252049E+03  0.00000000000E+00 0.  1.
          4    1    6    6  502    0 -0.15749455681E+02  0.17504200279E+03  0.12687580746E+03  0.21676074048E+03  0.00000000000E+00 0. -1.
         -3    1    6    6    0  502 -0.13630770945E+01  0.37455402507E+02  0.91024761816E+02  0.98439181324E+02  0.00000000000E+00 0.  1.
<mgrwt>
<rscale>  0 0.11981542E+04</rscale>
<asrwt>0</asrwt>
<pdfrwt beam="1">  1        1 0.15558866E+00 0.11981542E+04</pdfrwt>
<pdfrwt beam="2">  1       -2 0.25332041E+00 0.11981542E+04</pdfrwt>
<totfact> 0.77895349E-01</totfact>
</mgrwt>
</event>
<event>
12    3  0.2422421E-007  0.9461331E+03  0.7818608E-02  0.9369682E-01
          1   -1    0    0  501    0  0.00000000000E+00  0.00000000000E+00  0.27567563931E+04  0.27567563931E+04  0.00000000000E+00 0. -1.
         -2   -1    0    0    0  501 -0.00000000000E+00 -0.00000000000E+00 -0.63131000247E+03  0.63131000247E+03  0.00000000000E+00 0.  1.
        -24    2    1    2    0    0  0.76215322752E+03  0.54160739097E+03  0.20734789704E+04  0.22759338370E+04  0.79647231224E+02 0.  0.
    5000000    2    1    2    0    0 -0.76215322752E+03 -0.54160739097E+03  0.51967420185E+02  0.11121325586E+04  0.59993508555E+03 0.  0.
        -24    2    4    4    0    0 -0.12289557283E+03 -0.17028172971E+03 -0.22550468043E+03  0.31811112160E+03  0.79013514659E+02 0.  0.
         24    2    4    4    0    0 -0.63925765468E+03 -0.37132566127E+03  0.27747210061E+03  0.79402143695E+03  0.83343745630E+02 0.  0.
         11    1    5    5    0    0 -0.32858979899E+02 -0.77615101601E+02 -0.43329611628E+02  0.94769572123E+02  0.00000000000E+00 0. -1.
        -12    1    5    5    0    0 -0.90036592934E+02 -0.92666628105E+02 -0.18217506880E+03  0.22334154948E+03  0.00000000000E+00 0.  1.
         11    1    3    3    0    0  0.42246838997E+03  0.31179255555E+03  0.10702100347E+04  0.11920753570E+04  0.00000000000E+00 0. -1.
        -12    1    3    3    0    0  0.33968483754E+03  0.22981483543E+03  0.10032689357E+04  0.10838584801E+04  0.00000000000E+00 0.  1.
          2    1    6    6  502    0 -0.11258474267E+03 -0.10259615051E+03  0.46779172815E+02  0.15934109761E+03  0.00000000000E+00 0. -1.
         -1    1    6    6    0  502 -0.52667291202E+03 -0.26872951076E+03  0.23069292780E+03  0.63468033934E+03  0.00000000000E+00 0.  1.
<mgrwt>
<rscale>  0 0.94613311E+03</rscale>
<asrwt>0</asrwt>
<pdfrwt beam="1">  1        1 0.42411636E+00 0.94613311E+03</pdfrwt>
<pdfrwt beam="2">  1       -2 0.97124617E-01 0.94613311E+03</pdfrwt>
<totfact> 0.71362081E-01</totfact>
</mgrwt>
</event>
<event>
12    3  0.2422421E-007  0.3301285E+03  0.7818608E-02  0.1071080E+00
          3   -1    0    0  501    0  0.00000000000E+00  0.00000000000E+00  0.71755814015E+03  0.71755814015E+03  0.00000000000E+00 0. -1.
         -4   -1    0    0    0  501 -0.00000000000E+00 -0.00000000000E+00 -0.17348399427E+03  0.17348399427E+03  0.00000000000E+00 0.  1.
        -24    2    1    2    0    0  0.59854152736E+02 -0.19807616082E+02  0.12086419900E+03  0.15415983695E+03  0.71987773078E+02 0.  0.
    5000000    2    1    2    0    0 -0.59854152736E+02  0.19807616082E+02  0.42320994688E+03  0.73688229748E+03  0.59992832900E+03 0.  0.
        -24    2    4    4    0    0 -0.32758963433E+02  0.29409647299E+03  0.28700065136E+03  0.41956360961E+03  0.78092019542E+02 0.  0.
         24    2    4    4    0    0 -0.27095189303E+02 -0.27428885691E+03  0.13620929552E+03  0.31731868786E+03  0.78547127075E+02 0.  0.
         13    1    5    5    0    0  0.99615890513E+01  0.21823560250E+03  0.21605313712E+03  0.30725391700E+03  0.00000000000E+00 0. -1.
        -14    1    5    5    0    0 -0.42720552484E+02  0.75860870496E+02  0.70947514238E+02  0.11230969261E+03  0.00000000000E+00 0.  1.
         13    1    3    3    0    0  0.21318178576E+02  0.74505315137E+01  0.10005962256E+03  0.10257632877E+03  0.00000000000E+00 0. -1.
        -14    1    3    3    0    0  0.38535974160E+02 -0.27258147596E+02  0.20804576444E+02  0.51583508177E+02  0.00000000000E+00 0.  1.
          4    1    6    6  502    0  0.25024610044E+02 -0.83847252765E+02  0.26425832295E+02  0.91405237906E+02  0.00000000000E+00 0. -1.
         -3    1    6    6    0  502 -0.52119799347E+02 -0.19044160415E+03  0.10978346323E+03  0.22591344996E+03  0.00000000000E+00 0.  1.
<mgrwt>
<rscale>  0 0.33012851E+03</rscale>
<asrwt>0</asrwt>
<pdfrwt beam="1">  1        3 0.11039356E+00 0.33012851E+03</pdfrwt>
<pdfrwt beam="2">  1       -4 0.26689846E-01 0.33012851E+03</pdfrwt>
<totfact> 0.20630195E+01</totfact>
</mgrwt>
</event>
<event>
12    3  0.2455118E-007  0.6878852E+03  0.7818608E-02  0.9738177E-01
         -2   -1    0    0    0  501 -0.00000000000E+00  0.00000000000E+00  0.45463836681E+03  0.45463836681E+03  0.00000000000E+00 0.  1.
          1   -1    0    0  501    0  0.00000000000E+00 -0.00000000000E+00 -0.23686163472E+04  0.23686163472E+04  0.00000000000E+00 0. -1.
        -24    2    1    2    0    0  0.11700142818E+03 -0.63663558251E+03  0.65755031593E+02  0.65566668733E+03  0.81122633015E+02 0.  0.
    5000000    2    1    2    0    0 -0.11700142818E+03  0.63663558251E+03 -0.19797330120E+04  0.21675880267E+04  0.60008404039E+03 0.  0.
        -24    2    4    4    0    0 -0.19472201490E+03  0.55359175619E+03 -0.88901364725E+03  0.10680645168E+04  0.77692028802E+02 0.  0.
         24    2    4    4    0    0  0.77720586711E+02  0.83043826313E+02 -0.10907193647E+04  0.10995235099E+04  0.79664606791E+02 0.  0.
         11    1    5    5    0    0 -0.63255307873E+02  0.90209103928E+02 -0.15750929042E+03  0.19221886738E+03  0.00000000000E+00 0. -1.
        -12    1    5    5    0    0 -0.13146670702E+03  0.46338265227E+03 -0.73150435683E+03  0.87584564938E+03  0.00000000000E+00 0.  1.
         13    1    3    3    0    0  0.96736529226E+02 -0.30261267233E+03  0.34922009082E+02  0.31961215912E+03  0.00000000000E+00 0. -1.
        -14    1    3    3    0    0  0.20264898958E+02 -0.33402291018E+03  0.30833022511E+02  0.33605452821E+03  0.00000000000E+00 0.  1.
          2    1    6    6  502    0 -0.67677229940E+01  0.32364442086E+02 -0.45665530468E+03  0.45785076878E+03  0.00000000000E+00 0. -1.
         -1    1    6    6    0  502  0.84488309705E+02  0.50679384227E+02 -0.63406406006E+03  0.64167274114E+03  0.00000000000E+00 0.  1.
<mgrwt>
<rscale>  0 0.68788518E+03</rscale>
<asrwt>0</asrwt>
<pdfrwt beam="1">  1        1 0.36440251E+00 0.68788518E+03</pdfrwt>
<pdfrwt beam="2">  1       -2 0.69944365E-01 0.68788518E+03</pdfrwt>
<totfact> 0.29083163E+00</totfact>
</mgrwt>
</event>
<event>
12    3  0.2422421E-007  0.4106783E+03  0.7818608E-02  0.1040144E+00
         -2   -1    0    0    0  501 -0.00000000000E+00  0.00000000000E+00  0.30550869011E+03  0.30550869011E+03  0.00000000000E+00 0.  1.
          1   -1    0    0  501    0  0.00000000000E+00 -0.00000000000E+00 -0.69885689769E+03  0.69885689769E+03  0.00000000000E+00 0. -1.
        -24    2    1    2    0    0 -0.25799488231E+03 -0.19074006734E+02 -0.13475516031E+03  0.30172342290E+03  0.77154997659E+02 0.  0.
    5000000    2    1    2    0    0  0.25799488231E+03  0.19074006734E+02 -0.25859304727E+03  0.70264216490E+03  0.59992538766E+03 0.  0.
        -24    2    4    4    0    0  0.94958978587E+02 -0.22748344561E+03  0.54484645689E+02  0.26491418504E+03  0.80280901690E+02 0.  0.
         24    2    4    4    0    0  0.16303590373E+03  0.24655745235E+03 -0.31307769296E+03  0.43772797986E+03  0.78847062780E+02 0.  0.
         11    1    3    3    0    0 -0.11082454522E+03 -0.45936631255E+02 -0.68047596568E+02  0.13792291076E+03  0.00000000000E+00 0. -1.
        -12    1    3    3    0    0 -0.14717033710E+03  0.26862624521E+02 -0.66707563742E+02  0.16380051214E+03  0.00000000000E+00 0.  1.
         11    1    5    5    0    0  0.71534280033E+02 -0.11048364362E+03 -0.47353782653E+01  0.13170502092E+03  0.00000000000E+00 0. -1.
        -12    1    5    5    0    0  0.23424698555E+02 -0.11699980199E+03  0.59220023955E+02  0.13320916412E+03  0.00000000000E+00 0.  1.
          2    1    6    6  502    0  0.10596037546E+03  0.20320559994E+03 -0.26983226095E+03  0.35401916059E+03  0.00000000000E+00 0. -1.
         -1    1    6    6    0  502  0.57075528264E+02  0.43351852408E+02 -0.43245432016E+02  0.83708819273E+02  0.00000000000E+00 0.  1.
<mgrwt>
<rscale>  0 0.41067833E+03</rscale>
<asrwt>0</asrwt>
<pdfrwt beam="1">  1        1 0.10751645E+00 0.41067833E+03</pdfrwt>
<pdfrwt beam="2">  1       -2 0.47001337E-01 0.41067833E+03</pdfrwt>
<totfact> 0.10724667E+02</totfact>
</mgrwt>
</event>
<event>
12    3  0.2422421E-007  0.4840378E+03  0.7818608E-02  0.1018031E+00
         -2   -1    0    0    0  501 -0.00000000000E+00  0.00000000000E+00  0.74041922538E+02  0.74041922538E+02  0.00000000000E+00 0.  1.
          1   -1    0    0  501    0  0.00000000000E+00 -0.00000000000E+00 -0.39247930552E+04  0.39247930552E+04  0.00000000000E+00 0. -1.
        -24    2    1    2    0    0  0.29886983213E+03  0.59782612617E+02 -0.57933911033E+03  0.65893048509E+03  0.75222616921E+02 0.  0.
    5000000    2    1    2    0    0 -0.29886983213E+03 -0.59782612617E+02 -0.32714120223E+04  0.33399044926E+04  0.59994021603E+03 0.  0.
        -24    2    4    4    0    0 -0.27248821144E+03  0.23174279553E+03 -0.16203600368E+04  0.16611962723E+04  0.77793687694E+02 0.  0.
         24    2    4    4    0    0 -0.26381620693E+02 -0.29152540815E+03 -0.16510519856E+04  0.16787082203E+04  0.80034844675E+02 0.  0.
         11    1    3    3    0    0  0.19164612650E+03  0.13465532298E+02 -0.30110232343E+03  0.35717246189E+03  0.00000000000E+00 0. -1.
        -12    1    3    3    0    0  0.10722370563E+03  0.46317080319E+02 -0.27823678690E+03  0.30175802319E+03  0.00000000000E+00 0.  1.
         13    1    5    5    0    0 -0.32978696635E+02  0.65242581062E+02 -0.38347197838E+03  0.39037795407E+03  0.00000000000E+00 0. -1.
        -14    1    5    5    0    0 -0.23950951480E+03  0.16650021447E+03 -0.12368880584E+04  0.12708183183E+04  0.00000000000E+00 0.  1.
          2    1    6    6  502    0 -0.91485495153E+01 -0.23691011873E+03 -0.14643959820E+04  0.14834640853E+04  0.00000000000E+00 0. -1.
         -1    1    6    6    0  502 -0.17233071177E+02 -0.54615289418E+02 -0.18665600355E+03  0.19524413498E+03  0.00000000000E+00 0.  1.
<mgrwt>
<rscale>  0 0.48403783E+03</rscale>
<asrwt>0</asrwt>
<pdfrwt beam="1">  1        1 0.60381447E+00 0.48403783E+03</pdfrwt>
<pdfrwt beam="2">  1       -2 0.11391062E-01 0.48403783E+03</pdfrwt>
<totfact> 0.63255135E+00</totfact>
</mgrwt>
</event>
<event>
12    3  0.2422421E-007  0.3011033E+03  0.7818608E-02  0.1084690E+00
          1   -1    0    0  501    0  0.00000000000E+00  0.00000000000E+00  0.67177773684E+03  0.67177773684E+03  0.00000000000E+00 0. -1.
         -2   -1    0    0    0  501 -0.00000000000E+00 -0.00000000000E+00 -0.21109613297E+03  0.21109613297E+03  0.00000000000E+00 0.  1.
        -24    2    1    2    0    0  0.10020322302E+03  0.30952604885E+02  0.24899460621E+02  0.13394863215E+03  0.79520458136E+02 0.  0.
    5000000    2    1    2    0    0 -0.10020322302E+03 -0.30952604885E+02  0.43578214325E+03  0.74892523767E+03  0.59998682117E+03 0.  0.
        -24    2    4    4    0    0  0.71837978713E+02  0.18960214378E+03 -0.78746041021E+01  0.21788050432E+03  0.79374030134E+02 0.  0.
         24    2    4    4    0    0 -0.17204120174E+03 -0.22055474867E+03  0.44365674736E+03  0.53104473335E+03  0.83274408338E+02 0.  0.
         11    1    3    3    0    0  0.14371052032E+02  0.70763617950E+01  0.40453745078E+02  0.43509855477E+02  0.00000000000E+00 0. -1.
        -12    1    3    3    0    0  0.85832170990E+02  0.23876243090E+02 -0.15554284457E+02  0.90438776672E+02  0.00000000000E+00 0.  1.
         13    1    5    5    0    0  0.76442472254E+02  0.92355038765E+02  0.29588118576E+01  0.11992355614E+03  0.00000000000E+00 0. -1.
        -14    1    5    5    0    0 -0.46044935412E+01  0.97247105019E+02 -0.10833415960E+02  0.97956948179E+02  0.00000000000E+00 0.  1.
          2    1    6    6  502    0 -0.13371957225E+03 -0.16539752846E+03  0.39320600668E+03  0.44704387941E+03  0.00000000000E+00 0. -1.
         -1    1    6    6    0  502 -0.38321629489E+02 -0.55157220213E+02  0.50450740672E+02  0.84000853940E+02  0.00000000000E+00 0.  1.
<mgrwt>
<rscale>  0 0.30110330E+03</rscale>
<asrwt>0</asrwt>
<pdfrwt beam="1">  1        1 0.10335042E+00 0.30110330E+03</pdfrwt>
<pdfrwt beam="2">  1       -2 0.32476328E-01 0.30110330E+03</pdfrwt>
<totfact> 0.23368991E+02</totfact>
</mgrwt>
</event>
<event>
12    3  0.2422421E-007  0.4230945E+03  0.7818608E-02  0.1036064E+00
         -2   -1    0    0    0  501 -0.00000000000E+00  0.00000000000E+00  0.25613899394E+03  0.25613899394E+03  0.00000000000E+00 0.  1.
          1   -1    0    0  501    0  0.00000000000E+00 -0.00000000000E+00 -0.12335474062E+04  0.12335474062E+04  0.00000000000E+00 0. -1.
        -24    2    1    2    0    0 -0.88299923827E+02 -0.37739405230E+03 -0.23783727768E+03  0.46157943468E+03  0.79157163987E+02 0.  0.
    5000000    2    1    2    0    0  0.88299923827E+02  0.37739405230E+03 -0.73957113463E+03  0.10281069655E+04  0.59984608200E+03 0.  0.
        -24    2    4    4    0    0 -0.73702075424E+02  0.14014766815E+03  0.50268733713E+02  0.18423151760E+03  0.79630029998E+02 0.  0.
         24    2    4    4    0    0  0.16200199925E+03  0.23724638414E+03 -0.78983986834E+03  0.84387544790E+03  0.75817276404E+02 0.  0.
         11    1    3    3    0    0 -0.26648459791E+02 -0.15489531716E+03 -0.53140157505E+02  0.16591134991E+03  0.00000000000E+00 0. -1.
        -12    1    3    3    0    0 -0.61651464036E+02 -0.22249873514E+03 -0.18469712017E+03  0.29566808478E+03  0.00000000000E+00 0.  1.
         13    1    5    5    0    0 -0.65934068508E+02  0.60102254662E+02  0.52985157485E+02  0.10376420057E+03  0.00000000000E+00 0. -1.
        -14    1    5    5    0    0 -0.77680069167E+01  0.80045413493E+02 -0.27164237723E+01  0.80467317035E+02  0.00000000000E+00 0.  1.
          4    1    6    6  502    0  0.77192585645E+02  0.89955929165E+02 -0.42791977804E+03  0.44403389613E+03  0.00000000000E+00 0. -1.
         -3    1    6    6    0  502  0.84809413607E+02  0.14729045498E+03 -0.36192009030E+03  0.39984155177E+03  0.00000000000E+00 0.  1.
<mgrwt>
<rscale>  0 0.42309454E+03</rscale>
<asrwt>0</asrwt>
<pdfrwt beam="1">  1        1 0.18977652E+00 0.42309454E+03</pdfrwt>
<pdfrwt beam="2">  1       -2 0.39406000E-01 0.42309454E+03</pdfrwt>
<totfact> 0.57438269E+01</totfact>
</mgrwt>
</event>
<event>
12    3  0.2422421E-007  0.1233974E+04  0.7818608E-02  0.9083628E-01
          1   -1    0    0  501    0  0.00000000000E+00  0.00000000000E+00  0.32346198417E+04  0.32346198417E+04  0.00000000000E+00 0. -1.
         -2   -1    0    0    0  501 -0.00000000000E+00 -0.00000000000E+00 -0.57933889932E+03  0.57933889932E+03  0.00000000000E+00 0.  1.
        -24    2    1    2    0    0  0.11777133269E+04  0.33431621408E+03  0.64767363585E+03  0.13871865437E+04  0.77648934827E+02 0.  0.
    5000000    2    1    2    0    0 -0.11777133269E+04 -0.33431621408E+03  0.20076073065E+04  0.24267721973E+04  0.59996682319E+03 0.  0.
        -24    2    4    4    0    0 -0.27148188287E+03 -0.15782775204E+03  0.16308591629E+03  0.36262616738E+03  0.79301381663E+02 0.  0.
         24    2    4    4    0    0 -0.90623144406E+03 -0.17648846205E+03  0.18445213902E+04  0.20641460299E+04  0.77692125467E+02 0.  0.
         11    1    3    3    0    0  0.91198839617E+03  0.29225092974E+03  0.50518502530E+03  0.10827489785E+04  0.00000000000E+00 0. -1.
        -12    1    3    3    0    0  0.26572493076E+03  0.42065284346E+02  0.14248861055E+03  0.30443756521E+03  0.00000000000E+00 0.  1.
         11    1    5    5    0    0 -0.21967726469E+03 -0.14888933354E+03  0.16018436048E+03  0.30997606941E+03  0.00000000000E+00 0. -1.
        -12    1    5    5    0    0 -0.51804618182E+02 -0.89384185013E+01  0.29015558115E+01  0.52650097971E+02  0.00000000000E+00 0.  1.
          2    1    6    6  502    0 -0.58140525348E+03 -0.11726534224E+03  0.11005588280E+04  0.12502051684E+04  0.00000000000E+00 0. -1.
         -1    1    6    6    0  502 -0.32482619058E+03 -0.59223119803E+02  0.74396256221E+03  0.81394086147E+03  0.00000000000E+00 0.  1.
<mgrwt>
<rscale>  0 0.12339741E+04</rscale>
<asrwt>0</asrwt>
<pdfrwt beam="1">  1        1 0.49763381E+00 0.12339741E+04</pdfrwt>
<pdfrwt beam="2">  1       -2 0.89129063E-01 0.12339741E+04</pdfrwt>
<totfact> 0.37704197E-01</totfact>
</mgrwt>
</event>
<event>
12    3  0.2422421E-007  0.1074788E+04  0.7818608E-02  0.9230119E-01
          1   -1    0    0  501    0  0.00000000000E+00  0.00000000000E+00  0.17185153605E+04  0.17185153605E+04  0.00000000000E+00 0. -1.
         -2   -1    0    0    0  501 -0.00000000000E+00 -0.00000000000E+00 -0.90525197956E+03  0.90525197956E+03  0.00000000000E+00 0.  1.
        -24    2    1    2    0    0 -0.68718104868E+03 -0.72089342559E+03 -0.26967755291E+03  0.10348407140E+04  0.79146674222E+02 0.  0.
    5000000    2    1    2    0    0  0.68718104868E+03  0.72089342559E+03  0.10829409339E+04  0.15889266261E+04  0.60001802657E+03 0.  0.
        -24    2    4    4    0    0  0.19390836125E+03 -0.74201823158E+02  0.18709975610E+03  0.29103971363E+03  0.81187641018E+02 0.  0.
         24    2    4    4    0    0  0.49327268742E+03  0.79509524875E+03  0.89584117780E+03  0.12978869125E+04  0.80527157340E+02 0.  0.
         13    1    3    3    0    0 -0.12342827344E+03 -0.13179600813E+03 -0.17822671993E+02  0.18144523714E+03  0.00000000000E+00 0. -1.
        -14    1    3    3    0    0 -0.56375277524E+03 -0.58909741746E+03 -0.25185488092E+03  0.85339547684E+03  0.00000000000E+00 0.  1.
         13    1    5    5    0    0  0.13164640089E+03 -0.20524930892E+02  0.15065012073E+03  0.20111565461E+03  0.00000000000E+00 0. -1.
        -14    1    5    5    0    0  0.62261960363E+02 -0.53676892266E+02  0.36449635375E+02  0.89924059020E+02  0.00000000000E+00 0.  1.
          2    1    6    6  502    0  0.30204497744E+03  0.54806253254E+03  0.56964353859E+03  0.84622542448E+03  0.00000000000E+00 0. -1.
         -1    1    6    6    0  502  0.19122770999E+03  0.24703271621E+03  0.32619763921E+03  0.45166148803E+03  0.00000000000E+00 0.  1.
<mgrwt>
<rscale>  0 0.10747885E+04</rscale>
<asrwt>0</asrwt>
<pdfrwt beam="1">  1        1 0.26438698E+00 0.10747885E+04</pdfrwt>
<pdfrwt beam="2">  1       -2 0.13926954E+00 0.10747885E+04</pdfrwt>
<totfact> 0.14655344E+00</totfact>
</mgrwt>
</event>
<event>
12    3  0.2422421E-007  0.8896821E+03  0.7818608E-02  0.9438572E-01
         -2   -1    0    0    0  501 -0.00000000000E+00  0.00000000000E+00  0.10354714638E+04  0.10354714638E+04  0.00000000000E+00 0.  1.
          1   -1    0    0  501    0  0.00000000000E+00 -0.00000000000E+00 -0.92407687485E+03  0.92407687485E+03  0.00000000000E+00 0. -1.
        -24    2    1    2    0    0  0.56015135884E+03  0.64953660567E+03 -0.16538769544E+03  0.87682588284E+03  0.76178685381E+02 0.  0.
    5000000    2    1    2    0    0 -0.56015135884E+03 -0.64953660567E+03  0.27678228443E+03  0.10827224558E+04  0.60001011367E+03 0.  0.
        -24    2    4    4    0    0 -0.45623543568E+03 -0.64631858457E+03  0.21093992786E+02  0.79550667585E+03  0.80668638687E+02 0.  0.
         24    2    4    4    0    0 -0.10391592316E+03 -0.32180210976E+01  0.25568829164E+03  0.28721577999E+03  0.79419941115E+02 0.  0.
         11    1    5    5    0    0 -0.28585873641E+03 -0.42435934178E+03 -0.23327806575E+02  0.51219161912E+03  0.00000000000E+00 0. -1.
        -12    1    5    5    0    0 -0.17037669927E+03 -0.22195924279E+03  0.44421799362E+02  0.28331505673E+03  0.00000000000E+00 0.  1.
         13    1    3    3    0    0  0.25950267926E+03  0.35282174002E+03 -0.66519712938E+02  0.44300078215E+03  0.00000000000E+00 0. -1.
        -14    1    3    3    0    0  0.30064867957E+03  0.29671486565E+03 -0.98867982499E+02  0.43382510069E+03  0.00000000000E+00 0.  1.
          2    1    6    6  502    0 -0.12077855819E+01 -0.22897727992E+02  0.75218873563E+02  0.78636147116E+02  0.00000000000E+00 0. -1.
         -1    1    6    6    0  502 -0.10270813758E+03  0.19679706894E+02  0.18046941808E+03  0.20857963288E+03  0.00000000000E+00 0.  1.
<mgrwt>
<rscale>  0 0.88968208E+03</rscale>
<asrwt>0</asrwt>
<pdfrwt beam="1">  1        1 0.14216567E+00 0.88968208E+03</pdfrwt>
<pdfrwt beam="2">  1       -2 0.15930330E+00 0.88968208E+03</pdfrwt>
<totfact> 0.39159688E+00</totfact>
</mgrwt>
</event>
<event>
12    3  0.2422421E-007  0.5267732E+03  0.7818608E-02  0.1007018E+00
         -2   -1    0    0    0  501 -0.00000000000E+00  0.00000000000E+00  0.55806855339E+03  0.55806855339E+03  0.00000000000E+00 0.  1.
          1   -1    0    0  501    0  0.00000000000E+00 -0.00000000000E+00 -0.64697853448E+03  0.64697853448E+03  0.00000000000E+00 0. -1.
        -24    2    1    2    0    0  0.37676059755E+03 -0.20288955965E+03  0.94764861360E+02  0.44550699040E+03  0.79896046618E+02 0.  0.
    5000000    2    1    2    0    0 -0.37676059755E+03  0.20288955965E+03 -0.18367484244E+03  0.75954009748E+03  0.60004332398E+03 0.  0.
        -24    2    4    4    0    0 -0.17381330906E+03 -0.13147480793E+03  0.11695877038E+03  0.25981829787E+03  0.79558169997E+02 0.  0.
         24    2    4    4    0    0 -0.20294728848E+03  0.33436436758E+03 -0.30063361282E+03  0.49972179960E+03  0.79713083198E+02 0.  0.
         11    1    5    5    0    0 -0.78752433800E+02 -0.39910421845E+02  0.88075100019E+02  0.12470770163E+03  0.00000000000E+00 0. -1.
        -12    1    5    5    0    0 -0.95060875263E+02 -0.91564386084E+02  0.28883670359E+02  0.13511059625E+03  0.00000000000E+00 0.  1.
         11    1    3    3    0    0  0.13865913328E+03 -0.34784025551E+02  0.17859872353E+02  0.14406685502E+03  0.00000000000E+00 0. -1.
        -12    1    3    3    0    0  0.23810146426E+03 -0.16810553409E+03  0.76904989008E+02  0.30144013537E+03  0.00000000000E+00 0.  1.
          4    1    6    6  502    0 -0.18060520683E+03  0.32984932610E+03 -0.28793068261E+03  0.47362738165E+03  0.00000000000E+00 0. -1.
         -3    1    6    6    0  502 -0.22342081657E+02  0.45150414769E+01 -0.12702930212E+02  0.26094417953E+02  0.00000000000E+00 0.  1.
<mgrwt>
<rscale>  0 0.52677316E+03</rscale>
<asrwt>0</asrwt>
<pdfrwt beam="1">  1        1 0.99535159E-01 0.52677316E+03</pdfrwt>
<pdfrwt beam="2">  1       -2 0.85856701E-01 0.52677316E+03</pdfrwt>
<totfact> 0.32934108E+01</totfact>
</mgrwt>
</event>
<event>
12    3  0.2422421E-007  0.4265286E+03  0.7818608E-02  0.1034962E+00
         -2   -1    0    0    0  501 -0.00000000000E+00  0.00000000000E+00  0.32222586297E+03  0.32222586297E+03  0.00000000000E+00 0.  1.
          1   -1    0    0  501    0  0.00000000000E+00 -0.00000000000E+00 -0.92319093313E+03  0.92319093313E+03  0.00000000000E+00 0. -1.
        -24    2    1    2    0    0 -0.19034369098E+03  0.24877459610E+03 -0.44602522617E+03  0.55101569440E+03  0.80995510518E+02 0.  0.
    5000000    2    1    2    0    0  0.19034369098E+03 -0.24877459610E+03 -0.15493984398E+03  0.69440110171E+03  0.60005584277E+03 0.  0.
        -24    2    4    4    0    0  0.31814551004E+03 -0.10698670333E+03  0.11085371259E+03  0.35836329053E+03  0.58932013022E+02 0.  0.
         24    2    4    4    0    0 -0.12780181906E+03 -0.14178789277E+03 -0.26579355657E+03  0.33603781118E+03  0.76407357863E+02 0.  0.
         11    1    5    5    0    0  0.11609402485E+03 -0.11926915210E+02  0.49680457154E+02  0.12683935405E+03  0.00000000000E+00 0. -1.
        -12    1    5    5    0    0  0.20205148519E+03 -0.95059788120E+02  0.61173255435E+02  0.23152393648E+03  0.00000000000E+00 0.  1.
         13    1    3    3    0    0 -0.13739632842E+03  0.19428760408E+03 -0.27366817893E+03  0.36265644393E+03  0.00000000000E+00 0. -1.
        -14    1    3    3    0    0 -0.52947362564E+02  0.54486992016E+02 -0.17235704725E+03  0.18835925047E+03  0.00000000000E+00 0.  1.
          4    1    6    6  502    0 -0.85047439156E+02 -0.52033206659E+02 -0.17495508521E+03  0.20136981736E+03  0.00000000000E+00 0. -1.
         -3    1    6    6    0  502 -0.42754379899E+02 -0.89754686113E+02 -0.90838471359E+02  0.13466799382E+03  0.00000000000E+00 0.  1.
<mgrwt>
<rscale>  0 0.42652861E+03</rscale>
<asrwt>0</asrwt>
<pdfrwt beam="1">  1        1 0.14202937E+00 0.42652861E+03</pdfrwt>
<pdfrwt beam="2">  1       -2 0.49573211E-01 0.42652861E+03</pdfrwt>
<totfact> 0.62068661E+01</totfact>
</mgrwt>
</event>
<event>
12    3  0.2422421E-007  0.1040695E+04  0.7818608E-02  0.9265004E-01
          1   -1    0    0  501    0  0.00000000000E+00  0.00000000000E+00  0.20166755873E+04  0.20166755873E+04  0.00000000000E+00 0. -1.
         -2   -1    0    0    0  501 -0.00000000000E+00 -0.00000000000E+00 -0.57989725713E+03  0.57989725713E+03  0.00000000000E+00 0.  1.
        -24    2    1    2    0    0 -0.93858348580E+03  0.25651377569E+03  0.40590923751E+03  0.10572810141E+04  0.79640170189E+02 0.  0.
    5000000    2    1    2    0    0  0.93858348580E+03 -0.25651377569E+03  0.10308690926E+04  0.15392918303E+04  0.59999164646E+03 0.  0.
        -24    2    4    4    0    0  0.13884103603E+03  0.14620827649E+03  0.80281963878E+02  0.23093220460E+03  0.78935391300E+02 0.  0.
         24    2    4    4    0    0  0.79974244977E+03 -0.40272205218E+03  0.95058712875E+03  0.13083596257E+04  0.80099835103E+02 0.  0.
         13    1    5    5    0    0  0.14246426750E+03  0.12526968963E+03  0.86918076025E+02  0.20867034910E+03  0.00000000000E+00 0. -1.
        -14    1    5    5    0    0 -0.36232314738E+01  0.20938586855E+02 -0.66361121471E+01  0.22261855498E+02  0.00000000000E+00 0.  1.
         13    1    3    3    0    0 -0.44242177130E+03  0.14682383588E+03  0.16072172950E+03  0.49307782026E+03  0.00000000000E+00 0. -1.
        -14    1    3    3    0    0 -0.49616171450E+03  0.10968993981E+03  0.24518750801E+03  0.56420319382E+03  0.00000000000E+00 0.  1.
          4    1    6    6  502    0  0.27488877482E+03 -0.11938975065E+03  0.36803727831E+03  0.47462531465E+03  0.00000000000E+00 0. -1.
         -3    1    6    6    0  502  0.52485367495E+03 -0.28333230153E+03  0.58254985044E+03  0.83373431107E+03  0.00000000000E+00 0.  1.
<mgrwt>
<rscale>  0 0.10406947E+04</rscale>
<asrwt>0</asrwt>
<pdfrwt beam="1">  1        1 0.31025778E+00 0.10406947E+04</pdfrwt>
<pdfrwt beam="2">  1       -2 0.89214964E-01 0.10406947E+04</pdfrwt>
<totfact> 0.27533949E+00</totfact>
</mgrwt>
</event>
<event>
12    3  0.2422421E-007  0.6707543E+03  0.7818608E-02  0.9768596E-01
          1   -1    0    0  501    0  0.00000000000E+00  0.00000000000E+00  0.13470858211E+04  0.13470858211E+04  0.00000000000E+00 0. -1.
         -2   -1    0    0    0  501 -0.00000000000E+00 -0.00000000000E+00 -0.39393259423E+03  0.39393259423E+03  0.00000000000E+00 0.  1.
        -24    2    1    2    0    0  0.29016504028E+03  0.52431900785E+03  0.33086189599E+03  0.68905115935E+03  0.78839922601E+02 0.  0.
    5000000    2    1    2    0    0 -0.29016504028E+03 -0.52431900785E+03  0.62229133086E+03  0.10519672560E+04  0.60023531599E+03 0.  0.
        -24    2    4    4    0    0 -0.38968930541E+03 -0.39866963274E+03  0.20730686485E+03  0.59995010277E+03  0.78541446308E+02 0.  0.
         24    2    4    4    0    0  0.99524265127E+02 -0.12564937511E+03  0.41498446601E+03  0.45201715319E+03  0.80090916650E+02 0.  0.
         11    1    5    5    0    0 -0.22005415210E+03 -0.24955960994E+03  0.16000752732E+03  0.36919674642E+03  0.00000000000E+00 0. -1.
        -12    1    5    5    0    0 -0.16963515331E+03 -0.14911002280E+03  0.47299337528E+02  0.23075335635E+03  0.00000000000E+00 0.  1.
         11    1    3    3    0    0  0.26909907247E+03  0.42853025799E+03  0.28535443103E+03  0.58092998212E+03  0.00000000000E+00 0. -1.
        -12    1    3    3    0    0  0.21065967808E+02  0.95788749858E+02  0.45507464968E+02  0.10812117724E+03  0.00000000000E+00 0.  1.
          4    1    6    6  502    0  0.94827698309E+02 -0.13696444281E+03  0.37872925558E+03  0.41374799092E+03  0.00000000000E+00 0. -1.
         -1    1    6    6    0  502  0.46965668181E+01  0.11315067700E+02  0.36255210431E+02  0.38269162263E+02  0.00000000000E+00 0.  1.
<mgrwt>
<rscale>  0 0.67075434E+03</rscale>
<asrwt>0</asrwt>
<pdfrwt beam="1">  1        1 0.20724397E+00 0.67075434E+03</pdfrwt>
<pdfrwt beam="2">  1       -2 0.60605015E-01 0.67075434E+03</pdfrwt>
<totfact> 0.19344463E+01</totfact>
</mgrwt>
</event>
<event>
12    3  0.2422421E-007  0.9613586E+03  0.7818608E-02  0.9351972E-01
          1   -1    0    0  501    0  0.00000000000E+00  0.00000000000E+00  0.24374430066E+04  0.24374430066E+04  0.00000000000E+00 0. -1.
         -2   -1    0    0    0  501 -0.00000000000E+00 -0.00000000000E+00 -0.16804314454E+04  0.16804314454E+04  0.00000000000E+00 0.  1.
        -24    2    1    2    0    0  0.40764261492E+03  0.86198257296E+03 -0.13933878133E+04  0.16902564384E+04  0.79061822160E+02 0.  0.
    5000000    2    1    2    0    0 -0.40764261492E+03 -0.86198257296E+03  0.21503993746E+04  0.24276180135E+04  0.59993773990E+03 0.  0.
        -24    2    4    4    0    0 -0.31524457347E+03 -0.71120636415E+03  0.10429548548E+04  0.13033357117E+04  0.75733181411E+02 0.  0.
         24    2    4    4    0    0 -0.92398041446E+02 -0.15077620881E+03  0.11074445198E+04  0.11242823018E+04  0.79413264204E+02 0.  0.
         11    1    3    3    0    0  0.37135304873E+03  0.72083711141E+03 -0.11691624239E+04  0.14228316842E+04  0.00000000000E+00 0. -1.
        -12    1    3    3    0    0  0.36289566188E+02  0.14114546155E+03 -0.22422538942E+03  0.26742475426E+03  0.00000000000E+00 0.  1.
         11    1    5    5    0    0 -0.15644130548E+03 -0.44082443381E+03  0.60688394916E+03  0.76622985536E+03  0.00000000000E+00 0. -1.
        -12    1    5    5    0    0 -0.15880326799E+03 -0.27038193034E+03  0.43607090562E+03  0.53710585634E+03  0.00000000000E+00 0.  1.
          4    1    6    6  502    0 -0.33030096145E+02 -0.10424613974E+03  0.47881828713E+03  0.49114681817E+03  0.00000000000E+00 0. -1.
         -3    1    6    6    0  502 -0.59367945301E+02 -0.46530069071E+02  0.62862623268E+03  0.63313548366E+03  0.00000000000E+00 0.  1.
<mgrwt>
<rscale>  0 0.96135863E+03</rscale>
<asrwt>0</asrwt>
<pdfrwt beam="1">  1        1 0.37499123E+00 0.96135863E+03</pdfrwt>
<pdfrwt beam="2">  1       -2 0.25852791E+00 0.96135863E+03</pdfrwt>
<totfact> 0.76658771E-02</totfact>
</mgrwt>
</event>
<event>
12    3  0.2422421E-007  0.6176839E+03  0.7818608E-02  0.9869382E-01
         -2   -1    0    0    0  501 -0.00000000000E+00  0.00000000000E+00  0.36037632268E+03  0.36037632268E+03  0.00000000000E+00 0.  1.
          1   -1    0    0  501    0  0.00000000000E+00 -0.00000000000E+00 -0.23677801249E+04  0.23677801249E+04  0.00000000000E+00 0. -1.
        -24    2    1    2    0    0  0.55550224365E+03  0.19339716351E+03 -0.47440316548E+02  0.59568080375E+03  0.81239342454E+02 0.  0.
    5000000    2    1    2    0    0 -0.55550224365E+03 -0.19339716351E+03 -0.19599634857E+04  0.21324756439E+04  0.60000858394E+03 0.  0.
        -24    2    4    4    0    0 -0.29665557819E+03  0.18005447715E+02 -0.27431396872E+03  0.41218748040E+03  0.79508724939E+02 0.  0.
         24    2    4    4    0    0 -0.25884666546E+03 -0.21140261123E+03 -0.16856495170E+04  0.17202881635E+04  0.79274276999E+02 0.  0.
         11    1    3    3    0    0  0.51090263400E+03  0.18355252280E+03 -0.64991830326E+02  0.54675128538E+03  0.00000000000E+00 0. -1.
        -12    1    3    3    0    0  0.44599609655E+02  0.98446407085E+01  0.17551513778E+02  0.48929518371E+02  0.00000000000E+00 0.  1.
         11    1    5    5    0    0 -0.17805631046E+03 -0.19170804145E+02 -0.19494895699E+03  0.26471997518E+03  0.00000000000E+00 0. -1.
        -12    1    5    5    0    0 -0.11859926774E+03  0.37176251860E+02 -0.79365011732E+02  0.14746750522E+03  0.00000000000E+00 0.  1.
          4    1    6    6  502    0 -0.24550982601E+03 -0.16660006061E+03 -0.14479469943E+04  0.14780328660E+04  0.00000000000E+00 0. -1.
         -3    1    6    6    0  502 -0.13336839455E+02 -0.44802550621E+02 -0.23770252272E+03  0.24225529743E+03  0.00000000000E+00 0.  1.
<mgrwt>
<rscale>  0 0.61768393E+03</rscale>
<asrwt>0</asrwt>
<pdfrwt beam="1">  1        1 0.36427386E+00 0.61768393E+03</pdfrwt>
<pdfrwt beam="2">  1       -2 0.55442512E-01 0.61768393E+03</pdfrwt>
<totfact> 0.48392496E+00</totfact>
</mgrwt>
</event>
<event>
12    3  0.2422421E-007  0.5249702E+03  0.7818608E-02  0.1007459E+00
          1   -1    0    0  501    0  0.00000000000E+00  0.00000000000E+00  0.41718613039E+03  0.41718613039E+03  0.00000000000E+00 0. -1.
         -2   -1    0    0    0  501 -0.00000000000E+00 -0.00000000000E+00 -0.77182341751E+03  0.77182341751E+03  0.00000000000E+00 0.  1.
        -24    2    1    2    0    0 -0.36223555118E+03  0.33873603804E+02  0.54121976018E+02  0.37694547356E+03  0.82442017079E+02 0.  0.
    5000000    2    1    2    0    0  0.36223555118E+03 -0.33873603804E+02 -0.40875926314E+03  0.81206407434E+03  0.60000159171E+03 0.  0.
        -24    2    4    4    0    0 -0.45489053774E+02  0.19632434544E+03 -0.65729902387E+02  0.22598519040E+03  0.78335072505E+02 0.  0.
         24    2    4    4    0    0  0.40772460495E+03 -0.23019794925E+03 -0.34302936076E+03  0.58607888394E+03  0.81171833398E+02 0.  0.
         11    1    3    3    0    0 -0.22629811729E+03  0.57747450630E+02  0.17795413321E+02  0.23422698965E+03  0.00000000000E+00 0. -1.
        -12    1    3    3    0    0 -0.13593743388E+03 -0.23873846827E+02  0.36326562697E+02  0.14271848391E+03  0.00000000000E+00 0.  1.
         13    1    5    5    0    0 -0.28479045684E+02  0.65275365250E+02 -0.60970124890E+02  0.93751189223E+02  0.00000000000E+00 0. -1.
        -14    1    5    5    0    0 -0.17010008089E+02  0.13104898019E+03 -0.47597774970E+01  0.13223400118E+03  0.00000000000E+00 0.  1.
          2    1    6    6  502    0  0.14594568150E+03 -0.12753097161E+03 -0.13168097183E+03  0.23431638656E+03  0.00000000000E+00 0. -1.
         -1    1    6    6    0  502  0.26177892345E+03 -0.10266697764E+03 -0.21134838893E+03  0.35176249738E+03  0.00000000000E+00 0.  1.
<mgrwt>
<rscale>  0 0.52497020E+03</rscale>
<asrwt>0</asrwt>
<pdfrwt beam="1">  1        1 0.64182482E-01 0.52497020E+03</pdfrwt>
<pdfrwt beam="2">  1       -2 0.11874206E+00 0.52497020E+03</pdfrwt>
<totfact> 0.28050375E+01</totfact>
</mgrwt>
</event>
<event>
12    3  0.2422421E-007  0.9017780E+03  0.7818608E-02  0.9423362E-01
         -4   -1    0    0    0  501 -0.00000000000E+00  0.00000000000E+00  0.14181642196E+04  0.14181642196E+04  0.00000000000E+00 0.  1.
          3   -1    0    0  501    0  0.00000000000E+00 -0.00000000000E+00 -0.63089956112E+03  0.63089956112E+03  0.00000000000E+00 0. -1.
        -24    2    1    2    0    0 -0.81072555881E+03  0.65456112162E+02  0.61772574403E+03  0.10243082148E+04  0.77857495738E+02 0.  0.
    5000000    2    1    2    0    0  0.81072555881E+03 -0.65456112162E+02  0.16953891445E+03  0.10247555660E+04  0.59985005805E+03 0.  0.
        -24    2    4    4    0    0  0.85660160159E+03 -0.14692987646E+03  0.21605112594E+03  0.89932541659E+03  0.82179215563E+02 0.  0.
         24    2    4    4    0    0 -0.45876042777E+02  0.81473764299E+02 -0.46512211485E+02  0.12543014938E+03  0.69474822677E+02 0.  0.
         11    1    5    5    0    0  0.66054493476E+03 -0.79564081235E+02  0.15366824790E+03  0.68283525413E+03  0.00000000000E+00 0. -1.
        -12    1    5    5    0    0  0.19605666682E+03 -0.67365795225E+02  0.62382878032E+02  0.21649016246E+03  0.00000000000E+00 0.  1.
         13    1    3    3    0    0 -0.44779721565E+03  0.11217024118E+02  0.30214678127E+03  0.54031550543E+03  0.00000000000E+00 0. -1.
        -14    1    3    3    0    0 -0.36292834316E+03  0.54239088044E+02  0.31557896277E+03  0.48399270932E+03  0.00000000000E+00 0.  1.
          4    1    6    6  502    0  0.30816257311E+01  0.63963330783E+02 -0.20142435287E+02  0.67130632362E+02  0.00000000000E+00 0. -1.
         -3    1    6    6    0  502 -0.48957668508E+02  0.17510433515E+02 -0.26369776198E+02  0.58299517016E+02  0.00000000000E+00 0.  1.
<mgrwt>
<rscale>  0 0.90177798E+03</rscale>
<asrwt>0</asrwt>
<pdfrwt beam="1">  1        3 0.97061471E-01 0.90177798E+03</pdfrwt>
<pdfrwt beam="2">  1       -4 0.21817911E+00 0.90177798E+03</pdfrwt>
<totfact> 0.21062581E-01</totfact>
</mgrwt>
</event>
<event>
12    3  0.2422421E-007  0.1023394E+04  0.7818608E-02  0.9283253E-01
          1   -1    0    0  501    0  0.00000000000E+00  0.00000000000E+00  0.14713090386E+04  0.14713090386E+04  0.00000000000E+00 0. -1.
         -2   -1    0    0    0  501 -0.00000000000E+00 -0.00000000000E+00 -0.73818910237E+03  0.73818910237E+03  0.00000000000E+00 0.  1.
        -24    2    1    2    0    0 -0.86280243379E+03 -0.39305193664E+03  0.44909758034E+03  0.10521018225E+04  0.79446483086E+02 0.  0.
    5000000    2    1    2    0    0  0.86280243379E+03  0.39305193664E+03  0.28402235586E+03  0.11573963184E+04  0.59998306189E+03 0.  0.
        -24    2    4    4    0    0 -0.11298918896E+02  0.19600045020E+03  0.11827461253E+03  0.24292554073E+03  0.80499020625E+02 0.  0.
         24    2    4    4    0    0  0.87410135268E+03  0.19705148644E+03  0.16574774333E+03  0.91447077766E+03  0.76824642597E+02 0.  0.
         13    1    5    5    0    0  0.52281840553E+01  0.13663768617E+03  0.38367500028E+02  0.14201850671E+03  0.00000000000E+00 0. -1.
        -14    1    5    5    0    0 -0.16527102952E+02  0.59362764030E+02  0.79907112501E+02  0.10090703401E+03  0.00000000000E+00 0.  1.
         13    1    3    3    0    0 -0.50806683683E+03 -0.27404432100E+03  0.27444217670E+03  0.63917971566E+03  0.00000000000E+00 0. -1.
        -14    1    3    3    0    0 -0.35473559696E+03 -0.11900761565E+03  0.17465540364E+03  0.41292210688E+03  0.00000000000E+00 0.  1.
          2    1    6    6  502    0  0.26770410846E+03  0.40791263425E+02  0.80380443636E+02  0.28247200317E+03  0.00000000000E+00 0. -1.
         -1    1    6    6    0  502  0.60639724423E+03  0.15626022302E+03  0.85367299690E+02  0.63199877449E+03  0.00000000000E+00 0.  1.
<mgrwt>
<rscale>  0 0.10233938E+04</rscale>
<asrwt>0</asrwt>
<pdfrwt beam="1">  1        1 0.22635524E+00 0.10233938E+04</pdfrwt>
<pdfrwt beam="2">  1       -2 0.11356755E+00 0.10233938E+04</pdfrwt>
<totfact> 0.36422967E+00</totfact>
</mgrwt>
</event>
<event>
12    3  0.2422421E-007  0.8545464E+03  0.7818608E-02  0.9484255E-01
          1   -1    0    0  501    0  0.00000000000E+00  0.00000000000E+00  0.12200777699E+04  0.12200777699E+04  0.00000000000E+00 0. -1.
         -2   -1    0    0    0  501 -0.00000000000E+00 -0.00000000000E+00 -0.67352106422E+03  0.67352106422E+03  0.00000000000E+00 0.  1.
        -24    2    1    2    0    0  0.74597863349E+03 -0.23816748783E+03  0.43871188987E+03  0.90133509234E+03  0.82030192539E+02 0.  0.
    5000000    2    1    2    0    0 -0.74597863349E+03  0.23816748783E+03  0.10784481583E+03  0.99226374181E+03  0.59979075945E+03 0.  0.
        -24    2    4    4    0    0 -0.30839102672E+03  0.34904301717E+03 -0.10964657515E+03  0.48499330892E+03  0.79120699345E+02 0.  0.
         24    2    4    4    0    0 -0.43758760677E+03 -0.11087552934E+03  0.21749139098E+03  0.50727043288E+03  0.79022087556E+02 0.  0.
         11    1    5    5    0    0 -0.15764115612E+03  0.11955510398E+03 -0.44029086270E+02  0.20268872052E+03  0.00000000000E+00 0. -1.
        -12    1    5    5    0    0 -0.15074987060E+03  0.22948791318E+03 -0.65617488881E+02  0.28230458840E+03  0.00000000000E+00 0.  1.
         11    1    3    3    0    0  0.30954891376E+03 -0.97219531196E+02  0.13594793724E+03  0.35178687994E+03  0.00000000000E+00 0. -1.
        -12    1    3    3    0    0  0.43642971973E+03 -0.14094795663E+03  0.30276395264E+03  0.54954821240E+03  0.00000000000E+00 0.  1.
          4    1    6    6  502    0 -0.45226410119E+02  0.21361725405E+01  0.13909552563E+01  0.45298191597E+02  0.00000000000E+00 0. -1.
         -3    1    6    6    0  502 -0.39236119665E+03 -0.11301170188E+03  0.21610043573E+03  0.46197224129E+03  0.00000000000E+00 0.  1.
<mgrwt>
<rscale>  0 0.85454644E+03</rscale>
<asrwt>0</asrwt>
<pdfrwt beam="1">  1        1 0.18770427E+00 0.85454644E+03</pdfrwt>
<pdfrwt beam="2">  1       -2 0.10361863E+00 0.85454644E+03</pdfrwt>
<totfact> 0.69755023E+00</totfact>
</mgrwt>
</event>
<event>
12    3  0.2422421E-007  0.7847949E+03  0.7818608E-02  0.9582290E-01
          1   -1    0    0  501    0  0.00000000000E+00  0.00000000000E+00  0.33328211785E+03  0.33328211785E+03  0.00000000000E+00 0. -1.
         -2   -1    0    0    0  501 -0.00000000000E+00 -0.00000000000E+00 -0.23376476796E+04  0.23376476796E+04  0.00000000000E+00 0.  1.
        -24    2    1    2    0    0 -0.54726275234E+02 -0.74949549453E+03 -0.11953051396E+04  0.14142322796E+04  0.80994459049E+02 0.  0.
    5000000    2    1    2    0    0  0.54726275234E+02  0.74949549453E+03 -0.80906042213E+03  0.12566975178E+04  0.59997618550E+03 0.  0.
        -24    2    4    4    0    0  0.59490126037E+01  0.77397742199E+01 -0.39325328780E+03  0.40120777816E+03  0.78893840278E+02 0.  0.
         24    2    4    4    0    0  0.48777262630E+02  0.74175572031E+03 -0.41580713433E+03  0.85548973968E+03  0.79914653105E+02 0.  0.
         11    1    5    5    0    0 -0.28994429585E+02 -0.95851472757E+01 -0.27495927618E+03  0.27664987900E+03  0.00000000000E+00 0. -1.
        -12    1    5    5    0    0  0.34943442189E+02  0.17324921496E+02 -0.11829401162E+03  0.12455789916E+03  0.00000000000E+00 0.  1.
         11    1    3    3    0    0 -0.47775307939E+02 -0.23725363859E+03 -0.42648383905E+03  0.49036744798E+03  0.00000000000E+00 0. -1.
        -12    1    3    3    0    0 -0.69509672947E+01 -0.51224185593E+03 -0.76882130059E+03  0.92386483164E+03  0.00000000000E+00 0.  1.
          4    1    6    6  502    0  0.44590213494E+01  0.49628792336E+03 -0.30512013765E+03  0.58259753187E+03  0.00000000000E+00 0. -1.
         -3    1    6    6    0  502  0.44318241281E+02  0.24546779695E+03 -0.11068699668E+03  0.27289220781E+03  0.00000000000E+00 0.  1.
<mgrwt>
<rscale>  0 0.78479486E+03</rscale>
<asrwt>0</asrwt>
<pdfrwt beam="1">  1        1 0.51274173E-01 0.78479486E+03</pdfrwt>
<pdfrwt beam="2">  1       -2 0.35963810E+00 0.78479486E+03</pdfrwt>
<totfact> 0.95079327E-01</totfact>
</mgrwt>
</event>
<event>
12    3  0.2422421E-007  0.6027814E+03  0.7818608E-02  0.9899652E-01
         -2   -1    0    0    0  501 -0.00000000000E+00  0.00000000000E+00  0.81565465456E+03  0.81565465456E+03  0.00000000000E+00 0.  1.
          1   -1    0    0  501    0  0.00000000000E+00 -0.00000000000E+00 -0.60391497842E+03  0.60391497842E+03  0.00000000000E+00 0. -1.
        -24    2    1    2    0    0 -0.79534820769E+02  0.53871770050E+03 -0.86968175484E+02  0.55600387929E+03  0.70952813075E+02 0.  0.
    5000000    2    1    2    0    0  0.79534820769E+02 -0.53871770050E+03  0.29870785163E+03  0.86356575369E+03  0.59998073450E+03 0.  0.
        -24    2    4    4    0    0 -0.10731613667E+03 -0.67759481381E+02  0.31710390293E+03  0.35069004728E+03  0.79501720143E+02 0.  0.
         24    2    4    4    0    0  0.18685095743E+03 -0.47095821912E+03 -0.18396051301E+02  0.51287570640E+03  0.77383144554E+02 0.  0.
         13    1    5    5    0    0 -0.40958928090E+02 -0.72112248499E+02  0.16435584698E+03  0.18409414605E+03  0.00000000000E+00 0. -1.
        -14    1    5    5    0    0 -0.66357208575E+02  0.43527671175E+01  0.15274805595E+03  0.16659590124E+03  0.00000000000E+00 0.  1.
         13    1    3    3    0    0 -0.83772749946E+02  0.37134715415E+03 -0.44451802456E+02  0.38326563278E+03  0.00000000000E+00 0. -1.
        -14    1    3    3    0    0  0.42379291769E+01  0.16737054636E+03 -0.42516373028E+02  0.17273824651E+03  0.00000000000E+00 0.  1.
          4    1    6    6  502    0  0.61280780856E+02 -0.11096212317E+03 -0.34162508417E+02  0.13128215364E+03  0.00000000000E+00 0. -1.
         -3    1    6    6    0  502  0.12557017658E+03 -0.35999609595E+03  0.15766457115E+02  0.38159355277E+03  0.00000000000E+00 0.  1.
<mgrwt>
<rscale>  0 0.60278135E+03</rscale>
<asrwt>0</asrwt>
<pdfrwt beam="1">  1        1 0.92909997E-01 0.60278135E+03</pdfrwt>
<pdfrwt beam="2">  1       -2 0.12548533E+00 0.60278135E+03</pdfrwt>
<totfact> 0.14608572E+01</totfact>
</mgrwt>
</event>
<event>
12    3  0.2422421E-007  0.4521697E+03  0.7818608E-02  0.1027077E+00
          1   -1    0    0  501    0  0.00000000000E+00  0.00000000000E+00  0.17628842390E+04  0.17628842390E+04  0.00000000000E+00 0. -1.
         -2   -1    0    0    0  501 -0.00000000000E+00 -0.00000000000E+00 -0.18082840762E+03  0.18082840762E+03  0.00000000000E+00 0.  1.
        -24    2    1    2    0    0 -0.24173061920E+03  0.79031139882E+02  0.39916591918E+02  0.26950414805E+03  0.79746712635E+02 0.  0.
    5000000    2    1    2    0    0  0.24173061920E+03 -0.79031139882E+02  0.15421392394E+04  0.16742084985E+04  0.60008420198E+03 0.  0.
        -24    2    4    4    0    0  0.43274745403E+03 -0.53658432795E+02  0.10407972823E+04  0.11313002956E+04  0.80198438483E+02 0.  0.
         24    2    4    4    0    0 -0.19101683484E+03 -0.25372707087E+02  0.50134195711E+03  0.54290820295E+03  0.79210816275E+02 0.  0.
         11    1    3    3    0    0 -0.82330109129E+02  0.96559204592E+01  0.47419462345E+02  0.95499157474E+02  0.00000000000E+00 0. -1.
        -12    1    3    3    0    0 -0.15940051007E+03  0.69375219423E+02 -0.75028704276E+01  0.17400499057E+03  0.00000000000E+00 0.  1.
         13    1    5    5    0    0  0.64140865115E+02  0.12339628265E+02  0.21196868319E+03  0.22180405690E+03  0.00000000000E+00 0. -1.
        -14    1    5    5    0    0  0.36860658892E+03 -0.65998061060E+02  0.82882859913E+03  0.90949623869E+03  0.00000000000E+00 0.  1.
          2    1    6    6  502    0 -0.33466084155E+02  0.25698600123E+02  0.87043808681E+02  0.96731698355E+02  0.00000000000E+00 0. -1.
         -3    1    6    6    0  502 -0.15755075068E+03 -0.51071307210E+02  0.41429814843E+03  0.44617650459E+03  0.00000000000E+00 0.  1.
<mgrwt>
<rscale>  0 0.45216968E+03</rscale>
<asrwt>0</asrwt>
<pdfrwt beam="1">  1        1 0.27121295E+00 0.45216968E+03</pdfrwt>
<pdfrwt beam="2">  1       -2 0.27819756E-01 0.45216968E+03</pdfrwt>
<totfact> 0.48008225E+01</totfact>
</mgrwt>
</event>
<event>
12    3  0.2422421E-007  0.1318146E+04  0.7818608E-02  0.9015297E-01
          1   -1    0    0  501    0  0.00000000000E+00  0.00000000000E+00  0.75161683507E+03  0.75161683507E+03  0.00000000000E+00 0. -1.
         -2   -1    0    0    0  501 -0.00000000000E+00 -0.00000000000E+00 -0.24927040497E+04  0.24927040497E+04  0.00000000000E+00 0.  1.
        -24    2    1    2    0    0  0.59033221886E+03  0.11079986531E+04 -0.12370406342E+04  0.17643640661E+04  0.80980757784E+02 0.  0.
    5000000    2    1    2    0    0 -0.59033221886E+03 -0.11079986531E+04 -0.50404658040E+03  0.14799568186E+04  0.60004673640E+03 0.  0.
        -24    2    4    4    0    0 -0.66357507431E+03 -0.70796424571E+03 -0.30173366221E+03  0.10191376367E+04  0.77801460620E+02 0.  0.
         24    2    4    4    0    0  0.73242855447E+02 -0.40003440742E+03 -0.20231291819E+03  0.46081918190E+03  0.77664396879E+02 0.  0.
         11    1    3    3    0    0  0.32546373630E+03  0.69485817774E+03 -0.75487106025E+03  0.10763757933E+04  0.00000000000E+00 0. -1.
        -12    1    3    3    0    0  0.26486848256E+03  0.41314047539E+03 -0.48216957393E+03  0.68798827278E+03  0.00000000000E+00 0.  1.
         13    1    5    5    0    0 -0.36242809380E+03 -0.40216294134E+03 -0.12929721758E+03  0.55660302284E+03  0.00000000000E+00 0. -1.
        -14    1    5    5    0    0 -0.30114698051E+03 -0.30580130437E+03 -0.17243644462E+03  0.46253461391E+03  0.00000000000E+00 0.  1.
          2    1    6    6  502    0  0.37061216168E+02 -0.12865823919E+03 -0.29621783001E+02  0.13712740894E+03  0.00000000000E+00 0. -1.
         -1    1    6    6    0  502  0.36181639279E+02 -0.27137616823E+03 -0.17269113519E+03  0.32369177296E+03  0.00000000000E+00 0.  1.
<mgrwt>
<rscale>  0 0.13181463E+04</rscale>
<asrwt>0</asrwt>
<pdfrwt beam="1">  1        1 0.11563336E+00 0.13181463E+04</pdfrwt>
<pdfrwt beam="2">  1       -2 0.38349293E+00 0.13181463E+04</pdfrwt>
<totfact> 0.19841694E-01</totfact>
</mgrwt>
</event>
<event>
12    3  0.2422421E-007  0.3880831E+03  0.7818608E-02  0.1047986E+00
         -2   -1    0    0    0  501 -0.00000000000E+00  0.00000000000E+00  0.25664815057E+03  0.25664815057E+03  0.00000000000E+00 0.  1.
          1   -1    0    0  501    0  0.00000000000E+00 -0.00000000000E+00 -0.78593911463E+03  0.78593911463E+03  0.00000000000E+00 0. -1.
        -24    2    1    2    0    0 -0.21792406491E+01 -0.16117673257E+03 -0.35395085289E+03  0.39708063502E+03  0.80057081065E+02 0.  0.
    5000000    2    1    2    0    0  0.21792406491E+01  0.16117673257E+03 -0.17534011116E+03  0.64550663018E+03  0.59995997101E+03 0.  0.
        -24    2    4    4    0    0 -0.27000282478E+03  0.18182856798E+03 -0.79949007876E+02  0.34553351199E+03  0.83895235402E+02 0.  0.
         24    2    4    4    0    0  0.27218206543E+03 -0.20651835403E+02 -0.95391103286E+02  0.29997311819E+03  0.79842557601E+02 0.  0.
         11    1    3    3    0    0  0.74345918946E+01 -0.15311887343E+03 -0.25645094596E+03  0.29877709122E+03  0.00000000000E+00 0. -1.
        -12    1    3    3    0    0 -0.96138325437E+01 -0.80578591464E+01 -0.97499906938E+02  0.98303543798E+02  0.00000000000E+00 0.  1.
         13    1    5    5    0    0 -0.22749131188E+03  0.11251340473E+03 -0.48711856650E+02  0.25842679468E+03  0.00000000000E+00 0. -1.
        -14    1    5    5    0    0 -0.42511512898E+02  0.69315163243E+02 -0.31237151226E+02  0.87106717313E+02  0.00000000000E+00 0.  1.
          4    1    6    6  502    0  0.62295536772E+02  0.10031339370E+02  0.86948084666E+01  0.63694280477E+02  0.00000000000E+00 0. -1.
         -3    1    6    6    0  502  0.20988652866E+03 -0.30683174773E+02 -0.10408591175E+03  0.23627883772E+03  0.00000000000E+00 0.  1.
<mgrwt>
<rscale>  0 0.38808315E+03</rscale>
<asrwt>0</asrwt>
<pdfrwt beam="1">  1        1 0.12091371E+00 0.38808315E+03</pdfrwt>
<pdfrwt beam="2">  1       -2 0.39484330E-01 0.38808315E+03</pdfrwt>
<totfact> 0.12656790E+02</totfact>
</mgrwt>
</event>
<event>
12    3  0.2422421E-007  0.5966236E+03  0.7818608E-02  0.9912436E-01
          1   -1    0    0  501    0  0.00000000000E+00  0.00000000000E+00  0.94224033005E+03  0.94224033005E+03  0.00000000000E+00 0. -1.
         -2   -1    0    0    0  501 -0.00000000000E+00 -0.00000000000E+00 -0.52769655372E+03  0.52769655372E+03  0.00000000000E+00 0.  1.
        -24    2    1    2    0    0 -0.90634306754E+02 -0.45984166372E+03 -0.17555546709E+03  0.50675779042E+03  0.79465733933E+02 0.  0.
    5000000    2    1    2    0    0  0.90634306754E+02  0.45984166372E+03  0.59009924343E+03  0.96317909336E+03  0.59985657914E+03 0.  0.
        -24    2    4    4    0    0  0.31893655734E+03  0.30655415725E+03  0.23547964171E+03  0.50745078481E+03  0.79747466541E+02 0.  0.
         24    2    4    4    0    0 -0.22830225058E+03  0.15328750647E+03  0.35461960172E+03  0.45572830855E+03  0.79462267931E+02 0.  0.
         13    1    3    3    0    0 -0.77932703146E+02 -0.19777483145E+03 -0.89273633247E+02  0.23056055987E+03  0.00000000000E+00 0. -1.
        -14    1    3    3    0    0 -0.12701603608E+02 -0.26206683227E+03 -0.86281833846E+02  0.27619723054E+03  0.00000000000E+00 0.  1.
         13    1    5    5    0    0  0.54954727072E+02  0.54406344115E+02  0.90101883978E+01  0.77854067347E+02  0.00000000000E+00 0. -1.
        -14    1    5    5    0    0  0.26398183026E+03  0.25214781313E+03  0.22646945331E+03  0.42959671747E+03  0.00000000000E+00 0.  1.
          4    1    6    6  502    0 -0.21840911207E+02  0.72158162644E+01  0.38989836500E+01  0.23330141024E+02  0.00000000000E+00 0. -1.
         -3    1    6    6    0  502 -0.20646133938E+03  0.14607169021E+03  0.35072061807E+03  0.43239816752E+03  0.00000000000E+00 0.  1.
<mgrwt>
<rscale>  0 0.59662362E+03</rscale>
<asrwt>0</asrwt>
<pdfrwt beam="1">  1        1 0.14496005E+00 0.59662362E+03</pdfrwt>
<pdfrwt beam="2">  1       -2 0.81184085E-01 0.59662362E+03</pdfrwt>
<totfact> 0.20516031E+01</totfact>
</mgrwt>
</event>
<event>
12    3  0.2422421E-007  0.4653561E+03  0.7818608E-02  0.1023239E+00
          1   -1    0    0  501    0  0.00000000000E+00  0.00000000000E+00  0.16289881918E+04  0.16289881918E+04  0.00000000000E+00 0. -1.
         -2   -1    0    0    0  501 -0.00000000000E+00 -0.00000000000E+00 -0.28135420223E+03  0.28135420223E+03  0.00000000000E+00 0.  1.
        -24    2    1    2    0    0  0.35807667244E+03 -0.18081045946E+03  0.32471815485E+02  0.41015845094E+03  0.79146765479E+02 0.  0.
    5000000    2    1    2    0    0 -0.35807667244E+03  0.18081045946E+03  0.13151621741E+04  0.15001839431E+04  0.59999082777E+03 0.  0.
        -24    2    4    4    0    0 -0.15283471496E+03 -0.83033084809E+02  0.61199135269E+02  0.20026852903E+03  0.78161411796E+02 0.  0.
         24    2    4    4    0    0 -0.20524195747E+03  0.26384354427E+03  0.12539630388E+04  0.12999154141E+04  0.74960683350E+02 0.  0.
         11    1    3    3    0    0  0.71801612135E+02 -0.33052628186E+01  0.14469055210E+01  0.71892209613E+02  0.00000000000E+00 0. -1.
        -12    1    3    3    0    0  0.28627506030E+03 -0.17750519664E+03  0.31024909964E+02  0.33826624133E+03  0.00000000000E+00 0.  1.
         13    1    5    5    0    0 -0.11582237296E+03 -0.33573621470E+02  0.67460236215E+02  0.13817703720E+03  0.00000000000E+00 0. -1.
        -14    1    5    5    0    0 -0.37012341997E+02 -0.49459463339E+02 -0.62611009460E+01  0.62091491840E+02  0.00000000000E+00 0.  1.
          2    1    6    6  502    0 -0.68088842033E+02  0.45880304941E+02  0.38173055255E+03  0.39046037897E+03  0.00000000000E+00 0. -1.
         -1    1    6    6    0  502 -0.13715311544E+03  0.21796323932E+03  0.87223248628E+03  0.90945503512E+03  0.00000000000E+00 0.  1.
<mgrwt>
<rscale>  0 0.46535610E+03</rscale>
<asrwt>0</asrwt>
<pdfrwt beam="1">  1        1 0.25061356E+00 0.46535610E+03</pdfrwt>
<pdfrwt beam="2">  1       -2 0.43285263E-01 0.46535610E+03</pdfrwt>
<totfact> 0.25507241E+01</totfact>
</mgrwt>
</event>
<event>
12    3  0.2422421E-007  0.1063547E+04  0.7818608E-02  0.9241468E-01
         -2   -1    0    0    0  501 -0.00000000000E+00  0.00000000000E+00  0.70946653306E+03  0.70946653306E+03  0.00000000000E+00 0.  1.
          1   -1    0    0  501    0  0.00000000000E+00 -0.00000000000E+00 -0.22069958215E+04  0.22069958215E+04  0.00000000000E+00 0. -1.
        -24    2    1    2    0    0 -0.87794115656E+03  0.46270441899E+03  0.32863424056E+02  0.99631369840E+03  0.81761404355E+02 0.  0.
    5000000    2    1    2    0    0  0.87794115656E+03 -0.46270441899E+03 -0.15303927125E+04  0.19201486562E+04  0.59999412798E+03 0.  0.
        -24    2    4    4    0    0  0.75415458524E+03 -0.12902175563E+03 -0.12185396551E+04  0.14410150263E+04  0.79307397131E+02 0.  0.
         24    2    4    4    0    0  0.12378657132E+03 -0.33368266337E+03 -0.31185305743E+03  0.47913362986E+03  0.75162961357E+02 0.  0.
         13    1    3    3    0    0 -0.15109864603E+03  0.46255172819E+02  0.91534385079E+01  0.15828495596E+03  0.00000000000E+00 0. -1.
        -14    1    3    3    0    0 -0.72684251053E+03  0.41644924617E+03  0.23709985548E+02  0.83802874245E+03  0.00000000000E+00 0.  1.
         13    1    5    5    0    0  0.46910398531E+03 -0.48945507172E+02 -0.70463010807E+03  0.84791379332E+03  0.00000000000E+00 0. -1.
        -14    1    5    5    0    0  0.28505059994E+03 -0.80076248455E+02 -0.51390954703E+03  0.59310123303E+03  0.00000000000E+00 0.  1.
          2    1    6    6  502    0 -0.62002275413E+01 -0.63704358936E+02 -0.50521227230E+02  0.81541906832E+02  0.00000000000E+00 0. -1.
         -1    1    6    6    0  502  0.12998679886E+03 -0.26997830443E+03 -0.26133183020E+03  0.39759172303E+03  0.00000000000E+00 0.  1.
<mgrwt>
<rscale>  0 0.10635475E+04</rscale>
<asrwt>0</asrwt>
<pdfrwt beam="1">  1        1 0.33953782E+00 0.10635475E+04</pdfrwt>
<pdfrwt beam="2">  1       -2 0.10914870E+00 0.10635475E+04</pdfrwt>
<totfact> 0.12654084E+00</totfact>
</mgrwt>
</event>
<event>
12    3  0.2422421E-007  0.1994239E+04  0.7818608E-02  0.8609319E-01
         -2   -1    0    0    0  501 -0.00000000000E+00  0.00000000000E+00  0.22066304051E+04  0.22066304051E+04  0.00000000000E+00 0.  1.
          1   -1    0    0  501    0  0.00000000000E+00 -0.00000000000E+00 -0.21169374820E+04  0.21169374820E+04  0.00000000000E+00 0. -1.
        -24    2    1    2    0    0 -0.64629850660E+03  0.18588934376E+04  0.82957134181E+03  0.21371963664E+04  0.78950146141E+02 0.  0.
    5000000    2    1    2    0    0  0.64629850660E+03 -0.18588934376E+04 -0.73987841872E+03  0.21863715207E+04  0.59967806364E+03 0.  0.
        -24    2    4    4    0    0  0.64127224027E+03 -0.12498675322E+04 -0.69815285926E+03  0.15707088070E+04  0.79434296048E+02 0.  0.
         24    2    4    4    0    0  0.50262663312E+01 -0.60902590538E+03 -0.41725559455E+02  0.61566271365E+03  0.79760503289E+02 0.  0.
         13    1    3    3    0    0 -0.21753994011E+03  0.74212851066E+03  0.32038944280E+03  0.83709482554E+03  0.00000000000E+00 0. -1.
        -14    1    3    3    0    0 -0.42875856649E+03  0.11167649269E+04  0.50918189900E+03  0.13001015409E+04  0.00000000000E+00 0.  1.
         13    1    5    5    0    0  0.24534435767E+03 -0.53471207489E+03 -0.25935990079E+03  0.64294511042E+03  0.00000000000E+00 0. -1.
        -14    1    5    5    0    0  0.39592788260E+03 -0.71515545733E+03 -0.43879295848E+03  0.92776369662E+03  0.00000000000E+00 0.  1.
          4    1    6    6  502    0 -0.29662537487E+02 -0.41243232173E+03 -0.45523898071E+02  0.41599604738E+03  0.00000000000E+00 0. -1.
         -3    1    6    6    0  502  0.34688803818E+02 -0.19659358365E+03  0.37983386160E+01  0.19966666627E+03  0.00000000000E+00 0.  1.
<mgrwt>
<rscale>  0 0.19942387E+04</rscale>
<asrwt>0</asrwt>
<pdfrwt beam="1">  1        1 0.32568269E+00 0.19942387E+04</pdfrwt>
<pdfrwt beam="2">  1       -2 0.33948160E+00 0.19942387E+04</pdfrwt>
<totfact> 0.35026494E-02</totfact>
</mgrwt>
</event>
<event>
12    3  0.2422421E-007  0.6621430E+03  0.7818608E-02  0.9784257E-01
          1   -1    0    0  501    0  0.00000000000E+00  0.00000000000E+00  0.13019592091E+04  0.13019592091E+04  0.00000000000E+00 0. -1.
         -2   -1    0    0    0  501 -0.00000000000E+00 -0.00000000000E+00 -0.38571742565E+03  0.38571742565E+03  0.00000000000E+00 0.  1.
        -24    2    1    2    0    0  0.23692357549E+03  0.49702116818E+03  0.16661715062E+03  0.58081192344E+03  0.80114875577E+02 0.  0.
    5000000    2    1    2    0    0 -0.23692357549E+03 -0.49702116818E+03  0.74962463286E+03  0.11068647113E+04  0.60004131256E+03 0.  0.
        -24    2    4    4    0    0 -0.38396361722E+03 -0.20867997973E+03  0.58618111442E+03  0.73534483285E+03  0.78411293872E+02 0.  0.
         24    2    4    4    0    0  0.14704004173E+03 -0.28834118845E+03  0.16344351844E+03  0.37151987849E+03  0.80943323151E+02 0.  0.
         13    1    5    5    0    0 -0.17698860090E+03 -0.59182720574E+02  0.21312433479E+03  0.28328349995E+03  0.00000000000E+00 0. -1.
        -14    1    5    5    0    0 -0.20697501631E+03 -0.14949725915E+03  0.37305677963E+03  0.45206133290E+03  0.00000000000E+00 0.  1.
         13    1    3    3    0    0  0.64514080954E+02  0.19776354260E+03  0.92088708760E+02  0.22749245197E+03  0.00000000000E+00 0. -1.
        -14    1    3    3    0    0  0.17240949453E+03  0.29925762558E+03  0.74528441864E+02  0.35331947147E+03  0.00000000000E+00 0.  1.
          2    1    6    6  502    0  0.14200364133E+03 -0.22937383770E+03  0.10852905733E+03  0.29078505439E+03  0.00000000000E+00 0. -1.
         -1    1    6    6    0  502  0.50364004062E+01 -0.58967350747E+02  0.54914461105E+02  0.80734824095E+02  0.00000000000E+00 0.  1.
<mgrwt>
<rscale>  0 0.66214295E+03</rscale>
<asrwt>0</asrwt>
<pdfrwt beam="1">  1        1 0.20030141E+00 0.66214295E+03</pdfrwt>
<pdfrwt beam="2">  1       -2 0.59341143E-01 0.66214295E+03</pdfrwt>
<totfact> 0.21776434E+01</totfact>
</mgrwt>
</event>
<event>
12    3  0.2422421E-007  0.8068481E+03  0.7818608E-02  0.9550157E-01
         -2   -1    0    0    0  501 -0.00000000000E+00  0.00000000000E+00  0.13714323108E+04  0.13714323108E+04  0.00000000000E+00 0.  1.
          1   -1    0    0  501    0  0.00000000000E+00 -0.00000000000E+00 -0.10550148482E+04  0.10550148482E+04  0.00000000000E+00 0. -1.
        -24    2    1    2    0    0  0.71879669602E+03 -0.92992059206E+01  0.10235134396E+04  0.12530632198E+04  0.76370847090E+02 0.  0.
    5000000    2    1    2    0    0 -0.71879669602E+03  0.92992059206E+01 -0.70709597713E+03  0.11733839392E+04  0.60007498071E+03 0.  0.
        -24    2    4    4    0    0 -0.29237449483E+03  0.25729253592E+03 -0.14981891330E+03  0.42481889697E+03  0.79643544472E+02 0.  0.
         24    2    4    4    0    0 -0.42642220119E+03 -0.24799333000E+03 -0.55727706383E+03  0.74856504223E+03  0.80344951203E+02 0.  0.
         11    1    3    3    0    0  0.34789326069E+03 -0.36904450546E+02  0.46118069215E+03  0.57886033732E+03  0.00000000000E+00 0. -1.
        -12    1    3    3    0    0  0.37090343533E+03  0.27605244625E+02  0.56233274749E+03  0.67420288249E+03  0.00000000000E+00 0.  1.
         13    1    5    5    0    0 -0.31251282573E+02  0.67558438584E+02 -0.21583182870E+02  0.77502381055E+02  0.00000000000E+00 0. -1.
        -14    1    5    5    0    0 -0.26112321225E+03  0.18973409734E+03 -0.12823573043E+03  0.34731651592E+03  0.00000000000E+00 0.  1.
          2    1    6    6  502    0 -0.23857965022E+03 -0.11716429593E+03 -0.35208981764E+03  0.44115185756E+03  0.00000000000E+00 0. -1.
         -1    1    6    6    0  502 -0.18784255097E+03 -0.13082903407E+03 -0.20518724618E+03  0.30741318467E+03  0.00000000000E+00 0.  1.
<mgrwt>
<rscale>  0 0.80684807E+03</rscale>
<asrwt>0</asrwt>
<pdfrwt beam="1">  1        1 0.16230998E+00 0.80684807E+03</pdfrwt>
<pdfrwt beam="2">  1       -2 0.21098959E+00 0.80684807E+03</pdfrwt>
<totfact> 0.13910834E+00</totfact>
</mgrwt>
</event>
<event>
12    3  0.2422421E-007  0.4523460E+03  0.7818608E-02  0.1027025E+00
          1   -1    0    0  501    0  0.00000000000E+00  0.00000000000E+00  0.14695468568E+04  0.14695468568E+04  0.00000000000E+00 0. -1.
         -2   -1    0    0    0  501 -0.00000000000E+00 -0.00000000000E+00 -0.26815856805E+03  0.26815856805E+03  0.00000000000E+00 0.  1.
        -24    2    1    2    0    0 -0.42417471252E+03  0.51051716610E+02  0.77011188510E+03  0.88414463196E+03  0.78159773149E+02 0.  0.
    5000000    2    1    2    0    0  0.42417471252E+03 -0.51051716610E+02  0.43127640361E+03  0.85356079285E+03  0.60003018779E+03 0.  0.
        -24    2    4    4    0    0  0.33585336298E+03 -0.83794493717E+02 -0.48017012887E+02  0.35859897950E+03  0.80427582166E+02 0.  0.
         24    2    4    4    0    0  0.88321349548E+02  0.32742777107E+02  0.47929341650E+03  0.49496181335E+03  0.79951656227E+02 0.  0.
         11    1    5    5    0    0  0.17331870291E+03 -0.82579819898E+02 -0.13685657444E+02  0.19247362586E+03  0.00000000000E+00 0. -1.
        -12    1    5    5    0    0  0.16253466006E+03 -0.12146738190E+01 -0.34331355443E+02  0.16612535364E+03  0.00000000000E+00 0.  1.
         13    1    3    3    0    0 -0.17706272616E+03 -0.16701285423E+02  0.33023065950E+03  0.37507656606E+03  0.00000000000E+00 0. -1.
        -14    1    3    3    0    0 -0.24711198636E+03  0.67753002033E+02  0.43988122560E+03  0.50906806590E+03  0.00000000000E+00 0.  1.
          2    1    6    6  502    0  0.35936441696E+02  0.49425056310E+02  0.16619999897E+03  0.17707824172E+03  0.00000000000E+00 0. -1.
         -1    1    6    6    0  502  0.52384907852E+02 -0.16682279204E+02  0.31309341753E+03  0.31788357163E+03  0.00000000000E+00 0.  1.
<mgrwt>
<rscale>  0 0.45234596E+03</rscale>
<asrwt>0</asrwt>
<pdfrwt beam="1">  1        1 0.22608413E+00 0.45234596E+03</pdfrwt>
<pdfrwt beam="2">  1       -2 0.41255165E-01 0.45234596E+03</pdfrwt>
<totfact> 0.35944384E+01</totfact>
</mgrwt>
</event>
<event>
12    3  0.2422421E-007  0.4799404E+03  0.7818608E-02  0.1019152E+00
          1   -1    0    0  501    0  0.00000000000E+00  0.00000000000E+00  0.11862350431E+04  0.11862350431E+04  0.00000000000E+00 0. -1.
         -2   -1    0    0    0  501 -0.00000000000E+00 -0.00000000000E+00 -0.31505427224E+03  0.31505427224E+03  0.00000000000E+00 0.  1.
        -24    2    1    2    0    0 -0.29527151083E+03 -0.10529603814E+03 -0.80463297808E+02  0.33336044648E+03  0.79889450060E+02 0.  0.
    5000000    2    1    2    0    0  0.29527151083E+03  0.10529603814E+03  0.95164406866E+03  0.11679288689E+04  0.60013239251E+03 0.  0.
        -24    2    4    4    0    0  0.44368777247E+03  0.33993047879E+00  0.49299202963E+03  0.66798213081E+03  0.79372733392E+02 0.  0.
         24    2    4    4    0    0 -0.14841626165E+03  0.10495610766E+03  0.45865203903E+03  0.49994673805E+03  0.80881868937E+02 0.  0.
         11    1    5    5    0    0  0.12930144359E+03 -0.76547048912E+01  0.94470899408E+02  0.16031908388E+03  0.00000000000E+00 0. -1.
        -12    1    5    5    0    0  0.31438632889E+03  0.79946353700E+01  0.39852113022E+03  0.50766304693E+03  0.00000000000E+00 0.  1.
         11    1    3    3    0    0 -0.18817639336E+03 -0.26312802064E+02 -0.38880410771E+02  0.19394433457E+03  0.00000000000E+00 0. -1.
        -12    1    3    3    0    0 -0.10709511746E+03 -0.78983236073E+02 -0.41582887037E+02  0.13941611191E+03  0.00000000000E+00 0.  1.
          4    1    6    6  502    0 -0.11386504384E+03  0.42741676162E+02  0.22591928386E+03  0.25657673688E+03  0.00000000000E+00 0. -1.
         -3    1    6    6    0  502 -0.34551217811E+02  0.62214431496E+02  0.23273275518E+03  0.24337000117E+03  0.00000000000E+00 0.  1.
<mgrwt>
<rscale>  0 0.47994041E+03</rscale>
<asrwt>0</asrwt>
<pdfrwt beam="1">  1        1 0.18249770E+00 0.47994041E+03</pdfrwt>
<pdfrwt beam="2">  1       -2 0.48469889E-01 0.47994041E+03</pdfrwt>
<totfact> 0.40928612E+01</totfact>
</mgrwt>
</event>
<event>
12    3  0.2422421E-007  0.6619684E+03  0.7818608E-02  0.9784577E-01
          1   -1    0    0  501    0  0.00000000000E+00  0.00000000000E+00  0.13734544201E+04  0.13734544201E+04  0.00000000000E+00 0. -1.
         -2   -1    0    0    0  501 -0.00000000000E+00 -0.00000000000E+00 -0.51887481370E+03  0.51887481370E+03  0.00000000000E+00 0.  1.
        -24    2    1    2    0    0 -0.60942418345E+03 -0.13546778777E+03  0.80944134013E+03  0.10252958777E+04  0.79290584858E+02 0.  0.
    5000000    2    1    2    0    0  0.60942418345E+03  0.13546778777E+03  0.45138266252E+02  0.86703335607E+03  0.59996668287E+03 0.  0.
        -24    2    4    4    0    0  0.61652646087E+02 -0.57046167105E+02  0.22592873579E+03  0.25378346044E+03  0.79416227490E+02 0.  0.
         24    2    4    4    0    0  0.54777153737E+03  0.19251395487E+03 -0.18079046953E+03  0.61324989563E+03  0.79214649200E+02 0.  0.
         11    1    3    3    0    0 -0.94901687303E+02  0.27951466038E+01  0.15006351266E+03  0.17757590189E+03  0.00000000000E+00 0. -1.
        -12    1    3    3    0    0 -0.51452249615E+03 -0.13826293437E+03  0.65937782746E+03  0.84771997583E+03  0.00000000000E+00 0.  1.
         13    1    5    5    0    0  0.50939388695E+02  0.62848784807E+01  0.97091511089E+02  0.10982296000E+03  0.00000000000E+00 0. -1.
        -14    1    5    5    0    0  0.10713257392E+02 -0.63331045586E+02  0.12883722470E+03  0.14396050044E+03  0.00000000000E+00 0.  1.
          4    1    6    6  502    0  0.33551319464E+03  0.12166183453E+03 -0.15093903494E+03  0.38749619099E+03  0.00000000000E+00 0. -1.
         -3    1    6    6    0  502  0.21225834272E+03  0.70852120347E+02 -0.29851434589E+02  0.22575370464E+03  0.00000000000E+00 0.  1.
<mgrwt>
<rscale>  0 0.66196838E+03</rscale>
<asrwt>0</asrwt>
<pdfrwt beam="1">  1        1 0.21130068E+00 0.66196838E+03</pdfrwt>
<pdfrwt beam="2">  1       -2 0.79826895E-01 0.66196838E+03</pdfrwt>
<totfact> 0.10192432E+01</totfact>
</mgrwt>
</event>
<event>
12    3  0.2422421E-007  0.4883446E+03  0.7818608E-02  0.1016867E+00
          1   -1    0    0  501    0  0.00000000000E+00  0.00000000000E+00  0.24808752391E+04  0.24808752391E+04  0.00000000000E+00 0. -1.
         -2   -1    0    0    0  501 -0.00000000000E+00 -0.00000000000E+00 -0.11845395601E+03  0.11845395601E+03  0.00000000000E+00 0.  1.
        -24    2    1    2    0    0  0.36932268636E+03  0.30174575346E+02  0.84178494422E+03  0.92324096744E+03  0.80388058765E+02 0.  0.
    5000000    2    1    2    0    0 -0.36932268636E+03 -0.30174575346E+02  0.15206363389E+04  0.16760882277E+04  0.59968918630E+03 0.  0.
        -24    2    4    4    0    0 -0.44456195976E+03  0.76914692559E+02  0.14208325243E+04  0.14928988306E+04  0.80191335737E+02 0.  0.
         24    2    4    4    0    0  0.75239273405E+02 -0.10708926791E+03  0.99803814630E+02  0.18318939711E+03  0.80426949685E+02 0.  0.
         11    1    5    5    0    0 -0.16434090891E+03 -0.15797099901E+01  0.59561947941E+03  0.61787781484E+03  0.00000000000E+00 0. -1.
        -12    1    5    5    0    0 -0.28022105086E+03  0.78494402549E+02  0.82521304488E+03  0.87502101575E+03  0.00000000000E+00 0.  1.
         11    1    3    3    0    0  0.11210757345E+03  0.18699626244E+02  0.17712054663E+03  0.21045064049E+03  0.00000000000E+00 0. -1.
        -12    1    3    3    0    0  0.25721511291E+03  0.11474949102E+02  0.66466439759E+03  0.71279032695E+03  0.00000000000E+00 0.  1.
          4    1    6    6  502    0  0.77882119008E+02 -0.48909202374E+02  0.79335631611E+02  0.12145730518E+03  0.00000000000E+00 0. -1.
         -3    1    6    6    0  502 -0.26428456030E+01 -0.58180065532E+02  0.20468183019E+02  0.61732091931E+02  0.00000000000E+00 0.  1.
<mgrwt>
<rscale>  0 0.48834456E+03</rscale>
<asrwt>0</asrwt>
<pdfrwt beam="1">  1        1 0.38167307E+00 0.48834456E+03</pdfrwt>
<pdfrwt beam="2">  1       -2 0.18223687E-01 0.48834456E+03</pdfrwt>
<totfact> 0.33560392E+01</totfact>
</mgrwt>
</event>
<event>
12    3  0.2422421E-007  0.1231449E+04  0.7818608E-02  0.9085766E-01
          1   -1    0    0  501    0  0.00000000000E+00  0.00000000000E+00  0.73854775942E+03  0.73854775942E+03  0.00000000000E+00 0. -1.
         -2   -1    0    0    0  501 -0.00000000000E+00 -0.00000000000E+00 -0.21942238590E+04  0.21942238590E+04  0.00000000000E+00 0.  1.
        -24    2    1    2    0    0  0.10826799909E+04  0.43392533357E+03 -0.35896191200E+03  0.12230090498E+04  0.80064497509E+02 0.  0.
    5000000    2    1    2    0    0 -0.10826799909E+04 -0.43392533357E+03 -0.10967141876E+04  0.17097625686E+04  0.60001572805E+03 0.  0.
        -24    2    4    4    0    0 -0.16104201713E+03  0.12597833317E+03 -0.27442691529E+03  0.35150789271E+03  0.80265777875E+02 0.  0.
         24    2    4    4    0    0 -0.92163797380E+03 -0.55990366674E+03 -0.82228727229E+03  0.13582546759E+04  0.76096883284E+02 0.  0.
         11    1    5    5    0    0 -0.68224885476E+02  0.10969253065E+02 -0.11461382153E+03  0.13383305868E+03  0.00000000000E+00 0. -1.
        -12    1    5    5    0    0 -0.92817131656E+02  0.11500908010E+03 -0.15981309376E+03  0.21767483403E+03  0.00000000000E+00 0.  1.
         13    1    3    3    0    0  0.54758778107E+03  0.19347385888E+03 -0.14516498299E+03  0.59862958859E+03  0.00000000000E+00 0. -1.
        -14    1    3    3    0    0  0.53509220986E+03  0.24045147469E+03 -0.21379692901E+03  0.62437946121E+03  0.00000000000E+00 0.  1.
          2    1    6    6  502    0 -0.44211595609E+03 -0.25565061397E+03 -0.34377148408E+03  0.61563186103E+03  0.00000000000E+00 0. -1.
         -1    1    6    6    0  502 -0.47952201771E+03 -0.30425305277E+03 -0.47851578822E+03  0.74262281487E+03  0.00000000000E+00 0.  1.
<mgrwt>
<rscale>  0 0.12314493E+04</rscale>
<asrwt>0</asrwt>
<pdfrwt beam="1">  1        1 0.11362273E+00 0.12314493E+04</pdfrwt>
<pdfrwt beam="2">  1       -2 0.33757290E+00 0.12314493E+04</pdfrwt>
<totfact> 0.40261001E-01</totfact>
</mgrwt>
</event>
<event>
12    3  0.2422421E-007  0.5623555E+03  0.7818608E-02  0.9986739E-01
         -2   -1    0    0    0  501 -0.00000000000E+00  0.00000000000E+00  0.94039344801E+03  0.94039344801E+03  0.00000000000E+00 0.  1.
          1   -1    0    0  501    0  0.00000000000E+00 -0.00000000000E+00 -0.48351901037E+03  0.48351901037E+03  0.00000000000E+00 0. -1.
        -24    2    1    2    0    0  0.96150727786E+02 -0.47563084561E+03  0.42941262092E+03  0.65164737498E+03  0.69133483664E+02 0.  0.
    5000000    2    1    2    0    0 -0.96150727786E+02  0.47563084561E+03  0.27461816713E+02  0.77226508340E+03  0.60014126996E+03 0.  0.
        -24    2    4    4    0    0 -0.11078494485E+03 -0.43941670209E+02 -0.16074583340E+03  0.21367539237E+03  0.74925135710E+02 0.  0.
         24    2    4    4    0    0  0.14634217066E+02  0.51957251582E+03  0.18820765011E+03  0.55858969103E+03  0.80190796588E+02 0.  0.
         11    1    3    3    0    0  0.25492080990E+02 -0.11249820392E+03  0.65184763297E+02  0.13249432231E+03  0.00000000000E+00 0. -1.
        -12    1    3    3    0    0  0.70658646796E+02 -0.36313264169E+03  0.36422785763E+03  0.51915305268E+03  0.00000000000E+00 0.  1.
         13    1    5    5    0    0 -0.96699843989E+02 -0.39829380806E+02 -0.80169647650E+02  0.13177409384E+03  0.00000000000E+00 0. -1.
        -14    1    5    5    0    0 -0.14085100863E+02 -0.41122894030E+01 -0.80576185751E+02  0.81901298528E+02  0.00000000000E+00 0.  1.
          4    1    6    6  502    0  0.16913026737E+02  0.24586440795E+03  0.13046234218E+03  0.27884723470E+03  0.00000000000E+00 0. -1.
         -3    1    6    6    0  502 -0.22788096704E+01  0.27370810787E+03  0.57745307934E+02  0.27974245633E+03  0.00000000000E+00 0.  1.
<mgrwt>
<rscale>  0 0.56235546E+03</rscale>
<asrwt>0</asrwt>
<pdfrwt beam="1">  1        1 0.74387540E-01 0.56235546E+03</pdfrwt>
<pdfrwt beam="2">  1       -2 0.14467591E+00 0.56235546E+03</pdfrwt>
<totfact> 0.13919785E+01</totfact>
</mgrwt>
</event>
<event>
12    3  0.2475516E-007  0.1741840E+04  0.7818608E-02  0.8737855E-01
          1   -1    0    0  501    0  0.00000000000E+00  0.00000000000E+00  0.17671685550E+04  0.17671685550E+04  0.00000000000E+00 0. -1.
         -2   -1    0    0    0  501 -0.00000000000E+00 -0.00000000000E+00 -0.17600451850E+04  0.17600451850E+04  0.00000000000E+00 0.  1.
        -24    2    1    2    0    0 -0.12963687051E+04  0.11048894530E+04 -0.16306265554E+03  0.17133009029E+04  0.86359893462E+02 0.  0.
    5000000    2    1    2    0    0  0.12963687051E+04 -0.11048894530E+04  0.17018602556E+03  0.18139128372E+04  0.59996997808E+03 0.  0.
        -24    2    4    4    0    0  0.94197172392E+03 -0.48234650420E+03 -0.42997003757E+02  0.10622752705E+04  0.81308851241E+02 0.  0.
         24    2    4    4    0    0  0.35439698118E+03 -0.62254294884E+03  0.21318302932E+03  0.75163756665E+03  0.79718781852E+02 0.  0.
         13    1    5    5    0    0  0.33183578534E+03 -0.14356167170E+03 -0.45318763108E+02  0.36438816159E+03  0.00000000000E+00 0. -1.
        -14    1    5    5    0    0  0.61013593858E+03 -0.33878483250E+03  0.23217593505E+01  0.69788710896E+03  0.00000000000E+00 0.  1.
         13    1    3    3    0    0 -0.54474673869E+03  0.47973214217E+03 -0.11075469259E+03  0.73427415826E+03  0.00000000000E+00 0. -1.
        -14    1    3    3    0    0 -0.75162196641E+03  0.62515731087E+03 -0.52307962952E+02  0.97902674464E+03  0.00000000000E+00 0.  1.
          2    1    6    6  502    0  0.10389932206E+03 -0.26074106079E+03  0.86680937064E+02  0.29375934837E+03  0.00000000000E+00 0. -1.
         -1    1    6    6    0  502  0.25049765912E+03 -0.36180188806E+03  0.12650209225E+03  0.45787821828E+03  0.00000000000E+00 0.  1.
<mgrwt>
<rscale>  0 0.17418399E+04</rscale>
<asrwt>0</asrwt>
<pdfrwt beam="1">  1        1 0.27187209E+00 0.17418399E+04</pdfrwt>
<pdfrwt beam="2">  1       -2 0.27077618E+00 0.17418399E+04</pdfrwt>
<totfact> 0.16534804E-01</totfact>
</mgrwt>
</event>
<event>
12    3  0.2422421E-007  0.1895203E+04  0.7818608E-02  0.8657248E-01
          1   -1    0    0  501    0  0.00000000000E+00  0.00000000000E+00  0.32901852727E+04  0.32901852727E+04  0.00000000000E+00 0. -1.
         -2   -1    0    0    0  501 -0.00000000000E+00 -0.00000000000E+00 -0.11248454803E+04  0.11248454803E+04  0.00000000000E+00 0.  1.
        -24    2    1    2    0    0  0.14763278514E+04  0.11142414552E+04  0.14172570944E+04  0.23315743099E+04  0.80889712452E+02 0.  0.
    5000000    2    1    2    0    0 -0.14763278514E+04 -0.11142414552E+04  0.74808269794E+03  0.20834564431E+04  0.60007089746E+03 0.  0.
        -24    2    4    4    0    0 -0.58359557653E+03 -0.11832778072E+03  0.17210231601E+03  0.62517131189E+03  0.81453676351E+02 0.  0.
         24    2    4    4    0    0 -0.89273227491E+03 -0.99591367449E+03  0.57598038194E+03  0.14582851312E+04  0.77634798361E+02 0.  0.
         13    1    5    5    0    0 -0.27620518859E+03 -0.95194770413E+02  0.97782727968E+02  0.30807923073E+03  0.00000000000E+00 0. -1.
        -14    1    5    5    0    0 -0.30739038795E+03 -0.23133010306E+02  0.74319588041E+02  0.31709208116E+03  0.00000000000E+00 0.  1.
         13    1    3    3    0    0  0.56739962843E+03  0.47716193249E+03  0.57608510241E+03  0.93888225746E+03  0.00000000000E+00 0. -1.
        -14    1    3    3    0    0  0.90892822302E+03  0.63707952272E+03  0.84117199200E+03  0.13926920525E+04  0.00000000000E+00 0.  1.
          2    1    6    6  502    0 -0.27129404487E+03 -0.26444381779E+03  0.13715773392E+03  0.40291839810E+03  0.00000000000E+00 0. -1.
         -1    1    6    6    0  502 -0.62143823004E+03 -0.73146985669E+03  0.43882264802E+03  0.10553667331E+04  0.00000000000E+00 0.  1.
<mgrwt>
<rscale>  0 0.18952025E+04</rscale>
<asrwt>0</asrwt>
<pdfrwt beam="1">  1        1 0.50618234E+00 0.18952025E+04</pdfrwt>
<pdfrwt beam="2">  1       -2 0.17305315E+00 0.18952025E+04</pdfrwt>
<totfact> 0.58589350E-02</totfact>
</mgrwt>
</event>
<event>
12    3  0.2422421E-007  0.1160282E+04  0.7818608E-02  0.9148350E-01
          1   -1    0    0  501    0  0.00000000000E+00  0.00000000000E+00  0.26984134434E+04  0.26984134434E+04  0.00000000000E+00 0. -1.
         -2   -1    0    0    0  501 -0.00000000000E+00 -0.00000000000E+00 -0.70697534857E+03  0.70697534857E+03  0.00000000000E+00 0.  1.
        -24    2    1    2    0    0  0.94748098856E+03  0.66385250979E+03  0.18083992645E+03  0.11745252353E+04  0.91575493690E+02 0.  0.
    5000000    2    1    2    0    0 -0.94748098856E+03 -0.66385250979E+03  0.18105981683E+04  0.22308635566E+04  0.60005508281E+03 0.  0.
        -24    2    4    4    0    0 -0.33311588505E+03 -0.29401227866E+03  0.25217767745E+03  0.51351035650E+03  0.51864172127E+02 0.  0.
         24    2    4    4    0    0 -0.61436510351E+03 -0.36984023112E+03  0.15584204909E+04  0.17173532001E+04  0.80008189633E+02 0.  0.
         11    1    3    3    0    0  0.31790264063E+03  0.26504955965E+03  0.37397733469E+02  0.41558627078E+03  0.00000000000E+00 0. -1.
        -12    1    3    3    0    0  0.62957834793E+03  0.39880295013E+03  0.14344219298E+03  0.75893896457E+03  0.00000000000E+00 0.  1.
         13    1    5    5    0    0 -0.19163237122E+03 -0.16962485004E+03  0.11557162638E+03  0.28080661722E+03  0.00000000000E+00 0. -1.
        -14    1    5    5    0    0 -0.14148351382E+03 -0.12438742862E+03  0.13660605107E+03  0.23270373928E+03  0.00000000000E+00 0.  1.
          2    1    6    6  502    0 -0.13484607989E+03 -0.80832112366E+02  0.26804419696E+03  0.31074907430E+03  0.00000000000E+00 0. -1.
         -1    1    6    6    0  502 -0.47951902362E+03 -0.28900811876E+03  0.12903762939E+04  0.14066041258E+04  0.00000000000E+00 0.  1.
<mgrwt>
<rscale>  0 0.11602824E+04</rscale>
<asrwt>0</asrwt>
<pdfrwt beam="1">  1        1 0.41514052E+00 0.11602824E+04</pdfrwt>
<pdfrwt beam="2">  1       -2 0.10876544E+00 0.11602824E+04</pdfrwt>
<totfact> 0.57887024E-01</totfact>
</mgrwt>
</event>
<event>
12    3  0.2422421E-007  0.6258798E+03  0.7818608E-02  0.9853122E-01
         -2   -1    0    0    0  501 -0.00000000000E+00  0.00000000000E+00  0.70742015494E+03  0.70742015494E+03  0.00000000000E+00 0.  1.
          3   -1    0    0  501    0  0.00000000000E+00 -0.00000000000E+00 -0.78836683830E+03  0.78836683830E+03  0.00000000000E+00 0. -1.
        -24    2    1    2    0    0 -0.26827603623E+03 -0.47419565715E+03  0.26922554749E+03  0.61288511270E+03  0.79449437193E+02 0.  0.
    5000000    2    1    2    0    0  0.26827603623E+03  0.47419565715E+03 -0.35017223085E+03  0.88290188054E+03  0.60005131991E+03 0.  0.
        -24    2    4    4    0    0  0.27757889534E+03  0.53606215226E+03 -0.10581056059E+03  0.61806675790E+03  0.79987300676E+02 0.  0.
         24    2    4    4    0    0 -0.93028591031E+01 -0.61866495109E+02 -0.24436167027E+03  0.26483512264E+03  0.80690828989E+02 0.  0.
         11    1    3    3    0    0 -0.11572406445E+03 -0.18535557015E+03  0.66373622927E+02  0.22837295001E+03  0.00000000000E+00 0. -1.
        -12    1    3    3    0    0 -0.15255197179E+03 -0.28884008701E+03  0.20285192456E+03  0.38451216269E+03  0.00000000000E+00 0.  1.
         13    1    5    5    0    0  0.16250801680E+03  0.39052557928E+03 -0.84110543475E+02  0.43126983099E+03  0.00000000000E+00 0. -1.
        -14    1    5    5    0    0  0.11507087854E+03  0.14553657298E+03 -0.21700017111E+02  0.18679692691E+03  0.00000000000E+00 0.  1.
          2    1    6    6  502    0 -0.20410466028E+02  0.11798858266E+02 -0.31724236388E+02  0.39525021875E+02  0.00000000000E+00 0. -1.
         -1    1    6    6    0  502  0.11107606925E+02 -0.73665353375E+02 -0.21263743388E+03  0.22531010076E+03  0.00000000000E+00 0.  1.
<mgrwt>
<rscale>  0 0.62587979E+03</rscale>
<asrwt>0</asrwt>
<pdfrwt beam="1">  1        3 0.12128721E+00 0.62587979E+03</pdfrwt>
<pdfrwt beam="2">  1       -2 0.10883387E+00 0.62587979E+03</pdfrwt>
<totfact> 0.15637970E+00</totfact>
</mgrwt>
</event>
<event>
12    3  0.2422421E-007  0.3965818E+03  0.7818608E-02  0.1044970E+00
          1   -1    0    0  501    0  0.00000000000E+00  0.00000000000E+00  0.76348830425E+03  0.76348830425E+03  0.00000000000E+00 0. -1.
         -2   -1    0    0    0  501 -0.00000000000E+00 -0.00000000000E+00 -0.41412477166E+03  0.41412477166E+03  0.00000000000E+00 0.  1.
        -24    2    1    2    0    0 -0.15037369841E+03 -0.21204240373E+03 -0.18859726349E+03  0.33079387421E+03  0.79255468364E+02 0.  0.
    5000000    2    1    2    0    0  0.15037369841E+03  0.21204240373E+03  0.53796079609E+03  0.84681920169E+03  0.60010558411E+03 0.  0.
        -24    2    4    4    0    0 -0.13011210962E+03 -0.28199238734E+02  0.42616157887E+03  0.45340445841E+03  0.78978183473E+02 0.  0.
         24    2    4    4    0    0  0.28048580803E+03  0.24024164247E+03  0.11179921721E+03  0.39341474328E+03  0.76731740363E+02 0.  0.
         13    1    3    3    0    0 -0.23374775852E+02 -0.10005210246E+02  0.18277465611E+01  0.25491666005E+02  0.00000000000E+00 0. -1.
        -14    1    3    3    0    0 -0.12699892256E+03 -0.20203719349E+03 -0.19042501005E+03  0.30530220821E+03  0.00000000000E+00 0.  1.
         13    1    5    5    0    0  0.60530340186E+01 -0.16335400923E+02  0.63328541701E+02  0.65680961763E+02  0.00000000000E+00 0. -1.
        -14    1    5    5    0    0 -0.13616514364E+03 -0.11863837811E+02  0.36283303717E+03  0.38772349665E+03  0.00000000000E+00 0.  1.
          4    1    6    6  502    0  0.39802118575E+02  0.81243944979E+01 -0.67783816622E+00  0.40628486233E+02  0.00000000000E+00 0. -1.
         -3    1    6    6    0  502  0.24068368946E+03  0.23211724797E+03  0.11247705538E+03  0.35278625705E+03  0.00000000000E+00 0.  1.
<mgrwt>
<rscale>  0 0.39658180E+03</rscale>
<asrwt>0</asrwt>
<pdfrwt beam="1">  1        1 0.11745974E+00 0.39658180E+03</pdfrwt>
<pdfrwt beam="2">  1       -2 0.63711504E-01 0.39658180E+03</pdfrwt>
<totfact> 0.50340641E+01</totfact>
</mgrwt>
</event>
<event>
12    3  0.2422421E-007  0.4190058E+03  0.7818608E-02  0.1037390E+00
         -2   -1    0    0    0  501 -0.00000000000E+00  0.00000000000E+00  0.34249953352E+03  0.34249953352E+03  0.00000000000E+00 0.  1.
          1   -1    0    0  501    0  0.00000000000E+00 -0.00000000000E+00 -0.10254347584E+04  0.10254347584E+04  0.00000000000E+00 0. -1.
        -24    2    1    2    0    0  0.27808346491E+03  0.28381807096E+03 -0.46440397106E+02  0.40731447696E+03  0.76584997231E+02 0.  0.
    5000000    2    1    2    0    0 -0.27808346491E+03 -0.28381807096E+03 -0.63649482780E+03  0.96061981498E+03  0.59981801595E+03 0.  0.
        -24    2    4    4    0    0 -0.21881691640E+03 -0.20958420118E+03 -0.73745830416E+03  0.80131847799E+03  0.80375198370E+02 0.  0.
         24    2    4    4    0    0 -0.59266548511E+02 -0.74233869784E+02  0.10096347636E+03  0.15930133699E+03  0.78486312260E+02 0.  0.
         11    1    5    5    0    0 -0.77619057325E+02 -0.12602421046E+03 -0.38762835636E+03  0.41492476708E+03  0.00000000000E+00 0. -1.
        -12    1    5    5    0    0 -0.14119785907E+03 -0.83559990723E+02 -0.34982994780E+03  0.38639371091E+03  0.00000000000E+00 0.  1.
         11    1    3    3    0    0  0.16729909042E+03  0.21482117280E+03 -0.13031996656E+02  0.27259302059E+03  0.00000000000E+00 0. -1.
        -12    1    3    3    0    0  0.11078437449E+03  0.68996898168E+02 -0.33408400450E+02  0.13472145638E+03  0.00000000000E+00 0.  1.
          4    1    6    6  502    0 -0.12181449581E+02 -0.75062418122E+02  0.65187908253E+02  0.10016095901E+03  0.00000000000E+00 0. -1.
         -3    1    6    6    0  502 -0.47085098930E+02  0.82854833797E+00  0.35775568108E+02  0.59140377975E+02  0.00000000000E+00 0.  1.
<mgrwt>
<rscale>  0 0.41900575E+03</rscale>
<asrwt>0</asrwt>
<pdfrwt beam="1">  1        1 0.15775919E+00 0.41900575E+03</pdfrwt>
<pdfrwt beam="2">  1       -2 0.52692236E-01 0.41900575E+03</pdfrwt>
<totfact> 0.45796648E+01</totfact>
</mgrwt>
</event>
<event>
12    3  0.2422421E-007  0.6692733E+03  0.7818608E-02  0.9771272E-01
          1   -1    0    0  501    0  0.00000000000E+00  0.00000000000E+00  0.94091567516E+03  0.94091567516E+03  0.00000000000E+00 0. -1.
         -2   -1    0    0    0  501 -0.00000000000E+00 -0.00000000000E+00 -0.60603436632E+03  0.60603436632E+03  0.00000000000E+00 0.  1.
        -24    2    1    2    0    0 -0.42674157976E+03 -0.42639639636E+03  0.33840600881E+03  0.69620616671E+03  0.79133665650E+02 0.  0.
    5000000    2    1    2    0    0  0.42674157976E+03  0.42639639636E+03 -0.35246999715E+01  0.85074387477E+03  0.59985869521E+03 0.  0.
        -24    2    4    4    0    0  0.55746314933E+02  0.33306135793E+03 -0.21335089566E+03  0.40699707956E+03  0.78041644727E+02 0.  0.
         24    2    4    4    0    0  0.37099526483E+03  0.93335038426E+02  0.20982619569E+03  0.44374679521E+03  0.80841016431E+02 0.  0.
         11    1    3    3    0    0 -0.92055597604E+02 -0.13945026093E+03  0.10545854521E+03  0.19759077175E+03  0.00000000000E+00 0. -1.
        -12    1    3    3    0    0 -0.33468598216E+03 -0.28694613543E+03  0.23294746360E+03  0.49861539496E+03  0.00000000000E+00 0.  1.
         13    1    5    5    0    0  0.10009231018E+02  0.20891722133E+03 -0.16401590661E+03  0.26579655320E+03  0.00000000000E+00 0. -1.
        -14    1    5    5    0    0  0.45737083915E+02  0.12414413660E+03 -0.49334989053E+02  0.14120052635E+03  0.00000000000E+00 0.  1.
          4    1    6    6  502    0  0.21043739597E+03  0.16329947767E+02  0.13529243019E+03  0.25070820985E+03  0.00000000000E+00 0. -1.
         -3    1    6    6    0  502  0.16055786886E+03  0.77005090660E+02  0.74533765497E+02  0.19303858536E+03  0.00000000000E+00 0.  1.
<mgrwt>
<rscale>  0 0.66927330E+03</rscale>
<asrwt>0</asrwt>
<pdfrwt beam="1">  1        1 0.14475626E+00 0.66927330E+03</pdfrwt>
<pdfrwt beam="2">  1       -2 0.93236056E-01 0.66927330E+03</pdfrwt>
<totfact> 0.14854444E+01</totfact>
</mgrwt>
</event>
<event>
12    3  0.2422421E-007  0.7573639E+03  0.7818608E-02  0.9623868E-01
          1   -1    0    0  501    0  0.00000000000E+00  0.00000000000E+00  0.15102890256E+04  0.15102890256E+04  0.00000000000E+00 0. -1.
         -2   -1    0    0    0  501 -0.00000000000E+00 -0.00000000000E+00 -0.64762607061E+03  0.64762607061E+03  0.00000000000E+00 0.  1.
        -24    2    1    2    0    0  0.67675944813E+03  0.26205443071E+03  0.96592694641E+03  0.12107466539E+04  0.78846171962E+02 0.  0.
    5000000    2    1    2    0    0 -0.67675944813E+03 -0.26205443071E+03 -0.10326399140E+03  0.94716844232E+03  0.59982391660E+03 0.  0.
        -24    2    4    4    0    0 -0.22632953228E+03 -0.23160412017E+03  0.20930576498E+03  0.39375350982E+03  0.79795974704E+02 0.  0.
         24    2    4    4    0    0 -0.45042991585E+03 -0.30450310541E+02 -0.31256975638E+03  0.55341493250E+03  0.68948563505E+02 0.  0.
         13    1    3    3    0    0  0.35337264038E+03  0.17358820998E+03  0.55344567570E+03  0.67919599938E+03  0.00000000000E+00 0. -1.
        -14    1    3    3    0    0  0.32338680776E+03  0.88466220729E+02  0.41248127071E+03  0.53155065453E+03  0.00000000000E+00 0.  1.
         13    1    5    5    0    0 -0.83414361147E+02 -0.36081602080E+02  0.66319597333E+02  0.11250834033E+03  0.00000000000E+00 0. -1.
        -14    1    5    5    0    0 -0.14291517113E+03 -0.19552251809E+03  0.14298616765E+03  0.28124516949E+03  0.00000000000E+00 0.  1.
          2    1    6    6  502    0 -0.25796896408E+03 -0.92713778932E+00 -0.14150748161E+03  0.29423326352E+03  0.00000000000E+00 0. -1.
         -1    1    6    6    0  502 -0.19246095178E+03 -0.29523172751E+02 -0.17106227476E+03  0.25918166898E+03  0.00000000000E+00 0.  1.
<mgrwt>
<rscale>  0 0.75736389E+03</rscale>
<asrwt>0</asrwt>
<pdfrwt beam="1">  1        1 0.23235216E+00 0.75736389E+03</pdfrwt>
<pdfrwt beam="2">  1       -2 0.99634780E-01 0.75736389E+03</pdfrwt>
<totfact> 0.48559745E+00</totfact>
</mgrwt>
</event>
<event>
12    3  0.2422421E-007  0.9564248E+03  0.7818608E-02  0.9357672E-01
          1   -1    0    0  501    0  0.00000000000E+00  0.00000000000E+00  0.10728365565E+04  0.10728365565E+04  0.00000000000E+00 0. -1.
         -2   -1    0    0    0  501 -0.00000000000E+00 -0.00000000000E+00 -0.98111738471E+03  0.98111738471E+03  0.00000000000E+00 0.  1.
        -24    2    1    2    0    0  0.26496366210E+03 -0.89698909516E+03  0.89798089064E+02  0.94275819768E+03  0.77033391616E+02 0.  0.
    5000000    2    1    2    0    0 -0.26496366210E+03  0.89698909516E+03  0.19210827453E+01  0.11111957435E+04  0.59996425797E+03 0.  0.
        -24    2    4    4    0    0 -0.15919795937E+03  0.79874557016E+03  0.21067635106E+03  0.84523210430E+03  0.81818757820E+02 0.  0.
         24    2    4    4    0    0 -0.10576570273E+03  0.98243524999E+02 -0.20875526832E+03  0.26596363924E+03  0.79496674564E+02 0.  0.
         11    1    5    5    0    0 -0.77985012451E+02  0.41617841370E+03  0.67568761609E+02  0.42877928091E+03  0.00000000000E+00 0. -1.
        -12    1    5    5    0    0 -0.81212946920E+02  0.38256715646E+03  0.14310758946E+03  0.41645282339E+03  0.00000000000E+00 0.  1.
         13    1    3    3    0    0  0.17711649331E+03 -0.68189516060E+03  0.91290499264E+02  0.71041200547E+03  0.00000000000E+00 0. -1.
        -14    1    3    3    0    0  0.87847168789E+02 -0.21509393456E+03 -0.14924102002E+01  0.23234619221E+03  0.00000000000E+00 0.  1.
          2    1    6    6  502    0 -0.11635521887E+03  0.83057411982E+02 -0.16418472685E+03  0.21770093058E+03  0.00000000000E+00 0. -1.
         -1    1    6    6    0  502  0.10589516135E+02  0.15186113018E+02 -0.44570541466E+02  0.48262708659E+02  0.00000000000E+00 0.  1.
<mgrwt>
<rscale>  0 0.95642479E+03</rscale>
<asrwt>0</asrwt>
<pdfrwt beam="1">  1        1 0.16505178E+00 0.95642479E+03</pdfrwt>
<pdfrwt beam="2">  1       -2 0.15094114E+00 0.95642479E+03</pdfrwt>
<totfact> 0.34375603E+00</totfact>
</mgrwt>
</event>
<event>
12    3  0.2422421E-007  0.6044136E+03  0.7818608E-02  0.9896291E-01
         -2   -1    0    0    0  501 -0.00000000000E+00  0.00000000000E+00  0.49886211035E+03  0.49886211035E+03  0.00000000000E+00 0.  1.
          1   -1    0    0  501    0  0.00000000000E+00 -0.00000000000E+00 -0.92680996971E+03  0.92680996971E+03  0.00000000000E+00 0. -1.
        -24    2    1    2    0    0 -0.52104580693E+02 -0.45738418933E+03  0.13096809216E+03  0.48517438111E+03  0.79538386610E+02 0.  0.
    5000000    2    1    2    0    0  0.52104580693E+02  0.45738418933E+03 -0.55891595152E+03  0.94049769895E+03  0.60019471580E+03 0.  0.
        -24    2    4    4    0    0 -0.21742968000E+03  0.15200665786E+02 -0.14955476867E+03  0.27533570399E+03  0.77048005007E+02 0.  0.
         24    2    4    4    0    0  0.26953426070E+03  0.44218352354E+03 -0.40936118285E+03  0.66516199495E+03  0.81785789222E+02 0.  0.
         11    1    5    5    0    0 -0.10320416399E+03 -0.25171277269E+02 -0.94830809669E+02  0.14239935086E+03  0.00000000000E+00 0. -1.
        -12    1    5    5    0    0 -0.11422551602E+03  0.40371943055E+02 -0.54723959000E+02  0.13293635313E+03  0.00000000000E+00 0.  1.
         13    1    3    3    0    0 -0.57862099528E+01 -0.16144409959E+03  0.91446991061E+01  0.16180637515E+03  0.00000000000E+00 0. -1.
        -14    1    3    3    0    0 -0.46318370741E+02 -0.29594008974E+03  0.12182339305E+03  0.32336800596E+03  0.00000000000E+00 0.  1.
          2    1    6    6  502    0  0.10243338454E+03  0.12290863497E+03 -0.16454335714E+03  0.22950740118E+03  0.00000000000E+00 0. -1.
         -1    1    6    6    0  502  0.16710087615E+03  0.31927488857E+03 -0.24481782572E+03  0.43565459377E+03  0.00000000000E+00 0.  1.
<mgrwt>
<rscale>  0 0.60441363E+03</rscale>
<asrwt>0</asrwt>
<pdfrwt beam="1">  1        1 0.14258615E+00 0.60441363E+03</pdfrwt>
<pdfrwt beam="2">  1       -2 0.76748017E-01 0.60441363E+03</pdfrwt>
<totfact> 0.23903237E+01</totfact>
</mgrwt>
</event>
<event>
12    3  0.2422421E-007  0.4750413E+03  0.7818608E-02  0.1020507E+00
         -4   -1    0    0    0  501 -0.00000000000E+00  0.00000000000E+00  0.17149293180E+03  0.17149293180E+03  0.00000000000E+00 0.  1.
          3   -1    0    0  501    0  0.00000000000E+00 -0.00000000000E+00 -0.20662587426E+04  0.20662587426E+04  0.00000000000E+00 0. -1.
        -24    2    1    2    0    0  0.12498856705E+03 -0.42038144203E+03 -0.64875420651E+03  0.78692034713E+03  0.77581657337E+02 0.  0.
    5000000    2    1    2    0    0 -0.12498856705E+03  0.42038144203E+03 -0.12460116043E+04  0.14508313273E+04  0.60001993592E+03 0.  0.
        -24    2    4    4    0    0 -0.59787939440E+02  0.16273360260E+02  0.32030966622E+02  0.10651373351E+03  0.80497035014E+02 0.  0.
         24    2    4    4    0    0 -0.65200627609E+02  0.40410808177E+03 -0.12780425709E+04  0.13443175938E+04  0.79009596111E+02 0.  0.
         11    1    5    5    0    0 -0.76879462861E+02  0.10294962982E+02  0.10329589275E+02  0.78250485540E+02  0.00000000000E+00 0. -1.
        -12    1    5    5    0    0  0.17091523421E+02  0.59783972781E+01  0.21701377347E+02  0.28263247967E+02  0.00000000000E+00 0.  1.
         11    1    3    3    0    0  0.40429379751E+02 -0.22745525071E+03 -0.28844086851E+03  0.36955183729E+03  0.00000000000E+00 0. -1.
        -12    1    3    3    0    0  0.84559187299E+02 -0.19292619132E+03 -0.36031333801E+03  0.41736850983E+03  0.00000000000E+00 0.  1.
          4    1    6    6  502    0 -0.68469886764E+02  0.26831812827E+03 -0.94209196758E+03  0.98194705496E+03  0.00000000000E+00 0. -1.
         -3    1    6    6    0  502  0.32692591554E+01  0.13578995350E+03 -0.33595060332E+03  0.36237053881E+03  0.00000000000E+00 0.  1.
<mgrwt>
<rscale>  0 0.47504127E+03</rscale>
<asrwt>0</asrwt>
<pdfrwt beam="1">  1        3 0.31788595E+00 0.47504127E+03</pdfrwt>
<pdfrwt beam="2">  1       -4 0.26383529E-01 0.47504127E+03</pdfrwt>
<totfact> 0.10082525E+00</totfact>
</mgrwt>
</event>
<event>
12    3  0.2422421E-007  0.6303857E+03  0.7818608E-02  0.9844296E-01
          3   -1    0    0  501    0  0.00000000000E+00  0.00000000000E+00  0.89173791479E+03  0.89173791479E+03  0.00000000000E+00 0. -1.
         -4   -1    0    0    0  501 -0.00000000000E+00 -0.00000000000E+00 -0.54430368294E+03  0.54430368294E+03  0.00000000000E+00 0.  1.
        -24    2    1    2    0    0  0.56067781775E+03  0.17518643477E+02  0.20589174764E+03  0.60256519416E+03  0.77633003815E+02 0.  0.
    5000000    2    1    2    0    0 -0.56067781775E+03 -0.17518643477E+02  0.14154248420E+03  0.83347640357E+03  0.59998510173E+03 0.  0.
        -24    2    4    4    0    0 -0.17035029703E+03 -0.19696036549E+03  0.26466888507E+03  0.37985219853E+03  0.80158996557E+02 0.  0.
         24    2    4    4    0    0 -0.39032752071E+03  0.17944172201E+03 -0.12312640087E+03  0.45362420504E+03  0.77845383844E+02 0.  0.
         11    1    3    3    0    0  0.30319585961E+03  0.34101863077E+02  0.79710644367E+02  0.31534814598E+03  0.00000000000E+00 0. -1.
        -12    1    3    3    0    0  0.25748195814E+03 -0.16583219600E+02  0.12618110328E+03  0.28721704817E+03  0.00000000000E+00 0.  1.
         11    1    5    5    0    0 -0.12354834282E+03 -0.17807733008E+03  0.24095387048E+03  0.32409025934E+03  0.00000000000E+00 0. -1.
        -12    1    5    5    0    0 -0.46801954218E+02 -0.18883035404E+02  0.23715014597E+02  0.55761939188E+02  0.00000000000E+00 0.  1.
          4    1    6    6  502    0 -0.27160600729E+03  0.13833158754E+03 -0.12107297569E+03  0.32796968877E+03  0.00000000000E+00 0. -1.
         -3    1    6    6    0  502 -0.11872151342E+03  0.41110134472E+02 -0.20534251786E+01  0.12565451627E+03  0.00000000000E+00 0.  1.
<mgrwt>
<rscale>  0 0.63038567E+03</rscale>
<asrwt>0</asrwt>
<pdfrwt beam="1">  1        3 0.13719045E+00 0.63038567E+03</pdfrwt>
<pdfrwt beam="2">  1       -4 0.83739028E-01 0.63038567E+03</pdfrwt>
<totfact> 0.11494072E+00</totfact>
</mgrwt>
</event>
<event>
12    3  0.2422421E-007  0.5161094E+03  0.7818608E-02  0.1009658E+00
         -2   -1    0    0    0  501 -0.00000000000E+00  0.00000000000E+00  0.10179443764E+04  0.10179443764E+04  0.00000000000E+00 0.  1.
          1   -1    0    0  501    0  0.00000000000E+00 -0.00000000000E+00 -0.39854983349E+03  0.39854983349E+03  0.00000000000E+00 0. -1.
        -24    2    1    2    0    0 -0.27353777565E+03 -0.37588677242E+03  0.63934524431E+02  0.47594519860E+03  0.79513698614E+02 0.  0.
    5000000    2    1    2    0    0  0.27353777565E+03  0.37588677242E+03  0.55546001847E+03  0.94054901128E+03  0.59998569160E+03 0.  0.
        -24    2    4    4    0    0  0.32128789347E+03  0.22891101773E+03  0.49518109531E+02  0.40571100221E+03  0.80766389110E+02 0.  0.
         24    2    4    4    0    0 -0.47750117822E+02  0.14697575469E+03  0.50594190894E+03  0.53483800908E+03  0.78692658596E+02 0.  0.
         11    1    3    3    0    0 -0.16119582186E+03 -0.15447442535E+03  0.25736894009E+02  0.22474169348E+03  0.00000000000E+00 0. -1.
        -12    1    3    3    0    0 -0.11234195378E+03 -0.22141234707E+03  0.38197630423E+02  0.25120350512E+03  0.00000000000E+00 0.  1.
         11    1    5    5    0    0  0.17418216418E+03  0.12900568860E+03  0.67400786253E+02  0.22699066060E+03  0.00000000000E+00 0. -1.
        -12    1    5    5    0    0  0.14710572929E+03  0.99905329127E+02 -0.17882676722E+02  0.17872034161E+03  0.00000000000E+00 0.  1.
          4    1    6    6  502    0 -0.97739819550E+01  0.11780637200E+03  0.42150847744E+03  0.43777079455E+03  0.00000000000E+00 0. -1.
         -3    1    6    6    0  502 -0.37976135867E+02  0.29169382691E+02  0.84433431500E+02  0.97067214531E+02  0.00000000000E+00 0.  1.
<mgrwt>
<rscale>  0 0.51610944E+03</rscale>
<asrwt>0</asrwt>
<pdfrwt beam="1">  1        1 0.61315359E-01 0.51610944E+03</pdfrwt>
<pdfrwt beam="2">  1       -2 0.15660683E+00 0.51610944E+03</pdfrwt>
<totfact> 0.14704034E+01</totfact>
</mgrwt>
</event>
<event>
12    3  0.2422421E-007  0.4911394E+03  0.7818608E-02  0.1016118E+00
         -2   -1    0    0    0  501 -0.00000000000E+00  0.00000000000E+00  0.39115914879E+03  0.39115914879E+03  0.00000000000E+00 0.  1.
          1   -1    0    0  501    0  0.00000000000E+00 -0.00000000000E+00 -0.79411343827E+03  0.79411343827E+03  0.00000000000E+00 0. -1.
        -24    2    1    2    0    0  0.12159995366E+03  0.36812787216E+03 -0.83242251707E+02  0.40265174256E+03  0.69960519759E+02 0.  0.
    5000000    2    1    2    0    0 -0.12159995366E+03 -0.36812787216E+03 -0.31971203778E+03  0.78262084450E+03  0.59997909977E+03 0.  0.
        -24    2    4    4    0    0 -0.16624279402E+03  0.45902517132E+02 -0.30336404524E+03  0.35791219699E+03  0.79546773457E+02 0.  0.
         24    2    4    4    0    0  0.44642840358E+02 -0.41403038929E+03 -0.16347992536E+02  0.42470864751E+03  0.81829285448E+02 0.  0.
         11    1    5    5    0    0 -0.14377728601E+03  0.43297444993E+02 -0.29941135985E+03  0.33495333872E+03  0.00000000000E+00 0. -1.
        -12    1    5    5    0    0 -0.22465508014E+02  0.26050721393E+01 -0.39526853904E+01  0.22958858268E+02  0.00000000000E+00 0.  1.
         11    1    3    3    0    0 -0.66149520766E+01  0.61659089258E+01 -0.62961744385E+01  0.11018976196E+02  0.00000000000E+00 0. -1.
        -12    1    3    3    0    0  0.12821490574E+03  0.36196196323E+03 -0.76946077269E+02  0.39163276636E+03  0.00000000000E+00 0.  1.
          4    1    6    6  502    0  0.26566144907E+02 -0.27038083770E+03 -0.49558921680E+02  0.27616597214E+03  0.00000000000E+00 0. -1.
         -3    1    6    6    0  502  0.18076695451E+02 -0.14364955159E+03  0.33210929144E+02  0.14854267537E+03  0.00000000000E+00 0.  1.
<mgrwt>
<rscale>  0 0.49113945E+03</rscale>
<asrwt>0</asrwt>
<pdfrwt beam="1">  1        1 0.12217130E+00 0.49113945E+03</pdfrwt>
<pdfrwt beam="2">  1       -2 0.60178331E-01 0.49113945E+03</pdfrwt>
<totfact> 0.52745470E+01</totfact>
</mgrwt>
</event>
<event>
12    3  0.2422421E-007  0.7773827E+03  0.7818608E-02  0.9593344E-01
         -2   -1    0    0    0  501 -0.00000000000E+00  0.00000000000E+00  0.56685804876E+03  0.56685804876E+03  0.00000000000E+00 0.  1.
          1   -1    0    0  501    0  0.00000000000E+00 -0.00000000000E+00 -0.13764330916E+04  0.13764330916E+04  0.00000000000E+00 0. -1.
        -24    2    1    2    0    0 -0.58202976671E+03  0.50728639722E+03 -0.47388162901E+03  0.90945171813E+03  0.80252670657E+02 0.  0.
    5000000    2    1    2    0    0  0.58202976671E+03 -0.50728639722E+03 -0.33569341380E+03  0.10338394222E+04  0.60002978650E+03 0.  0.
        -24    2    4    4    0    0  0.25318477205E+03 -0.25292933068E+03  0.14435560500E+03  0.39398754754E+03  0.79447289454E+02 0.  0.
         24    2    4    4    0    0  0.32884499466E+03 -0.25435706654E+03 -0.48004901880E+03  0.63985187467E+03  0.78273962796E+02 0.  0.
         13    1    3    3    0    0 -0.47323498672E+03  0.36864186523E+03 -0.35937851179E+03  0.69928613041E+03  0.00000000000E+00 0. -1.
        -14    1    3    3    0    0 -0.10879477999E+03  0.13864453199E+03 -0.11450311722E+03  0.21016558771E+03  0.00000000000E+00 0.  1.
         13    1    5    5    0    0  0.76251995881E+02 -0.11351079881E+03  0.85101487779E+02  0.16106312906E+03  0.00000000000E+00 0. -1.
        -14    1    5    5    0    0  0.17693277617E+03 -0.13941853187E+03  0.59254117222E+02  0.23292441847E+03  0.00000000000E+00 0.  1.
          4    1    6    6  502    0  0.79743418818E+02 -0.77092521914E+02 -0.18032653922E+03  0.21170718110E+03  0.00000000000E+00 0. -1.
         -3    1    6    6    0  502  0.24910157584E+03 -0.17726454463E+03 -0.29972247958E+03  0.42814469357E+03  0.00000000000E+00 0.  1.
<mgrwt>
<rscale>  0 0.77738265E+03</rscale>
<asrwt>0</asrwt>
<pdfrwt beam="1">  1        1 0.21175894E+00 0.77738265E+03</pdfrwt>
<pdfrwt beam="2">  1       -2 0.87208931E-01 0.77738265E+03</pdfrwt>
<totfact> 0.81687997E+00</totfact>
</mgrwt>
</event>
<event>
12    3  0.2422421E-007  0.5979443E+03  0.7818608E-02  0.9909680E-01
         -2   -1    0    0    0  501 -0.00000000000E+00  0.00000000000E+00  0.29020229082E+03  0.29020229082E+03  0.00000000000E+00 0.  1.
          1   -1    0    0  501    0  0.00000000000E+00 -0.00000000000E+00 -0.16932829982E+04  0.16932829982E+04  0.00000000000E+00 0. -1.
        -24    2    1    2    0    0  0.60338437231E+02  0.44864989084E+03 -0.10636032276E+04  0.11583343701E+04  0.74560282314E+02 0.  0.
    5000000    2    1    2    0    0 -0.60338437231E+02 -0.44864989084E+03 -0.33947747977E+03  0.82515091888E+03  0.60058440547E+03 0.  0.
        -24    2    4    4    0    0 -0.24436425493E+03 -0.48468474719E+03 -0.22712429408E+03  0.59248146890E+03  0.69394904651E+02 0.  0.
         24    2    4    4    0    0  0.18402581770E+03  0.36034856346E+02 -0.11235318569E+03  0.23266944997E+03  0.79673221126E+02 0.  0.
         11    1    5    5    0    0 -0.12263003003E+03 -0.20342894337E+03 -0.67521047154E+02  0.24694240436E+03  0.00000000000E+00 0. -1.
        -12    1    5    5    0    0 -0.12173422490E+03 -0.28125580382E+03 -0.15960324693E+03  0.34553906454E+03  0.00000000000E+00 0.  1.
         13    1    3    3    0    0 -0.64890680170E+01  0.41046318622E+01 -0.34255309737E+02  0.35105302330E+02  0.00000000000E+00 0. -1.
        -14    1    3    3    0    0  0.66827505248E+02  0.44454525898E+03 -0.10293479179E+04  0.11232290678E+04  0.00000000000E+00 0.  1.
          4    1    6    6  502    0  0.61933908802E+02 -0.12675322989E+02 -0.58477965700E+01  0.63487554663E+02  0.00000000000E+00 0. -1.
         -3    1    6    6    0  502  0.12209190890E+03  0.48710179336E+02 -0.10650538912E+03  0.16918189531E+03  0.00000000000E+00 0.  1.
<mgrwt>
<rscale>  0 0.59794427E+03</rscale>
<asrwt>0</asrwt>
<pdfrwt beam="1">  1        1 0.26050508E+00 0.59794427E+03</pdfrwt>
<pdfrwt beam="2">  1       -2 0.44646506E-01 0.59794427E+03</pdfrwt>
<totfact> 0.21231649E+01</totfact>
</mgrwt>
</event>
<event>
12    3  0.2422421E-007  0.1198877E+04  0.7818608E-02  0.9113840E-01
         -2   -1    0    0    0  501 -0.00000000000E+00  0.00000000000E+00  0.10103971401E+04  0.10103971401E+04  0.00000000000E+00 0.  1.
          1   -1    0    0  501    0  0.00000000000E+00 -0.00000000000E+00 -0.16718861938E+04  0.16718861938E+04  0.00000000000E+00 0. -1.
        -24    2    1    2    0    0 -0.35454971041E+03  0.11408990021E+04 -0.61131393751E+03  0.13443977427E+04  0.79652558496E+02 0.  0.
    5000000    2    1    2    0    0  0.35454971041E+03 -0.11408990021E+04 -0.50175116150E+02  0.13378855912E+04  0.60005356649E+03 0.  0.
        -24    2    4    4    0    0  0.15088646792E+03 -0.50865536663E+03 -0.31038266353E+03  0.61980060889E+03  0.79488293163E+02 0.  0.
         24    2    4    4    0    0  0.20366324249E+03 -0.63224363550E+03  0.26020754738E+03  0.71808498231E+03  0.82020382481E+02 0.  0.
         11    1    3    3    0    0 -0.28152154218E+03  0.93236650092E+03 -0.46384964363E+03  0.10787576941E+04  0.00000000000E+00 0. -1.
        -12    1    3    3    0    0 -0.73028168228E+02  0.20853250121E+03 -0.14746429388E+03  0.26564004853E+03  0.00000000000E+00 0.  1.
         13    1    5    5    0    0  0.11613754782E+01 -0.11855664162E+03 -0.72979255528E+02  0.13922283506E+03  0.00000000000E+00 0. -1.
        -14    1    5    5    0    0  0.14972509244E+03 -0.39009872501E+03 -0.23740340800E+03  0.48057777383E+03  0.00000000000E+00 0.  1.
          4    1    6    6  502    0  0.11283459315E+03 -0.43341805504E+03  0.20545746491E+03  0.49274296112E+03  0.00000000000E+00 0. -1.
         -3    1    6    6    0  502  0.90828649344E+02 -0.19882558046E+03  0.54750082473E+02  0.22534202119E+03  0.00000000000E+00 0.  1.
<mgrwt>
<rscale>  0 0.11988767E+04</rscale>
<asrwt>0</asrwt>
<pdfrwt beam="1">  1        1 0.25721326E+00 0.11988767E+04</pdfrwt>
<pdfrwt beam="2">  1       -2 0.15544572E+00 0.11988767E+04</pdfrwt>
<totfact> 0.11615433E+00</totfact>
</mgrwt>
</event>
<event>
12    3  0.2422421E-007  0.5963619E+03  0.7818608E-02  0.9912983E-01
          1   -1    0    0  501    0  0.00000000000E+00  0.00000000000E+00  0.13911842088E+04  0.13911842088E+04  0.00000000000E+00 0. -1.
         -4   -1    0    0    0  501 -0.00000000000E+00 -0.00000000000E+00 -0.45823326236E+03  0.45823326236E+03  0.00000000000E+00 0.  1.
        -24    2    1    2    0    0  0.30412728080E+03 -0.44813018986E+03 -0.79617730488E+02  0.55382502285E+03  0.84077957496E+02 0.  0.
    5000000    2    1    2    0    0 -0.30412728080E+03  0.44813018986E+03  0.10125686769E+04  0.12955924483E+04  0.59995866241E+03 0.  0.
        -24    2    4    4    0    0 -0.25740444406E+02  0.33255516760E+03  0.14264460580E+03  0.37152114705E+03  0.80155905348E+02 0.  0.
         24    2    4    4    0    0 -0.27838683640E+03  0.11557502226E+03  0.86992407111E+03  0.92407130124E+03  0.79265779653E+02 0.  0.
         11    1    3    3    0    0  0.12401086129E+03 -0.25583407676E+03 -0.50325300140E+02  0.28872548274E+03  0.00000000000E+00 0. -1.
        -12    1    3    3    0    0  0.18011641951E+03 -0.19229611310E+03 -0.29292430348E+02  0.26509954011E+03  0.00000000000E+00 0.  1.
         13    1    5    5    0    0 -0.17822289732E+02  0.21558570413E+03  0.13288955149E+03  0.25387883475E+03  0.00000000000E+00 0. -1.
        -14    1    5    5    0    0 -0.79181546735E+01  0.11696946347E+03  0.97550543032E+01  0.11764231230E+03  0.00000000000E+00 0.  1.
          2    1    6    6  502    0 -0.89572364003E+02  0.78200546704E+02  0.35171899498E+03  0.37127454172E+03  0.00000000000E+00 0. -1.
         -1    1    6    6    0  502 -0.18881447239E+03  0.37374475556E+02  0.51820507613E+03  0.55279675952E+03  0.00000000000E+00 0.  1.
<mgrwt>
<rscale>  0 0.59636189E+03</rscale>
<asrwt>0</asrwt>
<pdfrwt beam="1">  1        1 0.21402834E+00 0.59636189E+03</pdfrwt>
<pdfrwt beam="2">  1       -4 0.70497425E-01 0.59636189E+03</pdfrwt>
<totfact> 0.71577343E+00</totfact>
</mgrwt>
</event>
<event>
12    3  0.2422421E-007  0.1376927E+04  0.7818608E-02  0.8970692E-01
          1   -1    0    0  501    0  0.00000000000E+00  0.00000000000E+00  0.17469908583E+04  0.17469908583E+04  0.00000000000E+00 0. -1.
         -2   -1    0    0    0  501 -0.00000000000E+00 -0.00000000000E+00 -0.26777334610E+04  0.26777334610E+04  0.00000000000E+00 0.  1.
        -24    2    1    2    0    0  0.11648223069E+04 -0.65956601033E+03  0.12255209855E+04  0.18167683365E+04  0.83109409261E+02 0.  0.
    5000000    2    1    2    0    0 -0.11648223069E+04  0.65956601033E+03 -0.21562635882E+04  0.26079559828E+04  0.60010283909E+03 0.  0.
        -24    2    4    4    0    0 -0.68478723271E+02 -0.61642343648E+02 -0.37385042000E+03  0.39320707971E+03  0.79740560080E+02 0.  0.
         24    2    4    4    0    0 -0.10963435837E+04  0.72120835398E+03 -0.17824131682E+04  0.22147489031E+04  0.77493600558E+02 0.  0.
         11    1    5    5    0    0 -0.23856670801E+02 -0.99008908515E+00 -0.22627886398E+03  0.22753515180E+03  0.00000000000E+00 0. -1.
        -12    1    5    5    0    0 -0.44622052470E+02 -0.60652254562E+02 -0.14757155602E+03  0.16567192791E+03  0.00000000000E+00 0.  1.
         13    1    3    3    0    0  0.71736913903E+03 -0.36990587436E+03  0.70317480320E+03  0.10704688886E+04  0.00000000000E+00 0. -1.
        -14    1    3    3    0    0  0.44745316791E+03 -0.28966013597E+03  0.52234618233E+03  0.74629944796E+03  0.00000000000E+00 0.  1.
          4    1    6    6  502    0 -0.42134839073E+03  0.32216920671E+03 -0.72877165340E+03  0.90135208821E+03  0.00000000000E+00 0. -1.
         -3    1    6    6    0  502 -0.67499519293E+03  0.39903914727E+03 -0.10536415148E+04  0.13133968149E+04  0.00000000000E+00 0.  1.
<mgrwt>
<rscale>  0 0.13769266E+04</rscale>
<asrwt>0</asrwt>
<pdfrwt beam="1">  1        1 0.26876782E+00 0.13769266E+04</pdfrwt>
<pdfrwt beam="2">  1       -2 0.41195899E+00 0.13769266E+04</pdfrwt>
<totfact> 0.23088530E-02</totfact>
</mgrwt>
</event>
<event>
12    3  0.2422421E-007  0.9821334E+03  0.7818608E-02  0.9328361E-01
          1   -1    0    0  501    0  0.00000000000E+00  0.00000000000E+00  0.16863778544E+04  0.16863778544E+04  0.00000000000E+00 0. -1.
         -2   -1    0    0    0  501 -0.00000000000E+00 -0.00000000000E+00 -0.70181683280E+03  0.70181683280E+03  0.00000000000E+00 0.  1.
        -24    2    1    2    0    0 -0.91716257209E+03 -0.27226650888E+03  0.78751249866E+03  0.12417828108E+04  0.80823128492E+02 0.  0.
    5000000    2    1    2    0    0  0.91716257209E+03  0.27226650888E+03  0.19704852297E+03  0.11464118764E+04  0.60009652102E+03 0.  0.
        -24    2    4    4    0    0  0.47283781211E+02 -0.15256129786E+01  0.21068558187E+03  0.23044614593E+03  0.80491790300E+02 0.  0.
         24    2    4    4    0    0  0.86987879088E+03  0.27379212186E+03 -0.13637058896E+02  0.91596573051E+03  0.84593222468E+02 0.  0.
         11    1    3    3    0    0 -0.82425689014E+03 -0.22285396786E+03  0.71860316095E+03  0.11159990210E+04  0.00000000000E+00 0. -1.
        -12    1    3    3    0    0 -0.92905681954E+02 -0.49412541021E+02  0.68909337707E+02  0.12578378978E+03  0.00000000000E+00 0.  1.
         13    1    5    5    0    0  0.11556593461E+02  0.38107511424E+02  0.82938287577E+02  0.92002700099E+02  0.00000000000E+00 0. -1.
        -14    1    5    5    0    0  0.35727187750E+02 -0.39633124402E+02  0.12774729429E+03  0.13844344583E+03  0.00000000000E+00 0.  1.
          2    1    6    6  502    0  0.51239785912E+03  0.15604503561E+03 -0.49356005101E+02  0.53790113814E+03  0.00000000000E+00 0. -1.
         -1    1    6    6    0  502  0.35748093176E+03  0.11774708625E+03  0.35718946205E+02  0.37806459238E+03  0.00000000000E+00 0.  1.
<mgrwt>
<rscale>  0 0.98213338E+03</rscale>
<asrwt>0</asrwt>
<pdfrwt beam="1">  1        1 0.25944274E+00 0.98213338E+03</pdfrwt>
<pdfrwt beam="2">  1       -2 0.10797182E+00 0.98213338E+03</pdfrwt>
<totfact> 0.29485346E+00</totfact>
</mgrwt>
</event>
<event>
12    3  0.2422421E-007  0.2291254E+03  0.7818608E-02  0.1127257E+00
          1   -1    0    0  501    0  0.00000000000E+00  0.00000000000E+00  0.33205628757E+03  0.33205628757E+03  0.00000000000E+00 0. -1.
         -2   -1    0    0    0  501 -0.00000000000E+00 -0.00000000000E+00 -0.56337652237E+03  0.56337652237E+03  0.00000000000E+00 0.  1.
        -24    2    1    2    0    0  0.49797640251E+02  0.17547972819E+03  0.53591522449E+02  0.20660675682E+03  0.80878678917E+02 0.  0.
    5000000    2    1    2    0    0 -0.49797640251E+02 -0.17547972819E+03 -0.28491175725E+03  0.68882605312E+03  0.60002806772E+03 0.  0.
        -24    2    4    4    0    0 -0.77392901130E+02 -0.10841369311E+03 -0.45887276545E+03  0.48424535035E+03  0.78652110363E+02 0.  0.
         24    2    4    4    0    0  0.27595260879E+02 -0.67066035082E+02  0.17396100820E+03  0.20458070277E+03  0.79570598133E+02 0.  0.
         11    1    3    3    0    0  0.58476053881E+02  0.60668205439E+02  0.18909696182E+02  0.86357724833E+02  0.00000000000E+00 0. -1.
        -12    1    3    3    0    0 -0.86784136297E+01  0.11481152275E+03  0.34681826267E+02  0.12024903198E+03  0.00000000000E+00 0.  1.
         13    1    5    5    0    0 -0.72011393300E+02 -0.12109498642E+03 -0.41538395834E+03  0.43862679962E+03  0.00000000000E+00 0. -1.
        -14    1    5    5    0    0 -0.53815078299E+01  0.12681293311E+02 -0.43488807114E+02  0.45618550730E+02  0.00000000000E+00 0.  1.
          2    1    6    6  502    0  0.46538335960E+02 -0.70946842232E+02  0.15865870599E+03  0.17992180558E+03  0.00000000000E+00 0. -1.
         -1    1    6    6    0  502 -0.18943075082E+02  0.38808071498E+01  0.15302302207E+02  0.24658897188E+02  0.00000000000E+00 0.  1.
<mgrwt>
<rscale>  0 0.22912535E+03</rscale>
<asrwt>0</asrwt>
<pdfrwt beam="1">  1        1 0.51085583E-01 0.22912535E+03</pdfrwt>
<pdfrwt beam="2">  1       -2 0.86673310E-01 0.22912535E+03</pdfrwt>
<totfact> 0.81807503E+01</totfact>
</mgrwt>
</event>
<event>
12    3  0.2422421E-007  0.8731363E+03  0.7818608E-02  0.9459800E-01
          1   -1    0    0  501    0  0.00000000000E+00  0.00000000000E+00  0.11001144510E+04  0.11001144510E+04  0.00000000000E+00 0. -1.
         -2   -1    0    0    0  501 -0.00000000000E+00 -0.00000000000E+00 -0.72383436211E+03  0.72383436211E+03  0.00000000000E+00 0.  1.
        -24    2    1    2    0    0 -0.27991170165E+03 -0.73728717305E+03  0.20233315150E+03  0.81788688845E+03  0.77828798213E+02 0.  0.
    5000000    2    1    2    0    0  0.27991170165E+03  0.73728717305E+03  0.17394693737E+03  0.10060619246E+04  0.59996676817E+03 0.  0.
        -24    2    4    4    0    0  0.43010847047E+03  0.48365414392E+03 -0.53965975500E+01  0.65212336347E+03  0.79505538273E+02 0.  0.
         24    2    4    4    0    0 -0.15019676882E+03  0.25363302913E+03  0.17934353492E+03  0.35393856116E+03  0.78864559396E+02 0.  0.
         11    1    5    5    0    0  0.69396744083E+02  0.12727160370E+03 -0.51050443737E+01  0.14505182066E+03  0.00000000000E+00 0. -1.
        -12    1    5    5    0    0  0.36071172639E+03  0.35638254022E+03 -0.29155317624E+00  0.50707154282E+03  0.00000000000E+00 0.  1.
         13    1    3    3    0    0 -0.11097554612E+03 -0.22909260649E+03  0.94954109649E+02  0.27168967062E+03  0.00000000000E+00 0. -1.
        -14    1    3    3    0    0 -0.16893615554E+03 -0.50819456657E+03  0.10737904185E+03  0.54619721783E+03  0.00000000000E+00 0.  1.
          4    1    6    6  502    0 -0.11603424091E+03  0.24143263246E+03  0.16679449785E+03  0.31555358593E+03  0.00000000000E+00 0. -1.
         -3    1    6    6    0  502 -0.34162527912E+02  0.12200396670E+02  0.12549037079E+02  0.38384975236E+02  0.00000000000E+00 0.  1.
<mgrwt>
<rscale>  0 0.87313626E+03</rscale>
<asrwt>0</asrwt>
<pdfrwt beam="1">  1        1 0.16924838E+00 0.87313626E+03</pdfrwt>
<pdfrwt beam="2">  1       -2 0.11135913E+00 0.87313626E+03</pdfrwt>
<totfact> 0.71666005E+00</totfact>
</mgrwt>
</event>
<event>
12    3  0.2422421E-007  0.1157672E+04  0.7818608E-02  0.9150735E-01
         -2   -1    0    0    0  501 -0.00000000000E+00  0.00000000000E+00  0.19729289560E+04  0.19729289560E+04  0.00000000000E+00 0.  1.
          1   -1    0    0  501    0  0.00000000000E+00 -0.00000000000E+00 -0.10610090709E+04  0.10610090709E+04  0.00000000000E+00 0. -1.
        -24    2    1    2    0    0  0.10113526523E+04 -0.51092566733E+03  0.12688679333E+04  0.17030100951E+04  0.79613611916E+02 0.  0.
    5000000    2    1    2    0    0 -0.10113526523E+04  0.51092566733E+03 -0.35694804819E+03  0.13309279318E+04  0.60006501800E+03 0.  0.
        -24    2    4    4    0    0 -0.54027977324E+03  0.99667474316E+02 -0.42149592153E+03  0.69695998573E+03  0.79111130938E+02 0.  0.
         24    2    4    4    0    0 -0.47107287904E+03  0.41125819301E+03  0.64547873333E+02  0.63396794611E+03  0.81889987480E+02 0.  0.
         13    1    3    3    0    0  0.39580541532E+03 -0.23471613826E+03  0.47908081045E+03  0.66428308370E+03  0.00000000000E+00 0. -1.
        -14    1    3    3    0    0  0.61554723696E+03 -0.27620952908E+03  0.78978712281E+03  0.10387270114E+04  0.00000000000E+00 0.  1.
         13    1    5    5    0    0 -0.38090922274E+03  0.10467540230E+03 -0.28563920402E+03  0.48748182601E+03  0.00000000000E+00 0. -1.
        -14    1    5    5    0    0 -0.15937055049E+03 -0.50079279847E+01 -0.13585671750E+03  0.20947815972E+03  0.00000000000E+00 0.  1.
          4    1    6    6  502    0 -0.37984720821E+03  0.34649590319E+03  0.23103915667E+02  0.51466212551E+03  0.00000000000E+00 0. -1.
         -3    1    6    6    0  502 -0.91225670833E+02  0.64762289824E+02  0.41443957666E+02  0.11930582060E+03  0.00000000000E+00 0.  1.
<mgrwt>
<rscale>  0 0.11576717E+04</rscale>
<asrwt>0</asrwt>
<pdfrwt beam="1">  1        1 0.16323217E+00 0.11576717E+04</pdfrwt>
<pdfrwt beam="2">  1       -2 0.30352753E+00 0.11576717E+04</pdfrwt>
<totfact> 0.35500765E-01</totfact>
</mgrwt>
</event>
<event>
12    3  0.2422421E-007  0.5156257E+03  0.7818608E-02  0.1009779E+00
          1   -1    0    0  501    0  0.00000000000E+00  0.00000000000E+00  0.19052786007E+04  0.19052786007E+04  0.00000000000E+00 0. -1.
         -2   -1    0    0    0  501 -0.00000000000E+00 -0.00000000000E+00 -0.19950434227E+03  0.19950434227E+03  0.00000000000E+00 0.  1.
        -24    2    1    2    0    0 -0.95189036575E+02 -0.45441405389E+03  0.73182332308E+03  0.87021094230E+03  0.78413154791E+02 0.  0.
    5000000    2    1    2    0    0  0.95189036575E+02  0.45441405389E+03  0.97395093536E+03  0.12345720007E+04  0.60002876207E+03 0.  0.
        -24    2    4    4    0    0  0.16981852465E+02 -0.26043090019E+02 -0.52545296438E+02  0.95659921187E+02  0.73642287396E+02 0.  0.
         24    2    4    4    0    0  0.78207184110E+02  0.48045714391E+03  0.10264962318E+04  0.11389120795E+04  0.80441159413E+02 0.  0.
         11    1    5    5    0    0  0.36459905499E+02  0.45466907646E+01 -0.45894609347E+02  0.58790409702E+02  0.00000000000E+00 0. -1.
        -12    1    5    5    0    0 -0.19478053034E+02 -0.30589780783E+02 -0.66506870916E+01  0.36869511485E+02  0.00000000000E+00 0.  1.
         11    1    3    3    0    0 -0.89177101510E+02 -0.37853093564E+03  0.55490665593E+03  0.67761317982E+03  0.00000000000E+00 0. -1.
        -12    1    3    3    0    0 -0.60119350652E+01 -0.75883118252E+02  0.17691666715E+03  0.19259776248E+03  0.00000000000E+00 0.  1.
          4    1    6    6  502    0 -0.16415088069E+02  0.56154397251E+02  0.13116010251E+03  0.14361665620E+03  0.00000000000E+00 0. -1.
         -3    1    6    6    0  502  0.94622272179E+02  0.42430274666E+03  0.89533612929E+03  0.99529542329E+03  0.00000000000E+00 0.  1.
<mgrwt>
<rscale>  0 0.51562569E+03</rscale>
<asrwt>0</asrwt>
<pdfrwt beam="1">  1        1 0.29311977E+00 0.51562569E+03</pdfrwt>
<pdfrwt beam="2">  1       -2 0.30692977E-01 0.51562569E+03</pdfrwt>
<totfact> 0.31898030E+01</totfact>
</mgrwt>
</event>
<event>
12    3  0.2422421E-007  0.9290394E+03  0.7818608E-02  0.9389991E-01
          1   -1    0    0  501    0  0.00000000000E+00  0.00000000000E+00  0.19766292043E+04  0.19766292043E+04  0.00000000000E+00 0. -1.
         -2   -1    0    0    0  501 -0.00000000000E+00 -0.00000000000E+00 -0.45707927695E+03  0.45707927695E+03  0.00000000000E+00 0.  1.
        -24    2    1    2    0    0  0.35315222850E+03  0.77567225496E+03  0.62079944490E+03  0.10576304620E+04  0.82500301508E+02 0.  0.
    5000000    2    1    2    0    0 -0.35315222850E+03 -0.77567225496E+03  0.89875048243E+03  0.13760780192E+04  0.59954511234E+03 0.  0.
        -24    2    4    4    0    0 -0.12861697490E+03  0.55447546018E+02  0.23826804172E+03  0.28809529356E+03  0.81304869912E+02 0.  0.
         24    2    4    4    0    0 -0.22453525360E+03 -0.83111980098E+03  0.66048244071E+03  0.10879827257E+04  0.79329396789E+02 0.  0.
         11    1    3    3    0    0  0.36026581866E+02  0.12505142188E+03  0.67660419872E+02  0.14667550965E+03  0.00000000000E+00 0. -1.
        -12    1    3    3    0    0  0.31712564663E+03  0.65062083308E+03  0.55313902502E+03  0.91095495234E+03  0.00000000000E+00 0.  1.
         13    1    5    5    0    0 -0.10000988469E+03  0.31464553379E+02  0.10003477542E+03  0.14491014957E+03  0.00000000000E+00 0. -1.
        -14    1    5    5    0    0 -0.28607090216E+02  0.23982992639E+02  0.13823326630E+03  0.14318514399E+03  0.00000000000E+00 0.  1.
          4    1    6    6  502    0 -0.17067292529E+03 -0.55494465421E+03  0.48365072047E+03  0.75565258954E+03  0.00000000000E+00 0. -1.
         -3    1    6    6    0  502 -0.53862328309E+02 -0.27617514676E+03  0.17683172025E+03  0.33233013614E+03  0.00000000000E+00 0.  1.
<mgrwt>
<rscale>  0 0.92903942E+03</rscale>
<asrwt>0</asrwt>
<pdfrwt beam="1">  1        1 0.30409680E+00 0.92903942E+03</pdfrwt>
<pdfrwt beam="2">  1       -2 0.70319890E-01 0.92903942E+03</pdfrwt>
<totfact> 0.50773182E+00</totfact>
</mgrwt>
</event>
<event>
12    3  0.2422421E-007  0.1508349E+04  0.7818608E-02  0.8878920E-01
         -2   -1    0    0    0  501 -0.00000000000E+00  0.00000000000E+00  0.17895653114E+04  0.17895653114E+04  0.00000000000E+00 0.  1.
          1   -1    0    0  501    0  0.00000000000E+00 -0.00000000000E+00 -0.14165063676E+04  0.14165063676E+04  0.00000000000E+00 0. -1.
        -24    2    1    2    0    0  0.14846433490E+03 -0.14821588220E+04 -0.19162837925E+03  0.15037955050E+04  0.76439864175E+02 0.  0.
    5000000    2    1    2    0    0 -0.14846433490E+03  0.14821588220E+04  0.56468732304E+03  0.17022761739E+04  0.60002997174E+03 0.  0.
        -24    2    4    4    0    0  0.98827665703E+02  0.59427320307E+03 -0.19425154602E+02  0.60821310645E+03  0.81352927628E+02 0.  0.
         24    2    4    4    0    0 -0.24729200060E+03  0.88788561894E+03  0.58411247764E+03  0.10940630674E+04  0.79324668968E+02 0.  0.
         11    1    5    5    0    0  0.46388423863E+02  0.36469414524E+03  0.25337661087E+02  0.36850468452E+03  0.00000000000E+00 0. -1.
        -12    1    5    5    0    0  0.52439241840E+02  0.22957905783E+03 -0.44762815689E+02  0.23970842194E+03  0.00000000000E+00 0.  1.
         13    1    3    3    0    0  0.13445061628E+02 -0.49180603794E+03 -0.58590947936E+02  0.49546629332E+03  0.00000000000E+00 0. -1.
        -14    1    3    3    0    0  0.13501927327E+03 -0.99035278407E+03 -0.13303743131E+03  0.10083292117E+04  0.00000000000E+00 0.  1.
          4    1    6    6  502    0 -0.29087852808E+02  0.14065223729E+03  0.12440835333E+03  0.19001735030E+03  0.00000000000E+00 0. -1.
         -3    1    6    6    0  502 -0.21820414780E+03  0.74723338164E+03  0.45970412431E+03  0.90404571713E+03  0.00000000000E+00 0.  1.
<mgrwt>
<rscale>  0 0.15083491E+04</rscale>
<asrwt>0</asrwt>
<pdfrwt beam="1">  1        1 0.21792405E+00 0.15083491E+04</pdfrwt>
<pdfrwt beam="2">  1       -2 0.27531774E+00 0.15083491E+04</pdfrwt>
<totfact> 0.27797018E-01</totfact>
</mgrwt>
</event>
<event>
12    3  0.2422421E-007  0.1081278E+04  0.7818608E-02  0.9223634E-01
          1   -1    0    0  501    0  0.00000000000E+00  0.00000000000E+00  0.83408676220E+03  0.83408676220E+03  0.00000000000E+00 0. -1.
         -2   -1    0    0    0  501 -0.00000000000E+00 -0.00000000000E+00 -0.23637900712E+04  0.23637900712E+04  0.00000000000E+00 0.  1.
        -24    2    1    2    0    0  0.37541582454E+03  0.95243917036E+03  0.25180826901E+03  0.10573401871E+04  0.80519887659E+02 0.  0.
    5000000    2    1    2    0    0 -0.37541582454E+03 -0.95243917036E+03 -0.17815115780E+04  0.21405366463E+04  0.60003018016E+03 0.  0.
        -24    2    4    4    0    0  0.11109243816E+03 -0.13384410276E+03 -0.54679997459E+03  0.57925308215E+03  0.79297839263E+02 0.  0.
         24    2    4    4    0    0 -0.48650826270E+03 -0.81859506760E+03 -0.12347116034E+04  0.15612835641E+04  0.79406862069E+02 0.  0.
         11    1    5    5    0    0  0.20554833229E+02 -0.73677036894E+02 -0.29953701933E+03  0.30914920812E+03  0.00000000000E+00 0. -1.
        -12    1    5    5    0    0  0.90537604930E+02 -0.60167065865E+02 -0.24726295526E+03  0.27010387403E+03  0.00000000000E+00 0.  1.
         13    1    3    3    0    0  0.19017238116E+03  0.52786685306E+03  0.17540664062E+03  0.58785749862E+03  0.00000000000E+00 0. -1.
        -14    1    3    3    0    0  0.18524344338E+03  0.42457231730E+03  0.76401628388E+02  0.46948268845E+03  0.00000000000E+00 0.  1.
          2    1    6    6  502    0 -0.14459236078E+03 -0.27926519560E+03 -0.35539487877E+03  0.47455402235E+03  0.00000000000E+00 0. -1.
         -1    1    6    6    0  502 -0.34191590192E+03 -0.53932987200E+03 -0.87931672460E+03  0.10867295418E+04  0.00000000000E+00 0.  1.
<mgrwt>
<rscale>  0 0.10812782E+04</rscale>
<asrwt>0</asrwt>
<pdfrwt beam="1">  1        1 0.12832104E+00 0.10812782E+04</pdfrwt>
<pdfrwt beam="2">  1       -2 0.36366001E+00 0.10812782E+04</pdfrwt>
<totfact> 0.23196864E-01</totfact>
</mgrwt>
</event>
<event>
12    3  0.2422421E-007  0.3925689E+03  0.7818608E-02  0.1046384E+00
         -4   -1    0    0    0  501 -0.00000000000E+00  0.00000000000E+00  0.64041613683E+03  0.64041613683E+03  0.00000000000E+00 0.  1.
          3   -1    0    0  501    0  0.00000000000E+00 -0.00000000000E+00 -0.49644127621E+03  0.49644127621E+03  0.00000000000E+00 0. -1.
        -24    2    1    2    0    0  0.16774802254E+03 -0.43319526913E+02 -0.31035745679E+03  0.36455806484E+03  0.81023769229E+02 0.  0.
    5000000    2    1    2    0    0 -0.16774802254E+03  0.43319526913E+02  0.45433231741E+03  0.77229934821E+03  0.60001037335E+03 0.  0.
        -24    2    4    4    0    0 -0.70194427409E+02 -0.26406160933E+03  0.26974761134E+03  0.39207662224E+03  0.79400961715E+02 0.  0.
         24    2    4    4    0    0 -0.97553595128E+02  0.30738113624E+03  0.18458470607E+03  0.38022272597E+03  0.80609805788E+02 0.  0.
         13    1    5    5    0    0 -0.85001751300E+01 -0.12435061368E+03  0.16540838718E+03  0.20711171538E+03  0.00000000000E+00 0. -1.
        -14    1    5    5    0    0 -0.61694252279E+02 -0.13971099565E+03  0.10433922416E+03  0.18496490686E+03  0.00000000000E+00 0.  1.
         13    1    3    3    0    0  0.96136584968E+02 -0.90875300538E+01 -0.23920937832E+03  0.25796502253E+03  0.00000000000E+00 0. -1.
        -14    1    3    3    0    0  0.71611437569E+02 -0.34231996859E+02 -0.71148078463E+02  0.10659304231E+03  0.00000000000E+00 0.  1.
          2    1    6    6  502    0 -0.23762644598E-01  0.12509990821E+03  0.80541597393E+02  0.14878486653E+03  0.00000000000E+00 0. -1.
         -1    1    6    6    0  502 -0.97529832484E+02  0.18228122803E+03  0.10404310867E+03  0.23143785943E+03  0.00000000000E+00 0.  1.
<mgrwt>
<rscale>  0 0.39256894E+03</rscale>
<asrwt>0</asrwt>
<pdfrwt beam="1">  1        3 0.76375581E-01 0.39256894E+03</pdfrwt>
<pdfrwt beam="2">  1       -4 0.98525560E-01 0.39256894E+03</pdfrwt>
<totfact> 0.31016891E+00</totfact>
</mgrwt>
</event>
<event>
12    3  0.2422421E-007  0.1557901E+04  0.7818608E-02  0.8846837E-01
         -2   -1    0    0    0  501 -0.00000000000E+00  0.00000000000E+00  0.10860214717E+04  0.10860214717E+04  0.00000000000E+00 0.  1.
          1   -1    0    0  501    0  0.00000000000E+00 -0.00000000000E+00 -0.23649150236E+04  0.23649150236E+04  0.00000000000E+00 0. -1.
        -24    2    1    2    0    0  0.12204486643E+03  0.15325430664E+04 -0.44810959912E+03  0.16032103201E+04  0.76797902059E+02 0.  0.
    5000000    2    1    2    0    0 -0.12204486643E+03 -0.15325430664E+04 -0.83078395281E+03  0.18477261752E+04  0.60025564764E+03 0.  0.
        -24    2    4    4    0    0 -0.17479963668E+03 -0.35836003665E+03 -0.45789514011E+03  0.61218079305E+03  0.78233849473E+02 0.  0.
         24    2    4    4    0    0  0.52754770249E+02 -0.11741830297E+04 -0.37288881270E+03  0.12355453822E+04  0.77701168570E+02 0.  0.
         11    1    3    3    0    0  0.10242919955E+03  0.87752949731E+03 -0.23670379582E+03  0.91464662385E+03  0.00000000000E+00 0. -1.
        -12    1    3    3    0    0  0.19615666881E+02  0.65501356908E+03 -0.21140580329E+03  0.68856369621E+03  0.00000000000E+00 0.  1.
         11    1    5    5    0    0 -0.58944945603E+02 -0.16611318374E+03 -0.25246368589E+03  0.30790584456E+03  0.00000000000E+00 0. -1.
        -12    1    5    5    0    0 -0.11585469107E+03 -0.19224685291E+03 -0.20543145422E+03  0.30427494849E+03  0.00000000000E+00 0.  1.
          2    1    6    6  502    0  0.22127820539E+02 -0.14760860647E+03 -0.69460956148E+02  0.16462917595E+03  0.00000000000E+00 0. -1.
         -1    1    6    6    0  502  0.30626949710E+02 -0.10265744233E+04 -0.30342785656E+03  0.10709162062E+04  0.00000000000E+00 0.  1.
<mgrwt>
<rscale>  0 0.15579013E+04</rscale>
<asrwt>0</asrwt>
<pdfrwt beam="1">  1        1 0.36383308E+00 0.15579013E+04</pdfrwt>
<pdfrwt beam="2">  1       -2 0.16708023E+00 0.15579013E+04</pdfrwt>
<totfact> 0.30929473E-01</totfact>
</mgrwt>
</event>
<event>
12    3  0.2422421E-007  0.4791197E+03  0.7818608E-02  0.1019377E+00
          1   -1    0    0  501    0  0.00000000000E+00  0.00000000000E+00  0.85772235059E+03  0.85772235059E+03  0.00000000000E+00 0. -1.
         -2   -1    0    0    0  501 -0.00000000000E+00 -0.00000000000E+00 -0.36436662579E+03  0.36436662579E+03  0.00000000000E+00 0.  1.
        -24    2    1    2    0    0  0.99638702196E+02  0.37863121550E+03  0.14079244546E+03  0.42358914221E+03  0.79471884161E+02 0.  0.
    5000000    2    1    2    0    0 -0.99638702196E+02 -0.37863121550E+03  0.35256327933E+03  0.79849983417E+03  0.60000970902E+03 0.  0.
        -24    2    4    4    0    0  0.79287401727E+02  0.44554643468E+02  0.30712782614E+03  0.33007608093E+03  0.79693847249E+02 0.  0.
         24    2    4    4    0    0 -0.17892610392E+03 -0.42318585896E+03  0.45435453200E+02  0.46842375324E+03  0.79092416206E+02 0.  0.
         11    1    5    5    0    0  0.60222452240E+02  0.87713695630E+01  0.26383020461E+03  0.27075830096E+03  0.00000000000E+00 0. -1.
        -12    1    5    5    0    0  0.19064949487E+02  0.35783273905E+02  0.43297621529E+02  0.59317779968E+02  0.00000000000E+00 0.  1.
         11    1    3    3    0    0  0.51353137519E+02  0.20397161067E+03  0.33474569275E+02  0.21298382446E+03  0.00000000000E+00 0. -1.
        -12    1    3    3    0    0  0.48285564677E+02  0.17465960482E+03  0.10731787619E+03  0.21060531775E+03  0.00000000000E+00 0.  1.
          2    1    6    6  502    0 -0.10633818372E+03 -0.33272696925E+03  0.21287317689E+02  0.34995456174E+03  0.00000000000E+00 0. -1.
         -1    1    6    6    0  502 -0.72587920207E+02 -0.90458889711E+02  0.24148135510E+02  0.11846919151E+03  0.00000000000E+00 0.  1.
<mgrwt>
<rscale>  0 0.47911975E+03</rscale>
<asrwt>0</asrwt>
<pdfrwt beam="1">  1        1 0.13195728E+00 0.47911975E+03</pdfrwt>
<pdfrwt beam="2">  1       -2 0.56056404E-01 0.47911975E+03</pdfrwt>
<totfact> 0.54151213E+01</totfact>
</mgrwt>
</event>
<event>
12    3  0.2422421E-007  0.4431558E+03  0.7818608E-02  0.1029783E+00
          1   -1    0    0  501    0  0.00000000000E+00  0.00000000000E+00  0.67238128359E+03  0.67238128359E+03  0.00000000000E+00 0. -1.
         -2   -1    0    0    0  501 -0.00000000000E+00 -0.00000000000E+00 -0.35596241203E+03  0.35596241203E+03  0.00000000000E+00 0.  1.
        -24    2    1    2    0    0  0.29374430527E+03  0.47113896183E+02  0.11326499672E+03  0.32840659734E+03  0.80724826423E+02 0.  0.
    5000000    2    1    2    0    0 -0.29374430527E+03 -0.47113896183E+02  0.20315387484E+03  0.69993709829E+03  0.60011249663E+03 0.  0.
        -24    2    4    4    0    0  0.56585857120E+02  0.15384826667E+03 -0.81656420516E+02  0.19957466495E+03  0.79315997742E+02 0.  0.
         24    2    4    4    0    0 -0.35033016239E+03 -0.20096216285E+03  0.28481029536E+03  0.50036243334E+03  0.78285674161E+02 0.  0.
         11    1    5    5    0    0  0.61830636722E+02  0.90708393507E+02 -0.20811673289E+02  0.11173256479E+03  0.00000000000E+00 0. -1.
        -12    1    5    5    0    0 -0.52447796015E+01  0.63139873158E+02 -0.60844747227E+02  0.87842100161E+02  0.00000000000E+00 0.  1.
         11    1    3    3    0    0  0.48397931330E+02 -0.16265909353E+02  0.39300814090E+02  0.64432084805E+02  0.00000000000E+00 0. -1.
        -12    1    3    3    0    0  0.24534637394E+03  0.63379805536E+02  0.73964182630E+02  0.26397451253E+03  0.00000000000E+00 0.  1.
          4    1    6    6  502    0 -0.23535251861E+03 -0.10004346510E+03  0.20532840497E+03  0.32796227956E+03  0.00000000000E+00 0. -1.
         -3    1    6    6    0  502 -0.11497764378E+03 -0.10091869774E+03  0.79481890384E+02  0.17240015378E+03  0.00000000000E+00 0.  1.
<mgrwt>
<rscale>  0 0.44315584E+03</rscale>
<asrwt>0</asrwt>
<pdfrwt beam="1">  1        1 0.10344327E+00 0.44315584E+03</pdfrwt>
<pdfrwt beam="2">  1       -2 0.54763448E-01 0.44315584E+03</pdfrwt>
<totfact> 0.83034022E+01</totfact>
</mgrwt>
</event>
<event>
12    3  0.2422421E-007  0.1042802E+04  0.7818608E-02  0.9262807E-01
         -2   -1    0    0    0  501 -0.00000000000E+00  0.00000000000E+00  0.38769690153E+03  0.38769690153E+03  0.00000000000E+00 0.  1.
          1   -1    0    0  501    0  0.00000000000E+00 -0.00000000000E+00 -0.44143085447E+04  0.44143085447E+04  0.00000000000E+00 0. -1.
        -24    2    1    2    0    0 -0.13214237854E+03  0.10176146849E+04 -0.31806366723E+04  0.33430095599E+04  0.79132937182E+02 0.  0.
    5000000    2    1    2    0    0  0.13214237854E+03 -0.10176146849E+04 -0.84597497091E+03  0.14589958863E+04  0.59999507474E+03 0.  0.
        -24    2    4    4    0    0 -0.51222627316E+02 -0.49872790178E+03 -0.73319358226E+03  0.89174628031E+03  0.79280021524E+02 0.  0.
         24    2    4    4    0    0  0.18336500586E+03 -0.51888678312E+03 -0.11278138865E+03  0.56724960600E+03  0.78652748242E+02 0.  0.
         13    1    3    3    0    0 -0.51717953820E+02  0.67005484370E+03 -0.20322091823E+04  0.21404491120E+04  0.00000000000E+00 0. -1.
        -14    1    3    3    0    0 -0.80424424723E+02  0.34755984120E+03 -0.11484274899E+04  0.12025604479E+04  0.00000000000E+00 0.  1.
         13    1    5    5    0    0 -0.87564448788E+01 -0.15226765586E+03 -0.28939970071E+03  0.32713040384E+03  0.00000000000E+00 0. -1.
        -14    1    5    5    0    0 -0.42466182437E+02 -0.34646024592E+03 -0.44379388155E+03  0.56461587646E+03  0.00000000000E+00 0.  1.
          2    1    6    6  502    0  0.44072761288E+02 -0.23411077763E+03 -0.34476085484E+02  0.24070493339E+03  0.00000000000E+00 0. -1.
         -1    1    6    6    0  502  0.13929224457E+03 -0.28477600550E+03 -0.78305303170E+02  0.32654467261E+03  0.00000000000E+00 0.  1.
<mgrwt>
<rscale>  0 0.10428018E+04</rscale>
<asrwt>0</asrwt>
<pdfrwt beam="1">  1        1 0.67912437E+00 0.10428018E+04</pdfrwt>
<pdfrwt beam="2">  1       -2 0.59645679E-01 0.10428018E+04</pdfrwt>
<totfact> 0.95820684E-02</totfact>
</mgrwt>
</event>
<event>
12    3  0.2422421E-007  0.9374427E+03  0.7818608E-02  0.9379950E-01
         -4   -1    0    0    0  501 -0.00000000000E+00  0.00000000000E+00  0.17492732704E+04  0.17492732704E+04  0.00000000000E+00 0.  1.
          3   -1    0    0  501    0  0.00000000000E+00 -0.00000000000E+00 -0.98667871498E+03  0.98667871498E+03  0.00000000000E+00 0. -1.
        -24    2    1    2    0    0  0.83412849790E+03 -0.18972520547E+03 -0.57849680178E+03  0.10358461273E+04  0.80948411091E+02 0.  0.
    5000000    2    1    2    0    0 -0.83412849790E+03  0.18972520547E+03  0.13410913572E+04  0.17001058581E+04  0.60005657701E+03 0.  0.
        -24    2    4    4    0    0 -0.88332875590E+03  0.23395015170E+03  0.12960205803E+04  0.15875812505E+04  0.75779403470E+02 0.  0.
         24    2    4    4    0    0  0.49200258000E+02 -0.44224946226E+02  0.45070776952E+02  0.11252460756E+03  0.79081610481E+02 0.  0.
         13    1    3    3    0    0  0.38688811055E+02 -0.27324359854E+02 -0.29605531852E+02  0.55856353789E+02  0.00000000000E+00 0. -1.
        -14    1    3    3    0    0  0.79543968684E+03 -0.16240084562E+03 -0.54889126993E+03  0.97998977355E+03  0.00000000000E+00 0.  1.
         13    1    5    5    0    0 -0.27884615923E+03  0.78638336450E+02  0.47303786407E+03  0.55471072580E+03  0.00000000000E+00 0. -1.
        -14    1    5    5    0    0 -0.60448259667E+03  0.15531181525E+03  0.82298271618E+03  0.10328705247E+04  0.00000000000E+00 0.  1.
          4    1    6    6  502    0  0.69964226661E+02 -0.27514988555E+02  0.40781702617E+02  0.85529029433E+02  0.00000000000E+00 0. -1.
         -3    1    6    6    0  502 -0.20763968661E+02 -0.16709957671E+02  0.42890743356E+01  0.26995578130E+02  0.00000000000E+00 0.  1.
<mgrwt>
<rscale>  0 0.93744268E+03</rscale>
<asrwt>0</asrwt>
<pdfrwt beam="1">  1        3 0.15179673E+00 0.93744268E+03</pdfrwt>
<pdfrwt beam="2">  1       -4 0.26911897E+00 0.93744268E+03</pdfrwt>
<totfact> 0.33611113E-02</totfact>
</mgrwt>
</event>
<event>
12    3  0.2422421E-007  0.4636848E+03  0.7818608E-02  0.1023718E+00
         -2   -1    0    0    0  501 -0.00000000000E+00  0.00000000000E+00  0.20337444089E+03  0.20337444089E+03  0.00000000000E+00 0.  1.
          1   -1    0    0  501    0  0.00000000000E+00 -0.00000000000E+00 -0.15377999945E+04  0.15377999945E+04  0.00000000000E+00 0. -1.
        -24    2    1    2    0    0  0.29438529587E+03  0.24874013063E+03 -0.59747589031E+03  0.71568704115E+03  0.81829984487E+02 0.  0.
    5000000    2    1    2    0    0 -0.29438529587E+03 -0.24874013063E+03 -0.73694966332E+03  0.10254873943E+04  0.59999602876E+03 0.  0.
        -24    2    4    4    0    0 -0.77523144158E+02 -0.28705556435E+03 -0.66188980327E+02  0.31497716552E+03  0.80118030283E+02 0.  0.
         24    2    4    4    0    0 -0.21686215171E+03  0.38315433722E+02 -0.67076068300E+03  0.71051022876E+03  0.80047648347E+02 0.  0.
         13    1    3    3    0    0  0.10676741511E+03  0.14301620788E+03 -0.28105089457E+03  0.33293020588E+03  0.00000000000E+00 0. -1.
        -14    1    3    3    0    0  0.18761788076E+03  0.10572392275E+03 -0.31642499574E+03  0.38275683527E+03  0.00000000000E+00 0.  1.
         13    1    5    5    0    0 -0.59960744042E+01 -0.79288620249E+02 -0.51534403115E+02  0.94754593101E+02  0.00000000000E+00 0. -1.
        -14    1    5    5    0    0 -0.71527069754E+02 -0.20776694410E+03 -0.14654577212E+02  0.22022257242E+03  0.00000000000E+00 0.  1.
          4    1    6    6  502    0 -0.12510748540E+03 -0.18354118595E+02 -0.35661332904E+03  0.37836731231E+03  0.00000000000E+00 0. -1.
         -3    1    6    6    0  502 -0.91754666309E+02  0.56669552317E+02 -0.31414735396E+03  0.33214291645E+03  0.00000000000E+00 0.  1.
<mgrwt>
<rscale>  0 0.46368483E+03</rscale>
<asrwt>0</asrwt>
<pdfrwt beam="1">  1        1 0.23658461E+00 0.46368483E+03</pdfrwt>
<pdfrwt beam="2">  1       -2 0.31288376E-01 0.46368483E+03</pdfrwt>
<totfact> 0.54538364E+01</totfact>
</mgrwt>
</event>
<event>
12    3  0.2422421E-007  0.5156451E+03  0.7818608E-02  0.1009774E+00
         -2   -1    0    0    0  501 -0.00000000000E+00  0.00000000000E+00  0.20819925094E+04  0.20819925094E+04  0.00000000000E+00 0.  1.
          1   -1    0    0  501    0  0.00000000000E+00 -0.00000000000E+00 -0.18315616446E+03  0.18315616446E+03  0.00000000000E+00 0. -1.
        -24    2    1    2    0    0 -0.34592343669E+03 -0.12741563081E+03  0.20617923849E+03  0.43184140198E+03  0.89885210435E+02 0.  0.
    5000000    2    1    2    0    0  0.34592343669E+03  0.12741563081E+03  0.16926571064E+04  0.18333072718E+04  0.60002475451E+03 0.  0.
        -24    2    4    4    0    0  0.44034324076E+03 -0.63315608412E+02  0.88573255731E+03  0.99445718402E+03  0.80696293695E+02 0.  0.
         24    2    4    4    0    0 -0.94419804071E+02  0.19073123923E+03  0.80692454911E+03  0.83885008782E+03  0.85139514077E+02 0.  0.
         11    1    5    5    0    0  0.15736701014E+03 -0.68635433563E+01  0.39390821815E+03  0.42423480342E+03  0.00000000000E+00 0. -1.
        -12    1    5    5    0    0  0.28297623062E+03 -0.56452065056E+02  0.49182433916E+03  0.57022238060E+03  0.00000000000E+00 0.  1.
         13    1    3    3    0    0 -0.24796948165E+03 -0.71168257954E+02  0.18362398736E+03  0.31665683872E+03  0.00000000000E+00 0. -1.
        -14    1    3    3    0    0 -0.97953955038E+02 -0.56247372861E+02  0.22555251125E+02  0.11518456327E+03  0.00000000000E+00 0.  1.
          2    1    6    6  502    0 -0.45398444974E+02  0.11935495066E+03  0.61760771171E+03  0.63067099871E+03  0.00000000000E+00 0. -1.
         -1    1    6    6    0  502 -0.49021359097E+02  0.71376288571E+02  0.18931683740E+03  0.20817908911E+03  0.00000000000E+00 0.  1.
<mgrwt>
<rscale>  0 0.51564506E+03</rscale>
<asrwt>0</asrwt>
<pdfrwt beam="1">  1        1 0.28177873E-01 0.51564506E+03</pdfrwt>
<pdfrwt beam="2">  1       -2 0.32030652E+00 0.51564506E+03</pdfrwt>
<totfact> 0.37729663E+00</totfact>
</mgrwt>
</event>
<event>
12    3  0.2422421E-007  0.8945747E+03  0.7818608E-02  0.9432389E-01
          1   -1    0    0  501    0  0.00000000000E+00  0.00000000000E+00  0.12900582756E+04  0.12900582756E+04  0.00000000000E+00 0. -1.
         -2   -1    0    0    0  501 -0.00000000000E+00 -0.00000000000E+00 -0.75586216673E+03  0.75586216673E+03  0.00000000000E+00 0.  1.
        -24    2    1    2    0    0  0.33147732470E+02 -0.88076816484E+03  0.40025382660E+03  0.97130896885E+03  0.79916549600E+02 0.  0.
    5000000    2    1    2    0    0 -0.33147732470E+02  0.88076816484E+03  0.13394228226E+03  0.10746114735E+04  0.59999829297E+03 0.  0.
        -24    2    4    4    0    0 -0.11844935271E+03  0.61868778899E+03 -0.16568436036E+03  0.65611592902E+03  0.78942863128E+02 0.  0.
         24    2    4    4    0    0  0.85301620242E+02  0.26208037585E+03  0.29962664262E+03  0.41849554445E+03  0.96953112055E+02 0.  0.
         11    1    3    3    0    0  0.52901652402E+01 -0.51858920479E+03  0.27539020560E+03  0.58719887135E+03  0.00000000000E+00 0. -1.
        -12    1    3    3    0    0  0.27857567229E+02 -0.36217896005E+03  0.12486362101E+03  0.38411009751E+03  0.00000000000E+00 0.  1.
         13    1    5    5    0    0 -0.67919537098E+02  0.46387508458E+03 -0.93832338842E+02  0.47811888211E+03  0.00000000000E+00 0. -1.
        -14    1    5    5    0    0 -0.50529815614E+02  0.15481270441E+03 -0.71852021521E+02  0.17799704691E+03  0.00000000000E+00 0.  1.
          2    1    6    6  502    0  0.47428902411E+02  0.14608054221E+03  0.23411003690E+03  0.27999381238E+03  0.00000000000E+00 0. -1.
         -1    1    6    6    0  502  0.37872717832E+02  0.11599983364E+03  0.65516605720E+02  0.13850173207E+03  0.00000000000E+00 0.  1.
<mgrwt>
<rscale>  0 0.89457466E+03</rscale>
<asrwt>0</asrwt>
<pdfrwt beam="1">  1        1 0.19847050E+00 0.89457466E+03</pdfrwt>
<pdfrwt beam="2">  1       -2 0.11628649E+00 0.89457466E+03</pdfrwt>
<totfact> 0.46752316E+00</totfact>
</mgrwt>
</event>
<event>
12    3  0.2422421E-007  0.4572511E+03  0.7818608E-02  0.1025581E+00
          1   -1    0    0  501    0  0.00000000000E+00  0.00000000000E+00  0.14674431025E+04  0.14674431025E+04  0.00000000000E+00 0. -1.
         -2   -1    0    0    0  501 -0.00000000000E+00 -0.00000000000E+00 -0.20582262569E+03  0.20582262569E+03  0.00000000000E+00 0.  1.
        -24    2    1    2    0    0 -0.36749464029E+03  0.41190120739E+02  0.58213291661E+03  0.69423729612E+03  0.79610012162E+02 0.  0.
    5000000    2    1    2    0    0  0.36749464029E+03 -0.41190120739E+02  0.67948756020E+03  0.97902843206E+03  0.60003699022E+03 0.  0.
        -24    2    4    4    0    0 -0.67548685411E+02 -0.14984265110E+02  0.47283821740E+03  0.48963876228E+03  0.10669013351E+03 0.  0.
         24    2    4    4    0    0  0.43504332570E+03 -0.26205855629E+02  0.20664934280E+03  0.48938966979E+03  0.82757814805E+02 0.  0.
         11    1    3    3    0    0 -0.17986763604E+03  0.47117355150E+02  0.23567851013E+03  0.30019455656E+03  0.00000000000E+00 0. -1.
        -12    1    3    3    0    0 -0.18762700424E+03 -0.59272344114E+01  0.34645440648E+03  0.39404273955E+03  0.00000000000E+00 0.  1.
         11    1    5    5    0    0 -0.48821470488E+02  0.29227101484E+02  0.38804940406E+03  0.39219905588E+03  0.00000000000E+00 0. -1.
        -12    1    5    5    0    0 -0.18727214923E+02 -0.44211366594E+02  0.84788813337E+02  0.97439706393E+02  0.00000000000E+00 0.  1.
          2    1    6    6  502    0  0.33564666740E+03 -0.16330964074E+02  0.19577654504E+03  0.38891366820E+03  0.00000000000E+00 0. -1.
         -3    1    6    6    0  502  0.99396658294E+02 -0.98748915542E+01  0.10872797759E+02  0.10047600158E+03  0.00000000000E+00 0.  1.
<mgrwt>
<rscale>  0 0.45725115E+03</rscale>
<asrwt>0</asrwt>
<pdfrwt beam="1">  1        1 0.22576047E+00 0.45725115E+03</pdfrwt>
<pdfrwt beam="2">  1       -2 0.31665020E-01 0.45725115E+03</pdfrwt>
<totfact> 0.59567688E+01</totfact>
</mgrwt>
</event>
<event>
12    3  0.2422421E-007  0.5200245E+03  0.7818608E-02  0.1008680E+00
         -2   -1    0    0    0  501 -0.00000000000E+00  0.00000000000E+00  0.31896760571E+03  0.31896760571E+03  0.00000000000E+00 0.  1.
          1   -1    0    0  501    0  0.00000000000E+00 -0.00000000000E+00 -0.10506960794E+04  0.10506960794E+04  0.00000000000E+00 0. -1.
        -24    2    1    2    0    0  0.11297987097E+02 -0.39005646246E+03 -0.44892079583E+03  0.59985939561E+03  0.77651304942E+02 0.  0.
    5000000    2    1    2    0    0 -0.11297987097E+02  0.39005646246E+03 -0.28280767784E+03  0.76980428949E+03  0.60028890798E+03 0.  0.
        -24    2    4    4    0    0  0.18901115154E+03  0.39970845345E+03 -0.31879378830E+03  0.55112595120E+03  0.81352759391E+02 0.  0.
         24    2    4    4    0    0 -0.20030913864E+03 -0.96519909931E+01  0.35986110460E+02  0.21867833828E+03  0.79424829457E+02 0.  0.
         11    1    5    5    0    0  0.12822350928E+03  0.17972792152E+03 -0.17054423043E+03  0.27897800745E+03  0.00000000000E+00 0. -1.
        -12    1    5    5    0    0  0.60787642262E+02  0.21998053193E+03 -0.14824955787E+03  0.27214794376E+03  0.00000000000E+00 0.  1.
         13    1    3    3    0    0  0.11893093836E+02 -0.25561097850E+03 -0.23634458697E+03  0.34833487020E+03  0.00000000000E+00 0. -1.
        -14    1    3    3    0    0 -0.59510673871E+00 -0.13444548396E+03 -0.21257620886E+03  0.25152452541E+03  0.00000000000E+00 0.  1.
          4    1    6    6  502    0 -0.10255300437E+03 -0.81697089409E+00  0.58370350856E+02  0.11800374572E+03  0.00000000000E+00 0. -1.
         -3    1    6    6    0  502 -0.97756134273E+02 -0.88350200990E+01 -0.22384240395E+02  0.10067459256E+03  0.00000000000E+00 0.  1.
<mgrwt>
<rscale>  0 0.52002451E+03</rscale>
<asrwt>0</asrwt>
<pdfrwt beam="1">  1        1 0.16164555E+00 0.52002451E+03</pdfrwt>
<pdfrwt beam="2">  1       -2 0.49071940E-01 0.52002451E+03</pdfrwt>
<totfact> 0.49905463E+01</totfact>
</mgrwt>
</event>
<event>
12    3  0.2422421E-007  0.1024025E+04  0.7818608E-02  0.9282581E-01
          1   -1    0    0  501    0  0.00000000000E+00  0.00000000000E+00  0.46008087056E+03  0.46008087056E+03  0.00000000000E+00 0. -1.
         -2   -1    0    0    0  501 -0.00000000000E+00 -0.00000000000E+00 -0.24956609279E+04  0.24956609279E+04  0.00000000000E+00 0.  1.
        -24    2    1    2    0    0  0.43012161060E+03 -0.86308671854E+03 -0.65695586710E+03  0.11694928115E+04  0.78734625762E+02 0.  0.
    5000000    2    1    2    0    0 -0.43012161060E+03  0.86308671854E+03 -0.13786241902E+04  0.17862489869E+04  0.60013123708E+03 0.  0.
        -24    2    4    4    0    0 -0.74811849106E+02 -0.39894623359E+02 -0.20029126247E+02  0.11475127895E+03  0.74687993572E+02 0.  0.
         24    2    4    4    0    0 -0.35530976149E+03  0.90298134190E+03 -0.13585950640E+04  0.16714977079E+04  0.80645578847E+02 0.  0.
         11    1    3    3    0    0  0.42499975885E+03 -0.81507613751E+03 -0.62226729279E+03  0.11100407599E+04  0.00000000000E+00 0. -1.
        -12    1    3    3    0    0  0.51218517474E+01 -0.48010581031E+02 -0.34688574315E+02  0.59452051640E+02  0.00000000000E+00 0.  1.
         13    1    5    5    0    0 -0.53987448638E+02 -0.57995168462E+02 -0.30967206299E+02  0.85070864821E+02  0.00000000000E+00 0. -1.
        -14    1    5    5    0    0 -0.20824400468E+02  0.18100545104E+02  0.10938080052E+02  0.29680414133E+02  0.00000000000E+00 0.  1.
          2    1    6    6  502    0 -0.24198411908E+03  0.50616314355E+03 -0.78396371322E+03  0.96403140271E+03  0.00000000000E+00 0. -1.
         -1    1    6    6    0  502 -0.11332564242E+03  0.39681819835E+03 -0.57463135073E+03  0.70746630522E+03  0.00000000000E+00 0.  1.
<mgrwt>
<rscale>  0 0.10240245E+04</rscale>
<asrwt>0</asrwt>
<pdfrwt beam="1">  1        1 0.70781673E-01 0.10240245E+04</pdfrwt>
<pdfrwt beam="2">  1       -2 0.38394783E+00 0.10240245E+04</pdfrwt>
<totfact> 0.41827178E-01</totfact>
</mgrwt>
</event>
<event>
12    3  0.2422421E-007  0.4997995E+03  0.7818608E-02  0.1013831E+00
          1   -1    0    0  501    0  0.00000000000E+00  0.00000000000E+00  0.17561753757E+04  0.17561753757E+04  0.00000000000E+00 0. -1.
         -2   -1    0    0    0  501 -0.00000000000E+00 -0.00000000000E+00 -0.19134687674E+03  0.19134687674E+03  0.00000000000E+00 0.  1.
        -24    2    1    2    0    0  0.10235036893E+03 -0.38297305066E+03  0.34714343222E+03  0.53332751897E+03  0.82375508501E+02 0.  0.
    5000000    2    1    2    0    0 -0.10235036893E+03  0.38297305066E+03  0.12176850667E+04  0.14141947334E+04  0.60003822119E+03 0.  0.
        -24    2    4    4    0    0 -0.25806197552E+03  0.16415175866E+03  0.10289116123E+04  0.10764024500E+04  0.80257991683E+02 0.  0.
         24    2    4    4    0    0  0.15571160659E+03  0.21882129200E+03  0.18877345436E+03  0.33779228347E+03  0.79620019104E+02 0.  0.
         13    1    5    5    0    0 -0.25815519303E+03  0.17026536035E+03  0.10174880485E+04  0.10634454972E+04  0.00000000000E+00 0. -1.
        -14    1    5    5    0    0  0.93217516620E-01 -0.61136016849E+01  0.11423563836E+02  0.12956952797E+02  0.00000000000E+00 0.  1.
         13    1    3    3    0    0 -0.14074828656E+02 -0.46319328678E+02  0.47843551374E+02  0.68063106151E+02  0.00000000000E+00 0. -1.
        -14    1    3    3    0    0  0.11642519758E+03 -0.33665372198E+03  0.29929988085E+03  0.46526441281E+03  0.00000000000E+00 0.  1.
          2    1    6    6  502    0  0.11259031352E+03  0.20576479145E+03  0.16564470083E+03  0.28714786263E+03  0.00000000000E+00 0. -1.
         -1    1    6    6    0  502  0.43121293066E+02  0.13056500545E+02  0.23128753533E+02  0.50644420839E+02  0.00000000000E+00 0.  1.
<mgrwt>
<rscale>  0 0.49979946E+03</rscale>
<asrwt>0</asrwt>
<pdfrwt beam="1">  1        1 0.27018082E+00 0.49979946E+03</pdfrwt>
<pdfrwt beam="2">  1       -2 0.29437982E-01 0.49979946E+03</pdfrwt>
<totfact> 0.43369802E+01</totfact>
</mgrwt>
</event>
<event>
12    3  0.2422421E-007  0.9164790E+03  0.7818608E-02  0.9405213E-01
          3   -1    0    0  501    0  0.00000000000E+00  0.00000000000E+00  0.18046630307E+04  0.18046630307E+04  0.00000000000E+00 0. -1.
         -4   -1    0    0    0  501 -0.00000000000E+00 -0.00000000000E+00 -0.55620822053E+03  0.55620822053E+03  0.00000000000E+00 0.  1.
        -24    2    1    2    0    0 -0.26255318326E+02  0.86146131413E+03  0.91424626927E+03  0.12589825315E+04  0.79911428398E+02 0.  0.
    5000000    2    1    2    0    0  0.26255318326E+02 -0.86146131413E+03  0.33420854094E+03  0.11018887197E+04  0.59971531943E+03 0.  0.
        -24    2    4    4    0    0 -0.19309860122E+03 -0.23990686689E+03 -0.67513505038E+02  0.32540024586E+03  0.80528703383E+02 0.  0.
         24    2    4    4    0    0  0.21935391955E+03 -0.62155444724E+03  0.40172204598E+03  0.77648847387E+03  0.84307027748E+02 0.  0.
         11    1    5    5    0    0 -0.52578515216E+02 -0.60388882411E+02  0.17728787666E+02  0.82009921919E+02  0.00000000000E+00 0. -1.
        -12    1    5    5    0    0 -0.14052008601E+03 -0.17951798448E+03 -0.85242292703E+02  0.24339032394E+03  0.00000000000E+00 0.  1.
         13    1    3    3    0    0  0.18094349258E+02  0.26927247361E+03  0.24843967920E+03  0.36682058928E+03  0.00000000000E+00 0. -1.
        -14    1    3    3    0    0 -0.44349667583E+02  0.59218884052E+03  0.66580659007E+03  0.89216194227E+03  0.00000000000E+00 0.  1.
          4    1    6    6  502    0  0.15421675033E+03 -0.50047916212E+03  0.34851704682E+03  0.62906782602E+03  0.00000000000E+00 0. -1.
         -3    1    6    6    0  502  0.65137169216E+02 -0.12107528511E+03  0.53204999158E+02  0.14742064785E+03  0.00000000000E+00 0.  1.
<mgrwt>
<rscale>  0 0.91647898E+03</rscale>
<asrwt>0</asrwt>
<pdfrwt beam="1">  1        3 0.27764046E+00 0.91647898E+03</pdfrwt>
<pdfrwt beam="2">  1       -4 0.85570496E-01 0.91647898E+03</pdfrwt>
<totfact> 0.13791057E-01</totfact>
</mgrwt>
</event>
<event>
12    3  0.2422421E-007  0.1564721E+04  0.7818608E-02  0.8842519E-01
          3   -1    0    0  501    0  0.00000000000E+00  0.00000000000E+00  0.26042628682E+04  0.26042628682E+04  0.00000000000E+00 0. -1.
         -4   -1    0    0    0  501 -0.00000000000E+00 -0.00000000000E+00 -0.22900554559E+04  0.22900554559E+04  0.00000000000E+00 0.  1.
        -24    2    1    2    0    0  0.10449034182E+04 -0.10904490060E+04  0.20296658649E+04  0.25313268171E+04  0.84674340574E+02 0.  0.
    5000000    2    1    2    0    0 -0.10449034182E+04  0.10904490060E+04 -0.17154584526E+04  0.23629915070E+04  0.60002414255E+03 0.  0.
        -24    2    4    4    0    0 -0.27510905706E+03  0.70090567973E+03 -0.79815082965E+03  0.11010822645E+04  0.91562225375E+02 0.  0.
         24    2    4    4    0    0 -0.76979436109E+03  0.38954332625E+03 -0.91730762291E+03  0.12619092425E+04  0.81451211466E+02 0.  0.
         11    1    3    3    0    0  0.34190743514E+03 -0.35904786774E+03  0.73390242449E+03  0.88567987117E+03  0.00000000000E+00 0. -1.
        -12    1    3    3    0    0  0.70299598301E+03 -0.73140113824E+03  0.12957634404E+04  0.16456469459E+04  0.00000000000E+00 0.  1.
         13    1    5    5    0    0 -0.81603391387E+02  0.13154808688E+03 -0.19998234472E+03  0.25289711515E+03  0.00000000000E+00 0. -1.
        -14    1    5    5    0    0 -0.19350566567E+03  0.56935759285E+03 -0.59816848492E+03  0.84818514933E+03  0.00000000000E+00 0.  1.
          2    1    6    6  502    0 -0.27487983808E+03  0.12727337101E+03 -0.37759148424E+03  0.48407929652E+03  0.00000000000E+00 0. -1.
         -1    1    6    6    0  502 -0.49491452301E+03  0.26226995524E+03 -0.53971613867E+03  0.77782994597E+03  0.00000000000E+00 0.  1.
<mgrwt>
<rscale>  0 0.15647210E+04</rscale>
<asrwt>0</asrwt>
<pdfrwt beam="1">  1        3 0.40065583E+00 0.15647210E+04</pdfrwt>
<pdfrwt beam="2">  1       -4 0.35231622E+00 0.15647210E+04</pdfrwt>
<totfact> 0.32462290E-04</totfact>
</mgrwt>
</event>
<event>
12    3  0.2422421E-007  0.4608037E+03  0.7818608E-02  0.1024548E+00
         -4   -1    0    0    0  501 -0.00000000000E+00  0.00000000000E+00  0.46371232045E+03  0.46371232045E+03  0.00000000000E+00 0.  1.
          1   -1    0    0  501    0  0.00000000000E+00 -0.00000000000E+00 -0.50089099332E+03  0.50089099332E+03  0.00000000000E+00 0. -1.
        -24    2    1    2    0    0 -0.21673808710E+03  0.18005840376E+03  0.46378085119E+02  0.29663924313E+03  0.80296242880E+02 0.  0.
    5000000    2    1    2    0    0  0.21673808710E+03 -0.18005840376E+03 -0.83556757988E+02  0.66796407063E+03  0.59983151025E+03 0.  0.
        -24    2    4    4    0    0 -0.14183221917E+03 -0.21174390709E+03 -0.12790022954E+03  0.29660326217E+03  0.81628217120E+02 0.  0.
         24    2    4    4    0    0  0.35857030628E+03  0.31685503327E+02  0.44343471551E+02  0.37136080846E+03  0.79786408182E+02 0.  0.
         11    1    5    5    0    0 -0.93330138539E+02 -0.18297144562E+03 -0.12432611162E+03  0.24009591147E+03  0.00000000000E+00 0. -1.
        -12    1    5    5    0    0 -0.48502080631E+02 -0.28772461462E+02 -0.35741179171E+01  0.56507350699E+02  0.00000000000E+00 0.  1.
         13    1    3    3    0    0 -0.13742869462E+03  0.15713530568E+03  0.18798294500E+02  0.20959848824E+03  0.00000000000E+00 0. -1.
        -14    1    3    3    0    0 -0.79309392482E+02  0.22923098079E+02  0.27579790619E+02  0.87040754891E+02  0.00000000000E+00 0.  1.
          4    1    6    6  502    0  0.24143112166E+03 -0.16157589356E+02  0.23304628513E+02  0.24309084703E+03  0.00000000000E+00 0. -1.
         -3    1    6    6    0  502  0.11713918461E+03  0.47843092683E+02  0.21038843039E+02  0.12826996143E+03  0.00000000000E+00 0.  1.
<mgrwt>
<rscale>  0 0.46080375E+03</rscale>
<asrwt>0</asrwt>
<pdfrwt beam="1">  1        1 0.77060152E-01 0.46080375E+03</pdfrwt>
<pdfrwt beam="2">  1       -4 0.71340357E-01 0.46080375E+03</pdfrwt>
<totfact> 0.38520332E+01</totfact>
</mgrwt>
</event>
<event>
12    3  0.2422421E-007  0.7153537E+03  0.7818608E-02  0.9691330E-01
         -4   -1    0    0    0  501 -0.00000000000E+00  0.00000000000E+00  0.71941688477E+03  0.71941688477E+03  0.00000000000E+00 0.  1.
          1   -1    0    0  501    0  0.00000000000E+00 -0.00000000000E+00 -0.72769096399E+03  0.72769096399E+03  0.00000000000E+00 0. -1.
        -24    2    1    2    0    0  0.45386999277E+03  0.38431569152E+03  0.34333483145E+02  0.60115961603E+03  0.80731498168E+02 0.  0.
    5000000    2    1    2    0    0 -0.45386999277E+03 -0.38431569152E+03 -0.42607562373E+02  0.84594823273E+03  0.60009706465E+03 0.  0.
        -24    2    4    4    0    0 -0.58508953760E+03 -0.32905527132E+03  0.40386641637E+01  0.67616199544E+03  0.81065372875E+02 0.  0.
         24    2    4    4    0    0  0.13121954483E+03 -0.55260420194E+02 -0.46646226536E+02  0.16978623729E+03  0.79869975203E+02 0.  0.
         11    1    3    3    0    0  0.13875322174E+03  0.13785505705E+03 -0.23308180335E+02  0.19697650765E+03  0.00000000000E+00 0. -1.
        -12    1    3    3    0    0  0.31511677103E+03  0.24646063447E+03  0.57641663480E+02  0.40418310838E+03  0.00000000000E+00 0.  1.
         13    1    5    5    0    0 -0.11396008939E+03 -0.78533354498E+02  0.31211233156E+02  0.14187505354E+03  0.00000000000E+00 0. -1.
        -14    1    5    5    0    0 -0.47112944821E+03 -0.25052191682E+03 -0.27172568992E+02  0.53428694190E+03  0.00000000000E+00 0.  1.
          2    1    6    6  502    0  0.11177679058E+03 -0.75590830862E+02 -0.41619285182E+02  0.14120973593E+03  0.00000000000E+00 0. -1.
         -1    1    6    6    0  502  0.19442754249E+02  0.20330410668E+02 -0.50269413543E+01  0.28576501362E+02  0.00000000000E+00 0.  1.
<mgrwt>
<rscale>  0 0.71535365E+03</rscale>
<asrwt>0</asrwt>
<pdfrwt beam="1">  1        1 0.11195246E+00 0.71535365E+03</pdfrwt>
<pdfrwt beam="2">  1       -4 0.11067952E+00 0.71535365E+03</pdfrwt>
<totfact> 0.80315022E+00</totfact>
</mgrwt>
</event>
<event>
12    3  0.2422421E-007  0.3352587E+03  0.7818608E-02  0.1068833E+00
          1   -1    0    0  501    0  0.00000000000E+00  0.00000000000E+00  0.13766037762E+04  0.13766037762E+04  0.00000000000E+00 0. -1.
         -2   -1    0    0    0  501 -0.00000000000E+00 -0.00000000000E+00 -0.15685314894E+03  0.15685314894E+03  0.00000000000E+00 0.  1.
        -24    2    1    2    0    0  0.58238035320E+02  0.92678795553E+02  0.75379291422E+03  0.76591970036E+03  0.80300697257E+02 0.  0.
    5000000    2    1    2    0    0 -0.58238035320E+02 -0.92678795553E+02  0.46595771305E+03  0.76753722478E+03  0.60001314417E+03 0.  0.
        -24    2    4    4    0    0 -0.85066444822E+02 -0.29582885378E+03  0.87863119892E+02  0.33000974767E+03  0.80221536740E+02 0.  0.
         24    2    4    4    0    0  0.26828409502E+02  0.20315005823E+03  0.37809459315E+03  0.43752747711E+03  0.80529883500E+02 0.  0.
         13    1    5    5    0    0 -0.96929048763E+02 -0.22549842272E+03  0.55282252622E+02  0.25159671420E+03  0.00000000000E+00 0. -1.
        -14    1    5    5    0    0  0.11862603941E+02 -0.70330431064E+02  0.32580867270E+02  0.78413033470E+02  0.00000000000E+00 0.  1.
         13    1    3    3    0    0  0.17918874948E+02 -0.13165206238E+02  0.10722248775E+03  0.10950374703E+03  0.00000000000E+00 0. -1.
        -14    1    3    3    0    0  0.40319160372E+02  0.10584400179E+03  0.64657042647E+03  0.65641595334E+03  0.00000000000E+00 0.  1.
          4    1    6    6  502    0  0.79745539260E+01  0.19871936469E+03  0.35854203886E+03  0.41000655243E+03  0.00000000000E+00 0. -1.
         -3    1    6    6    0  502  0.18853855576E+02  0.44306935454E+01  0.19552554299E+02  0.27520924675E+02  0.00000000000E+00 0.  1.
<mgrwt>
<rscale>  0 0.33525870E+03</rscale>
<asrwt>0</asrwt>
<pdfrwt beam="1">  1        1 0.21178519E+00 0.33525870E+03</pdfrwt>
<pdfrwt beam="2">  1       -2 0.24131255E-01 0.33525870E+03</pdfrwt>
<totfact> 0.11471799E+02</totfact>
</mgrwt>
</event>
<event>
12    3  0.2422421E-007  0.8636014E+03  0.7818608E-02  0.9472261E-01
          1   -1    0    0  501    0  0.00000000000E+00  0.00000000000E+00  0.11086709517E+04  0.11086709517E+04  0.00000000000E+00 0. -1.
         -2   -1    0    0    0  501 -0.00000000000E+00 -0.00000000000E+00 -0.72613599240E+03  0.72613599240E+03  0.00000000000E+00 0.  1.
        -24    2    1    2    0    0  0.21771130992E+03 -0.74814380749E+03  0.32961453370E+03  0.84975617636E+03  0.79513818196E+02 0.  0.
    5000000    2    1    2    0    0 -0.21771130992E+03  0.74814380749E+03  0.52920425601E+02  0.98505076773E+03  0.60033913116E+03 0.  0.
        -24    2    4    4    0    0 -0.14368919260E+03 -0.38022141965E+02 -0.64638359350E+02  0.18278025726E+03  0.84488091430E+02 0.  0.
         24    2    4    4    0    0 -0.74022117323E+02  0.78616594946E+03  0.11755878495E+03  0.80227051047E+03  0.79257366333E+02 0.  0.
         11    1    5    5    0    0 -0.66896531495E+02 -0.30433653292E+02 -0.74899074869E+02  0.10493438233E+03  0.00000000000E+00 0. -1.
        -12    1    5    5    0    0 -0.76792661107E+02 -0.75884886736E+01  0.10260715519E+02  0.77845874928E+02  0.00000000000E+00 0.  1.
         11    1    3    3    0    0  0.10480272708E+03 -0.23155708400E+03  0.11753605969E+03  0.28003039136E+03  0.00000000000E+00 0. -1.
        -12    1    3    3    0    0  0.11290858285E+03 -0.51658672349E+03  0.21207847400E+03  0.56972578501E+03  0.00000000000E+00 0.  1.
          4    1    6    6  502    0 -0.78771220573E+02  0.41588646709E+03  0.65554575402E+02  0.42832681571E+03  0.00000000000E+00 0. -1.
         -3    1    6    6    0  502  0.47491032503E+01  0.37027948236E+03  0.52004209549E+02  0.37394369476E+03  0.00000000000E+00 0.  1.
<mgrwt>
<rscale>  0 0.86360136E+03</rscale>
<asrwt>0</asrwt>
<pdfrwt beam="1">  1        1 0.17056476E+00 0.86360136E+03</pdfrwt>
<pdfrwt beam="2">  1       -2 0.11171323E+00 0.86360136E+03</pdfrwt>
<totfact> 0.70147907E+00</totfact>
</mgrwt>
</event>
<event>
12    3  0.2422421E-007  0.7970624E+03  0.7818608E-02  0.9564279E-01
          1   -1    0    0  501    0  0.00000000000E+00  0.00000000000E+00  0.12643237594E+04  0.12643237594E+04  0.00000000000E+00 0. -1.
         -2   -1    0    0    0  501 -0.00000000000E+00 -0.00000000000E+00 -0.87322330244E+03  0.87322330244E+03  0.00000000000E+00 0.  1.
        -24    2    1    2    0    0 -0.12400818180E+03  0.77494055555E+03 -0.38812132771E+03  0.87933801815E+03  0.81769745919E+02 0.  0.
    5000000    2    1    2    0    0  0.12400818180E+03 -0.77494055555E+03  0.77922178467E+03  0.12582090437E+04  0.59999376178E+03 0.  0.
        -24    2    4    4    0    0  0.25736964818E+02 -0.13856808625E+03  0.54451413502E+03  0.56832648863E+03  0.81460717892E+02 0.  0.
         24    2    4    4    0    0  0.98271216981E+02 -0.63637246930E+03  0.23470764965E+03  0.68988255507E+03  0.78886673276E+02 0.  0.
         11    1    3    3    0    0 -0.11549064934E+03  0.49992659721E+03 -0.27150224574E+03  0.58049820165E+03  0.00000000000E+00 0. -1.
        -12    1    3    3    0    0 -0.85175324550E+01  0.27501395834E+03 -0.11661908196E+03  0.29883981649E+03  0.00000000000E+00 0.  1.
         13    1    5    5    0    0  0.53068624990E+02 -0.77139118864E+02  0.27293797758E+03  0.28855131645E+03  0.00000000000E+00 0. -1.
        -14    1    5    5    0    0 -0.27331660172E+02 -0.61428967385E+02  0.27157615743E+03  0.27977517218E+03  0.00000000000E+00 0.  1.
          2    1    6    6  502    0  0.49370387486E+02 -0.43511076028E+03  0.12443713033E+03  0.45523994583E+03  0.00000000000E+00 0. -1.
         -1    1    6    6    0  502  0.48900829495E+02 -0.20126170902E+03  0.11027051932E+03  0.23464260924E+03  0.00000000000E+00 0.  1.
<mgrwt>
<rscale>  0 0.79706241E+03</rscale>
<asrwt>0</asrwt>
<pdfrwt beam="1">  1        1 0.19451135E+00 0.79706241E+03</pdfrwt>
<pdfrwt beam="2">  1       -2 0.13434205E+00 0.79706241E+03</pdfrwt>
<totfact> 0.34381383E+00</totfact>
</mgrwt>
</event>
<event>
12    3  0.2422421E-007  0.5146491E+03  0.7818608E-02  0.1010024E+00
         -2   -1    0    0    0  501 -0.00000000000E+00  0.00000000000E+00  0.36693577848E+03  0.36693577848E+03  0.00000000000E+00 0.  1.
          1   -1    0    0  501    0  0.00000000000E+00 -0.00000000000E+00 -0.12143912849E+04  0.12143912849E+04  0.00000000000E+00 0. -1.
        -24    2    1    2    0    0  0.10251569836E+02 -0.37145581831E+03  0.10619002483E+03  0.39495111759E+03  0.81397446345E+02 0.  0.
    5000000    2    1    2    0    0 -0.10251569836E+02  0.37145581831E+03 -0.95364553127E+03  0.11863759458E+04  0.59996963746E+03 0.  0.
        -24    2    4    4    0    0  0.23202298765E+03  0.33628348485E+03 -0.40362826649E+03  0.57909383925E+03  0.74247209850E+02 0.  0.
         24    2    4    4    0    0 -0.24227455748E+03  0.35172333461E+02 -0.55001726478E+03  0.60728210657E+03  0.79614767217E+02 0.  0.
         11    1    5    5    0    0  0.69737693748E+02  0.81079272015E+02 -0.15096447938E+03  0.18500667100E+03  0.00000000000E+00 0. -1.
        -12    1    5    5    0    0  0.16228529390E+03  0.25520421284E+03 -0.25266378711E+03  0.39408716825E+03  0.00000000000E+00 0.  1.
         13    1    3    3    0    0 -0.12463126606E+02 -0.24641016666E+03  0.34760678157E+02  0.24916180387E+03  0.00000000000E+00 0. -1.
        -14    1    3    3    0    0  0.22714696442E+02 -0.12504565165E+03  0.71429346669E+02  0.14578931372E+03  0.00000000000E+00 0.  1.
          2    1    6    6  502    0 -0.22700545222E+03  0.39073291465E+02 -0.44493147813E+03  0.50102117488E+03  0.00000000000E+00 0. -1.
         -1    1    6    6    0  502 -0.15269105267E+02 -0.39009580042E+01 -0.10508578664E+03  0.10626093169E+03  0.00000000000E+00 0.  1.
<mgrwt>
<rscale>  0 0.51464906E+03</rscale>
<asrwt>0</asrwt>
<pdfrwt beam="1">  1        1 0.18682943E+00 0.51464906E+03</pdfrwt>
<pdfrwt beam="2">  1       -2 0.56451658E-01 0.51464906E+03</pdfrwt>
<totfact> 0.28470581E+01</totfact>
</mgrwt>
</event>
<event>
12    3  0.2422421E-007  0.8674001E+03  0.7818608E-02  0.9467276E-01
          1   -1    0    0  501    0  0.00000000000E+00  0.00000000000E+00  0.63589106929E+03  0.63589106929E+03  0.00000000000E+00 0. -1.
         -2   -1    0    0    0  501 -0.00000000000E+00 -0.00000000000E+00 -0.12125916191E+04  0.12125916191E+04  0.00000000000E+00 0.  1.
        -24    2    1    2    0    0  0.67554622385E+03  0.36789365267E+03 -0.33897029993E+03  0.84437086940E+03  0.79704834363E+02 0.  0.
    5000000    2    1    2    0    0 -0.67554622385E+03 -0.36789365267E+03 -0.23773024992E+03  0.10041118190E+04  0.60001369415E+03 0.  0.
        -24    2    4    4    0    0  0.84186719586E+02 -0.13063523692E+03 -0.31324102237E+02  0.17798454840E+03  0.80897040795E+02 0.  0.
         24    2    4    4    0    0 -0.75973294344E+03 -0.23725841576E+03 -0.20640614769E+03  0.82612727064E+03  0.79981674799E+02 0.  0.
         11    1    5    5    0    0  0.73243956852E+02 -0.74444378293E+02 -0.52573639598E+02  0.11692147046E+03  0.00000000000E+00 0. -1.
        -12    1    5    5    0    0  0.10942762734E+02 -0.56190858622E+02  0.21249537360E+02  0.61063077936E+02  0.00000000000E+00 0.  1.
         13    1    3    3    0    0  0.61181302592E+03  0.30473536472E+03 -0.29498073035E+03  0.74444103358E+03  0.00000000000E+00 0. -1.
        -14    1    3    3    0    0  0.63733197929E+02  0.63158287953E+02 -0.43989569576E+02  0.99929835819E+02  0.00000000000E+00 0.  1.
          2    1    6    6  502    0 -0.44714151621E+03 -0.98393319350E+02 -0.12219548858E+03  0.47386550649E+03  0.00000000000E+00 0. -1.
         -1    1    6    6    0  502 -0.31259142722E+03 -0.13886509641E+03 -0.84210659103E+02  0.35226176415E+03  0.00000000000E+00 0.  1.
<mgrwt>
<rscale>  0 0.86740013E+03</rscale>
<asrwt>0</asrwt>
<pdfrwt beam="1">  1        1 0.97829396E-01 0.86740013E+03</pdfrwt>
<pdfrwt beam="2">  1       -2 0.18655256E+00 0.86740013E+03</pdfrwt>
<totfact> 0.45536884E+00</totfact>
</mgrwt>
</event>
<event>
12    3  0.2422421E-007  0.9092447E+03  0.7818608E-02  0.9414098E-01
         -4   -1    0    0    0  501 -0.00000000000E+00  0.00000000000E+00  0.97960945286E+03  0.97960945286E+03  0.00000000000E+00 0.  1.
          1   -1    0    0  501    0  0.00000000000E+00 -0.00000000000E+00 -0.23381945425E+04  0.23381945425E+04  0.00000000000E+00 0. -1.
        -24    2    1    2    0    0 -0.54324051827E+03 -0.69210445220E+03  0.61425692704E+03  0.10758685296E+04  0.77863258648E+02 0.  0.
    5000000    2    1    2    0    0  0.54324051827E+03  0.69210445220E+03 -0.19728420166E+04  0.22419354658E+04  0.60004181238E+03 0.  0.
        -24    2    4    4    0    0  0.35390258522E+03  0.20878159998E+03 -0.14150485423E+04  0.14756109157E+04  0.78920220054E+02 0.  0.
         24    2    4    4    0    0  0.18933793304E+03  0.48332285221E+03 -0.55779347433E+03  0.76632455006E+03  0.81669600581E+02 0.  0.
         11    1    5    5    0    0  0.57543005206E+02  0.23186844747E+02 -0.13346575171E+03  0.14717993783E+03  0.00000000000E+00 0. -1.
        -12    1    5    5    0    0  0.29635958002E+03  0.18559475523E+03 -0.12815827906E+04  0.13284309779E+04  0.00000000000E+00 0.  1.
         11    1    3    3    0    0 -0.29177411811E+03 -0.42941273202E+03  0.37839331799E+03  0.64242426287E+03  0.00000000000E+00 0. -1.
        -12    1    3    3    0    0 -0.25146640015E+03 -0.26269172017E+03  0.23586360905E+03  0.43344426669E+03  0.00000000000E+00 0.  1.
          2    1    6    6  502    0  0.16993435512E+03  0.34822181901E+03 -0.43722530086E+03  0.58421065036E+03  0.00000000000E+00 0. -1.
         -1    1    6    6    0  502  0.19403577917E+02  0.13510103320E+03 -0.12056817347E+03  0.18211389969E+03  0.00000000000E+00 0.  1.
<mgrwt>
<rscale>  0 0.90924474E+03</rscale>
<asrwt>0</asrwt>
<pdfrwt beam="1">  1        1 0.35972224E+00 0.90924474E+03</pdfrwt>
<pdfrwt beam="2">  1       -4 0.15070915E+00 0.90924474E+03</pdfrwt>
<totfact> 0.25089907E-01</totfact>
</mgrwt>
</event>
<event>
12    3  0.2422421E-007  0.1491189E+04  0.7818608E-02  0.8890333E-01
          1   -1    0    0  501    0  0.00000000000E+00  0.00000000000E+00  0.20055666461E+04  0.20055666461E+04  0.00000000000E+00 0. -1.
         -2   -1    0    0    0  501 -0.00000000000E+00 -0.00000000000E+00 -0.12881195970E+04  0.12881195970E+04  0.00000000000E+00 0.  1.
        -24    2    1    2    0    0 -0.12448473756E+04  0.81049182058E+03 -0.10769441503E+03  0.14916813169E+04  0.83504995950E+02 0.  0.
    5000000    2    1    2    0    0  0.12448473756E+04 -0.81049182058E+03  0.82514146415E+03  0.18020049262E+04  0.59985109691E+03 0.  0.
        -24    2    4    4    0    0  0.12279076584E+04 -0.77251087614E+03  0.62571806063E+03  0.15823050151E+04  0.87383054165E+02 0.  0.
         24    2    4    4    0    0  0.16939717231E+02 -0.37980944440E+02  0.19942340352E+03  0.21969991112E+03  0.82273026642E+02 0.  0.
         11    1    5    5    0    0  0.38464454530E+03 -0.19808529761E+03  0.17042568595E+03  0.46500981258E+03  0.00000000000E+00 0. -1.
        -12    1    5    5    0    0  0.84326311306E+03 -0.57442557852E+03  0.45529237468E+03  0.11172952025E+04  0.00000000000E+00 0.  1.
         13    1    3    3    0    0 -0.19911541993E+03  0.10120617257E+03 -0.34199836306E+02  0.22596298064E+03  0.00000000000E+00 0. -1.
        -14    1    3    3    0    0 -0.10457319557E+04  0.70928564801E+03 -0.73494578727E+02  0.12657183362E+04  0.00000000000E+00 0.  1.
          4    1    6    6  502    0  0.12537598523E+02 -0.17605792997E+02  0.19759611964E+03  0.19877470116E+03  0.00000000000E+00 0. -1.
         -3    1    6    6    0  502  0.44021187080E+01 -0.20375151443E+02  0.18272838803E+01  0.20925209959E+02  0.00000000000E+00 0.  1.
<mgrwt>
<rscale>  0 0.14911888E+04</rscale>
<asrwt>0</asrwt>
<pdfrwt beam="1">  1        1 0.30854872E+00 0.14911888E+04</pdfrwt>
<pdfrwt beam="2">  1       -2 0.19817224E+00 0.14911888E+04</pdfrwt>
<totfact> 0.33397233E-01</totfact>
</mgrwt>
</event>
<event>
12    3  0.2422421E-007  0.7995740E+03  0.7818608E-02  0.9560634E-01
          1   -1    0    0  501    0  0.00000000000E+00  0.00000000000E+00  0.89051357925E+03  0.89051357925E+03  0.00000000000E+00 0. -1.
         -4   -1    0    0    0  501 -0.00000000000E+00 -0.00000000000E+00 -0.16053917524E+04  0.16053917524E+04  0.00000000000E+00 0.  1.
        -24    2    1    2    0    0 -0.67289869155E+03  0.20788562274E+03 -0.12428166847E+04  0.14306902047E+04  0.79196394110E+02 0.  0.
    5000000    2    1    2    0    0  0.67289869155E+03 -0.20788562274E+03  0.52793851161E+03  0.10652151269E+04  0.59996259325E+03 0.  0.
        -24    2    4    4    0    0 -0.22552726638E+02  0.11906629687E+03  0.39154705225E+02  0.15070889383E+03  0.80589522942E+02 0.  0.
         24    2    4    4    0    0  0.69545141819E+03 -0.32695191962E+03  0.48878380638E+03  0.91450623307E+03  0.82836031595E+02 0.  0.
         11    1    5    5    0    0 -0.29405930381E+02  0.82574473029E+02 -0.10961610126E+02  0.88336907542E+02  0.00000000000E+00 0. -1.
        -12    1    5    5    0    0  0.68532037430E+01  0.36491823846E+02  0.50116315352E+02  0.62371986289E+02  0.00000000000E+00 0.  1.
         11    1    3    3    0    0 -0.55163555619E+03  0.15156420293E+03 -0.95308054712E+03  0.11115916623E+04  0.00000000000E+00 0. -1.
        -12    1    3    3    0    0 -0.12126313537E+03  0.56321419811E+02 -0.28973613759E+03  0.31909854239E+03  0.00000000000E+00 0.  1.
          2    1    6    6  502    0  0.42403993567E+03 -0.20631608707E+03  0.25212151501E+03  0.53473493729E+03  0.00000000000E+00 0. -1.
         -1    1    6    6    0  502  0.27141148252E+03 -0.12063583254E+03  0.23666229137E+03  0.37977129578E+03  0.00000000000E+00 0.  1.
<mgrwt>
<rscale>  0 0.79957405E+03</rscale>
<asrwt>0</asrwt>
<pdfrwt beam="1">  1        1 0.13700209E+00 0.79957405E+03</pdfrwt>
<pdfrwt beam="2">  1       -4 0.24698334E+00 0.79957405E+03</pdfrwt>
<totfact> 0.59338931E-01</totfact>
</mgrwt>
</event>
<event>
12    3  0.2422421E-007  0.9872332E+03  0.7818608E-02  0.9322659E-01
          1   -1    0    0  501    0  0.00000000000E+00  0.00000000000E+00  0.10745129851E+04  0.10745129851E+04  0.00000000000E+00 0. -1.
         -2   -1    0    0    0  501 -0.00000000000E+00 -0.00000000000E+00 -0.14023212427E+04  0.14023212427E+04  0.00000000000E+00 0.  1.
        -24    2    1    2    0    0  0.70731245501E+03 -0.59300717482E+03  0.54230808269E+03  0.10737493288E+04  0.83012927476E+02 0.  0.
    5000000    2    1    2    0    0 -0.70731245501E+03  0.59300717482E+03 -0.87011634026E+03  0.14030848990E+04  0.59966354715E+03 0.  0.
        -24    2    4    4    0    0 -0.48025378131E+03  0.84017899815E+02 -0.21352708318E+03  0.53825273839E+03  0.80121739728E+02 0.  0.
         24    2    4    4    0    0 -0.22705867370E+03  0.50898927500E+03 -0.65658925708E+03  0.86483216060E+03  0.78736840970E+02 0.  0.
         11    1    5    5    0    0 -0.56029128451E+02 -0.14596908512E+02 -0.34183957143E+02  0.67237459047E+02  0.00000000000E+00 0. -1.
        -12    1    5    5    0    0 -0.42422465286E+03  0.98614808328E+02 -0.17934312604E+03  0.47101527934E+03  0.00000000000E+00 0.  1.
         13    1    3    3    0    0  0.55496441577E+03 -0.44700916131E+03  0.45445028635E+03  0.84517912648E+03  0.00000000000E+00 0. -1.
        -14    1    3    3    0    0  0.15234803924E+03 -0.14599801350E+03  0.87857796340E+02  0.22857020231E+03  0.00000000000E+00 0.  1.
          4    1    6    6  502    0 -0.51977178943E+02  0.10701093410E+03 -0.19320063025E+03  0.22689083428E+03  0.00000000000E+00 0. -1.
         -3    1    6    6    0  502 -0.17508149476E+03  0.40197834090E+03 -0.46338862682E+03  0.63794132632E+03  0.00000000000E+00 0.  1.
<mgrwt>
<rscale>  0 0.98723320E+03</rscale>
<asrwt>0</asrwt>
<pdfrwt beam="1">  1        1 0.16530969E+00 0.98723320E+03</pdfrwt>
<pdfrwt beam="2">  1       -2 0.21574173E+00 0.98723320E+03</pdfrwt>
<totfact> 0.12222287E+00</totfact>
</mgrwt>
</event>
