<event>
12    4  0.4486176E-008  0.1175250E+04  0.7818608E-02  0.9134800E-01
         -2   -1    0    0    0  501 -0.00000000000E+00  0.00000000000E+00  0.53902819584E+03  0.53902819584E+03  0.00000000000E+00 0.  1.
          1   -1    0    0  501    0  0.00000000000E+00 -0.00000000000E+00 -0.64060293900E+03  0.64060293900E+03  0.00000000000E+00 0. -1.
        -24    2    1    2    0    0 -0.11327023718E+03 -0.10804846859E+03 -0.19692105197E+03  0.26391213681E+03  0.79794091588E+02 0.  0.
        254    2    1    2    0    0  0.11327023718E+03  0.10804846859E+03  0.95346308811E+02  0.91571899802E+03  0.89718768747E+03 0.  0.
         23    2    4    4    0    0 -0.38426553076E+03  0.76456020320E+02  0.71950931899E+02  0.40827610732E+03  0.89481406080E+02 0.  0.
         23    2    4    4    0    0  0.49753576794E+03  0.31592448268E+02  0.23395376912E+02  0.50744289070E+03  0.91711615936E+02 0.  0.
          3    1    3    3  502    0 -0.81626928469E+02 -0.92809163713E+02 -0.19214824669E+03  0.22846760170E+03  0.00000000000E+00 0. -1.
         -4    1    3    3    0  502 -0.31643308712E+02 -0.15239304875E+02 -0.47728052857E+01  0.35444535117E+02  0.00000000000E+00 0.  1.
         11    1    5    5    0    0 -0.35410818868E+03  0.51357879216E+02  0.44899049061E+02  0.36061914211E+03  0.00000000000E+00 0. -1.
        -11    1    5    5    0    0 -0.30157342079E+02  0.25098141104E+02  0.27051882837E+02  0.47656965212E+02  0.00000000000E+00 0.  1.
          4    1    6    6  503    0  0.30434131771E+03  0.56017189953E+02 -0.11224480945E+02  0.30965715268E+03  0.00000000000E+00 0. -1.
         -4    1    6    6    0  503  0.19319445023E+03 -0.24424741685E+02  0.34619857857E+02  0.19778573802E+03  0.00000000000E+00 0.  1.
<mgrwt>
<rscale>  0 0.11752498E+04</rscale>
<asrwt>0</asrwt>
<pdfrwt beam="1">  1        1 0.98554298E-01 0.11752498E+04</pdfrwt>
<pdfrwt beam="2">  1       -2 0.82927415E-01 0.11752498E+04</pdfrwt>
<totfact> 0.34434402E+01</totfact>
</mgrwt>
</event>
<event>
12    4  0.4486176E-008  0.1263750E+04  0.7818608E-02  0.9058816E-01
         -2   -1    0    0    0  501 -0.00000000000E+00  0.00000000000E+00  0.16730137837E+03  0.16730137837E+03  0.00000000000E+00 0.  1.
          1   -1    0    0  501    0  0.00000000000E+00 -0.00000000000E+00 -0.23865083951E+04  0.23865083951E+04  0.00000000000E+00 0. -1.
        -24    2    1    2    0    0 -0.10387269677E+03 -0.27287965235E+03 -0.43376475840E+03  0.52896788093E+03  0.80014446365E+02 0.  0.
        254    2    1    2    0    0  0.10387269677E+03  0.27287965235E+03 -0.17854422583E+04  0.20248418925E+04  0.90935570055E+03 0.  0.
         23    2    4    4    0    0  0.44286585832E+03  0.64168874620E+02 -0.50303955899E+03  0.67897904223E+03  0.87840360542E+02 0.  0.
         23    2    4    4    0    0 -0.33899316155E+03  0.20871077773E+03 -0.12824026993E+04  0.13458628503E+04  0.91178814611E+02 0.  0.
          1    1    3    3  502    0 -0.74934424843E+02 -0.20040577934E+03 -0.24837352773E+03  0.32782167973E+03  0.00000000000E+00 0. -1.
         -2    1    3    3    0  502 -0.28938271932E+02 -0.72473873002E+02 -0.18539123067E+03  0.20114620120E+03  0.00000000000E+00 0.  1.
         11    1    5    5    0    0  0.34747631020E+03  0.74830208342E+02 -0.43275070312E+03  0.56001117603E+03  0.00000000000E+00 0. -1.
        -11    1    5    5    0    0  0.95389548128E+02 -0.10661333722E+02 -0.70288855872E+02  0.11896786620E+03  0.00000000000E+00 0.  1.
          3    1    6    6  503    0 -0.31724473317E+03  0.21779317358E+03 -0.12115603561E+04  0.12712028098E+04  0.00000000000E+00 0. -1.
         -3    1    6    6    0  503 -0.21748428379E+02 -0.90823958538E+01 -0.70842343225E+02  0.74660040484E+02  0.00000000000E+00 0.  1.
<mgrwt>
<rscale>  0 0.12637502E+04</rscale>
<asrwt>0</asrwt>
<pdfrwt beam="1">  1        1 0.36715513E+00 0.12637502E+04</pdfrwt>
<pdfrwt beam="2">  1       -2 0.25738674E-01 0.12637502E+04</pdfrwt>
<totfact> 0.19179606E+01</totfact>
</mgrwt>
</event>
<event>
12    4  0.4486176E-008  0.1394907E+04  0.7818608E-02  0.8957513E-01
         -2   -1    0    0    0  501 -0.00000000000E+00  0.00000000000E+00  0.45581261986E+03  0.45581261986E+03  0.00000000000E+00 0.  1.
          1   -1    0    0  501    0  0.00000000000E+00 -0.00000000000E+00 -0.10671963259E+04  0.10671963259E+04  0.00000000000E+00 0. -1.
        -24    2    1    2    0    0  0.13912637240E+03 -0.84572731117E+01  0.23267600112E+03  0.28269161200E+03  0.79679062674E+02 0.  0.
        254    2    1    2    0    0 -0.13912637240E+03  0.84572731117E+01 -0.84405970716E+03  0.12403173338E+04  0.89806604779E+03 0.  0.
         23    2    4    4    0    0  0.36068374613E+03  0.78590368937E+02 -0.24421415471E+03  0.45124046846E+03  0.87796333658E+02 0.  0.
         23    2    4    4    0    0 -0.49981011853E+03 -0.70133095826E+02 -0.59984555245E+03  0.78907686530E+03  0.89993371033E+02 0.  0.
          1    1    3    3  502    0  0.53049562718E+02 -0.39576479002E+02  0.72183140995E+02  0.97933444944E+02  0.00000000000E+00 0. -1.
         -2    1    3    3    0  502  0.86076809684E+02  0.31119205890E+02  0.16049286013E+03  0.18475816705E+03  0.00000000000E+00 0.  1.
         11    1    5    5    0    0  0.31363776401E+03  0.46541133471E+02 -0.23235042684E+03  0.39309215836E+03  0.00000000000E+00 0. -1.
        -11    1    5    5    0    0  0.47045982126E+02  0.32049235467E+02 -0.11863727871E+02  0.58148310098E+02  0.00000000000E+00 0.  1.
          2    1    6    6  503    0 -0.18966709537E+03 -0.57068444220E+02 -0.18565984410E+03  0.27147742466E+03  0.00000000000E+00 0.  1.
         -2    1    6    6    0  503 -0.31014302317E+03 -0.13064651606E+02 -0.41418570835E+03  0.51759944063E+03  0.00000000000E+00 0. -1.
<mgrwt>
<rscale>  0 0.13949072E+04</rscale>
<asrwt>0</asrwt>
<pdfrwt beam="1">  1        1 0.16418405E+00 0.13949072E+04</pdfrwt>
<pdfrwt beam="2">  1       -2 0.70125019E-01 0.13949072E+04</pdfrwt>
<totfact> 0.21264193E+01</totfact>
</mgrwt>
</event>
<event>
12    4  0.4486176E-008  0.3440101E+04  0.7818608E-02  0.8128134E-01
         -2   -1    0    0    0  501 -0.00000000000E+00  0.00000000000E+00  0.14032702386E+04  0.14032702386E+04  0.00000000000E+00 0.  1.
          1   -1    0    0  501    0  0.00000000000E+00 -0.00000000000E+00 -0.21083420166E+04  0.21083420166E+04  0.00000000000E+00 0. -1.
        -24    2    1    2    0    0  0.10958574702E+04  0.31933752620E+03 -0.14834426966E+04  0.18734209301E+04  0.78890409598E+02 0.  0.
        254    2    1    2    0    0 -0.10958574702E+04 -0.31933752620E+03  0.77837091859E+03  0.16381913250E+04  0.88030078949E+03 0.  0.
         23    2    4    4    0    0 -0.44065764435E+03 -0.30952812087E+03  0.80942490476E+03  0.97654557191E+03  0.92118187384E+02 0.  0.
         23    2    4    4    0    0 -0.65519982583E+03 -0.98094053313E+01 -0.31053986172E+02  0.66164575313E+03  0.86184200321E+02 0.  0.
          3    1    3    3  502    0  0.98660392169E+03  0.28195601644E+03 -0.13688295703E+04  0.17107252515E+04  0.00000000000E+00 0. -1.
         -4    1    3    3    0  502  0.10925354848E+03  0.37381509754E+02 -0.11461312627E+03  0.16269567862E+03  0.00000000000E+00 0.  1.
         11    1    5    5    0    0 -0.21253970213E+03 -0.12044673974E+03  0.43685511233E+03  0.50052265809E+03  0.00000000000E+00 0. -1.
        -11    1    5    5    0    0 -0.22811794222E+03 -0.18908138113E+03  0.37256979244E+03  0.47602291382E+03  0.00000000000E+00 0.  1.
          2    1    6    6  503    0 -0.14713389519E+03 -0.18473890915E+02 -0.39412060051E+02  0.15343721269E+03  0.00000000000E+00 0. -1.
         -2    1    6    6    0  503 -0.50806593064E+03  0.86644855836E+01  0.83580738791E+01  0.50820854045E+03  0.00000000000E+00 0.  1.
<mgrwt>
<rscale>  0 0.34401009E+04</rscale>
<asrwt>0</asrwt>
<pdfrwt beam="1">  1        1 0.32436031E+00 0.34401009E+04</pdfrwt>
<pdfrwt beam="2">  1       -2 0.21588773E+00 0.34401009E+04</pdfrwt>
<totfact> 0.19039298E-01</totfact>
</mgrwt>
</event>
<event>
12    4  0.4486176E-008  0.1129663E+04  0.7818608E-02  0.9176753E-01
          1   -1    0    0  501    0  0.00000000000E+00  0.00000000000E+00  0.89639889019E+03  0.89639889019E+03  0.00000000000E+00 0. -1.
         -2   -1    0    0    0  501 -0.00000000000E+00 -0.00000000000E+00 -0.35590705806E+03  0.35590705806E+03  0.00000000000E+00 0.  1.
        -24    2    1    2    0    0  0.16196253230E+03  0.53349776013E+02  0.19291457583E+03  0.26927772051E+03  0.78844129304E+02 0.  0.
        254    2    1    2    0    0 -0.16196253230E+03 -0.53349776013E+02  0.34757725629E+03  0.98302822774E+03  0.90357981770E+03 0.  0.
         23    2    4    4    0    0  0.41819266338E+02  0.33220011331E+03  0.40572226457E+03  0.53378927789E+03  0.90634821700E+02 0.  0.
         23    2    4    4    0    0 -0.20378179864E+03 -0.38554988932E+03 -0.58145008276E+02  0.44923894985E+03  0.90879334605E+02 0.  0.
          3    1    3    3  502    0  0.15511273165E+03  0.54536621976E+02  0.20029576381E+03  0.25913817869E+03  0.00000000000E+00 0. -1.
         -4    1    3    3    0  502  0.68498006546E+01 -0.11868459632E+01 -0.73811879785E+01  0.10139541820E+02  0.00000000000E+00 0.  1.
         11    1    5    5    0    0 -0.26918099853E+02  0.14059397783E+03  0.17557900913E+03  0.22653750054E+03  0.00000000000E+00 0.  1.
        -11    1    5    5    0    0  0.68737366190E+02  0.19160613548E+03  0.23014325544E+03  0.30725177735E+03  0.00000000000E+00 0. -1.
          1    1    6    6  503    0 -0.14644220436E+03 -0.18844343727E+03 -0.49778477926E+02  0.24379119166E+03  0.00000000000E+00 0. -1.
         -1    1    6    6    0  503 -0.57339594286E+02 -0.19710645205E+03 -0.83665303491E+01  0.20544775819E+03  0.00000000000E+00 0.  1.
<mgrwt>
<rscale>  0 0.11296631E+04</rscale>
<asrwt>0</asrwt>
<pdfrwt beam="1">  1        1 0.13790752E+00 0.11296631E+04</pdfrwt>
<pdfrwt beam="2">  1       -2 0.54754932E-01 0.11296631E+04</pdfrwt>
<totfact> 0.50113965E+01</totfact>
</mgrwt>
</event>
<event>
12    4  0.4486176E-008  0.1957251E+04  0.7818608E-02  0.8626872E-01
         -2   -1    0    0    0  501 -0.00000000000E+00  0.00000000000E+00  0.38582605398E+03  0.38582605398E+03  0.00000000000E+00 0.  1.
          1   -1    0    0  501    0  0.00000000000E+00 -0.00000000000E+00 -0.24822275820E+04  0.24822275820E+04  0.00000000000E+00 0. -1.
        -24    2    1    2    0    0  0.26288946173E+02 -0.35893931129E+03 -0.18230943687E+04  0.18597940366E+04  0.75048274125E+02 0.  0.
        254    2    1    2    0    0 -0.26288946173E+02  0.35893931129E+03 -0.27330715926E+03  0.10082595993E+04  0.90131131053E+03 0.  0.
         23    2    4    4    0    0  0.10208765698E+02  0.59793841473E+02  0.31842409348E+03  0.33726246434E+03  0.93126495495E+02 0.  0.
         23    2    4    4    0    0 -0.36497711870E+02  0.29914546982E+03 -0.59173125275E+03  0.67099713501E+03  0.96286990941E+02 0.  0.
          3    1    3    3  502    0  0.26462995830E+02 -0.20068036893E+03 -0.11978123736E+04  0.12147952020E+04  0.00000000000E+00 0. -1.
         -4    1    3    3    0  502 -0.17404965762E+00 -0.15825894236E+03 -0.62528199515E+03  0.64499883456E+03  0.00000000000E+00 0.  1.
         11    1    5    5    0    0  0.25772697229E+02 -0.11772103273E+02  0.37810278722E+02  0.47248613895E+02  0.00000000000E+00 0. -1.
        -11    1    5    5    0    0 -0.15563931531E+02  0.71565944746E+02  0.28061381476E+03  0.29001385044E+03  0.00000000000E+00 0.  1.
          3    1    6    6  503    0 -0.32009691346E+02  0.21212032029E+02 -0.70999719296E+02  0.80718837844E+02  0.00000000000E+00 0. -1.
         -3    1    6    6    0  503 -0.44880205241E+01  0.27793343779E+03 -0.52073153345E+03  0.59027829716E+03  0.00000000000E+00 0.  1.
<mgrwt>
<rscale>  0 0.19572512E+04</rscale>
<asrwt>0</asrwt>
<pdfrwt beam="1">  1        1 0.38188117E+00 0.19572512E+04</pdfrwt>
<pdfrwt beam="2">  1       -2 0.59357854E-01 0.19572512E+04</pdfrwt>
<totfact> 0.30219410E+00</totfact>
</mgrwt>
</event>
<event>
12    4  0.4486176E-008  0.2588017E+04  0.7818608E-02  0.8372283E-01
         -2   -1    0    0    0  501 -0.00000000000E+00  0.00000000000E+00  0.14558596192E+04  0.14558596192E+04  0.00000000000E+00 0.  1.
          1   -1    0    0  501    0  0.00000000000E+00 -0.00000000000E+00 -0.11501506956E+04  0.11501506956E+04  0.00000000000E+00 0. -1.
        -24    2    1    2    0    0  0.35938174151E+03 -0.28470173856E+03  0.11795184229E+04  0.12680595509E+04  0.80628769879E+02 0.  0.
        254    2    1    2    0    0 -0.35938174151E+03  0.28470173856E+03 -0.87380949934E+03  0.13379507638E+04  0.90352580992E+03 0.  0.
         23    2    4    4    0    0 -0.56561583180E+03  0.15696587054E+03 -0.90087358407E+03  0.10790785967E+04  0.90982689324E+02 0.  0.
         23    2    4    4    0    0  0.20623409030E+03  0.12773586802E+03  0.27064084731E+02  0.25887216708E+03  0.86217064592E+02 0.  0.
          1    1    3    3  502    0  0.16651886211E+03 -0.16372279754E+03  0.68339710746E+03  0.72219477453E+03  0.00000000000E+00 0. -1.
         -4    1    3    3    0  502  0.19286287940E+03 -0.12097894102E+03  0.49612131548E+03  0.54586477638E+03  0.00000000000E+00 0.  1.
         11    1    5    5    0    0 -0.34993497160E+03  0.57777095980E+02 -0.58171535335E+03  0.68131155097E+03  0.00000000000E+00 0.  1.
        -11    1    5    5    0    0 -0.21568086020E+03  0.99188774563E+02 -0.31915823072E+03  0.39776704576E+03  0.00000000000E+00 0. -1.
          3    1    6    6  503    0  0.14301874205E+03  0.48733643500E+02 -0.92388164898E+01  0.15137597008E+03  0.00000000000E+00 0. -1.
         -3    1    6    6    0  503  0.63215348243E+02  0.79002224516E+02  0.36302901221E+02  0.10749619700E+03  0.00000000000E+00 0.  1.
<mgrwt>
<rscale>  0 0.25880170E+04</rscale>
<asrwt>0</asrwt>
<pdfrwt beam="1">  1        1 0.17694626E+00 0.25880170E+04</pdfrwt>
<pdfrwt beam="2">  1       -2 0.22397840E+00 0.25880170E+04</pdfrwt>
<totfact> 0.83908142E-01</totfact>
</mgrwt>
</event>
<event>
12    4  0.4486176E-008  0.1574565E+04  0.7818608E-02  0.8836328E-01
          1   -1    0    0  501    0  0.00000000000E+00  0.00000000000E+00  0.26698421741E+04  0.26698421741E+04  0.00000000000E+00 0. -1.
         -2   -1    0    0    0  501 -0.00000000000E+00 -0.00000000000E+00 -0.23215369498E+03  0.23215369498E+03  0.00000000000E+00 0.  1.
        -24    2    1    2    0    0  0.74879888310E+02 -0.60792733531E+02 -0.12669962026E+03  0.17847542602E+03  0.80609737596E+02 0.  0.
        254    2    1    2    0    0 -0.74879888310E+02  0.60792733531E+02  0.25643880994E+04  0.27235204431E+04  0.91223600309E+03 0.  0.
         23    2    4    4    0    0 -0.35784289439E+03  0.10635719594E+03  0.46336760952E+03  0.60131028432E+03  0.86609042735E+02 0.  0.
         23    2    4    4    0    0  0.28296300608E+03 -0.45564462411E+02  0.21010204899E+04  0.21222101588E+04  0.85701084925E+02 0.  0.
          1    1    3    3  502    0  0.17317817926E+02 -0.47952431001E+02 -0.16676013396E+02  0.53641699073E+02  0.00000000000E+00 0. -1.
         -2    1    3    3    0  502  0.57562070384E+02 -0.12840302530E+02 -0.11002360687E+03  0.12483372695E+03  0.00000000000E+00 0.  1.
         11    1    5    5    0    0 -0.19274323498E+03  0.26466560855E+02  0.28796514339E+03  0.34752605267E+03  0.00000000000E+00 0.  1.
        -11    1    5    5    0    0 -0.16509965940E+03  0.79890635088E+02  0.17540246613E+03  0.25378423165E+03  0.00000000000E+00 0. -1.
          2    1    6    6  503    0  0.79257733212E+02 -0.33511236653E+01  0.88255877260E+03  0.88611681250E+03  0.00000000000E+00 0. -1.
         -2    1    6    6    0  503  0.20370527286E+03 -0.42213338746E+02  0.12184617173E+04  0.12360933463E+04  0.00000000000E+00 0.  1.
<mgrwt>
<rscale>  0 0.15745650E+04</rscale>
<asrwt>0</asrwt>
<pdfrwt beam="1">  1        1 0.41074493E+00 0.15745650E+04</pdfrwt>
<pdfrwt beam="2">  1       -2 0.35715955E-01 0.15745650E+04</pdfrwt>
<totfact> 0.64322278E+00</totfact>
</mgrwt>
</event>
<event>
12    4  0.4486176E-008  0.2130535E+04  0.7818608E-02  0.8547910E-01
         -2   -1    0    0    0  501 -0.00000000000E+00  0.00000000000E+00  0.91762430331E+03  0.91762430331E+03  0.00000000000E+00 0.  1.
          1   -1    0    0  501    0  0.00000000000E+00 -0.00000000000E+00 -0.12366661603E+04  0.12366661603E+04  0.00000000000E+00 0. -1.
        -24    2    1    2    0    0  0.53822477831E+03 -0.63017223044E+03 -0.56198999887E+03  0.10045161003E+04  0.80105461231E+02 0.  0.
        254    2    1    2    0    0 -0.53822477831E+03  0.63017223044E+03  0.24294814186E+03  0.11497743633E+04  0.75904830871E+03 0.  0.
         23    2    4    4    0    0  0.28961712700E+02  0.53125236775E+03  0.88039770416E+02  0.54690003819E+03  0.90998854649E+02 0.  0.
         23    2    4    4    0    0 -0.56718649101E+03  0.98919862688E+02  0.15490837144E+03  0.60287432515E+03  0.89303939263E+02 0.  0.
          1    1    3    3  502    0  0.16884848657E+03 -0.25209741038E+03 -0.22366369156E+03  0.37694610047E+03  0.00000000000E+00 0. -1.
         -2    1    3    3    0  502  0.36937629174E+03 -0.37807482006E+03 -0.33832630731E+03  0.62756999983E+03  0.00000000000E+00 0.  1.
         11    1    5    5    0    0  0.23776694935E+02  0.44268785127E+03  0.10727988306E+03  0.45612151692E+03  0.00000000000E+00 0.  1.
        -11    1    5    5    0    0  0.51850177646E+01  0.88564516484E+02 -0.19240112649E+02  0.90778521270E+02  0.00000000000E+00 0. -1.
          1    1    6    6  503    0 -0.19726609165E+02  0.20370767389E+02 -0.59395736102E+00  0.28363005104E+02  0.00000000000E+00 0. -1.
         -1    1    6    6    0  503 -0.54745988184E+03  0.78549095299E+02  0.15550232880E+03  0.57451132005E+03  0.00000000000E+00 0.  1.
<mgrwt>
<rscale>  0 0.21305351E+04</rscale>
<asrwt>0</asrwt>
<pdfrwt beam="1">  1        1 0.19025633E+00 0.21305351E+04</pdfrwt>
<pdfrwt beam="2">  1       -2 0.14117297E+00 0.21305351E+04</pdfrwt>
<totfact> 0.28417432E+00</totfact>
</mgrwt>
</event>
<event>
12    4  0.4486176E-008  0.1474250E+04  0.7818608E-02  0.8901760E-01
          1   -1    0    0  501    0  0.00000000000E+00  0.00000000000E+00  0.98726424265E+03  0.98726424265E+03  0.00000000000E+00 0. -1.
         -4   -1    0    0    0  501 -0.00000000000E+00 -0.00000000000E+00 -0.55036218898E+03  0.55036218898E+03  0.00000000000E+00 0.  1.
        -24    2    1    2    0    0 -0.24286763147E+03  0.23645903919E+03 -0.17444184828E+03  0.38944068298E+03  0.79602283272E+02 0.  0.
        254    2    1    2    0    0  0.24286763147E+03 -0.23645903919E+03  0.61134390195E+03  0.11481857486E+04  0.91087407654E+03 0.  0.
         23    2    4    4    0    0 -0.31328767768E+03 -0.40296607373E+02  0.57299027221E+02  0.33380157326E+03  0.91473090248E+02 0.  0.
         23    2    4    4    0    0  0.55615530914E+03 -0.19616243182E+03  0.55404487473E+03  0.81438417538E+03  0.92018663122E+02 0.  0.
          1    1    3    3  502    0 -0.14981727807E+02  0.18495432437E+02 -0.40193254064E+02  0.46712213193E+02  0.00000000000E+00 0. -1.
         -2    1    3    3    0  502 -0.22788590366E+03  0.21796360676E+03 -0.13424859421E+03  0.34272846979E+03  0.00000000000E+00 0.  1.
         11    1    5    5    0    0 -0.35091777791E+02 -0.98900472968E+01  0.38945221594E+02  0.53347691506E+02  0.00000000000E+00 0.  1.
        -11    1    5    5    0    0 -0.27819589988E+03 -0.30406560077E+02  0.18353805627E+02  0.28045388175E+03  0.00000000000E+00 0. -1.
          3    1    6    6  503    0  0.37007123344E+03 -0.85596252359E+02  0.33556794096E+03  0.50683851396E+03  0.00000000000E+00 0. -1.
         -3    1    6    6    0  503  0.18608407570E+03 -0.11056617946E+03  0.21847693377E+03  0.30754566142E+03  0.00000000000E+00 0.  1.
<mgrwt>
<rscale>  0 0.14742495E+04</rscale>
<asrwt>0</asrwt>
<pdfrwt beam="1">  1        1 0.15188681E+00 0.14742495E+04</pdfrwt>
<pdfrwt beam="2">  1       -4 0.84671106E-01 0.14742495E+04</pdfrwt>
<totfact> 0.88990279E+00</totfact>
</mgrwt>
</event>
<event>
12    4  0.4486176E-008  0.2382918E+04  0.7818608E-02  0.8445927E-01
         -2   -1    0    0    0  501 -0.00000000000E+00  0.00000000000E+00  0.31129960468E+04  0.31129960468E+04  0.00000000000E+00 0.  1.
          1   -1    0    0  501    0  0.00000000000E+00 -0.00000000000E+00 -0.45601541355E+03  0.45601541355E+03  0.00000000000E+00 0. -1.
        -24    2    1    2    0    0 -0.31562570785E+03  0.38408631325E+03  0.24455688134E+04  0.24967576380E+04  0.76485281177E+02 0.  0.
        254    2    1    2    0    0  0.31562570785E+03 -0.38408631325E+03  0.21141181979E+03  0.10722538223E+04  0.92622428085E+03 0.  0.
         23    2    4    4    0    0  0.33906031138E+03 -0.59084385542E+03  0.38344824630E+03  0.78758695643E+03  0.95928619875E+02 0.  0.
         23    2    4    4    0    0 -0.23434603524E+02  0.20675754217E+03 -0.17203642650E+03  0.28466686589E+03  0.90226551555E+02 0.  0.
          1    1    3    3  502    0  0.11755589366E+01 -0.20121967426E+01  0.39826644131E+01  0.46143786550E+01  0.00000000000E+00 0. -1.
         -2    1    3    3    0  502 -0.31680126679E+03  0.38609850999E+03  0.24415861490E+04  0.24921432593E+04  0.00000000000E+00 0.  1.
         11    1    5    5    0    0  0.64312044014E+02 -0.13920625563E+03  0.44714048077E+02  0.15973029364E+03  0.00000000000E+00 0. -1.
        -11    1    5    5    0    0  0.27474826736E+03 -0.45163759979E+03  0.33873419822E+03  0.62785666279E+03  0.00000000000E+00 0.  1.
          4    1    6    6  503    0 -0.36761877758E+02  0.82719851475E+02 -0.11798430732E+03  0.14870879684E+03  0.00000000000E+00 0. -1.
         -4    1    6    6    0  503  0.13327274234E+02  0.12403769069E+03 -0.54052119183E+02  0.13595806905E+03  0.00000000000E+00 0.  1.
<mgrwt>
<rscale>  0 0.23829177E+04</rscale>
<asrwt>0</asrwt>
<pdfrwt beam="1">  1        1 0.70156219E-01 0.23829177E+04</pdfrwt>
<pdfrwt beam="2">  1       -2 0.47892246E+00 0.23829177E+04</pdfrwt>
<totfact> 0.88500634E-02</totfact>
</mgrwt>
</event>
<event>
12    4  0.4486176E-008  0.1469206E+04  0.7818608E-02  0.8905193E-01
          1   -1    0    0  501    0  0.00000000000E+00  0.00000000000E+00  0.54711841601E+03  0.54711841601E+03  0.00000000000E+00 0. -1.
         -2   -1    0    0    0  501 -0.00000000000E+00 -0.00000000000E+00 -0.98633372153E+03  0.98633372153E+03  0.00000000000E+00 0.  1.
        -24    2    1    2    0    0 -0.21968631941E+03  0.39451531594E+03 -0.19314311880E+03  0.49748616127E+03  0.79270441337E+02 0.  0.
        254    2    1    2    0    0  0.21968631941E+03 -0.39451531594E+03 -0.24607218673E+03  0.10359659763E+04  0.89931616769E+03 0.  0.
         23    2    4    4    0    0  0.58987853622E+02 -0.34597827790E+03 -0.56041279606E+03  0.66849544114E+03  0.98199374633E+02 0.  0.
         23    2    4    4    0    0  0.16069846579E+03 -0.48537038034E+02  0.31434060933E+03  0.36747053513E+03  0.89692444214E+02 0.  0.
          1    1    3    3  502    0 -0.57134940533E+01  0.43899165779E+02 -0.16732350885E+01  0.44301021275E+02  0.00000000000E+00 0. -1.
         -2    1    3    3    0  502 -0.21397282536E+03  0.35061615016E+03 -0.19146988371E+03  0.45318513999E+03  0.00000000000E+00 0.  1.
         11    1    5    5    0    0 -0.18373513208E+02 -0.12042034805E+03 -0.23937845231E+03  0.26859018902E+03  0.00000000000E+00 0. -1.
        -11    1    5    5    0    0  0.77361366830E+02 -0.22555792986E+03 -0.32103434375E+03  0.39990525211E+03  0.00000000000E+00 0.  1.
          2    1    6    6  503    0  0.92145536378E+02 -0.46711967377E+02  0.10549943778E+03  0.14765818346E+03  0.00000000000E+00 0. -1.
         -2    1    6    6    0  503  0.68552929410E+02 -0.18250706574E+01  0.20884117155E+03  0.21981235168E+03  0.00000000000E+00 0.  1.
<mgrwt>
<rscale>  0 0.14692057E+04</rscale>
<asrwt>0</asrwt>
<pdfrwt beam="1">  1        1 0.84172065E-01 0.14692057E+04</pdfrwt>
<pdfrwt beam="2">  1       -2 0.15174365E+00 0.14692057E+04</pdfrwt>
<totfact> 0.96254093E+00</totfact>
</mgrwt>
</event>
<event>
12    4  0.4486176E-008  0.1410597E+04  0.7818608E-02  0.8946184E-01
          1   -1    0    0  501    0  0.00000000000E+00  0.00000000000E+00  0.10731164704E+04  0.10731164704E+04  0.00000000000E+00 0. -1.
         -2   -1    0    0    0  501 -0.00000000000E+00 -0.00000000000E+00 -0.46355233813E+03  0.46355233813E+03  0.00000000000E+00 0.  1.
        -24    2    1    2    0    0 -0.30196901595E+03 -0.10320736963E+03 -0.10862527847E+03  0.34638434816E+03  0.79659386044E+02 0.  0.
        254    2    1    2    0    0  0.30196901595E+03  0.10320736963E+03  0.71818941076E+03  0.11902844604E+04  0.89394855511E+03 0.  0.
         23    2    4    4    0    0  0.50839566930E+02  0.22823922042E+03  0.83602051147E+03  0.87246385339E+03  0.87092345094E+02 0.  0.
         23    2    4    4    0    0  0.25112944902E+03 -0.12503185078E+03 -0.11783110071E+03  0.31782060701E+03  0.91797636514E+02 0.  0.
          1    1    3    3  502    0 -0.33530923575E+02 -0.13698357048E+02 -0.42409640464E+02  0.55772263948E+02  0.00000000000E+00 0. -1.
         -2    1    3    3    0  502 -0.26843809237E+03 -0.89509012585E+02 -0.66215638011E+02  0.29061208421E+03  0.00000000000E+00 0.  1.
         11    1    5    5    0    0  0.81646082018E+01  0.16912881721E+03  0.67138577871E+03  0.69240889761E+03  0.00000000000E+00 0.  1.
        -11    1    5    5    0    0  0.42674958728E+02  0.59110403211E+02  0.16463473276E+03  0.18005495578E+03  0.00000000000E+00 0. -1.
          4    1    6    6  503    0  0.32688196432E+02 -0.46612337013E+02  0.12872617355E+01  0.56946336059E+02  0.00000000000E+00 0. -1.
         -4    1    6    6    0  503  0.21844125259E+03 -0.78419513772E+02 -0.11911836244E+03  0.26087427095E+03  0.00000000000E+00 0.  1.
<mgrwt>
<rscale>  0 0.14105965E+04</rscale>
<asrwt>0</asrwt>
<pdfrwt beam="1">  1        1 0.16509484E+00 0.14105965E+04</pdfrwt>
<pdfrwt beam="2">  1       -2 0.71315745E-01 0.14105965E+04</pdfrwt>
<totfact> 0.20257554E+01</totfact>
</mgrwt>
</event>
<event>
12    4  0.4486176E-008  0.2641433E+04  0.7818608E-02  0.8354262E-01
          1   -1    0    0  501    0  0.00000000000E+00  0.00000000000E+00  0.12604402960E+04  0.12604402960E+04  0.00000000000E+00 0. -1.
         -2   -1    0    0    0  501 -0.00000000000E+00 -0.00000000000E+00 -0.13838756032E+04  0.13838756032E+04  0.00000000000E+00 0.  1.
        -24    2    1    2    0    0 -0.24504141322E+02  0.10754359596E+04 -0.50685836453E+03  0.11917075698E+04  0.78093367112E+02 0.  0.
        254    2    1    2    0    0  0.24504141322E+02 -0.10754359596E+04  0.38342305729E+03  0.14526083294E+04  0.89771641495E+03 0.  0.
         23    2    4    4    0    0  0.39505198247E+02 -0.11464773827E+04  0.11283103855E+03  0.11559755933E+04  0.87049867654E+02 0.  0.
         23    2    4    4    0    0 -0.15001056925E+02  0.71041423041E+02  0.27059201874E+03  0.29663273610E+03  0.97462936666E+02 0.  0.
          1    1    3    3  502    0 -0.14951823565E+01  0.48757788125E+02 -0.60206917347E+01  0.49150851489E+02  0.00000000000E+00 0. -1.
         -2    1    3    3    0  502 -0.23008958965E+02  0.10266781715E+04 -0.50083767280E+03  0.11425567183E+04  0.00000000000E+00 0.  1.
         11    1    5    5    0    0  0.20116594623E+02 -0.84794863236E+02 -0.67210945310E+01  0.87407204063E+02  0.00000000000E+00 0. -1.
        -11    1    5    5    0    0  0.19388603623E+02 -0.10616825194E+04  0.11955213308E+03  0.10685683893E+04  0.00000000000E+00 0.  1.
          4    1    6    6  503    0  0.33979809710E+02  0.22287875749E+02  0.44723914752E+02  0.60428514991E+02  0.00000000000E+00 0. -1.
         -4    1    6    6    0  503 -0.48980866635E+02  0.48753547292E+02  0.22586810399E+03  0.23620422111E+03  0.00000000000E+00 0.  1.
<mgrwt>
<rscale>  0 0.26414334E+04</rscale>
<asrwt>0</asrwt>
<pdfrwt beam="1">  1        1 0.19391389E+00 0.26414334E+04</pdfrwt>
<pdfrwt beam="2">  1       -2 0.21290394E+00 0.26414334E+04</pdfrwt>
<totfact> 0.81591859E-01</totfact>
</mgrwt>
</event>
<event>
12    4  0.4486176E-008  0.1380306E+04  0.7818608E-02  0.8968199E-01
          1   -1    0    0  501    0  0.00000000000E+00  0.00000000000E+00  0.15543985506E+04  0.15543985506E+04  0.00000000000E+00 0. -1.
         -2   -1    0    0    0  501 -0.00000000000E+00 -0.00000000000E+00 -0.30642777440E+03  0.30642777440E+03  0.00000000000E+00 0.  1.
        -24    2    1    2    0    0  0.29523973553E+03 -0.13333261838E+03  0.64619016274E+02  0.33967782068E+03  0.79128478048E+02 0.  0.
        254    2    1    2    0    0 -0.29523973553E+03  0.13333261838E+03  0.11833517599E+04  0.15211485043E+04  0.89923706325E+03 0.  0.
         23    2    4    4    0    0 -0.43823521108E+03  0.32483538482E+03  0.36465523864E+03  0.66259974854E+03  0.92178393581E+02 0.  0.
         23    2    4    4    0    0  0.14299547555E+03 -0.19150276644E+03  0.81869652127E+03  0.85854875576E+03  0.98594911110E+02 0.  0.
          1    1    3    3  502    0  0.14411570565E+03 -0.36019857876E+02  0.59024790759E+02  0.15984584042E+03  0.00000000000E+00 0. -1.
         -2    1    3    3    0  502  0.15112402988E+03 -0.97312760505E+02  0.55942255145E+01  0.17983198026E+03  0.00000000000E+00 0.  1.
         11    1    5    5    0    0 -0.30265684017E+03  0.19406329737E+03  0.28183040299E+03  0.45682611827E+03  0.00000000000E+00 0.  1.
        -11    1    5    5    0    0 -0.13557837091E+03  0.13077208745E+03  0.82824835649E+02  0.20577363027E+03  0.00000000000E+00 0. -1.
          2    1    6    6  503    0 -0.97885167816E+01 -0.39296818670E+01  0.10352503325E+02  0.14779437927E+02  0.00000000000E+00 0. -1.
         -2    1    6    6    0  503  0.15278399233E+03 -0.18757308457E+03  0.80834401795E+03  0.84376931784E+03  0.00000000000E+00 0.  1.
<mgrwt>
<rscale>  0 0.13803056E+04</rscale>
<asrwt>0</asrwt>
<pdfrwt beam="1">  1        1 0.23913823E+00 0.13803056E+04</pdfrwt>
<pdfrwt beam="2">  1       -2 0.47142735E-01 0.13803056E+04</pdfrwt>
<totfact> 0.21923068E+01</totfact>
</mgrwt>
</event>
<event>
12    4  0.4486176E-008  0.1856346E+04  0.7818608E-02  0.8676896E-01
         -2   -1    0    0    0  501 -0.00000000000E+00  0.00000000000E+00  0.13213565914E+04  0.13213565914E+04  0.00000000000E+00 0.  1.
          1   -1    0    0  501    0  0.00000000000E+00 -0.00000000000E+00 -0.65198537609E+03  0.65198537609E+03  0.00000000000E+00 0. -1.
        -24    2    1    2    0    0  0.67993565848E+03  0.12768739633E+03  0.20534088339E+03  0.72603171780E+03  0.79627922285E+02 0.  0.
        254    2    1    2    0    0 -0.67993565848E+03 -0.12768739633E+03  0.46403033191E+03  0.12473102497E+04  0.92835453313E+03 0.  0.
         23    2    4    4    0    0  0.14248272371E+02  0.23940494885E+03  0.37049903820E+03  0.45083727342E+03  0.92016123578E+02 0.  0.
         23    2    4    4    0    0 -0.69418393085E+03 -0.36709234518E+03  0.93531293707E+02  0.79647297626E+03  0.94725810999E+02 0.  0.
          3    1    3    3  502    0  0.25306529454E+03  0.66703474303E+02  0.42672373253E+02  0.26516471904E+03  0.00000000000E+00 0. -1.
         -4    1    3    3    0  502  0.42687036393E+03  0.60983922029E+02  0.16266851014E+03  0.46086699875E+03  0.00000000000E+00 0.  1.
         11    1    5    5    0    0  0.49155871422E+02  0.90104188084E+02  0.16738051744E+03  0.19634485484E+03  0.00000000000E+00 0.  1.
        -11    1    5    5    0    0 -0.34907599051E+02  0.14930076077E+03  0.20311852077E+03  0.25449241858E+03  0.00000000000E+00 0. -1.
          1    1    6    6  503    0 -0.39450704093E+02 -0.58773539683E+01 -0.11153428721E+02  0.41416184220E+02  0.00000000000E+00 0. -1.
         -1    1    6    6    0  503 -0.65473322675E+03 -0.36121499121E+03  0.10468472243E+03  0.75505679204E+03  0.00000000000E+00 0.  1.
<mgrwt>
<rscale>  0 0.18563461E+04</rscale>
<asrwt>0</asrwt>
<pdfrwt beam="1">  1        1 0.10030544E+00 0.18563461E+04</pdfrwt>
<pdfrwt beam="2">  1       -2 0.20328563E+00 0.18563461E+04</pdfrwt>
<totfact> 0.31534222E+00</totfact>
</mgrwt>
</event>
<event>
12    4  0.4486176E-008  0.1100153E+04  0.7818608E-02  0.9205042E-01
          1   -1    0    0  501    0  0.00000000000E+00  0.00000000000E+00  0.76344332605E+03  0.76344332605E+03  0.00000000000E+00 0. -1.
         -2   -1    0    0    0  501 -0.00000000000E+00 -0.00000000000E+00 -0.39634159438E+03  0.39634159438E+03  0.00000000000E+00 0.  1.
        -24    2    1    2    0    0 -0.70251276011E+02  0.17006712536E+02 -0.12438052474E+03  0.16432701697E+03  0.79425332974E+02 0.  0.
        254    2    1    2    0    0  0.70251276011E+02 -0.17006712536E+02  0.49148225641E+03  0.99545790346E+03  0.86264544232E+03 0.  0.
         23    2    4    4    0    0 -0.59543078530E+02 -0.96956476760E+02  0.70361421070E+03  0.71879650030E+03  0.93002767468E+02 0.  0.
         23    2    4    4    0    0  0.12979435454E+03  0.79949764223E+02 -0.21213195430E+03  0.27666140316E+03  0.91120945413E+02 0.  0.
          1    1    3    3  502    0 -0.29987734208E+02  0.38150842433E+02 -0.24024340485E+02  0.54147205995E+02  0.00000000000E+00 0. -1.
         -2    1    3    3    0  502 -0.40263541803E+02 -0.21144129897E+02 -0.10035618425E+03  0.11017981097E+03  0.00000000000E+00 0.  1.
         11    1    5    5    0    0  0.16002023461E+02 -0.20374342951E+02  0.29920948915E+03  0.30032898129E+03  0.00000000000E+00 0.  1.
        -11    1    5    5    0    0 -0.75545101990E+02 -0.76582133809E+02  0.40440472156E+03  0.41846751902E+03  0.00000000000E+00 0. -1.
          4    1    6    6  503    0  0.47873767954E+02  0.36303485618E+02 -0.20070310024E+02  0.63345544994E+02  0.00000000000E+00 0. -1.
         -4    1    6    6    0  503  0.81920586587E+02  0.43646278605E+02 -0.19206164427E+03  0.21331585816E+03  0.00000000000E+00 0.  1.
<mgrwt>
<rscale>  0 0.11001533E+04</rscale>
<asrwt>0</asrwt>
<pdfrwt beam="1">  1        1 0.11745282E+00 0.11001533E+04</pdfrwt>
<pdfrwt beam="2">  1       -2 0.60975630E-01 0.11001533E+04</pdfrwt>
<totfact> 0.52053377E+01</totfact>
</mgrwt>
</event>
<event>
12    4  0.4486176E-008  0.1570354E+04  0.7818608E-02  0.8838971E-01
          1   -1    0    0  501    0  0.00000000000E+00  0.00000000000E+00  0.24798269753E+04  0.24798269753E+04  0.00000000000E+00 0. -1.
         -2   -1    0    0    0  501 -0.00000000000E+00 -0.00000000000E+00 -0.24860715832E+03  0.24860715832E+03  0.00000000000E+00 0.  1.
        -24    2    1    2    0    0 -0.44034170310E+03 -0.10780923987E+03  0.28971713857E+03  0.54300913516E+03  0.73479607968E+02 0.  0.
        254    2    1    2    0    0  0.44034170310E+03  0.10780923987E+03  0.19415026784E+04  0.21854249985E+04  0.89505649316E+03 0.  0.
         23    2    4    4    0    0  0.23926296127E+03 -0.27229364241E+03  0.15580558077E+04  0.16020978561E+04  0.88255584702E+02 0.  0.
         23    2    4    4    0    0  0.20107874183E+03  0.38010288228E+03  0.38344687071E+03  0.58332714238E+03  0.91258922001E+02 0.  0.
          1    1    3    3  502    0 -0.39061397279E+02  0.10500780441E+02  0.32663910833E+02  0.51990289653E+02  0.00000000000E+00 0. -1.
         -2    1    3    3    0  502 -0.40128030582E+03 -0.11831002031E+03  0.25705322774E+03  0.49101884550E+03  0.00000000000E+00 0.  1.
         11    1    5    5    0    0  0.38259406065E+02 -0.10509947236E+02  0.11095241661E+03  0.11783327160E+03  0.00000000000E+00 0. -1.
        -11    1    5    5    0    0  0.20100355520E+03 -0.26178369518E+03  0.14471033911E+04  0.14842645845E+04  0.00000000000E+00 0.  1.
          3    1    6    6  503    0 -0.69033475714E+01  0.21327864517E+02  0.76547423771E+01  0.23688163572E+02  0.00000000000E+00 0. -1.
         -3    1    6    6    0  503  0.20798208941E+03  0.35877501776E+03  0.37579212833E+03  0.55963897881E+03  0.00000000000E+00 0.  1.
<mgrwt>
<rscale>  0 0.15703538E+04</rscale>
<asrwt>0</asrwt>
<pdfrwt beam="1">  1        1 0.38151183E+00 0.15703538E+04</pdfrwt>
<pdfrwt beam="2">  1       -2 0.38247257E-01 0.15703538E+04</pdfrwt>
<totfact> 0.76439184E+00</totfact>
</mgrwt>
</event>
<event>
12    4  0.4486176E-008  0.1515453E+04  0.7818608E-02  0.8874242E-01
          1   -1    0    0  501    0  0.00000000000E+00  0.00000000000E+00  0.24005526896E+04  0.24005526896E+04  0.00000000000E+00 0. -1.
         -2   -1    0    0    0  501 -0.00000000000E+00 -0.00000000000E+00 -0.23917378865E+03  0.23917378865E+03  0.00000000000E+00 0.  1.
        -24    2    1    2    0    0  0.96889881448E+02 -0.36384708831E+03  0.11823166441E+04  0.12442151608E+04  0.91795244048E+02 0.  0.
        254    2    1    2    0    0 -0.96889881448E+02  0.36384708831E+03  0.97906225690E+03  0.13955113174E+04  0.92038936400E+03 0.  0.
         23    2    4    4    0    0  0.42668903829E+02 -0.47849548091E+02 -0.14679243858E+03  0.18501987103E+03  0.92596533644E+02 0.  0.
         23    2    4    4    0    0 -0.13955878528E+03  0.41169663640E+03  0.11258546955E+04  0.12104914464E+04  0.93648125874E+02 0.  0.
          1    1    3    3  502    0  0.46788022934E+02 -0.16419343774E+03  0.68555033177E+03  0.70648981697E+03  0.00000000000E+00 0. -1.
         -2    1    3    3    0  502  0.50101858514E+02 -0.19965365056E+03  0.49676631229E+03  0.53772534387E+03  0.00000000000E+00 0.  1.
         11    1    5    5    0    0  0.47637297921E+02 -0.51403377796E+02 -0.15767022863E+03  0.17254425634E+03  0.00000000000E+00 0. -1.
        -11    1    5    5    0    0 -0.49683940914E+01  0.35538297052E+01  0.10877790045E+02  0.12475614681E+02  0.00000000000E+00 0.  1.
          2    1    6    6  503    0 -0.46766028894E+02  0.40576345671E+02  0.14404497864E+03  0.15678793690E+03  0.00000000000E+00 0.  1.
         -2    1    6    6    0  503 -0.92792756384E+02  0.37112029073E+03  0.98180971685E+03  0.10537035095E+04  0.00000000000E+00 0. -1.
<mgrwt>
<rscale>  0 0.15154528E+04</rscale>
<asrwt>0</asrwt>
<pdfrwt beam="1">  1        1 0.36931578E+00 0.15154528E+04</pdfrwt>
<pdfrwt beam="2">  1       -2 0.36795969E-01 0.15154528E+04</pdfrwt>
<totfact> 0.93879020E+00</totfact>
</mgrwt>
</event>
<event>
12    4  0.4486176E-008  0.1134647E+04  0.7818608E-02  0.9172065E-01
         -4   -1    0    0    0  501 -0.00000000000E+00  0.00000000000E+00  0.39799914917E+03  0.39799914917E+03  0.00000000000E+00 0.  1.
          3   -1    0    0  501    0  0.00000000000E+00 -0.00000000000E+00 -0.80868541690E+03  0.80868541690E+03  0.00000000000E+00 0. -1.
        -24    2    1    2    0    0  0.80854756463E+02 -0.64776624527E+02 -0.30402412150E+03  0.33091985194E+03  0.79647845066E+02 0.  0.
        254    2    1    2    0    0 -0.80854756463E+02  0.64776624527E+02 -0.10666214622E+03  0.87576471413E+03  0.86304896637E+03 0.  0.
         23    2    4    4    0    0  0.32073547579E+03 -0.61766233506E+02 -0.25003915170E+03  0.42142281719E+03  0.91604041582E+02 0.  0.
         23    2    4    4    0    0 -0.40159023225E+03  0.12654285803E+03  0.14337700548E+03  0.45434189694E+03  0.92637919083E+02 0.  0.
          1    1    3    3  502    0  0.41906546235E+02 -0.24056335190E+02 -0.24341113993E+03  0.24816093352E+03  0.00000000000E+00 0. -1.
         -2    1    3    3    0  502  0.38948210227E+02 -0.40720289337E+02 -0.60612981569E+02  0.82758918422E+02  0.00000000000E+00 0.  1.
         11    1    5    5    0    0  0.28774309732E+03 -0.23821479025E+02 -0.21825034800E+03  0.36193475561E+03  0.00000000000E+00 0.  1.
        -11    1    5    5    0    0  0.32992378473E+02 -0.37944754481E+02 -0.31788803705E+02  0.59488061584E+02  0.00000000000E+00 0. -1.
          4    1    6    6  503    0 -0.30062533355E+02  0.25886618405E+02  0.38744696276E+02  0.55452902663E+02  0.00000000000E+00 0. -1.
         -4    1    6    6    0  503 -0.37152769890E+03  0.10065623963E+03  0.10463230921E+03  0.39888899427E+03  0.00000000000E+00 0.  1.
<mgrwt>
<rscale>  0 0.11346473E+04</rscale>
<asrwt>0</asrwt>
<pdfrwt beam="1">  1        3 0.12441314E+00 0.11346473E+04</pdfrwt>
<pdfrwt beam="2">  1       -4 0.61230639E-01 0.11346473E+04</pdfrwt>
<totfact> 0.29485448E+00</totfact>
</mgrwt>
</event>
<event>
12    4  0.4486176E-008  0.1184426E+04  0.7818608E-02  0.9126599E-01
          1   -1    0    0  501    0  0.00000000000E+00  0.00000000000E+00  0.10596005308E+04  0.10596005308E+04  0.00000000000E+00 0. -1.
         -2   -1    0    0    0  501 -0.00000000000E+00 -0.00000000000E+00 -0.33098885902E+03  0.33098885902E+03  0.00000000000E+00 0.  1.
        -24    2    1    2    0    0  0.14752869457E+03  0.83533360771E+02  0.34645864365E+03  0.39323216356E+03  0.76520615608E+02 0.  0.
        254    2    1    2    0    0 -0.14752869457E+03 -0.83533360771E+02  0.38215302809E+03  0.99735722621E+03  0.90550425826E+03 0.  0.
         23    2    4    4    0    0  0.82099097817E+02 -0.44694358242E+03  0.28987612020E+03  0.54848994458E+03  0.10155898048E+03 0.  0.
         23    2    4    4    0    0 -0.22962779239E+03  0.36341022165E+03  0.92276907881E+02  0.44886728163E+03  0.90393011662E+02 0.  0.
          3    1    3    3  502    0  0.98915400112E+02  0.51470159027E+02  0.29554105676E+03  0.31587647883E+03  0.00000000000E+00 0. -1.
         -2    1    3    3    0  502  0.48613294462E+02  0.32063201744E+02  0.50917586887E+02  0.77355684723E+02  0.00000000000E+00 0.  1.
         11    1    5    5    0    0  0.54798270341E+02 -0.42442269327E+03  0.28115362513E+03  0.51203987532E+03  0.00000000000E+00 0. -1.
        -11    1    5    5    0    0  0.27300827476E+02 -0.22520889147E+02  0.87224950756E+01  0.36450069262E+02  0.00000000000E+00 0.  1.
          1    1    6    6  503    0 -0.81724197596E+02  0.19268150509E+03  0.13845911215E+02  0.20975394188E+03  0.00000000000E+00 0. -1.
         -1    1    6    6    0  503 -0.14790359479E+03  0.17072871655E+03  0.78430996666E+02  0.23911333975E+03  0.00000000000E+00 0.  1.
<mgrwt>
<rscale>  0 0.11844255E+04</rscale>
<asrwt>0</asrwt>
<pdfrwt beam="1">  1        1 0.16301547E+00 0.11844255E+04</pdfrwt>
<pdfrwt beam="2">  1       -2 0.50921363E-01 0.11844255E+04</pdfrwt>
<totfact> 0.43086978E+01</totfact>
</mgrwt>
</event>
<event>
12    4  0.4486176E-008  0.2446238E+04  0.7818608E-02  0.8422393E-01
         -2   -1    0    0    0  501 -0.00000000000E+00  0.00000000000E+00  0.18314457855E+04  0.18314457855E+04  0.00000000000E+00 0.  1.
          1   -1    0    0  501    0  0.00000000000E+00 -0.00000000000E+00 -0.81685173747E+03  0.81685173747E+03  0.00000000000E+00 0. -1.
        -24    2    1    2    0    0 -0.68305594272E+03 -0.68587401702E+03 -0.11744903661E+02  0.97129713899E+03  0.79319615133E+02 0.  0.
        254    2    1    2    0    0  0.68305594272E+03  0.68587401702E+03  0.10263389517E+04  0.16770003840E+04  0.90662564272E+03 0.  0.
         23    2    4    4    0    0 -0.14994754414E+03  0.91774479840E+02 -0.33750009008E+02  0.20053187910E+03  0.90372287161E+02 0.  0.
         23    2    4    4    0    0  0.83300348685E+03  0.59409953718E+03  0.10600889607E+04  0.14764685049E+04  0.96548289077E+02 0.  0.
          3    1    3    3  502    0 -0.87550914237E+02 -0.11061484812E+03 -0.24702429133E+02  0.14321667925E+03  0.00000000000E+00 0. -1.
         -4    1    3    3    0  502 -0.59550502848E+03 -0.57525916889E+03  0.12957525472E+02  0.82808045974E+03  0.00000000000E+00 0.  1.
         11    1    5    5    0    0 -0.11811408373E+03  0.10668307268E+03 -0.41614311231E+02  0.16451129344E+03  0.00000000000E+00 0.  1.
        -11    1    5    5    0    0 -0.31833460407E+02 -0.14908592838E+02  0.78643022236E+01  0.36020585661E+02  0.00000000000E+00 0. -1.
          4    1    6    6  503    0  0.98514135717E+02  0.11182484238E+03  0.15318013091E+03  0.21371472297E+03  0.00000000000E+00 0. -1.
         -4    1    6    6    0  503  0.73448935114E+03  0.48227469480E+03  0.90690882982E+03  0.12627537819E+04  0.00000000000E+00 0.  1.
<mgrwt>
<rscale>  0 0.24462377E+04</rscale>
<asrwt>0</asrwt>
<pdfrwt beam="1">  1        1 0.12566950E+00 0.24462377E+04</pdfrwt>
<pdfrwt beam="2">  1       -2 0.28176089E+00 0.24462377E+04</pdfrwt>
<totfact> 0.68729412E-01</totfact>
</mgrwt>
</event>
<event>
12    4  0.4486176E-008  0.2711139E+04  0.7818608E-02  0.8331400E-01
         -2   -1    0    0    0  501 -0.00000000000E+00  0.00000000000E+00  0.47237036253E+03  0.47237036253E+03  0.00000000000E+00 0.  1.
          1   -1    0    0  501    0  0.00000000000E+00 -0.00000000000E+00 -0.38901002735E+04  0.38901002735E+04  0.00000000000E+00 0. -1.
        -24    2    1    2    0    0 -0.11894996807E+04 -0.16677691305E+03 -0.13165630136E+04  0.17838114105E+04  0.76947711543E+02 0.  0.
        254    2    1    2    0    0  0.11894996807E+04  0.16677691305E+03 -0.21011668973E+04  0.25786592255E+04  0.88986349605E+03 0.  0.
         23    2    4    4    0    0  0.27424699481E+03  0.35963155493E+02 -0.13581987248E+04  0.13890599122E+04  0.90988465978E+02 0.  0.
         23    2    4    4    0    0  0.91525268590E+03  0.13081375756E+03 -0.74296817252E+03  0.11895993133E+04  0.91351532708E+02 0.  0.
          3    1    3    3  502    0 -0.34763731307E+03 -0.60664281082E+02 -0.43662114757E+03  0.56139993137E+03  0.00000000000E+00 0. -1.
         -4    1    3    3    0  502 -0.84186236764E+03 -0.10611263197E+03 -0.87994186602E+03  0.12224114791E+04  0.00000000000E+00 0.  1.
         11    1    5    5    0    0  0.25126038406E+03  0.55893101153E+01 -0.11214421813E+04  0.11492587120E+04  0.00000000000E+00 0. -1.
        -11    1    5    5    0    0  0.22986610746E+02  0.30373845378E+02 -0.23675654351E+03  0.23980120027E+03  0.00000000000E+00 0.  1.
          2    1    6    6  503    0  0.51531880554E+03  0.65617979349E+02 -0.35981884832E+03  0.63192467444E+03  0.00000000000E+00 0. -1.
         -2    1    6    6    0  503  0.39993388036E+03  0.65195778210E+02 -0.38314932420E+03  0.55767463883E+03  0.00000000000E+00 0.  1.
<mgrwt>
<rscale>  0 0.27111386E+04</rscale>
<asrwt>0</asrwt>
<pdfrwt beam="1">  1        1 0.59847694E+00 0.27111386E+04</pdfrwt>
<pdfrwt beam="2">  1       -2 0.72672367E-01 0.27111386E+04</pdfrwt>
<totfact> 0.15715772E-01</totfact>
</mgrwt>
</event>
<event>
12    4  0.4486176E-008  0.2263100E+04  0.7818608E-02  0.8492614E-01
         -2   -1    0    0    0  501 -0.00000000000E+00  0.00000000000E+00  0.37704496107E+03  0.37704496107E+03  0.00000000000E+00 0.  1.
          1   -1    0    0  501    0  0.00000000000E+00 -0.00000000000E+00 -0.33958969781E+04  0.33958969781E+04  0.00000000000E+00 0. -1.
        -24    2    1    2    0    0  0.33551987063E+03  0.13579507494E+02  0.21109839353E+03  0.40444007150E+03  0.79064866235E+02 0.  0.
        254    2    1    2    0    0 -0.33551987063E+03 -0.13579507494E+02 -0.32299504106E+04  0.33685018677E+04  0.89524700014E+03 0.  0.
         23    2    4    4    0    0 -0.78314399817E+02 -0.43243234729E+03 -0.13440524206E+04  0.14171586682E+04  0.93439291898E+02 0.  0.
         23    2    4    4    0    0 -0.25720547081E+03  0.41885283979E+03 -0.18858979900E+04  0.19513431995E+04  0.97656019183E+02 0.  0.
          3    1    3    3  502    0  0.23364878665E+02  0.34524450847E+01  0.44707132175E+02  0.50562482132E+02  0.00000000000E+00 0. -1.
         -4    1    3    3    0  502  0.31215499196E+03  0.10127062409E+02  0.16639126136E+03  0.35387758937E+03  0.00000000000E+00 0.  1.
         11    1    5    5    0    0 -0.45367348673E+02 -0.59166191968E+02 -0.21872401363E+03  0.23108229862E+03  0.00000000000E+00 0. -1.
        -11    1    5    5    0    0 -0.32947051144E+02 -0.37326615532E+03 -0.11253284070E+04  0.11860763696E+04  0.00000000000E+00 0.  1.
          4    1    6    6  503    0 -0.88483426785E+02  0.90554592472E+02 -0.36650039793E+03  0.38775248899E+03  0.00000000000E+00 0. -1.
         -4    1    6    6    0  503 -0.16872204402E+03  0.32829824732E+03 -0.15193975920E+04  0.15635907105E+04  0.00000000000E+00 0.  1.
<mgrwt>
<rscale>  0 0.22631004E+04</rscale>
<asrwt>0</asrwt>
<pdfrwt beam="1">  1        1 0.52244570E+00 0.22631004E+04</pdfrwt>
<pdfrwt beam="2">  1       -2 0.58006915E-01 0.22631004E+04</pdfrwt>
<totfact> 0.66934308E-01</totfact>
</mgrwt>
</event>
<event>
12    4  0.4486176E-008  0.2487571E+04  0.7818608E-02  0.8407427E-01
         -4   -1    0    0    0  501 -0.00000000000E+00  0.00000000000E+00  0.17345910277E+04  0.17345910277E+04  0.00000000000E+00 0.  1.
          1   -1    0    0  501    0  0.00000000000E+00 -0.00000000000E+00 -0.89185443641E+03  0.89185443641E+03  0.00000000000E+00 0. -1.
        -24    2    1    2    0    0  0.81015645463E+02 -0.59728859672E+02  0.15080028145E+04  0.15139808721E+04  0.89075929472E+02 0.  0.
        254    2    1    2    0    0 -0.81015645463E+02  0.59728859672E+02 -0.66526622314E+03  0.11124645920E+04  0.88592733867E+03 0.  0.
         23    2    4    4    0    0  0.79371959695E+02 -0.33261880163E+03 -0.56954751493E+03  0.66926215792E+03  0.81192912714E+02 0.  0.
         23    2    4    4    0    0 -0.16038760516E+03  0.39234766130E+03 -0.95718708211E+02  0.44320243412E+03  0.87209261500E+02 0.  0.
          1    1    3    3  502    0 -0.22429190803E+01  0.13851101073E+02  0.43793555108E+03  0.43816027956E+03  0.00000000000E+00 0. -1.
         -2    1    3    3    0  502  0.83258564543E+02 -0.73579960745E+02  0.10700672634E+04  0.10758205925E+04  0.00000000000E+00 0.  1.
         11    1    5    5    0    0  0.53808643991E+02 -0.30415297910E+03 -0.46792912316E+03  0.56068000603E+03  0.00000000000E+00 0. -1.
        -11    1    5    5    0    0  0.25563315704E+02 -0.28465822529E+02 -0.10161839177E+03  0.10858215189E+03  0.00000000000E+00 0.  1.
          4    1    6    6  503    0 -0.88899114240E+02  0.24484419754E+03 -0.16116579800E+02  0.26098175746E+03  0.00000000000E+00 0. -1.
         -4    1    6    6    0  503 -0.71488490918E+02  0.14750346376E+03 -0.79602128411E+02  0.18222067666E+03  0.00000000000E+00 0.  1.
<mgrwt>
<rscale>  0 0.24875713E+04</rscale>
<asrwt>0</asrwt>
<pdfrwt beam="1">  1        1 0.13720837E+00 0.24875713E+04</pdfrwt>
<pdfrwt beam="2">  1       -4 0.26686016E+00 0.24875713E+04</pdfrwt>
<totfact> 0.39171780E-01</totfact>
</mgrwt>
</event>
<event>
12    4  0.4486176E-008  0.2045325E+04  0.7818608E-02  0.8585718E-01
          1   -1    0    0  501    0  0.00000000000E+00  0.00000000000E+00  0.28607314680E+04  0.28607314680E+04  0.00000000000E+00 0. -1.
         -2   -1    0    0    0  501 -0.00000000000E+00 -0.00000000000E+00 -0.36558424858E+03  0.36558424858E+03  0.00000000000E+00 0.  1.
        -24    2    1    2    0    0  0.68704035361E+02  0.25754984686E+03  0.22326144555E+04  0.22500309813E+04  0.83785094667E+02 0.  0.
        254    2    1    2    0    0 -0.68704035361E+02 -0.25754984686E+03  0.26253276398E+03  0.97628473529E+03  0.90175177521E+03 0.  0.
         23    2    4    4    0    0  0.28685498097E+03  0.15282657464E+03 -0.52233677491E+02  0.34151958104E+03  0.90914933561E+02 0.  0.
         23    2    4    4    0    0 -0.35555901633E+03 -0.41037642150E+03  0.31476644148E+03  0.63476515425E+03  0.94962450204E+02 0.  0.
          1    1    3    3  502    0  0.74408879546E+02  0.17721432770E+03  0.17758219767E+04  0.17861929605E+04  0.00000000000E+00 0. -1.
         -2    1    3    3    0  502 -0.57048441849E+01  0.80335519156E+02  0.45679247876E+03  0.46383802080E+03  0.00000000000E+00 0.  1.
         11    1    5    5    0    0  0.78715464022E+02 -0.67792833499E+00 -0.16656308144E+02  0.80461273070E+02  0.00000000000E+00 0. -1.
        -11    1    5    5    0    0  0.20813951695E+03  0.15350450298E+03 -0.35577369346E+02  0.26105830797E+03  0.00000000000E+00 0.  1.
          4    1    6    6  503    0 -0.94298127065E+02 -0.82055537076E+02  0.11579555297E+03  0.17039324523E+03  0.00000000000E+00 0. -1.
         -4    1    6    6    0  503 -0.26126088927E+03 -0.32832088443E+03  0.19897088850E+03  0.46437190902E+03  0.00000000000E+00 0.  1.
<mgrwt>
<rscale>  0 0.20453248E+04</rscale>
<asrwt>0</asrwt>
<pdfrwt beam="1">  1        1 0.44011252E+00 0.20453248E+04</pdfrwt>
<pdfrwt beam="2">  1       -2 0.56243732E-01 0.20453248E+04</pdfrwt>
<totfact> 0.18185940E+00</totfact>
</mgrwt>
</event>
<event>
12    4  0.4486176E-008  0.1823827E+04  0.7818608E-02  0.8693730E-01
         -2   -1    0    0    0  501 -0.00000000000E+00  0.00000000000E+00  0.18585402001E+04  0.18585402001E+04  0.00000000000E+00 0.  1.
          1   -1    0    0  501    0  0.00000000000E+00 -0.00000000000E+00 -0.44744051097E+03  0.44744051097E+03  0.00000000000E+00 0. -1.
        -24    2    1    2    0    0  0.31933668327E+03 -0.22400627388E+03  0.12478043919E+04  0.13098913028E+04  0.81515009853E+02 0.  0.
        254    2    1    2    0    0 -0.31933668327E+03  0.22400627388E+03  0.16329529730E+03  0.99608940827E+03  0.90187251158E+03 0.  0.
         23    2    4    4    0    0  0.49913359862E+02 -0.24433518968E+03  0.27505965318E+03  0.38198674799E+03  0.89805536696E+02 0.  0.
         23    2    4    4    0    0 -0.36925004313E+03  0.46834146356E+03 -0.11176435589E+03  0.61410266028E+03  0.94559427261E+02 0.  0.
          3    1    3    3  502    0  0.53230853358E+02 -0.84545897569E+01  0.22135387615E+03  0.22782129471E+03  0.00000000000E+00 0. -1.
         -4    1    3    3    0  502  0.26610582991E+03 -0.21555168412E+03  0.10264505157E+04  0.10820700081E+04  0.00000000000E+00 0.  1.
         11    1    5    5    0    0  0.43489246641E+02 -0.85498646356E+02  0.55182800040E+02  0.11066379048E+03  0.00000000000E+00 0.  1.
        -11    1    5    5    0    0  0.64241132217E+01 -0.15883654332E+03  0.21987685314E+03  0.27132295751E+03  0.00000000000E+00 0. -1.
          3    1    6    6  503    0 -0.29058452403E+03  0.32086052639E+03 -0.11124630178E+03  0.44695255079E+03  0.00000000000E+00 0. -1.
         -3    1    6    6    0  503 -0.78665519101E+02  0.14748093717E+03 -0.51805410808E+00  0.16715010949E+03  0.00000000000E+00 0.  1.
<mgrwt>
<rscale>  0 0.18238269E+04</rscale>
<asrwt>0</asrwt>
<pdfrwt beam="1">  1        1 0.68837003E-01 0.18238269E+04</pdfrwt>
<pdfrwt beam="2">  1       -2 0.28592926E+00 0.18238269E+04</pdfrwt>
<totfact> 0.16489594E+00</totfact>
</mgrwt>
</event>
<event>
12    4  0.4486176E-008  0.1940987E+04  0.7818608E-02  0.8634719E-01
         -2   -1    0    0    0  501 -0.00000000000E+00  0.00000000000E+00  0.48082397174E+03  0.48082397174E+03  0.00000000000E+00 0.  1.
          1   -1    0    0  501    0  0.00000000000E+00 -0.00000000000E+00 -0.19588413127E+04  0.19588413127E+04  0.00000000000E+00 0. -1.
        -24    2    1    2    0    0  0.49005379419E+03 -0.49656562180E+03 -0.95412061446E+03  0.11846001888E+04  0.78748475932E+02 0.  0.
        254    2    1    2    0    0 -0.49005379419E+03  0.49656562180E+03 -0.52389672646E+03  0.12550650956E+04  0.90221420750E+03 0.  0.
         23    2    4    4    0    0  0.63803926277E+02  0.34115503037E+03 -0.56707459738E+03  0.67106100848E+03  0.91058126239E+02 0.  0.
         23    2    4    4    0    0 -0.55385772047E+03  0.15541059143E+03  0.43177870926E+02  0.58400408710E+03  0.91025374316E+02 0.  0.
          3    1    3    3  502    0  0.27321846087E+03 -0.24655253556E+03 -0.44635420561E+03  0.57850545116E+03  0.00000000000E+00 0. -1.
         -4    1    3    3    0  502  0.21683533331E+03 -0.25001308624E+03 -0.50776640886E+03  0.60609473767E+03  0.00000000000E+00 0.  1.
         11    1    5    5    0    0  0.15080113923E+02  0.42265805581E+02 -0.14358510223E+03  0.15043433697E+03  0.00000000000E+00 0.  1.
        -11    1    5    5    0    0  0.48723812355E+02  0.29888922479E+03 -0.42348949515E+03  0.52062667151E+03  0.00000000000E+00 0. -1.
          1    1    6    6  503    0 -0.52342726020E+03  0.12271627160E+03  0.36689023031E+02  0.53887054516E+03  0.00000000000E+00 0. -1.
         -1    1    6    6    0  503 -0.30430460269E+02  0.32694319830E+02  0.64888478944E+01  0.45133541943E+02  0.00000000000E+00 0.  1.
<mgrwt>
<rscale>  0 0.19409872E+04</rscale>
<asrwt>0</asrwt>
<pdfrwt beam="1">  1        1 0.30136020E+00 0.19409872E+04</pdfrwt>
<pdfrwt beam="2">  1       -2 0.73972920E-01 0.19409872E+04</pdfrwt>
<totfact> 0.42837057E+00</totfact>
</mgrwt>
</event>
<event>
12    4  0.4486176E-008  0.1220671E+04  0.7818608E-02  0.9094953E-01
          1   -1    0    0  501    0  0.00000000000E+00  0.00000000000E+00  0.18987823185E+04  0.18987823185E+04  0.00000000000E+00 0. -1.
         -2   -1    0    0    0  501 -0.00000000000E+00 -0.00000000000E+00 -0.19618338494E+03  0.19618338494E+03  0.00000000000E+00 0.  1.
        -24    2    1    2    0    0  0.25523057340E+03  0.73158504443E+02  0.50838689924E+03  0.57948742596E+03  0.82786624306E+02 0.  0.
        254    2    1    2    0    0 -0.25523057340E+03 -0.73158504443E+02  0.11942120344E+04  0.15154782775E+04  0.89444799415E+03 0.  0.
         23    2    4    4    0    0  0.30662711512E+03 -0.84067832719E+02  0.25731300300E+03  0.41916170346E+03  0.91645861375E+02 0.  0.
         23    2    4    4    0    0 -0.56185768852E+03  0.10909328277E+02  0.93689903136E+03  0.10963165741E+04  0.91253273891E+02 0.  0.
          3    1    3    3  502    0  0.14994469879E+03  0.19899232233E+02  0.21157546652E+03  0.26008377530E+03  0.00000000000E+00 0. -1.
         -4    1    3    3    0  502  0.10528587461E+03  0.53259272210E+02  0.29681143271E+03  0.31940365066E+03  0.00000000000E+00 0.  1.
         11    1    5    5    0    0  0.24168666754E+03 -0.99395383180E+02  0.18153061883E+03  0.31819059231E+03  0.00000000000E+00 0. -1.
        -11    1    5    5    0    0  0.64940447583E+02  0.15327550461E+02  0.75782384173E+02  0.10097111115E+03  0.00000000000E+00 0.  1.
          4    1    6    6  503    0 -0.47697446083E+03  0.35635929597E+02  0.82598751863E+03  0.95447888227E+03  0.00000000000E+00 0. -1.
         -4    1    6    6    0  503 -0.84883227691E+02 -0.24726601320E+02  0.11091151273E+03  0.14183769179E+03  0.00000000000E+00 0.  1.
<mgrwt>
<rscale>  0 0.12206712E+04</rscale>
<asrwt>0</asrwt>
<pdfrwt beam="1">  1        1 0.29212034E+00 0.12206712E+04</pdfrwt>
<pdfrwt beam="2">  1       -2 0.30182061E-01 0.12206712E+04</pdfrwt>
<totfact> 0.30739742E+01</totfact>
</mgrwt>
</event>
<event>
12    4  0.4486176E-008  0.1899461E+04  0.7818608E-02  0.8655125E-01
         -2   -1    0    0    0  501 -0.00000000000E+00  0.00000000000E+00  0.15177745398E+04  0.15177745398E+04  0.00000000000E+00 0.  1.
          1   -1    0    0  501    0  0.00000000000E+00 -0.00000000000E+00 -0.59428296419E+03  0.59428296419E+03  0.00000000000E+00 0. -1.
        -24    2    1    2    0    0  0.17199475588E+03  0.71629069146E+03  0.40482437687E+03  0.84435202058E+03  0.79956287042E+02 0.  0.
        254    2    1    2    0    0 -0.17199475588E+03 -0.71629069146E+03  0.51866719871E+03  0.12677054834E+04  0.89185591821E+03 0.  0.
         23    2    4    4    0    0  0.20101863719E+03 -0.71093243030E+03  0.47111354712E+03  0.88162848847E+03  0.97403308230E+02 0.  0.
         23    2    4    4    0    0 -0.37301339307E+03 -0.53582611621E+01  0.47553651588E+02  0.38607699491E+03  0.87329226782E+02 0.  0.
          1    1    3    3  502    0  0.96764174372E+02  0.47933277898E+03  0.30577713243E+03  0.57673466444E+03  0.00000000000E+00 0. -1.
         -2    1    3    3    0  502  0.75230581507E+02  0.23695791247E+03  0.99047244436E+02  0.26761735614E+03  0.00000000000E+00 0.  1.
         11    1    5    5    0    0  0.39929480005E+02 -0.76569043115E+02  0.87778105141E+02  0.12313479394E+03  0.00000000000E+00 0.  1.
        -11    1    5    5    0    0  0.16108915718E+03 -0.63436338718E+03  0.38333544198E+03  0.75849369453E+03  0.00000000000E+00 0. -1.
          2    1    6    6  503    0 -0.28549592467E+03  0.31261435498E+02  0.23240764883E+02  0.28814116940E+03  0.00000000000E+00 0. -1.
         -2    1    6    6    0  503 -0.87517468399E+02 -0.36619696660E+02  0.24312886705E+02  0.97935825510E+02  0.00000000000E+00 0.  1.
<mgrwt>
<rscale>  0 0.18994605E+04</rscale>
<asrwt>0</asrwt>
<pdfrwt beam="1">  1        1 0.91428149E-01 0.18994605E+04</pdfrwt>
<pdfrwt beam="2">  1       -2 0.23350377E+00 0.18994605E+04</pdfrwt>
<totfact> 0.23116012E+00</totfact>
</mgrwt>
</event>
<event>
12    4  0.4486176E-008  0.1726125E+04  0.7818608E-02  0.8746603E-01
         -2   -1    0    0    0  501 -0.00000000000E+00  0.00000000000E+00  0.18495122178E+03  0.18495122178E+03  0.00000000000E+00 0.  1.
          1   -1    0    0  501    0  0.00000000000E+00 -0.00000000000E+00 -0.40274231442E+04  0.40274231442E+04  0.00000000000E+00 0. -1.
        -24    2    1    2    0    0 -0.36762417109E+03  0.35662738018E+03 -0.23689736736E+04  0.24249998687E+04  0.79104219757E+02 0.  0.
        254    2    1    2    0    0  0.36762417109E+03 -0.35662738018E+03 -0.14734982488E+04  0.17873744973E+04  0.87245623658E+03 0.  0.
         23    2    4    4    0    0  0.47384894322E+02  0.13885307346E+03 -0.10289599191E+04  0.10430511459E+04  0.87588090691E+02 0.  0.
         23    2    4    4    0    0  0.32023927677E+03 -0.49548045364E+03 -0.44453832976E+03  0.74432335140E+03  0.91372044346E+02 0.  0.
          1    1    3    3  502    0 -0.28977391933E+03  0.31864378351E+03 -0.20238338320E+04  0.20691559063E+04  0.00000000000E+00 0. -1.
         -2    1    3    3    0  502 -0.77850251759E+02  0.37983596677E+02 -0.34513984161E+03  0.35584396241E+03  0.00000000000E+00 0.  1.
         11    1    5    5    0    0 -0.46785203998E+01  0.10903080875E+03 -0.73202471494E+03  0.74011471346E+03  0.00000000000E+00 0. -1.
        -11    1    5    5    0    0  0.52063414722E+02  0.29822264711E+02 -0.29693520415E+03  0.30293643242E+03  0.00000000000E+00 0.  1.
          2    1    6    6  503    0  0.83682408975E+02 -0.72153898821E+02 -0.10418624610E+03  0.15186739138E+03  0.00000000000E+00 0. -1.
         -2    1    6    6    0  503  0.23655686780E+03 -0.42332655482E+03 -0.34035208366E+03  0.59245596003E+03  0.00000000000E+00 0.  1.
<mgrwt>
<rscale>  0 0.17261249E+04</rscale>
<asrwt>0</asrwt>
<pdfrwt beam="1">  1        1 0.61960362E+00 0.17261249E+04</pdfrwt>
<pdfrwt beam="2">  1       -2 0.28454032E-01 0.17261249E+04</pdfrwt>
<totfact> 0.86807622E-01</totfact>
</mgrwt>
</event>
<event>
12    4  0.4486176E-008  0.4230340E+04  0.7818608E-02  0.7959626E-01
          1   -1    0    0  501    0  0.00000000000E+00  0.00000000000E+00  0.10749450726E+04  0.10749450726E+04  0.00000000000E+00 0. -1.
         -2   -1    0    0    0  501 -0.00000000000E+00 -0.00000000000E+00 -0.41620217460E+04  0.41620217460E+04  0.00000000000E+00 0.  1.
        -24    2    1    2    0    0 -0.19223537844E+04 -0.57947754012E+03 -0.12201130581E+04  0.23507586864E+04  0.78436187566E+02 0.  0.
        254    2    1    2    0    0  0.19223537844E+04  0.57947754012E+03 -0.18669636153E+04  0.28862081322E+04  0.90189020933E+03 0.  0.
         23    2    4    4    0    0  0.13172732581E+04  0.80484078743E+03 -0.13702214759E+04  0.20662696067E+04  0.94792746923E+02 0.  0.
         23    2    4    4    0    0  0.60508052625E+03 -0.22536324731E+03 -0.49674213938E+03  0.81993852548E+03  0.92926831714E+02 0.  0.
          3    1    3    3  502    0 -0.56981778066E+03 -0.13460176549E+03 -0.35327057978E+03  0.68382018175E+03  0.00000000000E+00 0. -1.
         -4    1    3    3    0  502 -0.13525360037E+04 -0.44487577464E+03 -0.86684247835E+03  0.16669385047E+04  0.00000000000E+00 0.  1.
         11    1    5    5    0    0  0.11993291133E+04  0.71129388383E+03 -0.12070220056E+04  0.18442427805E+04  0.00000000000E+00 0.  1.
        -11    1    5    5    0    0  0.11794414477E+03  0.93546903594E+02 -0.16319947031E+03  0.22202682623E+03  0.00000000000E+00 0. -1.
          3    1    6    6  503    0  0.27684322288E+03 -0.65307924762E+02 -0.18067584780E+03  0.33697337739E+03  0.00000000000E+00 0. -1.
         -3    1    6    6    0  503  0.32823730336E+03 -0.16005532254E+03 -0.31606629159E+03  0.48296514809E+03  0.00000000000E+00 0.  1.
<mgrwt>
<rscale>  0 0.42303403E+04</rscale>
<asrwt>0</asrwt>
<pdfrwt beam="1">  1        1 0.16537617E+00 0.42303403E+04</pdfrwt>
<pdfrwt beam="2">  1       -2 0.64031103E+00 0.42303403E+04</pdfrwt>
<totfact> 0.32368153E-03</totfact>
</mgrwt>
</event>
<event>
12    4  0.4486176E-008  0.3190497E+04  0.7818608E-02  0.8191331E-01
         -2   -1    0    0    0  501 -0.00000000000E+00  0.00000000000E+00  0.14595142007E+04  0.14595142007E+04  0.00000000000E+00 0.  1.
          1   -1    0    0  501    0  0.00000000000E+00 -0.00000000000E+00 -0.17436058277E+04  0.17436058277E+04  0.00000000000E+00 0. -1.
        -24    2    1    2    0    0 -0.97461027830E+03  0.53388316566E+01  0.94022241680E+03  0.13566211647E+04  0.80678955010E+02 0.  0.
        254    2    1    2    0    0  0.97461027830E+03 -0.53388316566E+01 -0.12243140438E+04  0.18464988637E+04  0.98016298544E+03 0.  0.
         23    2    4    4    0    0  0.28411680407E+03 -0.92930697641E+02 -0.10868085797E+04  0.11308839960E+04  0.91581933557E+02 0.  0.
         23    2    4    4    0    0  0.69049347423E+03  0.87591865984E+02 -0.13750546413E+03  0.71561486771E+03  0.93505685819E+02 0.  0.
          3    1    3    3  502    0 -0.92242166178E+02  0.17051822333E+02  0.11536188616E+03  0.14868673997E+03  0.00000000000E+00 0. -1.
         -4    1    3    3    0  502 -0.88236811212E+03 -0.11712990677E+02  0.82486053064E+03  0.12079344247E+04  0.00000000000E+00 0.  1.
         11    1    5    5    0    0  0.23371510131E+03 -0.11076940345E+03 -0.87428946678E+03  0.91174266164E+03  0.00000000000E+00 0. -1.
        -11    1    5    5    0    0  0.50401702755E+02  0.17838705812E+02 -0.21251911291E+03  0.21914133434E+03  0.00000000000E+00 0.  1.
          2    1    6    6  503    0  0.18227075246E+03  0.58876119180E+02 -0.59956772399E+02  0.20070834354E+03  0.00000000000E+00 0. -1.
         -2    1    6    6    0  503  0.50822272177E+03  0.28715746804E+02 -0.77548691731E+02  0.51490652417E+03  0.00000000000E+00 0.  1.
<mgrwt>
<rscale>  0 0.31904968E+04</rscale>
<asrwt>0</asrwt>
<pdfrwt beam="1">  1        1 0.26824705E+00 0.31904968E+04</pdfrwt>
<pdfrwt beam="2">  1       -2 0.22454065E+00 0.31904968E+04</pdfrwt>
<totfact> 0.30298979E-01</totfact>
</mgrwt>
</event>
<event>
12    4  0.4486176E-008  0.1429436E+04  0.7818608E-02  0.8932783E-01
         -2   -1    0    0    0  501 -0.00000000000E+00  0.00000000000E+00  0.90868384179E+03  0.90868384179E+03  0.00000000000E+00 0.  1.
          1   -1    0    0  501    0  0.00000000000E+00 -0.00000000000E+00 -0.56215573643E+03  0.56215573643E+03  0.00000000000E+00 0. -1.
        -24    2    1    2    0    0  0.19224779093E+03  0.22940437867E+03  0.39060861742E+03  0.49846087987E+03  0.79388756652E+02 0.  0.
        254    2    1    2    0    0 -0.19224779093E+03 -0.22940437867E+03 -0.44080512059E+02  0.97237869835E+03  0.92411669144E+03 0.  0.
         23    2    4    4    0    0 -0.23890623462E+03 -0.14223019351E+03  0.40733369409E+03  0.50143369912E+03  0.90605735936E+02 0.  0.
         23    2    4    4    0    0  0.46658443681E+02 -0.87174185163E+02 -0.45141420615E+03  0.47094499924E+03  0.90763747513E+02 0.  0.
          3    1    3    3  502    0  0.33476846408E+02  0.71887905985E+02  0.15187541390E+03  0.17133216750E+03  0.00000000000E+00 0. -1.
         -4    1    3    3    0  502  0.15877094453E+03  0.15751647268E+03  0.23873320352E+03  0.32712871237E+03  0.00000000000E+00 0.  1.
         11    1    5    5    0    0 -0.22616479307E+03 -0.12111009346E+03  0.31707876684E+03  0.40786898968E+03  0.00000000000E+00 0. -1.
        -11    1    5    5    0    0 -0.12741441543E+02 -0.21120100049E+02  0.90254927250E+02  0.93564709434E+02  0.00000000000E+00 0.  1.
          3    1    6    6  503    0  0.70619674120E+02 -0.71879481818E+02 -0.39656726342E+03  0.40916914925E+03  0.00000000000E+00 0. -1.
         -3    1    6    6    0  503 -0.23961230440E+02 -0.15294703345E+02 -0.54846942732E+02  0.61775849987E+02  0.00000000000E+00 0.  1.
<mgrwt>
<rscale>  0 0.14294360E+04</rscale>
<asrwt>0</asrwt>
<pdfrwt beam="1">  1        1 0.86485498E-01 0.14294360E+04</pdfrwt>
<pdfrwt beam="2">  1       -2 0.13979751E+00 0.14294360E+04</pdfrwt>
<totfact> 0.11531701E+01</totfact>
</mgrwt>
</event>
<event>
12    4  0.4486176E-008  0.1985581E+04  0.7818608E-02  0.8613392E-01
          1   -1    0    0  501    0  0.00000000000E+00  0.00000000000E+00  0.50744510961E+03  0.50744510961E+03  0.00000000000E+00 0. -1.
         -2   -1    0    0    0  501 -0.00000000000E+00 -0.00000000000E+00 -0.19423443693E+04  0.19423443693E+04  0.00000000000E+00 0.  1.
        -24    2    1    2    0    0  0.75407320101E+03  0.17432454069E+01 -0.88567133210E+03  0.11659932937E+04  0.80605341217E+02 0.  0.
        254    2    1    2    0    0 -0.75407320101E+03 -0.17432454069E+01 -0.54922792764E+03  0.12837961853E+04  0.88195912457E+03 0.  0.
         23    2    4    4    0    0 -0.61870196364E+02  0.18164504020E+03  0.16300870150E+03  0.26943183527E+03  0.95910558679E+02 0.  0.
         23    2    4    4    0    0 -0.69220300465E+03 -0.18338828561E+03 -0.71223662914E+03  0.10143643500E+04  0.94221843096E+02 0.  0.
          1    1    3    3  502    0  0.72405972152E+03 -0.35972789164E+01 -0.82217369200E+03  0.10955569362E+04  0.00000000000E+00 0. -1.
         -2    1    3    3    0  502  0.30013479492E+02  0.53405243233E+01 -0.63497640097E+02  0.70436357438E+02  0.00000000000E+00 0.  1.
         11    1    5    5    0    0 -0.22450659105E+02 -0.35267287366E+01  0.60748681138E+01  0.23523901301E+02  0.00000000000E+00 0.  1.
        -11    1    5    5    0    0 -0.39419537259E+02  0.18517176894E+03  0.15693383338E+03  0.24590793397E+03  0.00000000000E+00 0. -1.
          2    1    6    6  503    0 -0.39378850418E+03 -0.15059895539E+03 -0.39844196865E+03  0.58009088406E+03  0.00000000000E+00 0. -1.
         -2    1    6    6    0  503 -0.29841450046E+03 -0.32789330221E+02 -0.31379466049E+03  0.43427346593E+03  0.00000000000E+00 0.  1.
<mgrwt>
<rscale>  0 0.19855812E+04</rscale>
<asrwt>0</asrwt>
<pdfrwt beam="1">  1        1 0.78068479E-01 0.19855812E+04</pdfrwt>
<pdfrwt beam="2">  1       -2 0.29882221E+00 0.19855812E+04</pdfrwt>
<totfact> 0.11420999E+00</totfact>
</mgrwt>
</event>
<event>
12    4  0.4486176E-008  0.1502746E+04  0.7818608E-02  0.8882629E-01
         -4   -1    0    0    0  501 -0.00000000000E+00  0.00000000000E+00  0.16297352807E+04  0.16297352807E+04  0.00000000000E+00 0.  1.
          3   -1    0    0  501    0  0.00000000000E+00 -0.00000000000E+00 -0.34641286087E+03  0.34641286087E+03  0.00000000000E+00 0. -1.
        -24    2    1    2    0    0  0.30787521661E+03 -0.21243963904E+03  0.78475322772E+03  0.87372049755E+03  0.87362063774E+02 0.  0.
        254    2    1    2    0    0 -0.30787521661E+03  0.21243963904E+03  0.49856919211E+03  0.11024276440E+04  0.90931717334E+03 0.  0.
         23    2    4    4    0    0 -0.22498453589E+03 -0.30386048239E+02  0.71439669952E+03  0.75433285866E+03  0.84344911236E+02 0.  0.
         23    2    4    4    0    0 -0.82890680720E+02  0.24282568728E+03 -0.21582750741E+03  0.34809478536E+03  0.93559004296E+02 0.  0.
          1    1    3    3  502    0  0.50592890550E+02 -0.24999184362E+02  0.61230986349E+02  0.83269643221E+02  0.00000000000E+00 0. -1.
         -2    1    3    3    0  502  0.25728232606E+03 -0.18744045468E+03  0.72352224138E+03  0.79045085433E+03  0.00000000000E+00 0.  1.
         11    1    5    5    0    0 -0.23247012926E+03 -0.29515681259E+02  0.69802410992E+03  0.73630917044E+03  0.00000000000E+00 0. -1.
        -11    1    5    5    0    0  0.74855933777E+01 -0.87036698022E+00  0.16372589600E+02  0.18023688222E+02  0.00000000000E+00 0.  1.
          4    1    6    6  503    0 -0.19468451299E+02  0.17774100902E+03 -0.16825090686E+03  0.24551833850E+03  0.00000000000E+00 0. -1.
         -4    1    6    6    0  503 -0.63422229421E+02  0.65084678264E+02 -0.47576600552E+02  0.10257644686E+03  0.00000000000E+00 0.  1.
<mgrwt>
<rscale>  0 0.15027458E+04</rscale>
<asrwt>0</asrwt>
<pdfrwt beam="1">  1        3 0.53294287E-01 0.15027458E+04</pdfrwt>
<pdfrwt beam="2">  1       -4 0.25072850E+00 0.15027458E+04</pdfrwt>
<totfact> 0.48138220E-01</totfact>
</mgrwt>
</event>
<event>
12    4  0.4486176E-008  0.3231379E+04  0.7818608E-02  0.8180579E-01
          1   -1    0    0  501    0  0.00000000000E+00  0.00000000000E+00  0.21616586670E+04  0.21616586670E+04  0.00000000000E+00 0. -1.
         -2   -1    0    0    0  501 -0.00000000000E+00 -0.00000000000E+00 -0.12076156446E+04  0.12076156446E+04  0.00000000000E+00 0.  1.
        -24    2    1    2    0    0  0.47647965686E+03 -0.12273763197E+04 -0.30386993798E+03  0.13536023181E+04  0.80104948328E+02 0.  0.
        254    2    1    2    0    0 -0.47647965686E+03  0.12273763197E+04  0.12579129604E+04  0.20156719935E+04  0.86435124557E+03 0.  0.
         23    2    4    4    0    0 -0.12500878923E+03 -0.72995817965E+02 -0.51692789834E+01  0.16693707422E+03  0.82979988431E+02 0.  0.
         23    2    4    4    0    0 -0.35147086763E+03  0.13003721377E+04  0.12630822394E+04  0.18487349193E+04  0.89132434866E+02 0.  0.
          1    1    3    3  502    0  0.22329623675E+03 -0.47801040422E+03 -0.13947283852E+03  0.54571771877E+03  0.00000000000E+00 0. -1.
         -2    1    3    3    0  502  0.25318342011E+03 -0.74936591552E+03 -0.16439709946E+03  0.80788459935E+03  0.00000000000E+00 0.  1.
         11    1    5    5    0    0 -0.12911597505E+03 -0.78475506160E+02  0.88310401111E+01  0.15135166781E+03  0.00000000000E+00 0.  1.
        -11    1    5    5    0    0  0.41071858259E+01  0.54796881946E+01 -0.14000319095E+02  0.15585406407E+02  0.00000000000E+00 0. -1.
          4    1    6    6  503    0 -0.12193610486E+02  0.13382033687E+03  0.10827288189E+03  0.17256762051E+03  0.00000000000E+00 0. -1.
         -4    1    6    6    0  503 -0.33927725715E+03  0.11665518008E+04  0.11548093575E+04  0.16761672987E+04  0.00000000000E+00 0.  1.
<mgrwt>
<rscale>  0 0.32313792E+04</rscale>
<asrwt>0</asrwt>
<pdfrwt beam="1">  1        1 0.33256287E+00 0.32313792E+04</pdfrwt>
<pdfrwt beam="2">  1       -2 0.18578702E+00 0.32313792E+04</pdfrwt>
<totfact> 0.28099154E-01</totfact>
</mgrwt>
</event>
<event>
12    4  0.4486176E-008  0.1702580E+04  0.7818608E-02  0.8759894E-01
         -2   -1    0    0    0  501 -0.00000000000E+00  0.00000000000E+00  0.34174290816E+03  0.34174290816E+03  0.00000000000E+00 0.  1.
          1   -1    0    0  501    0  0.00000000000E+00 -0.00000000000E+00 -0.21205855336E+04  0.21205855336E+04  0.00000000000E+00 0. -1.
        -24    2    1    2    0    0 -0.68109159421E+02 -0.19001862908E+02  0.22895543793E+03  0.25924767445E+03  0.98938545370E+02 0.  0.
        254    2    1    2    0    0  0.68109159421E+02  0.19001862908E+02 -0.20077980633E+04  0.22030807673E+04  0.90405302696E+03 0.  0.
         23    2    4    4    0    0 -0.33610133131E+03 -0.23511114508E+03 -0.88374249709E+03  0.97859093078E+03  0.91640892562E+02 0.  0.
         23    2    4    4    0    0  0.40421049073E+03  0.25411300798E+03 -0.11240555663E+04  0.12244898365E+04  0.88965735007E+02 0.  0.
          1    1    3    3  502    0 -0.17446826757E+02  0.29246411446E+02  0.21405550359E+02  0.40223648921E+02  0.00000000000E+00 0. -1.
         -2    1    3    3    0  502 -0.50662332664E+02 -0.48248274354E+02  0.20754988757E+03  0.21902402553E+03  0.00000000000E+00 0.  1.
         11    1    5    5    0    0 -0.21535093933E+03 -0.12924622784E+03 -0.43933165499E+03  0.50605623952E+03  0.00000000000E+00 0. -1.
        -11    1    5    5    0    0 -0.12075039198E+03 -0.10586491723E+03 -0.44441084210E+03  0.47253469126E+03  0.00000000000E+00 0.  1.
          3    1    6    6  503    0  0.73645876037E+01 -0.14426963722E+01 -0.29353754142E+01  0.80582226463E+01  0.00000000000E+00 0. -1.
         -3    1    6    6    0  503  0.39684590313E+03  0.25555570436E+03 -0.11211201908E+04  0.12164316138E+04  0.00000000000E+00 0.  1.
<mgrwt>
<rscale>  0 0.17025805E+04</rscale>
<asrwt>0</asrwt>
<pdfrwt beam="1">  1        1 0.32624394E+00 0.17025805E+04</pdfrwt>
<pdfrwt beam="2">  1       -2 0.52575830E-01 0.17025805E+04</pdfrwt>
<totfact> 0.70397159E+00</totfact>
</mgrwt>
</event>
<event>
12    4  0.4486176E-008  0.1076548E+04  0.7818608E-02  0.9228356E-01
         -2   -1    0    0    0  501 -0.00000000000E+00  0.00000000000E+00  0.15012416075E+04  0.15012416075E+04  0.00000000000E+00 0.  1.
          1   -1    0    0  501    0  0.00000000000E+00 -0.00000000000E+00 -0.19299962819E+03  0.19299962819E+03  0.00000000000E+00 0. -1.
        -24    2    1    2    0    0  0.89564712036E+02 -0.44856964509E+02 -0.26555099220E+02  0.13166584360E+03  0.81220294066E+02 0.  0.
        254    2    1    2    0    0 -0.89564712036E+02  0.44856964509E+02  0.13347970785E+04  0.15625753921E+04  0.80617903113E+03 0.  0.
         23    2    4    4    0    0  0.14403221303E+03 -0.24262606007E+03  0.10372304278E+04  0.10787590676E+04  0.90892694881E+02 0.  0.
         23    2    4    4    0    0 -0.23359692507E+03  0.28748302458E+03  0.29756665070E+03  0.48381632455E+03  0.91204777679E+02 0.  0.
          3    1    3    3  502    0  0.56520878240E+02 -0.23016200767E+02  0.25596153001E+02  0.66177928520E+02  0.00000000000E+00 0. -1.
         -2    1    3    3    0  502  0.33043833795E+02 -0.21840763742E+02 -0.52151252221E+02  0.65487915075E+02  0.00000000000E+00 0.  1.
         11    1    5    5    0    0  0.12980177589E+03 -0.23674650956E+03  0.10221473481E+04  0.10572050946E+04  0.00000000000E+00 0. -1.
        -11    1    5    5    0    0  0.14230437145E+02 -0.58795505127E+01  0.15083079705E+02  0.21553972927E+02  0.00000000000E+00 0.  1.
          3    1    6    6  503    0 -0.19187962851E+03  0.21926215278E+03  0.27519265963E+03  0.40078009356E+03  0.00000000000E+00 0. -1.
         -3    1    6    6    0  503 -0.41717296561E+02  0.68220871802E+02  0.22373991073E+02  0.83036230997E+02  0.00000000000E+00 0.  1.
<mgrwt>
<rscale>  0 0.10765483E+04</rscale>
<asrwt>0</asrwt>
<pdfrwt beam="1">  1        1 0.29692251E-01 0.10765483E+04</pdfrwt>
<pdfrwt beam="2">  1       -2 0.23096024E+00 0.10765483E+04</pdfrwt>
<totfact> 0.11457946E+01</totfact>
</mgrwt>
</event>
<event>
12    4  0.4486176E-008  0.2195015E+04  0.7818608E-02  0.8520506E-01
         -2   -1    0    0    0  501 -0.00000000000E+00  0.00000000000E+00  0.81901178197E+03  0.81901178197E+03  0.00000000000E+00 0.  1.
          1   -1    0    0  501    0  0.00000000000E+00 -0.00000000000E+00 -0.14707022556E+04  0.14707022556E+04  0.00000000000E+00 0. -1.
        -24    2    1    2    0    0  0.57537140612E+02  0.56389506644E+03 -0.95733608816E+03  0.11154673628E+04  0.80541190499E+02 0.  0.
        254    2    1    2    0    0 -0.57537140612E+02 -0.56389506644E+03  0.30564561457E+03  0.11742466747E+04  0.98191030284E+03 0.  0.
         23    2    4    4    0    0 -0.19049086782E+03 -0.73009197655E+03  0.46737520010E+03  0.89199729080E+03  0.88873641623E+02 0.  0.
         23    2    4    4    0    0  0.13295372720E+03  0.16619691011E+03 -0.16172958554E+03  0.28224938389E+03  0.90609874540E+02 0.  0.
          1    1    3    3  502    0 -0.24987482780E+00  0.32666002571E+03 -0.58974011477E+03  0.67416632800E+03  0.00000000000E+00 0. -1.
         -2    1    3    3    0  502  0.57787015440E+02  0.23723504073E+03 -0.36759597338E+03  0.44130103484E+03  0.00000000000E+00 0.  1.
         11    1    5    5    0    0 -0.21557703612E+02 -0.13828184137E+03  0.12543225633E+03  0.18793576872E+03  0.00000000000E+00 0. -1.
        -11    1    5    5    0    0 -0.16893316420E+03 -0.59181013518E+03  0.34194294378E+03  0.70406152208E+03  0.00000000000E+00 0.  1.
          1    1    6    6  503    0 -0.20714177512E+01  0.48256883484E+02 -0.56638639177E+02  0.74437578029E+02  0.00000000000E+00 0. -1.
         -1    1    6    6    0  503  0.13502514495E+03  0.11794002663E+03 -0.10509094636E+03  0.20781180586E+03  0.00000000000E+00 0.  1.
<mgrwt>
<rscale>  0 0.21950148E+04</rscale>
<asrwt>0</asrwt>
<pdfrwt beam="1">  1        1 0.22626188E+00 0.21950148E+04</pdfrwt>
<pdfrwt beam="2">  1       -2 0.12600181E+00 0.21950148E+04</pdfrwt>
<totfact> 0.25798168E+00</totfact>
</mgrwt>
</event>
<event>
12    4  0.4486176E-008  0.1989919E+04  0.7818608E-02  0.8611348E-01
          1   -1    0    0  501    0  0.00000000000E+00  0.00000000000E+00  0.92552805199E+03  0.92552805199E+03  0.00000000000E+00 0. -1.
         -2   -1    0    0    0  501 -0.00000000000E+00 -0.00000000000E+00 -0.10695998752E+04  0.10695998752E+04  0.00000000000E+00 0.  1.
        -24    2    1    2    0    0 -0.63512575285E+02 -0.46322755005E+03 -0.69453864089E+03  0.84123774306E+03  0.81752102810E+02 0.  0.
        254    2    1    2    0    0  0.63512575285E+02  0.46322755005E+03  0.55046681767E+03  0.11538901841E+04  0.89990845609E+03 0.  0.
         23    2    4    4    0    0  0.28275888626E+03  0.37198816398E+03  0.70940516348E+03  0.85396409053E+03  0.87585387208E+02 0.  0.
         23    2    4    4    0    0 -0.21924631098E+03  0.91239386068E+02 -0.15893834581E+03  0.29992609360E+03  0.91108141281E+02 0.  0.
          1    1    3    3  502    0  0.17779524123E+02 -0.89376952252E+02 -0.11357454617E+03  0.14561431458E+03  0.00000000000E+00 0. -1.
         -2    1    3    3    0  502 -0.81292099408E+02 -0.37385059780E+03 -0.58096409472E+03  0.69562342848E+03  0.00000000000E+00 0.  1.
         11    1    5    5    0    0  0.15758039866E+03  0.26805259348E+03  0.43011682346E+03  0.53073934915E+03  0.00000000000E+00 0. -1.
        -11    1    5    5    0    0  0.12517848760E+03  0.10393557050E+03  0.27928834001E+03  0.32322474138E+03  0.00000000000E+00 0.  1.
          1    1    6    6  503    0 -0.39173268645E+01  0.30302891371E+02 -0.19980792506E+02  0.36508118883E+02  0.00000000000E+00 0.  1.
         -1    1    6    6    0  503 -0.21532898411E+03  0.60936494696E+02 -0.13895755330E+03  0.26341797472E+03  0.00000000000E+00 0. -1.
<mgrwt>
<rscale>  0 0.19899193E+04</rscale>
<asrwt>0</asrwt>
<pdfrwt beam="1">  1        1 0.14238893E+00 0.19899193E+04</pdfrwt>
<pdfrwt beam="2">  1       -2 0.16455383E+00 0.19899193E+04</pdfrwt>
<totfact> 0.32914064E+00</totfact>
</mgrwt>
</event>
<event>
12    4  0.4486176E-008  0.1181451E+04  0.7818608E-02  0.9129249E-01
          1   -1    0    0  501    0  0.00000000000E+00  0.00000000000E+00  0.42824913378E+03  0.42824913378E+03  0.00000000000E+00 0. -1.
         -2   -1    0    0    0  501 -0.00000000000E+00 -0.00000000000E+00 -0.81484554425E+03  0.81484554425E+03  0.00000000000E+00 0.  1.
        -24    2    1    2    0    0 -0.74704633226E+02 -0.75521552787E+02 -0.29914682807E+03  0.32765020981E+03  0.81126740873E+02 0.  0.
        254    2    1    2    0    0  0.74704633226E+02  0.75521552787E+02 -0.87449582396E+02  0.91544446822E+03  0.90504522416E+03 0.  0.
         23    2    4    4    0    0 -0.32163474874E+03 -0.72790330027E+01 -0.29976729582E+03  0.44943162545E+03  0.92878729484E+02 0.  0.
         23    2    4    4    0    0  0.39633938196E+03  0.82800585790E+02  0.21231771342E+03  0.46601284277E+03  0.90268020335E+02 0.  0.
          3    1    3    3  502    0 -0.58188477230E+02 -0.50521579833E+02 -0.99924675324E+02  0.12618743856E+03  0.00000000000E+00 0. -1.
         -4    1    3    3    0  502 -0.16516155995E+02 -0.24999972954E+02 -0.19922215274E+03  0.20146277125E+03  0.00000000000E+00 0.  1.
         11    1    5    5    0    0 -0.27873355994E+03 -0.25006197719E+02 -0.21544758634E+03  0.35317894872E+03  0.00000000000E+00 0. -1.
        -11    1    5    5    0    0 -0.42901188794E+02  0.17727164717E+02 -0.84319709483E+02  0.96252676722E+02  0.00000000000E+00 0.  1.
          4    1    6    6  503    0  0.30804436801E+03  0.74224328676E+02  0.12234047608E+03  0.33965832202E+03  0.00000000000E+00 0. -1.
         -4    1    6    6    0  503  0.88295013951E+02  0.85762571143E+01  0.89977237342E+02  0.12635452075E+03  0.00000000000E+00 0.  1.
<mgrwt>
<rscale>  0 0.11814515E+04</rscale>
<asrwt>0</asrwt>
<pdfrwt beam="1">  1        1 0.65884482E-01 0.11814515E+04</pdfrwt>
<pdfrwt beam="2">  1       -2 0.12536085E+00 0.11814515E+04</pdfrwt>
<totfact> 0.22560305E+01</totfact>
</mgrwt>
</event>
<event>
12    4  0.4486176E-008  0.1466610E+04  0.7818608E-02  0.8906966E-01
         -2   -1    0    0    0  501 -0.00000000000E+00  0.00000000000E+00  0.13163167230E+04  0.13163167230E+04  0.00000000000E+00 0.  1.
          1   -1    0    0  501    0  0.00000000000E+00 -0.00000000000E+00 -0.40851568335E+03  0.40851568335E+03  0.00000000000E+00 0. -1.
        -24    2    1    2    0    0  0.17786973966E+03  0.13414869793E+02 -0.20906300558E+03  0.29028880180E+03  0.93502112965E+02 0.  0.
        254    2    1    2    0    0 -0.17786973966E+03 -0.13414869793E+02  0.11168640452E+04  0.14345436045E+04  0.88244685664E+03 0.  0.
         23    2    4    4    0    0 -0.17385534997E+03 -0.39695318958E+03  0.85095545542E+03  0.95911003548E+03  0.89271247484E+02 0.  0.
         23    2    4    4    0    0 -0.40143896844E+01  0.38353831978E+03  0.26590858980E+03  0.47543356905E+03  0.90619768188E+02 0.  0.
          3    1    3    3  502    0  0.12297919436E+03 -0.15981084058E+01 -0.19680859783E+03  0.23207770331E+03  0.00000000000E+00 0. -1.
         -4    1    3    3    0  502  0.54890545300E+02  0.15012978199E+02 -0.12254407756E+02  0.58211098488E+02  0.00000000000E+00 0.  1.
         11    1    5    5    0    0 -0.90390703963E+02 -0.16558834476E+03  0.46048319999E+03  0.49762913576E+03  0.00000000000E+00 0. -1.
        -11    1    5    5    0    0 -0.83464646007E+02 -0.23136484481E+03  0.39047225543E+03  0.46148089972E+03  0.00000000000E+00 0.  1.
          2    1    6    6  503    0  0.25932667073E+02  0.17829668362E+03  0.80922134572E+02  0.19751101861E+03  0.00000000000E+00 0. -1.
         -2    1    6    6    0  503 -0.29947056757E+02  0.20524163617E+03  0.18498645523E+03  0.27792255044E+03  0.00000000000E+00 0.  1.
<mgrwt>
<rscale>  0 0.14666097E+04</rscale>
<asrwt>0</asrwt>
<pdfrwt beam="1">  1        1 0.62848567E-01 0.14666097E+04</pdfrwt>
<pdfrwt beam="2">  1       -2 0.20251026E+00 0.14666097E+04</pdfrwt>
<totfact> 0.63268054E+00</totfact>
</mgrwt>
</event>
<event>
12    4  0.4486176E-008  0.3816656E+04  0.7818608E-02  0.8042590E-01
          1   -1    0    0  501    0  0.00000000000E+00  0.00000000000E+00  0.26756302611E+04  0.26756302611E+04  0.00000000000E+00 0. -1.
         -2   -1    0    0    0  501 -0.00000000000E+00 -0.00000000000E+00 -0.13610686390E+04  0.13610686390E+04  0.00000000000E+00 0.  1.
        -24    2    1    2    0    0 -0.70022549916E+03  0.15585600083E+04  0.22344824614E+02  0.17106906953E+04  0.80859846783E+02 0.  0.
        254    2    1    2    0    0  0.70022549916E+03 -0.15585600083E+04  0.12922167975E+04  0.23260082047E+04  0.90612629778E+03 0.  0.
         23    2    4    4    0    0  0.25805903294E+03 -0.14412539722E+04  0.99989726149E+03  0.17753714007E+04  0.91332361395E+02 0.  0.
         23    2    4    4    0    0  0.44216646622E+03 -0.11730603613E+03  0.29231953602E+03  0.55063680399E+03  0.92077623811E+02 0.  0.
          3    1    3    3  502    0 -0.41492414510E+03  0.84581632785E+03  0.36870437363E+02  0.94282911272E+03  0.00000000000E+00 0. -1.
         -4    1    3    3    0  502 -0.28530135406E+03  0.71274368044E+03 -0.14525612749E+02  0.76786158262E+03  0.00000000000E+00 0.  1.
         11    1    5    5    0    0  0.24706634950E+03 -0.12987811540E+04  0.92916366329E+03  0.16159267868E+04  0.00000000000E+00 0. -1.
        -11    1    5    5    0    0  0.10992683438E+02 -0.14247281817E+03  0.70733598200E+02  0.15944461396E+03  0.00000000000E+00 0.  1.
          2    1    6    6  503    0  0.39841938196E+03 -0.88517530714E+02  0.28491824585E+03  0.49774668656E+03  0.00000000000E+00 0. -1.
         -2    1    6    6    0  503  0.43747084256E+02 -0.28788505417E+02  0.74012901707E+01  0.52890117425E+02  0.00000000000E+00 0.  1.
<mgrwt>
<rscale>  0 0.38166564E+04</rscale>
<asrwt>0</asrwt>
<pdfrwt beam="1">  1        1 0.41163542E+00 0.38166564E+04</pdfrwt>
<pdfrwt beam="2">  1       -2 0.20939518E+00 0.38166564E+04</pdfrwt>
<totfact> 0.82486602E-02</totfact>
</mgrwt>
</event>
<event>
12    4  0.4486176E-008  0.1339048E+04  0.7818608E-02  0.8999160E-01
         -2   -1    0    0    0  501 -0.00000000000E+00  0.00000000000E+00  0.52010553902E+03  0.52010553902E+03  0.00000000000E+00 0.  1.
          1   -1    0    0  501    0  0.00000000000E+00 -0.00000000000E+00 -0.86186810173E+03  0.86186810173E+03  0.00000000000E+00 0. -1.
        -24    2    1    2    0    0 -0.18920501800E+03 -0.14683409691E+03  0.17612234975E+03  0.30756210541E+03  0.78845264606E+02 0.  0.
        254    2    1    2    0    0  0.18920501800E+03  0.14683409691E+03 -0.51788491246E+03  0.10744115353E+04  0.91038265244E+03 0.  0.
         23    2    4    4    0    0  0.40381025637E+02  0.17712119404E+03  0.22983539114E+03  0.30593446447E+03  0.88142185815E+02 0.  0.
         23    2    4    4    0    0  0.14882399236E+03 -0.30287097129E+02 -0.74772030360E+03  0.76847707087E+03  0.91681334452E+02 0.  0.
          3    1    3    3  502    0 -0.30101000335E+02 -0.47532096172E+02  0.77191142547E+02  0.95518809014E+02  0.00000000000E+00 0. -1.
         -4    1    3    3    0  502 -0.15910401767E+03 -0.99302000738E+02  0.98931207202E+02  0.21204329640E+03  0.00000000000E+00 0.  1.
         11    1    5    5    0    0 -0.16240354331E+02  0.40781874758E+01  0.69328426888E+01  0.18123052437E+02  0.00000000000E+00 0.  1.
        -11    1    5    5    0    0  0.56621379968E+02  0.17304300656E+03  0.22290254845E+03  0.28781141203E+03  0.00000000000E+00 0. -1.
          3    1    6    6  503    0  0.15641264246E+03 -0.18376485117E+02 -0.72347993678E+03  0.74042273659E+03  0.00000000000E+00 0. -1.
         -3    1    6    6    0  503 -0.75886500984E+01 -0.11910612013E+02 -0.24240366816E+02  0.28054334285E+02  0.00000000000E+00 0.  1.
<mgrwt>
<rscale>  0 0.13390480E+04</rscale>
<asrwt>0</asrwt>
<pdfrwt beam="1">  1        1 0.13259509E+00 0.13390480E+04</pdfrwt>
<pdfrwt beam="2">  1       -2 0.80016236E-01 0.13390480E+04</pdfrwt>
<totfact> 0.23217774E+01</totfact>
</mgrwt>
</event>
<event>
12    4  0.4486176E-008  0.1303673E+04  0.7818608E-02  0.9026658E-01
          1   -1    0    0  501    0  0.00000000000E+00  0.00000000000E+00  0.91339603226E+03  0.91339603226E+03  0.00000000000E+00 0. -1.
         -2   -1    0    0    0  501 -0.00000000000E+00 -0.00000000000E+00 -0.46517665595E+03  0.46517665595E+03  0.00000000000E+00 0.  1.
        -24    2    1    2    0    0 -0.34388494644E+03 -0.62861719121E+01  0.71856722679E+02  0.36004798258E+03  0.78579824529E+02 0.  0.
        254    2    1    2    0    0  0.34388494644E+03  0.62861719121E+01  0.37636265363E+03  0.10185247056E+04  0.88172975257E+03 0.  0.
         23    2    4    4    0    0 -0.13100758056E+02 -0.37176865992E+03  0.29760883153E+03  0.48502206153E+03  0.91059415799E+02 0.  0.
         23    2    4    4    0    0  0.35698570450E+03  0.37805483183E+03  0.78753822100E+02  0.53350264409E+03  0.89770026553E+02 0.  0.
          3    1    3    3  502    0 -0.24052716400E+03 -0.34267553292E+02  0.70436129604E+02  0.25296013556E+03  0.00000000000E+00 0. -1.
         -4    1    3    3    0  502 -0.10335778244E+03  0.27981381380E+02  0.14205930756E+01  0.10708784703E+03  0.00000000000E+00 0.  1.
         11    1    5    5    0    0  0.14669199141E+02 -0.10207960306E+03  0.38733085430E+02  0.11016207456E+03  0.00000000000E+00 0. -1.
        -11    1    5    5    0    0 -0.27769957197E+02 -0.26968905686E+03  0.25887574610E+03  0.37485998697E+03  0.00000000000E+00 0.  1.
          2    1    6    6  503    0  0.13302957722E+03  0.13192138317E+03  0.71857489987E+02  0.20065796426E+03  0.00000000000E+00 0. -1.
         -2    1    6    6    0  503  0.22395612728E+03  0.24613344866E+03  0.68963321137E+01  0.33284467983E+03  0.00000000000E+00 0.  1.
<mgrwt>
<rscale>  0 0.13036725E+04</rscale>
<asrwt>0</asrwt>
<pdfrwt beam="1">  1        1 0.14052247E+00 0.13036725E+04</pdfrwt>
<pdfrwt beam="2">  1       -2 0.71565640E-01 0.13036725E+04</pdfrwt>
<totfact> 0.27054702E+01</totfact>
</mgrwt>
</event>
<event>
12    4  0.4486176E-008  0.2393761E+04  0.7818608E-02  0.8441843E-01
          1   -1    0    0  501    0  0.00000000000E+00  0.00000000000E+00  0.91159227924E+03  0.91159227924E+03  0.00000000000E+00 0. -1.
         -2   -1    0    0    0  501 -0.00000000000E+00 -0.00000000000E+00 -0.15714515500E+04  0.15714515500E+04  0.00000000000E+00 0.  1.
        -24    2    1    2    0    0 -0.60907209179E+03 -0.37904672028E+03 -0.10244437786E+04  0.12531991968E+04  0.79862020547E+02 0.  0.
        254    2    1    2    0    0  0.60907209179E+03  0.37904672028E+03  0.36458450779E+03  0.12298446324E+04  0.93002727243E+03 0.  0.
         23    2    4    4    0    0  0.33445700799E+03  0.67315712580E+03  0.19929522979E+03  0.78309892740E+03  0.92321911083E+02 0.  0.
         23    2    4    4    0    0  0.27461508380E+03 -0.29411040552E+03  0.16528927800E+03  0.44674570504E+03  0.10171924433E+03 0.  0.
          3    1    3    3  502    0 -0.49562054545E+03 -0.33839779267E+03 -0.87875705928E+03  0.10641272294E+04  0.00000000000E+00 0. -1.
         -4    1    3    3    0  502 -0.11345154634E+03 -0.40648927613E+02 -0.14568671930E+03  0.18907196742E+03  0.00000000000E+00 0.  1.
         11    1    5    5    0    0  0.26037616660E+03  0.50241000258E+03  0.18933678319E+03  0.59670761374E+03  0.00000000000E+00 0.  1.
        -11    1    5    5    0    0  0.74080841382E+02  0.17074712322E+03  0.99584466034E+01  0.18639131366E+03  0.00000000000E+00 0. -1.
          1    1    6    6  503    0  0.84432449554E+02 -0.47895461273E+02  0.75378550741E+02  0.12290134116E+03  0.00000000000E+00 0. -1.
         -1    1    6    6    0  503  0.19018263425E+03 -0.24621494425E+03  0.89910727258E+02  0.32384436388E+03  0.00000000000E+00 0.  1.
<mgrwt>
<rscale>  0 0.23937611E+04</rscale>
<asrwt>0</asrwt>
<pdfrwt beam="1">  1        1 0.14024497E+00 0.23937611E+04</pdfrwt>
<pdfrwt beam="2">  1       -2 0.24176177E+00 0.23937611E+04</pdfrwt>
<totfact> 0.10109130E+00</totfact>
</mgrwt>
</event>
<event>
12    4  0.4486176E-008  0.1042405E+04  0.7818608E-02  0.9263221E-01
          1   -1    0    0  501    0  0.00000000000E+00  0.00000000000E+00  0.10435949388E+04  0.10435949388E+04  0.00000000000E+00 0. -1.
         -2   -1    0    0    0  501 -0.00000000000E+00 -0.00000000000E+00 -0.26030398242E+03  0.26030398242E+03  0.00000000000E+00 0.  1.
        -24    2    1    2    0    0 -0.84795405382E+02 -0.24469474633E+02  0.15407221833E+03  0.19454719124E+03  0.79506887712E+02 0.  0.
        254    2    1    2    0    0  0.84795405382E+02  0.24469474633E+02  0.62921873807E+03  0.11093517300E+04  0.90937122485E+03 0.  0.
         23    2    4    4    0    0  0.37664237788E+03 -0.19918636200E+03  0.81106977025E+02  0.44309860400E+03  0.90682652787E+02 0.  0.
         23    2    4    4    0    0 -0.29184697250E+03  0.22365583664E+03  0.54811176105E+03  0.66625312602E+03  0.90940292049E+02 0.  0.
          1    1    3    3  502    0 -0.47500831496E+01 -0.36930036727E+02  0.40137268383E+02  0.54748435738E+02  0.00000000000E+00 0. -1.
         -4    1    3    3    0  502 -0.80045322232E+02  0.12460562093E+02  0.11393494995E+03  0.13979875550E+03  0.00000000000E+00 0.  1.
         11    1    5    5    0    0  0.22157294182E+03 -0.97285327295E+02  0.87795617375E+02  0.25742391864E+03  0.00000000000E+00 0. -1.
        -11    1    5    5    0    0  0.15506943606E+03 -0.10190103471E+03 -0.66886403498E+01  0.18567468536E+03  0.00000000000E+00 0.  1.
          3    1    6    6  503    0 -0.22812403300E+03  0.18638637458E+03  0.36653026643E+03  0.47023918517E+03  0.00000000000E+00 0. -1.
         -3    1    6    6    0  503 -0.63722939497E+02  0.37269462059E+02  0.18158149462E+03  0.19601394085E+03  0.00000000000E+00 0.  1.
<mgrwt>
<rscale>  0 0.10424048E+04</rscale>
<asrwt>0</asrwt>
<pdfrwt beam="1">  1        1 0.16055307E+00 0.10424048E+04</pdfrwt>
<pdfrwt beam="2">  1       -2 0.40046767E-01 0.10424048E+04</pdfrwt>
<totfact> 0.72387539E+01</totfact>
</mgrwt>
</event>
<event>
12    4  0.4486176E-008  0.1501203E+04  0.7818608E-02  0.8883653E-01
          1   -1    0    0  501    0  0.00000000000E+00  0.00000000000E+00  0.90125337995E+03  0.90125337995E+03  0.00000000000E+00 0. -1.
         -2   -1    0    0    0  501 -0.00000000000E+00 -0.00000000000E+00 -0.62513226318E+03  0.62513226318E+03  0.00000000000E+00 0.  1.
        -24    2    1    2    0    0  0.34836054232E+03 -0.28117380709E+02 -0.23588309299E+03  0.42992817444E+03  0.83974681148E+02 0.  0.
        254    2    1    2    0    0 -0.34836054232E+03  0.28117380709E+02  0.51200420976E+03  0.10964574687E+04  0.90439206947E+03 0.  0.
         23    2    4    4    0    0 -0.37930170778E+03 -0.37106674934E+02  0.74210559235E+03  0.83902105239E+03  0.89380788312E+02 0.  0.
         23    2    4    4    0    0  0.30941165457E+02  0.65224055643E+02 -0.23010138259E+03  0.25743641631E+03  0.90085120955E+02 0.  0.
          1    1    3    3  502    0  0.50909251570E+02  0.12381103790E+02 -0.79228325917E+01  0.52988818657E+02  0.00000000000E+00 0. -1.
         -2    1    3    3    0  502  0.29745129075E+03 -0.40498484499E+02 -0.22796026040E+03  0.37693935578E+03  0.00000000000E+00 0.  1.
         11    1    5    5    0    0 -0.22252482956E+03  0.10794262308E+02  0.49048091605E+03  0.53870710491E+03  0.00000000000E+00 0. -1.
        -11    1    5    5    0    0 -0.15677687822E+03 -0.47900937243E+02  0.25162467629E+03  0.30031394748E+03  0.00000000000E+00 0.  1.
          1    1    6    6  503    0  0.37148512620E+02  0.77816279096E+02 -0.12775827823E+03  0.15413488553E+03  0.00000000000E+00 0. -1.
         -1    1    6    6    0  503 -0.62073471630E+01 -0.12592223452E+02 -0.10234310436E+03  0.10330153078E+03  0.00000000000E+00 0.  1.
<mgrwt>
<rscale>  0 0.15012029E+04</rscale>
<asrwt>0</asrwt>
<pdfrwt beam="1">  1        1 0.13865437E+00 0.15012029E+04</pdfrwt>
<pdfrwt beam="2">  1       -2 0.96174194E-01 0.15012029E+04</pdfrwt>
<totfact> 0.13935904E+01</totfact>
</mgrwt>
</event>
<event>
12    4  0.4486176E-008  0.1250622E+04  0.7818608E-02  0.9069666E-01
          1   -1    0    0  501    0  0.00000000000E+00  0.00000000000E+00  0.56762457268E+03  0.56762457268E+03  0.00000000000E+00 0. -1.
         -2   -1    0    0    0  501 -0.00000000000E+00 -0.00000000000E+00 -0.68885959368E+03  0.68885959368E+03  0.00000000000E+00 0.  1.
        -24    2    1    2    0    0  0.25596374926E+03  0.28561315767E+02 -0.22428347692E+03  0.35112138755E+03  0.81547293536E+02 0.  0.
        254    2    1    2    0    0 -0.25596374926E+03 -0.28561315767E+02  0.10304845592E+03  0.90536277880E+03  0.86181760673E+03 0.  0.
         23    2    4    4    0    0 -0.50274979616E+03 -0.21932020598E+03  0.15322193873E+03  0.57614253091E+03  0.87204031568E+02 0.  0.
         23    2    4    4    0    0  0.24678604690E+03  0.19075889022E+03 -0.50173482815E+02  0.32922024789E+03  0.92608239928E+02 0.  0.
          3    1    3    3  502    0  0.62893060771E+02 -0.10488168415E+02 -0.18805096725E+02  0.66476841326E+02  0.00000000000E+00 0. -1.
         -4    1    3    3    0  502  0.19307068849E+03  0.39049484182E+02 -0.20547838019E+03  0.28464454623E+03  0.00000000000E+00 0.  1.
         11    1    5    5    0    0 -0.82096678113E+02 -0.69378628049E+02  0.45734611847E+02  0.11681144339E+03  0.00000000000E+00 0.  1.
        -11    1    5    5    0    0 -0.42065311805E+03 -0.14994157793E+03  0.10748732689E+03  0.45933108752E+03  0.00000000000E+00 0. -1.
          1    1    6    6  503    0  0.24266137982E+03  0.17934353147E+03 -0.66394351727E+02  0.30896093196E+03  0.00000000000E+00 0. -1.
         -1    1    6    6    0  503  0.41246670835E+01  0.11415358748E+02  0.16220868912E+02  0.20259315935E+02  0.00000000000E+00 0.  1.
<mgrwt>
<rscale>  0 0.12506217E+04</rscale>
<asrwt>0</asrwt>
<pdfrwt beam="1">  1        1 0.87326858E-01 0.12506217E+04</pdfrwt>
<pdfrwt beam="2">  1       -2 0.10597840E+00 0.12506217E+04</pdfrwt>
<totfact> 0.23005054E+01</totfact>
</mgrwt>
</event>
<event>
12    4  0.4486176E-008  0.1534843E+04  0.7818608E-02  0.8861608E-01
          1   -1    0    0  501    0  0.00000000000E+00  0.00000000000E+00  0.74343379938E+03  0.74343379938E+03  0.00000000000E+00 0. -1.
         -2   -1    0    0    0  501 -0.00000000000E+00 -0.00000000000E+00 -0.79218346979E+03  0.79218346979E+03  0.00000000000E+00 0.  1.
        -24    2    1    2    0    0  0.20627073921E+03  0.39286244771E+03  0.21891847619E+03  0.50143486174E+03  0.81382434663E+02 0.  0.
        254    2    1    2    0    0 -0.20627073921E+03 -0.39286244771E+03 -0.26766814660E+03  0.10341824074E+04  0.89498519232E+03 0.  0.
         23    2    4    4    0    0  0.22159922155E+02 -0.54779433216E+03 -0.42777294514E+03  0.70154790373E+03  0.92790495909E+02 0.  0.
         23    2    4    4    0    0 -0.22843066136E+03  0.15493188445E+03  0.16010479854E+03  0.33263450371E+03  0.93955897470E+02 0.  0.
          1    1    3    3  502    0  0.10544871994E+03  0.28229577794E+03  0.14033601303E+03  0.33242222448E+03  0.00000000000E+00 0. -1.
         -2    1    3    3    0  502  0.10082201927E+03  0.11056666977E+03  0.78582463164E+02  0.16901263725E+03  0.00000000000E+00 0.  1.
         11    1    5    5    0    0  0.26038456200E+02 -0.54320897884E+03 -0.43172087083E+03  0.69436078965E+03  0.00000000000E+00 0.  1.
        -11    1    5    5    0    0 -0.38785340453E+01 -0.45853533195E+01  0.39479256937E+01  0.71871140723E+01  0.00000000000E+00 0. -1.
          2    1    6    6  503    0 -0.10329130920E+03  0.64628586946E+02  0.18593484732E+02  0.12325447855E+03  0.00000000000E+00 0. -1.
         -2    1    6    6    0  503 -0.12513935216E+03  0.90303297504E+02  0.14151131381E+03  0.20938002516E+03  0.00000000000E+00 0.  1.
<mgrwt>
<rscale>  0 0.15348433E+04</rscale>
<asrwt>0</asrwt>
<pdfrwt beam="1">  1        1 0.11437443E+00 0.15348433E+04</pdfrwt>
<pdfrwt beam="2">  1       -2 0.12187438E+00 0.15348433E+04</pdfrwt>
<totfact> 0.10714735E+01</totfact>
</mgrwt>
</event>
<event>
12    4  0.4486176E-008  0.1768922E+04  0.7818608E-02  0.8723003E-01
         -2   -1    0    0    0  501 -0.00000000000E+00  0.00000000000E+00  0.33100310652E+03  0.33100310652E+03  0.00000000000E+00 0.  1.
          1   -1    0    0  501    0  0.00000000000E+00 -0.00000000000E+00 -0.23633338244E+04  0.23633338244E+04  0.00000000000E+00 0. -1.
        -24    2    1    2    0    0  0.54508551965E+02  0.31366500568E+03  0.99283391144E+02  0.34287132459E+03  0.79665773362E+02 0.  0.
        254    2    1    2    0    0 -0.54508551965E+02 -0.31366500568E+03 -0.21316141090E+04  0.23514656063E+04  0.94034827055E+03 0.  0.
         23    2    4    4    0    0  0.42194839457E+03 -0.53923625272E+02 -0.80098568128E+03  0.91160257295E+03  0.92157388922E+02 0.  0.
         23    2    4    4    0    0 -0.47645694654E+03 -0.25974138041E+03 -0.13306284277E+04  0.14398630333E+04  0.90314647737E+02 0.  0.
          1    1    3    3  502    0  0.63064039008E+02  0.17744536608E+03  0.33184100811E+02  0.19122007087E+03  0.00000000000E+00 0. -1.
         -2    1    3    3    0  502 -0.85554870426E+01  0.13621963960E+03  0.66099290333E+02  0.15165125372E+03  0.00000000000E+00 0.  1.
         11    1    5    5    0    0  0.20868851535E+03 -0.29697983728E+01 -0.30797428396E+03  0.37203208964E+03  0.00000000000E+00 0. -1.
        -11    1    5    5    0    0  0.21325987922E+03 -0.50953826899E+02 -0.49301139732E+03  0.53957048330E+03  0.00000000000E+00 0.  1.
          1    1    6    6  503    0 -0.14237708877E+02  0.23867259626E+01 -0.14261674538E+02  0.20292958767E+02  0.00000000000E+00 0.  1.
         -1    1    6    6    0  503 -0.46221923766E+03 -0.26212810637E+03 -0.13163667532E+04  0.14195700746E+04  0.00000000000E+00 0. -1.
<mgrwt>
<rscale>  0 0.17689215E+04</rscale>
<asrwt>0</asrwt>
<pdfrwt beam="1">  1        1 0.36358983E+00 0.17689215E+04</pdfrwt>
<pdfrwt beam="2">  1       -2 0.50923554E-01 0.17689215E+04</pdfrwt>
<totfact> 0.51038960E+00</totfact>
</mgrwt>
</event>
<event>
12    4  0.4486176E-008  0.1071270E+04  0.7818608E-02  0.9233655E-01
         -2   -1    0    0    0  501 -0.00000000000E+00  0.00000000000E+00  0.22525190800E+04  0.22525190800E+04  0.00000000000E+00 0.  1.
          1   -1    0    0  501    0  0.00000000000E+00 -0.00000000000E+00 -0.12737066671E+03  0.12737066671E+03  0.00000000000E+00 0. -1.
        -24    2    1    2    0    0  0.15059191589E+03 -0.71806820138E+02  0.23366379483E+03  0.29610155922E+03  0.72410080859E+02 0.  0.
        254    2    1    2    0    0 -0.15059191589E+03  0.71806820138E+02  0.18914846185E+04  0.20837881875E+04  0.85826860823E+03 0.  0.
         23    2    4    4    0    0 -0.28017803671E+03  0.39686547131E+03  0.87819049182E+03  0.10077820790E+04  0.91674665239E+02 0.  0.
         23    2    4    4    0    0  0.12958612082E+03 -0.32505865117E+03  0.10132941267E+04  0.10760061085E+04  0.92566025133E+02 0.  0.
          1    1    3    3  502    0  0.94051026186E+02 -0.27900240919E+02  0.80018290045E+02  0.12659757388E+03  0.00000000000E+00 0. -1.
         -2    1    3    3    0  502  0.56540889702E+02 -0.43906579219E+02  0.15364550478E+03  0.16950398534E+03  0.00000000000E+00 0.  1.
         11    1    5    5    0    0 -0.93890315858E+02  0.20079337944E+03  0.34809996559E+03  0.41268263675E+03  0.00000000000E+00 0.  1.
        -11    1    5    5    0    0 -0.18628772085E+03  0.19607209187E+03  0.53009052623E+03  0.59509944224E+03  0.00000000000E+00 0. -1.
          2    1    6    6  503    0  0.96507958363E+02 -0.17651893910E+03  0.68921034039E+03  0.71797187633E+03  0.00000000000E+00 0. -1.
         -2    1    6    6    0  503  0.33078162455E+02 -0.14853971207E+03  0.32408378630E+03  0.35803423221E+03  0.00000000000E+00 0.  1.
<mgrwt>
<rscale>  0 0.10712700E+04</rscale>
<asrwt>0</asrwt>
<pdfrwt beam="1">  1        1 0.19595489E-01 0.10712700E+04</pdfrwt>
<pdfrwt beam="2">  1       -2 0.34654137E+00 0.10712700E+04</pdfrwt>
<totfact> 0.39057416E+00</totfact>
</mgrwt>
</event>
<event>
12    4  0.4486176E-008  0.1740673E+04  0.7818608E-02  0.8738501E-01
          1   -1    0    0  501    0  0.00000000000E+00  0.00000000000E+00  0.62073999266E+03  0.62073999266E+03  0.00000000000E+00 0. -1.
         -2   -1    0    0    0  501 -0.00000000000E+00 -0.00000000000E+00 -0.12202944165E+04  0.12202944165E+04  0.00000000000E+00 0.  1.
        -24    2    1    2    0    0 -0.12601146819E+03  0.39406130601E+03 -0.72170481002E+03  0.83765719885E+03  0.98227017509E+02 0.  0.
        254    2    1    2    0    0  0.12601146819E+03 -0.39406130601E+03  0.12215038612E+03  0.10033772104E+04  0.90591495541E+03 0.  0.
         23    2    4    4    0    0  0.27752582340E+03 -0.44877799559E+03  0.40069774416E+03  0.66890690130E+03  0.91953729928E+02 0.  0.
         23    2    4    4    0    0 -0.15151435521E+03  0.54716689587E+02 -0.27854735803E+03  0.33447030906E+03  0.91275632146E+02 0.  0.
          3    1    3    3  502    0 -0.94584467052E+01  0.12810992980E+03 -0.15862271558E+03  0.20411463011E+03  0.00000000000E+00 0. -1.
         -4    1    3    3    0  502 -0.11655302149E+03  0.26595137621E+03 -0.56308209444E+03  0.63354256874E+03  0.00000000000E+00 0.  1.
         11    1    5    5    0    0  0.13224887917E+03 -0.14003008422E+03  0.17112994347E+03  0.25765024370E+03  0.00000000000E+00 0. -1.
        -11    1    5    5    0    0  0.14527694423E+03 -0.30874791138E+03  0.22956780069E+03  0.41125665759E+03  0.00000000000E+00 0.  1.
          2    1    6    6  503    0 -0.52597283277E+02 -0.18496300400E+02 -0.49972391054E+02  0.74872072258E+02  0.00000000000E+00 0. -1.
         -2    1    6    6    0  503 -0.98917071929E+02  0.73212989987E+02 -0.22857496698E+03  0.25959823680E+03  0.00000000000E+00 0.  1.
<mgrwt>
<rscale>  0 0.17406729E+04</rscale>
<asrwt>0</asrwt>
<pdfrwt beam="1">  1        1 0.95498462E-01 0.17406729E+04</pdfrwt>
<pdfrwt beam="2">  1       -2 0.18773760E+00 0.17406729E+04</pdfrwt>
<totfact> 0.43407384E+00</totfact>
</mgrwt>
</event>
<event>
12    4  0.4486176E-008  0.1570094E+04  0.7818608E-02  0.8839134E-01
         -2   -1    0    0    0  501 -0.00000000000E+00  0.00000000000E+00  0.43276919906E+03  0.43276919906E+03  0.00000000000E+00 0.  1.
          1   -1    0    0  501    0  0.00000000000E+00 -0.00000000000E+00 -0.14240823805E+04  0.14240823805E+04  0.00000000000E+00 0. -1.
        -24    2    1    2    0    0  0.45200517313E+03 -0.51963798698E+02 -0.62068369153E+03  0.77370530462E+03  0.79766788469E+02 0.  0.
        254    2    1    2    0    0 -0.45200517313E+03  0.51963798698E+02 -0.37062948989E+03  0.10831462749E+04  0.91040140662E+03 0.  0.
         23    2    4    4    0    0 -0.45412859943E+03  0.42758277879E+03 -0.21867518715E+03  0.66714896708E+03  0.90604024551E+02 0.  0.
         23    2    4    4    0    0  0.21234262961E+01 -0.37561898009E+03 -0.15195430274E+03  0.41599730784E+03  0.94178144293E+02 0.  0.
          3    1    3    3  502    0  0.32569312665E+03 -0.20508361677E+02 -0.49405683700E+03  0.59210536548E+03  0.00000000000E+00 0. -1.
         -4    1    3    3    0  502  0.12631204648E+03 -0.31455437021E+02 -0.12662685453E+03  0.18159993913E+03  0.00000000000E+00 0.  1.
         11    1    5    5    0    0 -0.10235961651E+03  0.14708332423E+03 -0.44003369084E+02  0.18451908262E+03  0.00000000000E+00 0. -1.
        -11    1    5    5    0    0 -0.35176898292E+03  0.28049945456E+03 -0.17467181806E+03  0.48262988446E+03  0.00000000000E+00 0.  1.
          1    1    6    6  503    0 -0.39742659338E+02 -0.12167279061E+03 -0.70002964025E+02  0.14589092473E+03  0.00000000000E+00 0. -1.
         -1    1    6    6    0  503  0.41866085634E+02 -0.25394618948E+03 -0.81951338715E+02  0.27010638311E+03  0.00000000000E+00 0.  1.
<mgrwt>
<rscale>  0 0.15700943E+04</rscale>
<asrwt>0</asrwt>
<pdfrwt beam="1">  1        1 0.21908960E+00 0.15700943E+04</pdfrwt>
<pdfrwt beam="2">  1       -2 0.66579876E-01 0.15700943E+04</pdfrwt>
<totfact> 0.12926987E+01</totfact>
</mgrwt>
</event>
<event>
12    4  0.4486176E-008  0.1190810E+04  0.7818608E-02  0.9120939E-01
          1   -1    0    0  501    0  0.00000000000E+00  0.00000000000E+00  0.22504124684E+04  0.22504124684E+04  0.00000000000E+00 0. -1.
         -2   -1    0    0    0  501 -0.00000000000E+00 -0.00000000000E+00 -0.15752979917E+03  0.15752979917E+03  0.00000000000E+00 0.  1.
        -24    2    1    2    0    0  0.40348042440E+02  0.16559032413E+03  0.97683141296E+02  0.21185692645E+03  0.79329951576E+02 0.  0.
        254    2    1    2    0    0 -0.40348042440E+02 -0.16559032413E+03  0.19951995280E+04  0.21960853412E+04  0.90162162201E+03 0.  0.
         23    2    4    4    0    0 -0.29975756496E+03  0.17238910077E+03  0.14715223695E+04  0.15149492259E+04  0.10060056240E+03 0.  0.
         23    2    4    4    0    0  0.25940952252E+03 -0.33797942490E+03  0.52367715847E+03  0.68113611530E+03  0.90472367307E+02 0.  0.
          1    1    3    3  502    0  0.14583392810E+02 -0.30904201376E+01 -0.63679737261E+00  0.14920842918E+02  0.00000000000E+00 0. -1.
         -2    1    3    3    0  502  0.25764649630E+02  0.16868074427E+03  0.98319938668E+02  0.19693608353E+03  0.00000000000E+00 0.  1.
         11    1    5    5    0    0  0.59430797067E+01  0.21123157318E+01  0.74600780401E+02  0.74866938702E+02  0.00000000000E+00 0.  1.
        -11    1    5    5    0    0 -0.30570064466E+03  0.17027678504E+03  0.13969215891E+04  0.14400822872E+04  0.00000000000E+00 0. -1.
          3    1    6    6  503    0  0.10341920180E+03 -0.13857599831E+03  0.14520643904E+03  0.22579581162E+03  0.00000000000E+00 0. -1.
         -3    1    6    6    0  503  0.15599032071E+03 -0.19940342659E+03  0.37847071943E+03  0.45534030368E+03  0.00000000000E+00 0.  1.
<mgrwt>
<rscale>  0 0.11908098E+04</rscale>
<asrwt>0</asrwt>
<pdfrwt beam="1">  1        1 0.34621728E+00 0.11908098E+04</pdfrwt>
<pdfrwt beam="2">  1       -2 0.24235355E-01 0.11908098E+04</pdfrwt>
<totfact> 0.26661005E+01</totfact>
</mgrwt>
</event>
<event>
12    4  0.4486176E-008  0.1844801E+04  0.7818608E-02  0.8682831E-01
          1   -1    0    0  501    0  0.00000000000E+00  0.00000000000E+00  0.35270122080E+04  0.35270122080E+04  0.00000000000E+00 0. -1.
         -2   -1    0    0    0  501 -0.00000000000E+00 -0.00000000000E+00 -0.24123030303E+03  0.24123030303E+03  0.00000000000E+00 0.  1.
        -24    2    1    2    0    0 -0.21712324947E+03  0.64460714378E+03  0.88204490269E+03  0.11167379114E+04  0.80246353228E+02 0.  0.
        254    2    1    2    0    0  0.21712324947E+03 -0.64460714378E+03  0.24037370023E+04  0.26515045996E+04  0.88874303951E+03 0.  0.
         23    2    4    4    0    0 -0.26600437584E+03 -0.53869411905E+03  0.14769269825E+04  0.15970421689E+04  0.90998328300E+02 0.  0.
         23    2    4    4    0    0  0.48312762530E+03 -0.10591302473E+03  0.92681001980E+03  0.10544624307E+04  0.91018315955E+02 0.  0.
          3    1    3    3  502    0 -0.12968843734E+02  0.16096338084E+02  0.11098506904E+02  0.23461881063E+02  0.00000000000E+00 0. -1.
         -4    1    3    3    0  502 -0.20415440573E+03  0.62851080569E+03  0.87094639578E+03  0.10932760304E+04  0.00000000000E+00 0.  1.
         11    1    5    5    0    0 -0.27093543971E+02 -0.13145154718E+03  0.28559623684E+03  0.31556105570E+03  0.00000000000E+00 0.  1.
        -11    1    5    5    0    0 -0.23891083187E+03 -0.40724257187E+03  0.11913307457E+04  0.12814811132E+04  0.00000000000E+00 0. -1.
          4    1    6    6  503    0  0.46984539084E+03 -0.86517359307E+02  0.89892108079E+03  0.10179877476E+04  0.00000000000E+00 0. -1.
         -4    1    6    6    0  503  0.13282234462E+02 -0.19395665425E+02  0.27888939011E+02  0.36474683121E+02  0.00000000000E+00 0.  1.
<mgrwt>
<rscale>  0 0.18448005E+04</rscale>
<asrwt>0</asrwt>
<pdfrwt beam="1">  1        1 0.54261723E+00 0.18448005E+04</pdfrwt>
<pdfrwt beam="2">  1       -2 0.37112357E-01 0.18448005E+04</pdfrwt>
<totfact> 0.13527079E+00</totfact>
</mgrwt>
</event>
<event>
12    4  0.4486176E-008  0.3541285E+04  0.7818608E-02  0.8104075E-01
         -2   -1    0    0    0  501 -0.00000000000E+00  0.00000000000E+00  0.13550884532E+04  0.13550884532E+04  0.00000000000E+00 0.  1.
          1   -1    0    0  501    0  0.00000000000E+00 -0.00000000000E+00 -0.23136316548E+04  0.23136316548E+04  0.00000000000E+00 0. -1.
        -24    2    1    2    0    0 -0.54358429877E+03 -0.26885983803E+02  0.11746233681E+04  0.12972145452E+04  0.82575864923E+02 0.  0.
        254    2    1    2    0    0  0.54358429877E+03  0.26885983803E+02 -0.21331665696E+04  0.23715055628E+04  0.88172120028E+03 0.  0.
         23    2    4    4    0    0 -0.18454253836E+03 -0.14047960293E+03 -0.30201061725E+03  0.39144958278E+03  0.90729794604E+02 0.  0.
         23    2    4    4    0    0  0.72812683712E+03  0.16736558673E+03 -0.18311559523E+04  0.19800559801E+04  0.96486433423E+02 0.  0.
          3    1    3    3  502    0 -0.93947272430E+02  0.16041175800E+02  0.15393111900E+03  0.18104750403E+03  0.00000000000E+00 0. -1.
         -4    1    3    3    0  502 -0.44963702634E+03 -0.42927159603E+02  0.10206922491E+04  0.11161670412E+04  0.00000000000E+00 0.  1.
         11    1    5    5    0    0 -0.69039579453E+02 -0.32288385882E+02 -0.16644182042E+03  0.18306251113E+03  0.00000000000E+00 0.  1.
        -11    1    5    5    0    0 -0.11550295890E+03 -0.10819121704E+03 -0.13556879682E+03  0.20838707165E+03  0.00000000000E+00 0. -1.
          3    1    6    6  503    0  0.48063902558E+03  0.13356851718E+03 -0.13204125256E+04  0.14115040416E+04  0.00000000000E+00 0. -1.
         -3    1    6    6    0  503  0.24748781154E+03  0.33797069547E+02 -0.51074342674E+03  0.56855193846E+03  0.00000000000E+00 0.  1.
<mgrwt>
<rscale>  0 0.35412854E+04</rscale>
<asrwt>0</asrwt>
<pdfrwt beam="1">  1        1 0.35594333E+00 0.35412854E+04</pdfrwt>
<pdfrwt beam="2">  1       -2 0.20847515E+00 0.35412854E+04</pdfrwt>
<totfact> 0.15259302E-01</totfact>
</mgrwt>
</event>
<event>
12    4  0.4486176E-008  0.1752876E+04  0.7818608E-02  0.8731769E-01
          1   -1    0    0  501    0  0.00000000000E+00  0.00000000000E+00  0.87942461049E+03  0.87942461049E+03  0.00000000000E+00 0. -1.
         -2   -1    0    0    0  501 -0.00000000000E+00 -0.00000000000E+00 -0.87346112641E+03  0.87346112641E+03  0.00000000000E+00 0.  1.
        -24    2    1    2    0    0 -0.21294855499E+03 -0.49285749075E+02 -0.60143226871E+03  0.64481270568E+03  0.79287321978E+02 0.  0.
        254    2    1    2    0    0  0.21294855499E+03  0.49285749075E+02  0.60739575279E+03  0.11080730312E+04  0.90062204607E+03 0.  0.
         23    2    4    4    0    0  0.15687466330E+03 -0.41157849329E+03  0.24943512012E+03  0.51443576802E+03  0.91759272823E+02 0.  0.
         23    2    4    4    0    0  0.56073891690E+02  0.46086424236E+03  0.35796063267E+03  0.59363726319E+03  0.93430479462E+02 0.  0.
          1    1    3    3  502    0 -0.15180958695E+03 -0.70927893575E+02 -0.42519657566E+03  0.45702193025E+03  0.00000000000E+00 0. -1.
         -4    1    3    3    0  502 -0.61138968039E+02  0.21642144500E+02 -0.17623569305E+03  0.18779077543E+03  0.00000000000E+00 0.  1.
         11    1    5    5    0    0  0.14794821864E+03 -0.41407389286E+03  0.24861969759E+03  0.50513128806E+03  0.00000000000E+00 0. -1.
        -11    1    5    5    0    0  0.89264446627E+01  0.24953995794E+01  0.81542252902E+00  0.93044799574E+01  0.00000000000E+00 0.  1.
          2    1    6    6  503    0  0.33010780988E+01  0.29847021505E+03  0.26537173018E+03  0.39939644662E+03  0.00000000000E+00 0. -1.
         -2    1    6    6    0  503  0.52772813591E+02  0.16239402731E+03  0.92588902486E+02  0.19424081658E+03  0.00000000000E+00 0.  1.
<mgrwt>
<rscale>  0 0.17528756E+04</rscale>
<asrwt>0</asrwt>
<pdfrwt beam="1">  1        1 0.13529609E+00 0.17528756E+04</pdfrwt>
<pdfrwt beam="2">  1       -2 0.13437863E+00 0.17528756E+04</pdfrwt>
<totfact> 0.62697941E+00</totfact>
</mgrwt>
</event>
<event>
12    4  0.4486176E-008  0.1503054E+04  0.7818608E-02  0.8882425E-01
          1   -1    0    0  501    0  0.00000000000E+00  0.00000000000E+00  0.16287311493E+04  0.16287311493E+04  0.00000000000E+00 0. -1.
         -2   -1    0    0    0  501 -0.00000000000E+00 -0.00000000000E+00 -0.34676859424E+03  0.34676859424E+03  0.00000000000E+00 0.  1.
        -24    2    1    2    0    0  0.38339670562E+02 -0.20060331295E+03  0.96299081402E+03  0.98767997730E+03  0.80304484102E+02 0.  0.
        254    2    1    2    0    0 -0.38339670562E+02  0.20060331295E+03  0.31897174108E+03  0.98781976628E+03  0.91232302369E+03 0.  0.
         23    2    4    4    0    0  0.11118749597E+03 -0.30500093036E+03  0.30180030624E+03  0.45244416074E+03  0.90741759715E+02 0.  0.
         23    2    4    4    0    0 -0.14952716653E+03  0.50560424331E+03  0.17171434837E+02  0.53537560555E+03  0.91313506402E+02 0.  0.
          1    1    3    3  502    0  0.35431615794E+02 -0.13160576399E+03  0.45371892123E+03  0.47374712241E+03  0.00000000000E+00 0. -1.
         -2    1    3    3    0  502  0.29080547679E+01 -0.68997548958E+02  0.50927189279E+03  0.51393285489E+03  0.00000000000E+00 0.  1.
         11    1    5    5    0    0  0.37696939034E+02 -0.10474665120E+03  0.48886372108E+02  0.12158452832E+03  0.00000000000E+00 0. -1.
        -11    1    5    5    0    0  0.73490556938E+02 -0.20025427916E+03  0.25291393414E+03  0.33085963242E+03  0.00000000000E+00 0.  1.
          2    1    6    6  503    0  0.54970983174E+01  0.57590086799E+02  0.20234701107E+02  0.61288492528E+02  0.00000000000E+00 0. -1.
         -2    1    6    6    0  503 -0.15502426485E+03  0.44801415651E+03 -0.30632662701E+01  0.47408711302E+03  0.00000000000E+00 0.  1.
<mgrwt>
<rscale>  0 0.15030540E+04</rscale>
<asrwt>0</asrwt>
<pdfrwt beam="1">  1        1 0.25057402E+00 0.15030540E+04</pdfrwt>
<pdfrwt beam="2">  1       -2 0.53349015E-01 0.15030540E+04</pdfrwt>
<totfact> 0.14989857E+01</totfact>
</mgrwt>
</event>
<event>
12    4  0.4486176E-008  0.1194338E+04  0.7818608E-02  0.9117827E-01
         -2   -1    0    0    0  501 -0.00000000000E+00  0.00000000000E+00  0.64031169331E+03  0.64031169331E+03  0.00000000000E+00 0.  1.
          1   -1    0    0  501    0  0.00000000000E+00 -0.00000000000E+00 -0.55693270777E+03  0.55693270777E+03  0.00000000000E+00 0. -1.
        -24    2    1    2    0    0  0.97051192969E+02 -0.16464928048E+03  0.18056375908E+03  0.27383389876E+03  0.76507603521E+02 0.  0.
        254    2    1    2    0    0 -0.97051192969E+02  0.16464928048E+03 -0.97184773543E+02  0.92341050231E+03  0.89817245335E+03 0.  0.
         23    2    4    4    0    0 -0.35337274370E+03  0.22140619982E+03 -0.34560769289E+03  0.54987612435E+03  0.95005649510E+02 0.  0.
         23    2    4    4    0    0  0.25632155073E+03 -0.56756919337E+02  0.24842291935E+03  0.37353437796E+03  0.94296868434E+02 0.  0.
          3    1    3    3  502    0  0.11999256118E+02 -0.41677069053E+02  0.56707192721E+01  0.43739196258E+02  0.00000000000E+00 0. -1.
         -4    1    3    3    0  502  0.85051936851E+02 -0.12297221143E+03  0.17489303981E+03  0.23009470250E+03  0.00000000000E+00 0.  1.
         11    1    5    5    0    0 -0.27891996258E+02  0.32253765903E+02 -0.63530983619E+01  0.43111839777E+02  0.00000000000E+00 0. -1.
        -11    1    5    5    0    0 -0.32548074744E+03  0.18915243392E+03 -0.33925459453E+03  0.50676428458E+03  0.00000000000E+00 0.  1.
          4    1    6    6  503    0  0.24582749069E+03 -0.35101840015E+02  0.19775855877E+03  0.31744565191E+03  0.00000000000E+00 0.  1.
         -4    1    6    6    0  503  0.10494060044E+02 -0.21655079322E+02  0.50664360581E+02  0.56088726049E+02  0.00000000000E+00 0. -1.
<mgrwt>
<rscale>  0 0.11943375E+04</rscale>
<asrwt>0</asrwt>
<pdfrwt beam="1">  1        1 0.85681955E-01 0.11943375E+04</pdfrwt>
<pdfrwt beam="2">  1       -2 0.98509491E-01 0.11943375E+04</pdfrwt>
<totfact> 0.28257056E+01</totfact>
</mgrwt>
</event>
<event>
12    4  0.4486176E-008  0.2199686E+04  0.7818608E-02  0.8518559E-01
         -2   -1    0    0    0  501 -0.00000000000E+00  0.00000000000E+00  0.33222924447E+03  0.33222924447E+03  0.00000000000E+00 0.  1.
          1   -1    0    0  501    0  0.00000000000E+00 -0.00000000000E+00 -0.36410251640E+04  0.36410251640E+04  0.00000000000E+00 0. -1.
        -24    2    1    2    0    0 -0.48347250844E+03 -0.34593884403E+03 -0.12350581299E+03  0.61220553460E+03  0.78246920271E+02 0.  0.
        254    2    1    2    0    0  0.48347250844E+03  0.34593884403E+03 -0.31852901066E+04  0.33610488739E+04  0.89283655810E+03 0.  0.
         23    2    4    4    0    0 -0.63243582073E+01  0.53284609914E+03 -0.15924174316E+04  0.16816631942E+04  0.90735105793E+02 0.  0.
         23    2    4    4    0    0  0.48979686665E+03 -0.18690725511E+03 -0.15928726750E+04  0.16793856797E+04  0.90871391982E+02 0.  0.
          1    1    3    3  502    0 -0.19207912255E+03 -0.16262338504E+03 -0.85743722830E+02  0.26588106493E+03  0.00000000000E+00 0. -1.
         -4    1    3    3    0  502 -0.29139338589E+03 -0.18331545900E+03 -0.37762090157E+02  0.34632446968E+03  0.00000000000E+00 0.  1.
         11    1    5    5    0    0  0.10052566621E+02  0.10245219408E+03 -0.42611845117E+03  0.43837705300E+03  0.00000000000E+00 0. -1.
        -11    1    5    5    0    0 -0.16376924828E+02  0.43039390506E+03 -0.11662989804E+04  0.12432861412E+04  0.00000000000E+00 0.  1.
          4    1    6    6  503    0  0.74471358692E+02 -0.63194617685E+02 -0.25431188524E+03  0.27242260909E+03  0.00000000000E+00 0. -1.
         -4    1    6    6    0  503  0.41532550795E+03 -0.12371263742E+03 -0.13385607897E+04  0.14069630706E+04  0.00000000000E+00 0.  1.
<mgrwt>
<rscale>  0 0.21996864E+04</rscale>
<asrwt>0</asrwt>
<pdfrwt beam="1">  1        1 0.56015770E+00 0.21996864E+04</pdfrwt>
<pdfrwt beam="2">  1       -2 0.51112193E-01 0.21996864E+04</pdfrwt>
<totfact> 0.56061229E-01</totfact>
</mgrwt>
</event>
<event>
12    4  0.4486176E-008  0.1106944E+04  0.7818608E-02  0.9198451E-01
         -2   -1    0    0    0  501 -0.00000000000E+00  0.00000000000E+00  0.43650657713E+03  0.43650657713E+03  0.00000000000E+00 0.  1.
          1   -1    0    0  501    0  0.00000000000E+00 -0.00000000000E+00 -0.70177867906E+03  0.70177867906E+03  0.00000000000E+00 0. -1.
        -24    2    1    2    0    0  0.19792784379E+02 -0.13628531167E+03 -0.16060581473E+03  0.22681411237E+03  0.81761686339E+02 0.  0.
        254    2    1    2    0    0 -0.19792784379E+02  0.13628531167E+03 -0.10466628720E+03  0.91147114383E+03  0.89490735490E+03 0.  0.
         23    2    4    4    0    0 -0.27159904008E+02  0.50290141380E+03 -0.14331750513E+03  0.53164745169E+03  0.91987027504E+02 0.  0.
         23    2    4    4    0    0  0.73671196291E+01 -0.36661610213E+03  0.38651217934E+02  0.37982369213E+03  0.91161832298E+02 0.  0.
          3    1    3    3  502    0  0.80045140407E+01 -0.14391735744E+03 -0.15508311075E+03  0.21172399311E+03  0.00000000000E+00 0. -1.
         -2    1    3    3    0  502  0.11788270338E+02  0.76320457628E+01 -0.55227039767E+01  0.15090119261E+02  0.00000000000E+00 0.  1.
         11    1    5    5    0    0 -0.27610488239E+02  0.19376232617E+03 -0.99045469631E+02  0.21935401331E+03  0.00000000000E+00 0. -1.
        -11    1    5    5    0    0  0.45058423058E+00  0.30913908763E+03 -0.44272035501E+02  0.31229343838E+03  0.00000000000E+00 0.  1.
          2    1    6    6  503    0  0.47221668622E+02 -0.14977505605E+03  0.23977361255E+02  0.15886273086E+03  0.00000000000E+00 0. -1.
         -2    1    6    6    0  503 -0.39854548993E+02 -0.21684104607E+03  0.14673856680E+02  0.22096096127E+03  0.00000000000E+00 0.  1.
<mgrwt>
<rscale>  0 0.11069436E+04</rscale>
<asrwt>0</asrwt>
<pdfrwt beam="1">  1        1 0.10796595E+00 0.11069436E+04</pdfrwt>
<pdfrwt beam="2">  1       -2 0.67154858E-01 0.11069436E+04</pdfrwt>
<totfact> 0.48183530E+01</totfact>
</mgrwt>
</event>
<event>
12    4  0.4486176E-008  0.1456663E+04  0.7818608E-02  0.8913794E-01
          1   -1    0    0  501    0  0.00000000000E+00  0.00000000000E+00  0.38656318980E+03  0.38656318980E+03  0.00000000000E+00 0. -1.
         -2   -1    0    0    0  501 -0.00000000000E+00 -0.00000000000E+00 -0.13722633490E+04  0.13722633490E+04  0.00000000000E+00 0.  1.
        -24    2    1    2    0    0  0.23098810602E+03 -0.66620356094E+02 -0.76376711678E+03  0.80467962362E+03  0.79845544807E+02 0.  0.
        254    2    1    2    0    0 -0.23098810602E+03  0.66620356094E+02 -0.22193304244E+03  0.95414691521E+03  0.89629698398E+03 0.  0.
         23    2    4    4    0    0  0.21954633863E+02 -0.34838809367E+03  0.86491380318E+02  0.37107682112E+03  0.91438386612E+02 0.  0.
         23    2    4    4    0    0 -0.25294273988E+03  0.41500844976E+03 -0.30842442276E+03  0.58307009408E+03  0.92914299368E+02 0.  0.
          1    1    3    3  502    0  0.17141281671E+03 -0.20595417886E+02 -0.44934175597E+03  0.48136736349E+03  0.00000000000E+00 0. -1.
         -2    1    3    3    0  502  0.59575289315E+02 -0.46024938208E+02 -0.31442536081E+03  0.32331226014E+03  0.00000000000E+00 0.  1.
         11    1    5    5    0    0  0.40448570834E+02 -0.12619580911E+03  0.63457198785E+02  0.14692952459E+03  0.00000000000E+00 0. -1.
        -11    1    5    5    0    0 -0.18493936971E+02 -0.22219228456E+03  0.23034181533E+02  0.22414729653E+03  0.00000000000E+00 0.  1.
          2    1    6    6  503    0 -0.17844191098E+03  0.32280323107E+03 -0.27448066976E+03  0.45976415656E+03  0.00000000000E+00 0. -1.
         -2    1    6    6    0  503 -0.74500828903E+02  0.92205218692E+02 -0.33943752997E+02  0.12330593752E+03  0.00000000000E+00 0.  1.
<mgrwt>
<rscale>  0 0.14566626E+04</rscale>
<asrwt>0</asrwt>
<pdfrwt beam="1">  1        1 0.59471260E-01 0.14566626E+04</pdfrwt>
<pdfrwt beam="2">  1       -2 0.21111744E+00 0.14566626E+04</pdfrwt>
<totfact> 0.59947860E+00</totfact>
</mgrwt>
</event>
<event>
12    4  0.4486176E-008  0.2538324E+04  0.7818608E-02  0.8389458E-01
          1   -1    0    0  501    0  0.00000000000E+00  0.00000000000E+00  0.17241564573E+04  0.17241564573E+04  0.00000000000E+00 0. -1.
         -2   -1    0    0    0  501 -0.00000000000E+00 -0.00000000000E+00 -0.93423798387E+03  0.93423798387E+03  0.00000000000E+00 0.  1.
        -24    2    1    2    0    0 -0.43687050561E+03 -0.13856782518E+03  0.14079550216E+04  0.14828923839E+04  0.81090064568E+02 0.  0.
        254    2    1    2    0    0  0.43687050561E+03  0.13856782518E+03 -0.61803654812E+03  0.11755020573E+04  0.88869512831E+03 0.  0.
         23    2    4    4    0    0 -0.22337879707E+03 -0.13652243508E+03 -0.19901185813E+03  0.34161151684E+03  0.92499981096E+02 0.  0.
         23    2    4    4    0    0  0.66024930268E+03  0.27509026026E+03 -0.41902468999E+03  0.83389054047E+03  0.90487290119E+02 0.  0.
          3    1    3    3  502    0 -0.39010808297E+03 -0.12940137216E+03  0.13243323958E+04  0.13866453498E+04  0.00000000000E+00 0. -1.
         -4    1    3    3    0  502 -0.46762422642E+02 -0.91664530196E+01  0.83622625768E+02  0.96247034098E+02  0.00000000000E+00 0.  1.
         11    1    5    5    0    0 -0.24277063933E+02 -0.25003742091E+00  0.59924777572E+01  0.25006961862E+02  0.00000000000E+00 0. -1.
        -11    1    5    5    0    0 -0.19910173314E+03 -0.13627239766E+03 -0.20500433589E+03  0.31660455498E+03  0.00000000000E+00 0.  1.
          3    1    6    6  503    0  0.53927583195E+03  0.18806191613E+03 -0.31597931092E+03  0.65270868858E+03  0.00000000000E+00 0. -1.
         -3    1    6    6    0  503  0.12097347073E+03  0.87028344132E+02 -0.10304537907E+03  0.18118185188E+03  0.00000000000E+00 0.  1.
<mgrwt>
<rscale>  0 0.25383242E+04</rscale>
<asrwt>0</asrwt>
<pdfrwt beam="1">  1        1 0.26525484E+00 0.25383242E+04</pdfrwt>
<pdfrwt beam="2">  1       -2 0.14372892E+00 0.25383242E+04</pdfrwt>
<totfact> 0.11969013E+00</totfact>
</mgrwt>
</event>
<event>
12    4  0.4486176E-008  0.1847237E+04  0.7818608E-02  0.8681575E-01
          1   -1    0    0  501    0  0.00000000000E+00  0.00000000000E+00  0.25537719360E+04  0.25537719360E+04  0.00000000000E+00 0. -1.
         -2   -1    0    0    0  501 -0.00000000000E+00 -0.00000000000E+00 -0.33404346442E+03  0.33404346442E+03  0.00000000000E+00 0.  1.
        -24    2    1    2    0    0 -0.47485522223E+02  0.43027952567E+03 -0.14256078157E+02  0.44053570780E+03  0.80455758333E+02 0.  0.
        254    2    1    2    0    0  0.47485522223E+02 -0.43027952567E+03  0.22339845497E+04  0.24472796926E+04  0.90060845011E+03 0.  0.
         23    2    4    4    0    0  0.26620571864E+03 -0.60304925205E+03  0.12081029950E+04  0.13793512414E+04  0.92537104140E+02 0.  0.
         23    2    4    4    0    0 -0.21872019642E+03  0.17276972638E+03  0.10258815548E+04  0.10679284512E+04  0.10173647260E+03 0.  0.
          3    1    3    3  502    0 -0.98902574552E+01  0.12764408449E+03  0.32306359180E+02  0.13203988163E+03  0.00000000000E+00 0. -1.
         -4    1    3    3    0  502 -0.37595264768E+02  0.30263544118E+03 -0.46562437337E+02  0.30849582617E+03  0.00000000000E+00 0.  1.
         11    1    5    5    0    0  0.84168097725E+02 -0.17811002651E+03  0.27831425971E+03  0.34097841189E+03  0.00000000000E+00 0. -1.
        -11    1    5    5    0    0  0.18203762092E+03 -0.42493922554E+03  0.92978873525E+03  0.10383728295E+04  0.00000000000E+00 0.  1.
          3    1    6    6  503    0 -0.18994362901E+03  0.16327005744E+03  0.98884750528E+03  0.10200760180E+04  0.00000000000E+00 0.  1.
         -3    1    6    6    0  503 -0.28776567403E+02  0.94996689361E+01  0.37034049477E+02  0.47852433189E+02  0.00000000000E+00 0. -1.
<mgrwt>
<rscale>  0 0.18472367E+04</rscale>
<asrwt>0</asrwt>
<pdfrwt beam="1">  1        1 0.39288798E+00 0.18472367E+04</pdfrwt>
<pdfrwt beam="2">  1       -2 0.51391304E-01 0.18472367E+04</pdfrwt>
<totfact> 0.36742159E+00</totfact>
</mgrwt>
</event>
<event>
12    4  0.4486176E-008  0.2649358E+04  0.7818608E-02  0.8351626E-01
         -2   -1    0    0    0  501 -0.00000000000E+00  0.00000000000E+00  0.22629377840E+04  0.22629377840E+04  0.00000000000E+00 0.  1.
          1   -1    0    0  501    0  0.00000000000E+00 -0.00000000000E+00 -0.77544106950E+03  0.77544106950E+03  0.00000000000E+00 0. -1.
        -24    2    1    2    0    0  0.34946456979E+03  0.34968577919E+03  0.18834218289E+04  0.19486899624E+04  0.75558945899E+02 0.  0.
        254    2    1    2    0    0 -0.34946456979E+03 -0.34968577919E+03 -0.39592511446E+03  0.10896888910E+04  0.88671277948E+03 0.  0.
         23    2    4    4    0    0  0.21486217411E+03 -0.25441868445E+03  0.63017482233E+02  0.35079929302E+03  0.90522483706E+02 0.  0.
         23    2    4    4    0    0 -0.56432674390E+03 -0.95267094735E+02 -0.45894259669E+03  0.73888959802E+03  0.88255525540E+02 0.  0.
          1    1    3    3  502    0  0.20196068599E+03  0.19128534189E+03  0.11996781818E+04  0.12315055585E+04  0.00000000000E+00 0. -1.
         -2    1    3    3    0  502  0.14750388380E+03  0.15840043729E+03  0.68374364713E+03  0.71718440394E+03  0.00000000000E+00 0.  1.
         11    1    5    5    0    0 -0.45708996847E+01 -0.64322481777E+01 -0.89556221708E+01  0.11936084325E+02  0.00000000000E+00 0.  1.
        -11    1    5    5    0    0  0.21943307379E+03 -0.24798643627E+03  0.71973104404E+02  0.33886320869E+03  0.00000000000E+00 0. -1.
          3    1    6    6  503    0 -0.25463164571E+03 -0.55673395576E+02 -0.15549322535E+03  0.30350444000E+03  0.00000000000E+00 0. -1.
         -3    1    6    6    0  503 -0.30969509819E+03 -0.39593699159E+02 -0.30344937134E+03  0.43538515802E+03  0.00000000000E+00 0.  1.
<mgrwt>
<rscale>  0 0.26493583E+04</rscale>
<asrwt>0</asrwt>
<pdfrwt beam="1">  1        1 0.11929863E+00 0.26493583E+04</pdfrwt>
<pdfrwt beam="2">  1       -2 0.34814427E+00 0.26493583E+04</pdfrwt>
<totfact> 0.28567924E-01</totfact>
</mgrwt>
</event>
<event>
12    4  0.4486176E-008  0.1334881E+04  0.7818608E-02  0.9002353E-01
          1   -1    0    0  501    0  0.00000000000E+00  0.00000000000E+00  0.22564562087E+04  0.22564562087E+04  0.00000000000E+00 0. -1.
         -2   -1    0    0    0  501 -0.00000000000E+00 -0.00000000000E+00 -0.19742318540E+03  0.19742318540E+03  0.00000000000E+00 0.  1.
        -24    2    1    2    0    0 -0.21614277016E+03 -0.27090304399E+03  0.40331855683E+03  0.53780389772E+03  0.80380456461E+02 0.  0.
        254    2    1    2    0    0  0.21614277016E+03  0.27090304399E+03  0.16557144665E+04  0.19160754964E+04  0.89991597219E+03 0.  0.
         23    2    4    4    0    0 -0.14201013325E+03  0.14485138452E+03  0.14641990843E+04  0.14810574227E+04  0.92213498124E+02 0.  0.
         23    2    4    4    0    0  0.35815290341E+03  0.12605165947E+03  0.19151538214E+03  0.43501807368E+03  0.91651839891E+02 0.  0.
          3    1    3    3  502    0 -0.82340406179E+02 -0.13182871528E+03  0.12676154242E+03  0.20056729868E+03  0.00000000000E+00 0. -1.
         -4    1    3    3    0  502 -0.13380236398E+03 -0.13907432871E+03  0.27655701441E+03  0.33723659904E+03  0.00000000000E+00 0.  1.
         11    1    5    5    0    0 -0.55552684038E+02  0.99152525163E+02  0.10146014048E+04  0.10209472731E+04  0.00000000000E+00 0.  1.
        -11    1    5    5    0    0 -0.86457449211E+02  0.45698859353E+02  0.44959767954E+03  0.46011014955E+03  0.00000000000E+00 0. -1.
          4    1    6    6  503    0  0.26641178689E+03  0.87806707930E+02  0.18372200364E+03  0.33531929973E+03  0.00000000000E+00 0.  1.
         -4    1    6    6    0  503  0.91741116520E+02  0.38244951538E+02  0.77933785053E+01  0.99698773949E+02  0.00000000000E+00 0. -1.
<mgrwt>
<rscale>  0 0.13348809E+04</rscale>
<asrwt>0</asrwt>
<pdfrwt beam="1">  1        1 0.34714709E+00 0.13348809E+04</pdfrwt>
<pdfrwt beam="2">  1       -2 0.30372799E-01 0.13348809E+04</pdfrwt>
<totfact> 0.17228217E+01</totfact>
</mgrwt>
</event>
<event>
12    4  0.4486176E-008  0.1432179E+04  0.7818608E-02  0.8930850E-01
          1   -1    0    0  501    0  0.00000000000E+00  0.00000000000E+00  0.74345284184E+03  0.74345284184E+03  0.00000000000E+00 0. -1.
         -2   -1    0    0    0  501 -0.00000000000E+00 -0.00000000000E+00 -0.68973280602E+03  0.68973280602E+03  0.00000000000E+00 0.  1.
        -24    2    1    2    0    0 -0.23663507431E+03 -0.34947012658E+03  0.71502486481E+02  0.43510132746E+03  0.77942490448E+02 0.  0.
        254    2    1    2    0    0  0.23663507431E+03  0.34947012658E+03 -0.17782450657E+02  0.99808432040E+03  0.90428456103E+03 0.  0.
         23    2    4    4    0    0 -0.14189325128E+03  0.37309723690E+03  0.28937152487E+03  0.50172931528E+03  0.93065479408E+02 0.  0.
         23    2    4    4    0    0  0.37852832559E+03 -0.23627110317E+02 -0.30715397553E+03  0.49635500513E+03  0.90458790707E+02 0.  0.
          3    1    3    3  502    0 -0.18131705114E+03 -0.31012157453E+03  0.75550701134E+02  0.36709559036E+03  0.00000000000E+00 0. -1.
         -4    1    3    3    0  502 -0.55318023171E+02 -0.39348552055E+02 -0.40482146530E+01  0.68005737099E+02  0.00000000000E+00 0.  1.
         11    1    5    5    0    0 -0.52156933491E+02  0.17651105349E+03  0.18778302825E+03  0.26294289002E+03  0.00000000000E+00 0.  1.
        -11    1    5    5    0    0 -0.89736317789E+02  0.19658618342E+03  0.10158849663E+03  0.23878642526E+03  0.00000000000E+00 0. -1.
          1    1    6    6  503    0  0.10655667435E+03 -0.12349368458E+02 -0.38687491751E+02  0.11403312575E+03  0.00000000000E+00 0. -1.
         -1    1    6    6    0  503  0.27197165123E+03 -0.11277741859E+02 -0.26846648378E+03  0.38232187938E+03  0.00000000000E+00 0.  1.
<mgrwt>
<rscale>  0 0.14321785E+04</rscale>
<asrwt>0</asrwt>
<pdfrwt beam="1">  1        1 0.11437736E+00 0.14321785E+04</pdfrwt>
<pdfrwt beam="2">  1       -2 0.10611274E+00 0.14321785E+04</pdfrwt>
<totfact> 0.15157936E+01</totfact>
</mgrwt>
</event>
<event>
12    4  0.4486176E-008  0.1513336E+04  0.7818608E-02  0.8875633E-01
         -2   -1    0    0    0  501 -0.00000000000E+00  0.00000000000E+00  0.21062521233E+03  0.21062521233E+03  0.00000000000E+00 0.  1.
          1   -1    0    0  501    0  0.00000000000E+00 -0.00000000000E+00 -0.27183193006E+04  0.27183193006E+04  0.00000000000E+00 0. -1.
        -24    2    1    2    0    0  0.64682454741E+02 -0.45596875958E+03 -0.10727675870E+04  0.11701791301E+04  0.79984817569E+02 0.  0.
        254    2    1    2    0    0 -0.64682454741E+02  0.45596875958E+03 -0.14349265013E+04  0.17587653829E+04  0.90672502903E+03 0.  0.
         23    2    4    4    0    0 -0.40786904538E+03  0.15631173452E+02 -0.39416846270E+03  0.57438555727E+03  0.89154358527E+02 0.  0.
         23    2    4    4    0    0  0.34318659064E+03  0.44033758613E+03 -0.10407580386E+04  0.11843798256E+04  0.88904728173E+02 0.  0.
          1    1    3    3  502    0  0.29693209680E+02 -0.38134545112E+03 -0.83246429647E+03  0.91613473065E+03  0.00000000000E+00 0. -1.
         -2    1    3    3    0  502  0.34989245062E+02 -0.74623308465E+02 -0.24030329053E+03  0.25404439942E+03  0.00000000000E+00 0.  1.
         11    1    5    5    0    0 -0.10093848442E+03  0.14379495360E+02 -0.51069569876E+02  0.11403266414E+03  0.00000000000E+00 0.  1.
        -11    1    5    5    0    0 -0.30693056096E+03  0.12516780923E+01 -0.34309889283E+03  0.46035289312E+03  0.00000000000E+00 0. -1.
          3    1    6    6  503    0  0.32116545185E+03  0.36876499739E+03 -0.92913832570E+03  0.10499680467E+04  0.00000000000E+00 0. -1.
         -3    1    6    6    0  503  0.22021138791E+02  0.71572588739E+02 -0.11161971289E+03  0.13441177894E+03  0.00000000000E+00 0.  1.
<mgrwt>
<rscale>  0 0.15133362E+04</rscale>
<asrwt>0</asrwt>
<pdfrwt beam="1">  1        1 0.41820294E+00 0.15133362E+04</pdfrwt>
<pdfrwt beam="2">  1       -2 0.32403881E-01 0.15133362E+04</pdfrwt>
<totfact> 0.71981622E+00</totfact>
</mgrwt>
</event>
<event>
12    4  0.4486176E-008  0.1371569E+04  0.7818608E-02  0.8974659E-01
          1   -1    0    0  501    0  0.00000000000E+00  0.00000000000E+00  0.13874785927E+04  0.13874785927E+04  0.00000000000E+00 0. -1.
         -2   -1    0    0    0  501 -0.00000000000E+00 -0.00000000000E+00 -0.33896069452E+03  0.33896069452E+03  0.00000000000E+00 0.  1.
        -24    2    1    2    0    0 -0.12297211287E+03  0.79272395442E+02  0.75071795005E+03  0.76985799072E+03  0.87736150657E+02 0.  0.
        254    2    1    2    0    0  0.12297211287E+03 -0.79272395442E+02  0.29779994809E+03  0.95658129646E+03  0.89719379982E+03 0.  0.
         23    2    4    4    0    0 -0.84010952083E+02  0.11293600060E+03  0.54510281509E+03  0.57046675637E+03  0.92102447356E+02 0.  0.
         23    2    4    4    0    0  0.20698306496E+03 -0.19220839605E+03 -0.24730286700E+03  0.38611454009E+03  0.90220138283E+02 0.  0.
          1    1    3    3  502    0 -0.99093525846E+02  0.95575421211E+02  0.54510298170E+03  0.56222010695E+03  0.00000000000E+00 0. -1.
         -2    1    3    3    0  502 -0.23878587027E+02 -0.16303025769E+02  0.20561496835E+03  0.20763788377E+03  0.00000000000E+00 0.  1.
         11    1    5    5    0    0 -0.18739061021E+02 -0.77534819755E+01  0.16720846317E+03  0.16843378238E+03  0.00000000000E+00 0. -1.
        -11    1    5    5    0    0 -0.65271891063E+02  0.12068948258E+03  0.37789435191E+03  0.40203297399E+03  0.00000000000E+00 0.  1.
          1    1    6    6  503    0  0.13353459962E+02 -0.13494238704E+02 -0.59724863062E+02  0.62669519218E+02  0.00000000000E+00 0. -1.
         -1    1    6    6    0  503  0.19362960499E+03 -0.17871415734E+03 -0.18757800394E+03  0.32344502087E+03  0.00000000000E+00 0.  1.
<mgrwt>
<rscale>  0 0.13715695E+04</rscale>
<asrwt>0</asrwt>
<pdfrwt beam="1">  1        1 0.21345824E+00 0.13715695E+04</pdfrwt>
<pdfrwt beam="2">  1       -2 0.52147800E-01 0.13715695E+04</pdfrwt>
<totfact> 0.23332447E+01</totfact>
</mgrwt>
</event>
<event>
12    4  0.4486176E-008  0.2494646E+04  0.7818608E-02  0.8404895E-01
          1   -1    0    0  501    0  0.00000000000E+00  0.00000000000E+00  0.18872531060E+04  0.18872531060E+04  0.00000000000E+00 0. -1.
         -2   -1    0    0    0  501 -0.00000000000E+00 -0.00000000000E+00 -0.82438065282E+03  0.82438065282E+03  0.00000000000E+00 0.  1.
        -24    2    1    2    0    0 -0.94386067266E+03 -0.51198932985E+03  0.60220431582E+03  0.12331973569E+04  0.71551657545E+02 0.  0.
        254    2    1    2    0    0  0.94386067266E+03  0.51198932985E+03  0.46066813731E+03  0.14784364019E+04  0.90584381572E+03 0.  0.
         23    2    4    4    0    0 -0.10599325475E+03  0.31574241373E+02  0.26465471578E+03  0.30355570846E+03  0.99360187108E+02 0.  0.
         23    2    4    4    0    0  0.10498539274E+04  0.48041508848E+03  0.19601342153E+03  0.11748806935E+04  0.94506382213E+02 0.  0.
          3    1    3    3  502    0 -0.90523215941E+03 -0.47334351206E+03  0.57097443751E+03  0.11702611466E+04  0.00000000000E+00 0. -1.
         -4    1    3    3    0  502 -0.38628513250E+02 -0.38645817789E+02  0.31229878317E+02  0.62936210310E+02  0.00000000000E+00 0.  1.
         11    1    5    5    0    0 -0.10807537310E+03  0.16173734931E+02  0.13836952512E+03  0.17631789885E+03  0.00000000000E+00 0. -1.
        -11    1    5    5    0    0  0.20821183427E+01  0.15400506442E+02  0.12628519066E+03  0.12723780961E+03  0.00000000000E+00 0.  1.
          1    1    6    6  503    0  0.89844515490E+03  0.37861310389E+03  0.14718982278E+03  0.98601035630E+03  0.00000000000E+00 0. -1.
         -1    1    6    6    0  503  0.15140877251E+03  0.10180198459E+03  0.48823598754E+02  0.18887033715E+03  0.00000000000E+00 0.  1.
<mgrwt>
<rscale>  0 0.24946462E+04</rscale>
<asrwt>0</asrwt>
<pdfrwt beam="1">  1        1 0.29034663E+00 0.24946462E+04</pdfrwt>
<pdfrwt beam="2">  1       -2 0.12682779E+00 0.24946462E+04</pdfrwt>
<totfact> 0.12831258E+00</totfact>
</mgrwt>
</event>
<event>
12    4  0.4486176E-008  0.2411582E+04  0.7818608E-02  0.8435180E-01
         -2   -1    0    0    0  501 -0.00000000000E+00  0.00000000000E+00  0.11250798613E+04  0.11250798613E+04  0.00000000000E+00 0.  1.
          1   -1    0    0  501    0  0.00000000000E+00 -0.00000000000E+00 -0.12922921403E+04  0.12922921403E+04  0.00000000000E+00 0. -1.
        -24    2    1    2    0    0 -0.55854377164E+03 -0.77716823488E+03  0.34175417177E+03  0.10192913379E+04  0.78722979396E+02 0.  0.
        254    2    1    2    0    0  0.55854377164E+03  0.77716823488E+03 -0.50896645076E+03  0.13980806637E+04  0.88296154172E+03 0.  0.
         23    2    4    4    0    0  0.36114349025E+02  0.64345980311E+03  0.97139291741E-01  0.65107828570E+03  0.92510325144E+02 0.  0.
         23    2    4    4    0    0  0.52242942261E+03  0.13370843177E+03 -0.50906359005E+03  0.74700237802E+03  0.89757271135E+02 0.  0.
          1    1    3    3  502    0 -0.21400741021E+03 -0.26304559565E+03  0.87530694307E+02  0.35021961604E+03  0.00000000000E+00 0. -1.
         -2    1    3    3    0  502 -0.34453636142E+03 -0.51412263923E+03  0.25422347746E+03  0.66907172187E+03  0.00000000000E+00 0.  1.
         11    1    5    5    0    0  0.11932906361E+02  0.40659080864E+03  0.43392581047E+02  0.40907382710E+03  0.00000000000E+00 0.  1.
        -11    1    5    5    0    0  0.24181442663E+02  0.23686899446E+03 -0.43295441756E+02  0.24200445861E+03  0.00000000000E+00 0. -1.
          1    1    6    6  503    0  0.13347107638E+03  0.25410427514E+02 -0.79244244391E+02  0.15728912336E+03  0.00000000000E+00 0. -1.
         -1    1    6    6    0  503  0.38895834623E+03  0.10829800426E+03 -0.42981934566E+03  0.58971325467E+03  0.00000000000E+00 0.  1.
<mgrwt>
<rscale>  0 0.24115819E+04</rscale>
<asrwt>0</asrwt>
<pdfrwt beam="1">  1        1 0.19881418E+00 0.24115819E+04</pdfrwt>
<pdfrwt beam="2">  1       -2 0.17308921E+00 0.24115819E+04</pdfrwt>
<totfact> 0.14587054E+00</totfact>
</mgrwt>
</event>
<event>
12    4  0.4486176E-008  0.1064638E+04  0.7818608E-02  0.9240361E-01
          1   -1    0    0  501    0  0.00000000000E+00  0.00000000000E+00  0.44881283998E+03  0.44881283998E+03  0.00000000000E+00 0. -1.
         -2   -1    0    0    0  501 -0.00000000000E+00 -0.00000000000E+00 -0.63136214351E+03  0.63136214351E+03  0.00000000000E+00 0.  1.
        -24    2    1    2    0    0  0.60083007376E+02 -0.10121272686E+03  0.39741979635E+02  0.14868703255E+03  0.81697153252E+02 0.  0.
        254    2    1    2    0    0 -0.60083007376E+02  0.10121272686E+03 -0.22229128317E+03  0.93148795094E+03  0.89688483336E+03 0.  0.
         23    2    4    4    0    0  0.15126647155E+03  0.32928617887E+03 -0.41145985473E+03  0.55633810228E+03  0.94350087342E+02 0.  0.
         23    2    4    4    0    0 -0.21134947892E+03 -0.22807345201E+03  0.18916857157E+03  0.37514984866E+03  0.90920617698E+02 0.  0.
          3    1    3    3  502    0  0.57786185052E+02 -0.87260966174E+02  0.62494678217E+02  0.12189874571E+03  0.00000000000E+00 0. -1.
         -4    1    3    3    0  502  0.22968223243E+01 -0.13951760685E+02 -0.22752698582E+02  0.26788286839E+02  0.00000000000E+00 0.  1.
         11    1    5    5    0    0  0.84010864962E+02  0.81441244669E+02 -0.11402227331E+03  0.16337558133E+03  0.00000000000E+00 0. -1.
        -11    1    5    5    0    0  0.67255606586E+02  0.24784493420E+03 -0.29743758142E+03  0.39296252095E+03  0.00000000000E+00 0.  1.
          3    1    6    6  503    0 -0.13054674133E+03 -0.88824519867E+02  0.60642230991E+02  0.16914410182E+03  0.00000000000E+00 0. -1.
         -3    1    6    6    0  503 -0.80802737593E+02 -0.13924893215E+03  0.12852634057E+03  0.20600574683E+03  0.00000000000E+00 0.  1.
<mgrwt>
<rscale>  0 0.10646378E+04</rscale>
<asrwt>0</asrwt>
<pdfrwt beam="1">  1        1 0.69048129E-01 0.10646378E+04</pdfrwt>
<pdfrwt beam="2">  1       -2 0.97132637E-01 0.10646378E+04</pdfrwt>
<totfact> 0.39700198E+01</totfact>
</mgrwt>
</event>
<event>
12    4  0.4486176E-008  0.1322337E+04  0.7818608E-02  0.9012037E-01
         -2   -1    0    0    0  501 -0.00000000000E+00  0.00000000000E+00  0.29238588979E+03  0.29238588979E+03  0.00000000000E+00 0.  1.
          1   -1    0    0  501    0  0.00000000000E+00 -0.00000000000E+00 -0.14950925952E+04  0.14950925952E+04  0.00000000000E+00 0. -1.
        -24    2    1    2    0    0  0.35649475591E+03 -0.39176008333E+02 -0.27182098738E+03  0.45844043981E+03  0.87508382767E+02 0.  0.
        254    2    1    2    0    0 -0.35649475591E+03  0.39176008333E+02 -0.93088571803E+03  0.13290380452E+04  0.87816321656E+03 0.  0.
         23    2    4    4    0    0  0.68636896625E+02  0.14811635339E+03  0.95876645185E+02  0.20869471879E+03  0.87816153636E+02 0.  0.
         23    2    4    4    0    0 -0.42513165253E+03 -0.10894034506E+03 -0.10267623632E+04  0.11203433264E+04  0.91232109077E+02 0.  0.
          1    1    3    3  502    0  0.43305076523E+02 -0.20365525869E+02 -0.72021717307E+02  0.86470874059E+02  0.00000000000E+00 0. -1.
         -2    1    3    3    0  502  0.31318967938E+03 -0.18810482464E+02 -0.19979927007E+03  0.37196956575E+03  0.00000000000E+00 0.  1.
         11    1    5    5    0    0  0.65464938899E+01  0.70232330866E+02  0.81941730067E+02  0.10811976696E+03  0.00000000000E+00 0. -1.
        -11    1    5    5    0    0  0.62090402735E+02  0.77884022526E+02  0.13934915117E+02  0.10057495183E+03  0.00000000000E+00 0.  1.
          3    1    6    6  503    0  0.23390010357E+01  0.14996268314E+01 -0.10839375856E+00  0.27805675114E+01  0.00000000000E+00 0. -1.
         -3    1    6    6    0  503 -0.42747065357E+03 -0.11043997189E+03 -0.10266539695E+04  0.11175627589E+04  0.00000000000E+00 0.  1.
<mgrwt>
<rscale>  0 0.13223373E+04</rscale>
<asrwt>0</asrwt>
<pdfrwt beam="1">  1        1 0.23001424E+00 0.13223373E+04</pdfrwt>
<pdfrwt beam="2">  1       -2 0.44982445E-01 0.13223373E+04</pdfrwt>
<totfact> 0.26594387E+01</totfact>
</mgrwt>
</event>
<event>
12    4  0.4486176E-008  0.2149043E+04  0.7818608E-02  0.8539942E-01
         -2   -1    0    0    0  501 -0.00000000000E+00  0.00000000000E+00  0.65281256860E+03  0.65281256860E+03  0.00000000000E+00 0.  1.
          1   -1    0    0  501    0  0.00000000000E+00 -0.00000000000E+00 -0.17686486948E+04  0.17686486948E+04  0.00000000000E+00 0. -1.
        -24    2    1    2    0    0 -0.41409448005E+03 -0.57920691354E+03  0.12395529845E+03  0.72711135400E+03  0.79819283435E+02 0.  0.
        254    2    1    2    0    0  0.41409448005E+03  0.57920691354E+03 -0.12397914246E+04  0.16943499094E+04  0.90927660903E+03 0.  0.
         23    2    4    4    0    0  0.39744202437E+03  0.40658177695E+03 -0.13502556532E+04  0.14680059741E+04  0.92640741018E+02 0.  0.
         23    2    4    4    0    0  0.16652455675E+02  0.17262513658E+03  0.11046422857E+03  0.22634393529E+03  0.94617594500E+02 0.  0.
          1    1    3    3  502    0 -0.11613670424E+03 -0.19382219037E+03  0.72335856974E+02  0.23724934511E+03  0.00000000000E+00 0. -1.
         -2    1    3    3    0  502 -0.29795777581E+03 -0.38538472317E+03  0.51619441475E+02  0.48986200889E+03  0.00000000000E+00 0.  1.
         11    1    5    5    0    0  0.29037400931E+03  0.29245094808E+03 -0.86538162675E+03  0.95850403350E+03  0.00000000000E+00 0. -1.
        -11    1    5    5    0    0  0.10706801506E+03  0.11413082887E+03 -0.48487402642E+03  0.50950194057E+03  0.00000000000E+00 0.  1.
          2    1    6    6  503    0 -0.36312678759E+02  0.60525299961E+02  0.59423082073E+02  0.92266056906E+02  0.00000000000E+00 0. -1.
         -2    1    6    6    0  503  0.52965134434E+02  0.11209983662E+03  0.51041146496E+02  0.13407787839E+03  0.00000000000E+00 0.  1.
<mgrwt>
<rscale>  0 0.21490427E+04</rscale>
<asrwt>0</asrwt>
<pdfrwt beam="1">  1        1 0.27209979E+00 0.21490427E+04</pdfrwt>
<pdfrwt beam="2">  1       -2 0.10043270E+00 0.21490427E+04</pdfrwt>
<totfact> 0.28134787E+00</totfact>
</mgrwt>
</event>
<event>
12    4  0.4486176E-008  0.1300526E+04  0.7818608E-02  0.9029148E-01
          1   -1    0    0  501    0  0.00000000000E+00  0.00000000000E+00  0.41208727061E+03  0.41208727061E+03  0.00000000000E+00 0. -1.
         -2   -1    0    0    0  501 -0.00000000000E+00 -0.00000000000E+00 -0.10260981428E+04  0.10260981428E+04  0.00000000000E+00 0.  1.
        -24    2    1    2    0    0  0.13011877701E+02  0.30385148178E+03 -0.30206612086E+03  0.43593775965E+03  0.79389904759E+02 0.  0.
        254    2    1    2    0    0 -0.13011877701E+02 -0.30385148178E+03 -0.31194475137E+03  0.10022476538E+04  0.90260500758E+03 0.  0.
         23    2    4    4    0    0 -0.41690262367E+03  0.18066404978E+02 -0.14781207091E+03  0.45194945981E+03  0.90970947586E+02 0.  0.
         23    2    4    4    0    0  0.40389074597E+03 -0.32191788676E+03 -0.16413268047E+03  0.55029819399E+03  0.95549489909E+02 0.  0.
          3    1    3    3  502    0  0.19174876584E+02  0.15656636311E+02 -0.14124062558E+02  0.28500794651E+02  0.00000000000E+00 0. -1.
         -4    1    3    3    0  502 -0.61629988825E+01  0.28819484547E+03 -0.28794205830E+03  0.40743696500E+03  0.00000000000E+00 0.  1.
         11    1    5    5    0    0 -0.92886385162E+02  0.38669865481E+02 -0.17607058848E+02  0.10214326980E+03  0.00000000000E+00 0. -1.
        -11    1    5    5    0    0 -0.32401623851E+03 -0.20603460503E+02 -0.13020501206E+03  0.34980619001E+03  0.00000000000E+00 0.  1.
          1    1    6    6  503    0  0.19266018937E+03 -0.10236584448E+03 -0.42602076823E+02  0.22228731776E+03  0.00000000000E+00 0. -1.
         -1    1    6    6    0  503  0.21123055659E+03 -0.21955204228E+03 -0.12153060364E+03  0.32801087624E+03  0.00000000000E+00 0.  1.
<mgrwt>
<rscale>  0 0.13005260E+04</rscale>
<asrwt>0</asrwt>
<pdfrwt beam="1">  1        1 0.63398041E-01 0.13005260E+04</pdfrwt>
<pdfrwt beam="2">  1       -2 0.15786125E+00 0.13005260E+04</pdfrwt>
<totfact> 0.12919508E+01</totfact>
</mgrwt>
</event>
<event>
12    4  0.4486176E-008  0.1989820E+04  0.7818608E-02  0.8611395E-01
         -2   -1    0    0    0  501 -0.00000000000E+00  0.00000000000E+00  0.99732616181E+03  0.99732616181E+03  0.00000000000E+00 0.  1.
          1   -1    0    0  501    0  0.00000000000E+00 -0.00000000000E+00 -0.99249936394E+03  0.99249936394E+03  0.00000000000E+00 0. -1.
        -24    2    1    2    0    0 -0.54664051064E+03  0.48306269114E+03 -0.28011761828E+03  0.78560144028E+03  0.80859949572E+02 0.  0.
        254    2    1    2    0    0  0.54664051064E+03 -0.48306269114E+03  0.28494441615E+03  0.12042240855E+04  0.91476604457E+03 0.  0.
         23    2    4    4    0    0 -0.33914829294E+02 -0.59965390765E+02 -0.26926652679E+03  0.29258172772E+03  0.91397709015E+02 0.  0.
         23    2    4    4    0    0  0.58055533994E+03 -0.42309730038E+03  0.55421094293E+03  0.91164235775E+03  0.88804227749E+02 0.  0.
          3    1    3    3  502    0 -0.31981475869E+03  0.27573158548E+03 -0.11948350460E+03  0.43884586700E+03  0.00000000000E+00 0. -1.
         -4    1    3    3    0  502 -0.22682575195E+03  0.20733110567E+03 -0.16063411368E+03  0.34675557328E+03  0.00000000000E+00 0.  1.
         11    1    5    5    0    0 -0.52677992317E+02 -0.73395944730E+02 -0.19716179778E+03  0.21687487195E+03  0.00000000000E+00 0. -1.
        -11    1    5    5    0    0  0.18763163023E+02  0.13430553965E+02 -0.72104729005E+02  0.75706855775E+02  0.00000000000E+00 0.  1.
          4    1    6    6  503    0  0.13397584119E+03 -0.10397630256E+03  0.85789568145E+02  0.19005380164E+03  0.00000000000E+00 0.  1.
         -4    1    6    6    0  503  0.44657949875E+03 -0.31912099782E+03  0.46842137479E+03  0.72158855611E+03  0.00000000000E+00 0. -1.
<mgrwt>
<rscale>  0 0.19898197E+04</rscale>
<asrwt>0</asrwt>
<pdfrwt beam="1">  1        1 0.15269221E+00 0.19898197E+04</pdfrwt>
<pdfrwt beam="2">  1       -2 0.15343479E+00 0.19898197E+04</pdfrwt>
<totfact> 0.35209733E+00</totfact>
</mgrwt>
</event>
<event>
12    4  0.4486176E-008  0.2747413E+04  0.7818608E-02  0.8319783E-01
         -2   -1    0    0    0  501 -0.00000000000E+00  0.00000000000E+00  0.21214062859E+04  0.21214062859E+04  0.00000000000E+00 0.  1.
          1   -1    0    0  501    0  0.00000000000E+00 -0.00000000000E+00 -0.88953688907E+03  0.88953688907E+03  0.00000000000E+00 0. -1.
        -24    2    1    2    0    0 -0.34887774586E+02 -0.10256455542E+04 -0.17790441475E+03  0.10449758928E+04  0.84608959959E+02 0.  0.
        254    2    1    2    0    0  0.34887774586E+02  0.10256455542E+04  0.14097738116E+04  0.19659672822E+04  0.90796431388E+03 0.  0.
         23    2    4    4    0    0 -0.34464594638E+03  0.88042936448E+03  0.10481442663E+04  0.14145210673E+04  0.91251041777E+02 0.  0.
         23    2    4    4    0    0  0.37953372097E+03  0.14521618967E+03  0.36162954521E+03  0.55144621486E+03  0.90462217622E+02 0.  0.
          1    1    3    3  502    0 -0.48205408399E+02 -0.42090003886E+03 -0.97898310784E+02  0.43481568896E+03  0.00000000000E+00 0. -1.
         -2    1    3    3    0  502  0.13317633812E+02 -0.60474551529E+03 -0.80006103970E+02  0.61016020381E+03  0.00000000000E+00 0.  1.
         11    1    5    5    0    0 -0.22919997593E+02  0.12989668830E+03  0.12035993821E+03  0.17856368793E+03  0.00000000000E+00 0. -1.
        -11    1    5    5    0    0 -0.32172594879E+03  0.75053267618E+03  0.92778432814E+03  0.12359573794E+04  0.00000000000E+00 0.  1.
          4    1    6    6  503    0  0.78396773015E+02  0.37632738711E+02  0.13076325609E+03  0.15703918678E+03  0.00000000000E+00 0. -1.
         -4    1    6    6    0  503  0.30113694795E+03  0.10758345096E+03  0.23086628912E+03  0.39440702808E+03  0.00000000000E+00 0.  1.
<mgrwt>
<rscale>  0 0.27474127E+04</rscale>
<asrwt>0</asrwt>
<pdfrwt beam="1">  1        1 0.13685183E+00 0.27474127E+04</pdfrwt>
<pdfrwt beam="2">  1       -2 0.32637020E+00 0.27474127E+04</pdfrwt>
<totfact> 0.30957983E-01</totfact>
</mgrwt>
</event>
<event>
12    4  0.4486176E-008  0.2056061E+04  0.7818608E-02  0.8580850E-01
         -2   -1    0    0    0  501 -0.00000000000E+00  0.00000000000E+00  0.94077357019E+03  0.94077357019E+03  0.00000000000E+00 0.  1.
          1   -1    0    0  501    0  0.00000000000E+00 -0.00000000000E+00 -0.11233802906E+04  0.11233802906E+04  0.00000000000E+00 0. -1.
        -24    2    1    2    0    0 -0.83972972669E+02 -0.73775634693E+03  0.29453562279E+03  0.80360950622E+03  0.87756013013E+02 0.  0.
        254    2    1    2    0    0  0.83972972669E+02  0.73775634693E+03 -0.47714234323E+03  0.12605443546E+04  0.89998409243E+03 0.  0.
         23    2    4    4    0    0  0.40142372971E+03  0.55790926670E+03 -0.54142482648E+03  0.87961644858E+03  0.90446079178E+02 0.  0.
         23    2    4    4    0    0 -0.31745075704E+03  0.17984708024E+03  0.64282483246E+02  0.38092790602E+03  0.88622099492E+02 0.  0.
          3    1    3    3  502    0  0.12862182747E+02 -0.54484279372E+02  0.86914294489E+01  0.56652567370E+02  0.00000000000E+00 0. -1.
         -4    1    3    3    0  502 -0.96835155416E+02 -0.68327206756E+03  0.28584419334E+03  0.74695693885E+03  0.00000000000E+00 0.  1.
         11    1    5    5    0    0  0.18382239231E+03  0.18090971376E+03 -0.20585449801E+03  0.32999253143E+03  0.00000000000E+00 0. -1.
        -11    1    5    5    0    0  0.21760133740E+03  0.37699955294E+03 -0.33557032847E+03  0.54962391715E+03  0.00000000000E+00 0.  1.
          4    1    6    6  503    0 -0.31938939457E+03  0.18559444831E+03  0.63370002899E+02  0.37479413266E+03  0.00000000000E+00 0. -1.
         -4    1    6    6    0  503  0.19386375304E+01 -0.57473680755E+01  0.91248034695E+00  0.61337733617E+01  0.00000000000E+00 0.  1.
<mgrwt>
<rscale>  0 0.20560608E+04</rscale>
<asrwt>0</asrwt>
<pdfrwt beam="1">  1        1 0.17282774E+00 0.20560608E+04</pdfrwt>
<pdfrwt beam="2">  1       -2 0.14473440E+00 0.20560608E+04</pdfrwt>
<totfact> 0.32458981E+00</totfact>
</mgrwt>
</event>
<event>
12    4  0.4486176E-008  0.2479542E+04  0.7818608E-02  0.8410310E-01
          1   -1    0    0  501    0  0.00000000000E+00  0.00000000000E+00  0.28368837075E+04  0.28368837075E+04  0.00000000000E+00 0. -1.
         -2   -1    0    0    0  501 -0.00000000000E+00 -0.00000000000E+00 -0.54180316782E+03  0.54180316782E+03  0.00000000000E+00 0.  1.
        -24    2    1    2    0    0 -0.32503884851E+03 -0.10227862636E+04  0.10046173279E+04  0.14722348828E+04  0.80483418154E+02 0.  0.
        254    2    1    2    0    0  0.32503884851E+03  0.10227862636E+04  0.12904632118E+04  0.19064519925E+04  0.90416917924E+03 0.  0.
         23    2    4    4    0    0  0.46142521455E+03  0.77634504133E+03  0.44492117074E+03  0.10105858431E+04  0.87772696500E+02 0.  0.
         23    2    4    4    0    0 -0.13638636604E+03  0.24644122230E+03  0.84554204107E+03  0.89586614945E+03  0.91105969180E+02 0.  0.
          1    1    3    3  502    0 -0.59553902033E+02 -0.19355863802E+03  0.14823508992E+03  0.25096863446E+03  0.00000000000E+00 0. -1.
         -2    1    3    3    0  502 -0.26548494648E+03 -0.82922762561E+03  0.85638223800E+03  0.12212662484E+04  0.00000000000E+00 0.  1.
         11    1    5    5    0    0  0.51387584172E+02  0.93108540620E+02  0.85439166456E+02  0.13641750367E+03  0.00000000000E+00 0.  1.
        -11    1    5    5    0    0  0.41003763038E+03  0.68323650071E+03  0.35948200429E+03  0.87416833941E+03  0.00000000000E+00 0. -1.
          2    1    6    6  503    0 -0.14800010591E+03  0.23706514899E+03  0.77738979835E+03  0.82609855029E+03  0.00000000000E+00 0. -1.
         -2    1    6    6    0  503  0.11613739864E+02  0.93760733040E+01  0.68152242725E+02  0.69767599161E+02  0.00000000000E+00 0.  1.
<mgrwt>
<rscale>  0 0.24795424E+04</rscale>
<asrwt>0</asrwt>
<pdfrwt beam="1">  1        1 0.43644364E+00 0.24795424E+04</pdfrwt>
<pdfrwt beam="2">  1       -2 0.83354335E-01 0.24795424E+04</pdfrwt>
<totfact> 0.77301820E-01</totfact>
</mgrwt>
</event>
<event>
12    4  0.4486176E-008  0.1927481E+04  0.7818608E-02  0.8641297E-01
          1   -1    0    0  501    0  0.00000000000E+00  0.00000000000E+00  0.62635596992E+03  0.62635596992E+03  0.00000000000E+00 0. -1.
         -2   -1    0    0    0  501 -0.00000000000E+00 -0.00000000000E+00 -0.14828560395E+04  0.14828560395E+04  0.00000000000E+00 0.  1.
        -24    2    1    2    0    0  0.16018577126E+03  0.11852343164E+03  0.45524396034E+03  0.50326993942E+03  0.79537936506E+02 0.  0.
        254    2    1    2    0    0 -0.16018577126E+03 -0.11852343164E+03 -0.13117440299E+04  0.16059420700E+04  0.90480398266E+03 0.  0.
         23    2    4    4    0    0 -0.12980151146E+03  0.37991305369E+03 -0.68453431891E+03  0.79901506818E+03  0.93034857222E+02 0.  0.
         23    2    4    4    0    0 -0.30384259798E+02 -0.49843648533E+03 -0.62720971102E+03  0.80692700185E+03  0.91526125020E+02 0.  0.
          3    1    3    3  502    0  0.10961671684E+03  0.79366309388E+02  0.38586557421E+03  0.40890961964E+03  0.00000000000E+00 0. -1.
         -4    1    3    3    0  502  0.50569054415E+02  0.39157122249E+02  0.69378386126E+02  0.94360319778E+02  0.00000000000E+00 0.  1.
         11    1    5    5    0    0 -0.35523357151E+01  0.21230547056E+02 -0.95577304028E+02  0.97971303261E+02  0.00000000000E+00 0.  1.
        -11    1    5    5    0    0 -0.12624917575E+03  0.35868250664E+03 -0.58895701489E+03  0.70104376491E+03  0.00000000000E+00 0. -1.
          3    1    6    6  503    0 -0.50033044077E+02 -0.32197612806E+03 -0.35438148898E+03  0.48141268395E+03  0.00000000000E+00 0. -1.
         -3    1    6    6    0  503  0.19648784278E+02 -0.17646035726E+03 -0.27282822205E+03  0.32551431789E+03  0.00000000000E+00 0.  1.
<mgrwt>
<rscale>  0 0.19274810E+04</rscale>
<asrwt>0</asrwt>
<pdfrwt beam="1">  1        1 0.96362457E-01 0.19274810E+04</pdfrwt>
<pdfrwt beam="2">  1       -2 0.22813170E+00 0.19274810E+04</pdfrwt>
<totfact> 0.23083376E+00</totfact>
</mgrwt>
</event>
<event>
12    4  0.4486176E-008  0.1332509E+04  0.7818608E-02  0.9004175E-01
          1   -1    0    0  501    0  0.00000000000E+00  0.00000000000E+00  0.10959238479E+04  0.10959238479E+04  0.00000000000E+00 0. -1.
         -2   -1    0    0    0  501 -0.00000000000E+00 -0.00000000000E+00 -0.40504210263E+03  0.40504210263E+03  0.00000000000E+00 0.  1.
        -24    2    1    2    0    0 -0.28335546932E+03  0.14389019232E+03  0.42384480901E+03  0.53605915975E+03  0.81977382173E+02 0.  0.
        254    2    1    2    0    0  0.28335546932E+03 -0.14389019232E+03  0.26703693629E+03  0.96490679080E+03  0.87105779381E+03 0.  0.
         23    2    4    4    0    0  0.65730447544E+02  0.30289924834E+03 -0.10285398765E+03  0.33933483866E+03  0.92199477069E+02 0.  0.
         23    2    4    4    0    0  0.21762502177E+03 -0.44678944066E+03  0.36989092393E+03  0.62557195214E+03  0.86830393925E+02 0.  0.
          1    1    3    3  502    0 -0.80698068052E+02  0.79013960019E+02  0.17920885363E+03  0.21182822589E+03  0.00000000000E+00 0. -1.
         -2    1    3    3    0  502 -0.20265740127E+03  0.64876232303E+02  0.24463595539E+03  0.32423093386E+03  0.00000000000E+00 0.  1.
         11    1    5    5    0    0 -0.21847994088E+01  0.19754928235E+03 -0.71773942275E+02  0.21019512624E+03  0.00000000000E+00 0. -1.
        -11    1    5    5    0    0  0.67915246953E+02  0.10534996599E+03 -0.31080045373E+02  0.12913971242E+03  0.00000000000E+00 0.  1.
          3    1    6    6  503    0  0.43526131730E+02 -0.34592850739E+02  0.56614939969E+02  0.79350115900E+02  0.00000000000E+00 0. -1.
         -3    1    6    6    0  503  0.17409889004E+03 -0.41219658992E+03  0.31327598396E+03  0.54622183624E+03  0.00000000000E+00 0.  1.
<mgrwt>
<rscale>  0 0.13325094E+04</rscale>
<asrwt>0</asrwt>
<pdfrwt beam="1">  1        1 0.16860367E+00 0.13325094E+04</pdfrwt>
<pdfrwt beam="2">  1       -2 0.62314170E-01 0.13325094E+04</pdfrwt>
<totfact> 0.26226164E+01</totfact>
</mgrwt>
</event>
<event>
12    4  0.4486176E-008  0.3293665E+04  0.7818608E-02  0.8164509E-01
          1   -1    0    0  501    0  0.00000000000E+00  0.00000000000E+00  0.14323974931E+04  0.14323974931E+04  0.00000000000E+00 0. -1.
         -2   -1    0    0    0  501 -0.00000000000E+00 -0.00000000000E+00 -0.18933694124E+04  0.18933694124E+04  0.00000000000E+00 0.  1.
        -24    2    1    2    0    0  0.63427489013E+03  0.51786461045E+03  0.10786264027E+04  0.13567850957E+04  0.83321595637E+02 0.  0.
        254    2    1    2    0    0 -0.63427489013E+03 -0.51786461045E+03 -0.15395983220E+04  0.19689818098E+04  0.91435112683E+03 0.  0.
         23    2    4    4    0    0 -0.21228588067E+02 -0.95596245068E+02 -0.10819717500E+04  0.10902692692E+04  0.91841801675E+02 0.  0.
         23    2    4    4    0    0 -0.61304630206E+03 -0.42226836538E+03 -0.45762657200E+03  0.87871254058E+03  0.92613760870E+02 0.  0.
          1    1    3    3  502    0  0.57641253326E+03  0.46404388833E+03  0.93024924239E+03  0.11886764874E+04  0.00000000000E+00 0. -1.
         -2    1    3    3    0  502  0.57862356873E+02  0.53820722120E+02  0.14837716034E+03  0.16810860830E+03  0.00000000000E+00 0.  1.
         11    1    5    5    0    0 -0.39567311149E+02 -0.33632674539E+02 -0.76594987634E+03  0.76770824013E+03  0.00000000000E+00 0.  1.
        -11    1    5    5    0    0  0.18338723082E+02 -0.61963570529E+02 -0.31602187366E+03  0.32256102906E+03  0.00000000000E+00 0. -1.
          1    1    6    6  503    0 -0.52837986067E+03 -0.36102459081E+03 -0.35301260069E+03  0.73085014098E+03  0.00000000000E+00 0. -1.
         -1    1    6    6    0  503 -0.84666441394E+02 -0.61243774574E+02 -0.10461397131E+03  0.14786239960E+03  0.00000000000E+00 0.  1.
<mgrwt>
<rscale>  0 0.32936652E+04</rscale>
<asrwt>0</asrwt>
<pdfrwt beam="1">  1        1 0.22036884E+00 0.32936652E+04</pdfrwt>
<pdfrwt beam="2">  1       -2 0.29128760E+00 0.32936652E+04</pdfrwt>
<totfact> 0.19096786E-01</totfact>
</mgrwt>
</event>
<event>
12    4  0.4486176E-008  0.1705954E+04  0.7818608E-02  0.8757976E-01
         -2   -1    0    0    0  501 -0.00000000000E+00  0.00000000000E+00  0.28449115506E+03  0.28449115506E+03  0.00000000000E+00 0.  1.
          1   -1    0    0  501    0  0.00000000000E+00 -0.00000000000E+00 -0.25574418045E+04  0.25574418045E+04  0.00000000000E+00 0. -1.
        -24    2    1    2    0    0  0.33595869260E+03  0.45979219189E+03 -0.46034323527E+03  0.73663723706E+03  0.80258469377E+02 0.  0.
        254    2    1    2    0    0 -0.33595869260E+03 -0.45979219189E+03 -0.18126074142E+04  0.21052957225E+04  0.90688882365E+03 0.  0.
         23    2    4    4    0    0 -0.22449253121E+03  0.23723621666E+03 -0.78603525481E+03  0.85610159015E+03  0.91545572177E+02 0.  0.
         23    2    4    4    0    0 -0.11146616139E+03 -0.69702840854E+03 -0.10265721594E+04  0.12491941324E+04  0.91445472875E+02 0.  0.
          1    1    3    3  502    0  0.70993880759E+02  0.14124470520E+03 -0.96420888541E+02  0.18516799291E+03  0.00000000000E+00 0. -1.
         -2    1    3    3    0  502  0.26496481184E+03  0.31854748669E+03 -0.36392234673E+03  0.55146924415E+03  0.00000000000E+00 0.  1.
         11    1    5    5    0    0 -0.98930784691E+02  0.11062975930E+03 -0.47423910301E+03  0.49691948103E+03  0.00000000000E+00 0. -1.
        -11    1    5    5    0    0 -0.12556174651E+03  0.12660645736E+03 -0.31179615180E+03  0.35918210912E+03  0.00000000000E+00 0.  1.
          2    1    6    6  503    0 -0.49891594956E+02 -0.15306266370E+03 -0.18505168384E+03  0.24527836423E+03  0.00000000000E+00 0. -1.
         -2    1    6    6    0  503 -0.61574566437E+02 -0.54396574485E+03 -0.84152047553E+03  0.10039157681E+04  0.00000000000E+00 0.  1.
<mgrwt>
<rscale>  0 0.17059538E+04</rscale>
<asrwt>0</asrwt>
<pdfrwt beam="1">  1        1 0.39345258E+00 0.17059538E+04</pdfrwt>
<pdfrwt beam="2">  1       -2 0.43767871E-01 0.17059538E+04</pdfrwt>
<totfact> 0.51179876E+00</totfact>
</mgrwt>
</event>
<event>
12    4  0.4486176E-008  0.1298674E+04  0.7818608E-02  0.9030618E-01
         -2   -1    0    0    0  501 -0.00000000000E+00  0.00000000000E+00  0.25468436757E+03  0.25468436757E+03  0.00000000000E+00 0.  1.
          1   -1    0    0  501    0  0.00000000000E+00 -0.00000000000E+00 -0.16555324522E+04  0.16555324522E+04  0.00000000000E+00 0. -1.
        -24    2    1    2    0    0  0.11442898562E+03  0.76405333302E+02 -0.80267274866E+03  0.81991617743E+03  0.95116922038E+02 0.  0.
        254    2    1    2    0    0 -0.11442898562E+03 -0.76405333302E+02 -0.59817533602E+03  0.10903006424E+04  0.90111596949E+03 0.  0.
         23    2    4    4    0    0 -0.46232697832E+01  0.11229346604E+03  0.20603911067E+03  0.25209988830E+03  0.92038260617E+02 0.  0.
         23    2    4    4    0    0 -0.10980571583E+03 -0.18869879934E+03 -0.80421444669E+03  0.83820075409E+03  0.90305569030E+02 0.  0.
          1    1    3    3  502    0  0.10961201883E+03  0.27968033635E+02 -0.64685957690E+03  0.65667672245E+03  0.00000000000E+00 0. -1.
         -2    1    3    3    0  502  0.48169667913E+01  0.48437299667E+02 -0.15581317176E+03  0.16323945498E+03  0.00000000000E+00 0.  1.
         11    1    5    5    0    0 -0.79392833197E+01 -0.14835515198E+02  0.36253738421E+02  0.39968215877E+02  0.00000000000E+00 0.  1.
        -11    1    5    5    0    0  0.33160135364E+01  0.12712898124E+03  0.16978537225E+03  0.21213167242E+03  0.00000000000E+00 0. -1.
          1    1    6    6  503    0 -0.10691438412E+03 -0.15458390918E+03 -0.75633835836E+03  0.77934240411E+03  0.00000000000E+00 0. -1.
         -1    1    6    6    0  503 -0.28913317129E+01 -0.34114890158E+02 -0.47876088324E+02  0.58858349983E+02  0.00000000000E+00 0.  1.
<mgrwt>
<rscale>  0 0.12986735E+04</rscale>
<asrwt>0</asrwt>
<pdfrwt beam="1">  1        1 0.25469729E+00 0.12986735E+04</pdfrwt>
<pdfrwt beam="2">  1       -2 0.39182211E-01 0.12986735E+04</pdfrwt>
<totfact> 0.27149896E+01</totfact>
</mgrwt>
</event>
<event>
12    4  0.4486176E-008  0.3201042E+04  0.7818608E-02  0.8188542E-01
          1   -1    0    0  501    0  0.00000000000E+00  0.00000000000E+00  0.30898618594E+04  0.30898618594E+04  0.00000000000E+00 0. -1.
         -2   -1    0    0    0  501 -0.00000000000E+00 -0.00000000000E+00 -0.82905541340E+03  0.82905541340E+03  0.00000000000E+00 0.  1.
        -24    2    1    2    0    0 -0.73231285832E+03 -0.41240760805E+02 -0.51496143398E+03  0.89961686117E+03  0.78372798883E+02 0.  0.
        254    2    1    2    0    0  0.73231285832E+03  0.41240760805E+02  0.27757678799E+04  0.30193004116E+04  0.93450774707E+03 0.  0.
         23    2    4    4    0    0  0.61187491071E+03 -0.37451370120E+03  0.14248418215E+04  0.15978361378E+04  0.90855315113E+02 0.  0.
         23    2    4    4    0    0  0.12043794761E+03  0.41575446200E+03  0.13509260584E+04  0.14214642738E+04  0.90567071034E+02 0.  0.
          3    1    3    3  502    0 -0.44764109456E+02  0.11620203068E+02 -0.18015199341E+02  0.49632670914E+02  0.00000000000E+00 0. -1.
         -4    1    3    3    0  502 -0.68754874886E+03 -0.52860963873E+02 -0.49694623464E+03  0.84998419026E+03  0.00000000000E+00 0.  1.
         11    1    5    5    0    0  0.66238471077E+02 -0.76174790703E+02  0.21548311829E+03  0.23795610531E+03  0.00000000000E+00 0. -1.
        -11    1    5    5    0    0  0.54563643963E+03 -0.29833891049E+03  0.12093587032E+04  0.13598800325E+04  0.00000000000E+00 0.  1.
          1    1    6    6  503    0  0.47501188048E+02  0.64081266130E+02  0.18474746175E+03  0.20123219463E+03  0.00000000000E+00 0. -1.
         -1    1    6    6    0  503  0.72936759566E+02  0.35167319587E+03  0.11661785967E+04  0.12202320792E+04  0.00000000000E+00 0.  1.
<mgrwt>
<rscale>  0 0.32010415E+04</rscale>
<asrwt>0</asrwt>
<pdfrwt beam="1">  1        1 0.47536336E+00 0.32010415E+04</pdfrwt>
<pdfrwt beam="2">  1       -2 0.12754699E+00 0.32010415E+04</pdfrwt>
<totfact> 0.17219182E-01</totfact>
</mgrwt>
</event>
<event>
12    4  0.4486176E-008  0.2192459E+04  0.7818608E-02  0.8521573E-01
         -2   -1    0    0    0  501 -0.00000000000E+00  0.00000000000E+00  0.99710317326E+03  0.99710317326E+03  0.00000000000E+00 0.  1.
          1   -1    0    0  501    0  0.00000000000E+00 -0.00000000000E+00 -0.12052107064E+04  0.12052107064E+04  0.00000000000E+00 0. -1.
        -24    2    1    2    0    0  0.11299784614E+03 -0.52282560107E+03 -0.81985143177E+03  0.98431304924E+03  0.10295963459E+03 0.  0.
        254    2    1    2    0    0 -0.11299784614E+03  0.52282560107E+03  0.61174389860E+03  0.12180008304E+04  0.90729284309E+03 0.  0.
         23    2    4    4    0    0  0.11287671035E+02  0.34391750696E+03  0.82646991134E+03  0.89931640163E+03  0.85503291008E+02 0.  0.
         23    2    4    4    0    0 -0.12428551718E+03  0.17890809411E+03 -0.21472601274E+03  0.31868442882E+03  0.89428791253E+02 0.  0.
          3    1    3    3  502    0  0.11842351057E+03 -0.42375021372E+03 -0.71822751679E+03  0.84228210082E+03  0.00000000000E+00 0. -1.
         -4    1    3    3    0  502 -0.54256644295E+01 -0.99075387348E+02 -0.10162391498E+03  0.14203094842E+03  0.00000000000E+00 0.  1.
         11    1    5    5    0    0  0.11722981866E+02  0.30810259386E+02  0.34590477036E+02  0.47782857688E+02  0.00000000000E+00 0.  1.
        -11    1    5    5    0    0 -0.43531083151E+00  0.31310724758E+03  0.79187943431E+03  0.85153354394E+03  0.00000000000E+00 0. -1.
          4    1    6    6  503    0 -0.40728101749E+02  0.27887519343E+02 -0.99763242965E+02  0.11130676823E+03  0.00000000000E+00 0. -1.
         -4    1    6    6    0  503 -0.83557415426E+02  0.15102057476E+03 -0.11496276978E+03  0.20737766058E+03  0.00000000000E+00 0.  1.
<mgrwt>
<rscale>  0 0.21924593E+04</rscale>
<asrwt>0</asrwt>
<pdfrwt beam="1">  1        1 0.18541703E+00 0.21924593E+04</pdfrwt>
<pdfrwt beam="2">  1       -2 0.15340049E+00 0.21924593E+04</pdfrwt>
<totfact> 0.23928940E+00</totfact>
</mgrwt>
</event>
<event>
12    4  0.4486176E-008  0.1738913E+04  0.7818608E-02  0.8739477E-01
         -2   -1    0    0    0  501 -0.00000000000E+00  0.00000000000E+00  0.51622713171E+03  0.51622713171E+03  0.00000000000E+00 0.  1.
          1   -1    0    0  501    0  0.00000000000E+00 -0.00000000000E+00 -0.14643837414E+04  0.14643837414E+04  0.00000000000E+00 0. -1.
        -24    2    1    2    0    0 -0.49568761721E+03 -0.35814145769E+03 -0.14969048221E+03  0.63451887846E+03  0.78964859780E+02 0.  0.
        254    2    1    2    0    0  0.49568761721E+03  0.35814145769E+03 -0.79846612746E+03  0.13460919946E+04  0.89467535102E+03 0.  0.
         23    2    4    4    0    0  0.27602781406E+02  0.36700674384E+03 -0.78190886188E+03  0.86894901416E+03  0.90747216808E+02 0.  0.
         23    2    4    4    0    0  0.46808483581E+03 -0.88652861425E+01 -0.16557265581E+02  0.47714298047E+03  0.90605043795E+02 0.  0.
          3    1    3    3  502    0 -0.13638837832E+03 -0.14072933141E+03 -0.33847539246E+02  0.19887732493E+03  0.00000000000E+00 0. -1.
         -4    1    3    3    0  502 -0.35929923889E+03 -0.21741212629E+03 -0.11584294296E+03  0.43564155353E+03  0.00000000000E+00 0.  1.
         11    1    5    5    0    0  0.36814931767E+02  0.85753110636E+02 -0.25611001714E+03  0.27258260411E+03  0.00000000000E+00 0. -1.
        -11    1    5    5    0    0 -0.92121503605E+01  0.28125363320E+03 -0.52579884474E+03  0.59636641004E+03  0.00000000000E+00 0.  1.
          4    1    6    6  503    0  0.11928100594E+03 -0.40611678505E+02 -0.14993503349E+02  0.12689393978E+03  0.00000000000E+00 0. -1.
         -4    1    6    6    0  503  0.34880382987E+03  0.31746392362E+02 -0.15637622324E+01  0.35024904070E+03  0.00000000000E+00 0.  1.
<mgrwt>
<rscale>  0 0.17389130E+04</rscale>
<asrwt>0</asrwt>
<pdfrwt beam="1">  1        1 0.22528980E+00 0.17389130E+04</pdfrwt>
<pdfrwt beam="2">  1       -2 0.79419560E-01 0.17389130E+04</pdfrwt>
<totfact> 0.80994370E+00</totfact>
</mgrwt>
</event>
<event>
12    4  0.4965174E-008  0.1932036E+04  0.7818608E-02  0.8639072E-01
         -4   -1    0    0    0  501 -0.00000000000E+00  0.00000000000E+00  0.55597916568E+03  0.55597916568E+03  0.00000000000E+00 0.  1.
          3   -1    0    0  501    0  0.00000000000E+00 -0.00000000000E+00 -0.16784631963E+04  0.16784631963E+04  0.00000000000E+00 0. -1.
        -24    2    1    2    0    0 -0.21139767964E+03  0.68809579351E+03 -0.17523665536E+03  0.74531810793E+03  0.81402681914E+02 0.  0.
        254    2    1    2    0    0  0.21139767964E+03 -0.68809579351E+03 -0.94724737524E+03  0.14891242540E+04  0.89557169117E+03 0.  0.
         23    2    4    4    0    0 -0.30548477954E+03 -0.48740368686E+03 -0.54140790739E+03  0.79592364534E+03  0.97409560796E+02 0.  0.
         23    2    4    4    0    0  0.51688245917E+03 -0.20069210665E+03 -0.40583946785E+03  0.69320060869E+03  0.91523832672E+02 0.  0.
          3    1    3    3  502    0 -0.47421183841E+02  0.67893821262E+02 -0.16176460957E+02  0.84380196323E+02  0.00000000000E+00 0. -1.
         -4    1    3    3    0  502 -0.16397649580E+03  0.62020197225E+03 -0.15906019440E+03  0.66093791161E+03  0.00000000000E+00 0.  1.
         11    1    5    5    0    0 -0.27011413936E+03 -0.43133530774E+03 -0.51648959505E+03  0.72510226712E+03  0.00000000000E+00 0. -1.
        -11    1    5    5    0    0 -0.35370640174E+02 -0.56068379116E+02 -0.24918312342E+02  0.70821378220E+02  0.00000000000E+00 0.  1.
          1    1    6    6  503    0  0.38892384353E+03 -0.13362317959E+03 -0.25272209664E+03  0.48268557915E+03  0.00000000000E+00 0. -1.
         -1    1    6    6    0  503  0.12795861564E+03 -0.67068927066E+02 -0.15311737121E+03  0.21051502954E+03  0.00000000000E+00 0.  1.
<mgrwt>
<rscale>  0 0.19320358E+04</rscale>
<asrwt>0</asrwt>
<pdfrwt beam="1">  1        3 0.25822511E+00 0.19320358E+04</pdfrwt>
<pdfrwt beam="2">  1       -4 0.85535256E-01 0.19320358E+04</pdfrwt>
<totfact> 0.16905380E-01</totfact>
</mgrwt>
</event>
<event>
12    4  0.4486176E-008  0.1420695E+04  0.7818608E-02  0.8938973E-01
         -2   -1    0    0    0  501 -0.00000000000E+00  0.00000000000E+00  0.34184780829E+03  0.34184780829E+03  0.00000000000E+00 0.  1.
          1   -1    0    0  501    0  0.00000000000E+00 -0.00000000000E+00 -0.14760770505E+04  0.14760770505E+04  0.00000000000E+00 0. -1.
        -24    2    1    2    0    0 -0.41485510620E+03  0.34376291175E+02 -0.61685169646E+03  0.74831919640E+03  0.78670933207E+02 0.  0.
        254    2    1    2    0    0  0.41485510620E+03 -0.34376291175E+02 -0.51737754574E+03  0.10696056624E+04  0.83850477617E+03 0.  0.
         23    2    4    4    0    0  0.25375316561E+03  0.22697344629E+03 -0.63739138566E+03  0.72832022883E+03  0.90966822745E+02 0.  0.
         23    2    4    4    0    0  0.16110194058E+03 -0.26134973746E+03  0.12001383992E+03  0.34128543356E+03  0.88401950529E+02 0.  0.
          1    1    3    3  502    0 -0.12690103293E+03  0.80509509525E+01 -0.25658124907E+03  0.28636100877E+03  0.00000000000E+00 0. -1.
         -2    1    3    3    0  502 -0.28795407327E+03  0.26325340222E+02 -0.36027044740E+03  0.46195818763E+03  0.00000000000E+00 0.  1.
         11    1    5    5    0    0  0.13671929238E+03  0.17573444430E+03 -0.36688371606E+03  0.42916013437E+03  0.00000000000E+00 0. -1.
        -11    1    5    5    0    0  0.11703387323E+03  0.51239001985E+02 -0.27050766960E+03  0.29916009446E+03  0.00000000000E+00 0.  1.
          3    1    6    6  503    0  0.16362420770E+03 -0.24674049172E+03  0.92750998591E+02  0.31025231561E+03  0.00000000000E+00 0. -1.
         -3    1    6    6    0  503 -0.25222671193E+01 -0.14609245739E+02  0.27262841326E+02  0.31033117950E+02  0.00000000000E+00 0.  1.
<mgrwt>
<rscale>  0 0.14206952E+04</rscale>
<asrwt>0</asrwt>
<pdfrwt beam="1">  1        1 0.22708878E+00 0.14206952E+04</pdfrwt>
<pdfrwt beam="2">  1       -2 0.52591970E-01 0.14206952E+04</pdfrwt>
<totfact> 0.19803985E+01</totfact>
</mgrwt>
</event>
<event>
12    4  0.4486176E-008  0.1463213E+04  0.7818608E-02  0.8909292E-01
         -2   -1    0    0    0  501 -0.00000000000E+00  0.00000000000E+00  0.85542787116E+03  0.85542787116E+03  0.00000000000E+00 0.  1.
          1   -1    0    0  501    0  0.00000000000E+00 -0.00000000000E+00 -0.62570759539E+03  0.62570759539E+03  0.00000000000E+00 0. -1.
        -24    2    1    2    0    0 -0.38721681801E+03  0.46973585520E+02  0.29738594785E+03  0.49687440517E+03  0.79387597578E+02 0.  0.
        254    2    1    2    0    0  0.38721681801E+03 -0.46973585520E+02 -0.67665672068E+02  0.98426106138E+03  0.90113695512E+03 0.  0.
         23    2    4    4    0    0 -0.22616033042E+03 -0.82344973923E+02  0.18093666972E+03  0.31481219829E+03  0.91866489840E+02 0.  0.
         23    2    4    4    0    0  0.61337714843E+03  0.35371388403E+02 -0.24860234179E+03  0.66944886309E+03  0.94212497139E+02 0.  0.
          1    1    3    3  502    0 -0.13250341680E+02  0.10785941622E+02 -0.96143471146E+00  0.17112347823E+02  0.00000000000E+00 0. -1.
         -2    1    3    3    0  502 -0.37396647633E+03  0.36187643898E+02  0.29834738256E+03  0.47976205735E+03  0.00000000000E+00 0.  1.
         11    1    5    5    0    0 -0.12210226776E+03 -0.92254098942E+02  0.11075259278E+03  0.18890717130E+03  0.00000000000E+00 0. -1.
        -11    1    5    5    0    0 -0.10405806266E+03  0.99091250191E+01  0.70184076946E+02  0.12590502698E+03  0.00000000000E+00 0.  1.
          2    1    6    6  503    0  0.29297773394E+03  0.49027512958E+02 -0.82501858216E+02  0.30829564742E+03  0.00000000000E+00 0. -1.
         -2    1    6    6    0  503  0.32039941449E+03 -0.13656124555E+02 -0.16610048357E+03  0.36115321567E+03  0.00000000000E+00 0.  1.
<mgrwt>
<rscale>  0 0.14632125E+04</rscale>
<asrwt>0</asrwt>
<pdfrwt beam="1">  1        1 0.96262706E-01 0.14632125E+04</pdfrwt>
<pdfrwt beam="2">  1       -2 0.13160429E+00 0.14632125E+04</pdfrwt>
<totfact> 0.11512389E+01</totfact>
</mgrwt>
</event>
<event>
12    4  0.4486176E-008  0.2160771E+04  0.7818608E-02  0.8534936E-01
          1   -1    0    0  501    0  0.00000000000E+00  0.00000000000E+00  0.82370680053E+03  0.82370680053E+03  0.00000000000E+00 0. -1.
         -2   -1    0    0    0  501 -0.00000000000E+00 -0.00000000000E+00 -0.14170494592E+04  0.14170494592E+04  0.00000000000E+00 0.  1.
        -24    2    1    2    0    0 -0.76951614771E+03  0.67616725029E+02 -0.70341904793E+03  0.10472260941E+04  0.71812339251E+02 0.  0.
        254    2    1    2    0    0  0.76951614771E+03 -0.67616725029E+02  0.11007638925E+03  0.11935301656E+04  0.90314468481E+03 0.  0.
         23    2    4    4    0    0  0.66802229927E+03  0.25852474978E+02  0.45220841172E+03  0.81315056168E+03  0.98991138736E+02 0.  0.
         23    2    4    4    0    0  0.10149384844E+03 -0.93469200006E+02 -0.34213202246E+03  0.38037960395E+03  0.92719090188E+02 0.  0.
          1    1    3    3  502    0 -0.17804028984E+03  0.34024903208E+02 -0.13301126053E+03  0.22482889999E+03  0.00000000000E+00 0. -1.
         -2    1    3    3    0  502 -0.59147585788E+03  0.33591821820E+02 -0.57040778740E+03  0.82239719410E+03  0.00000000000E+00 0.  1.
         11    1    5    5    0    0  0.57012632307E+03 -0.94581793035E+01  0.36185762807E+03  0.67533282491E+03  0.00000000000E+00 0. -1.
        -11    1    5    5    0    0  0.97895976203E+02  0.35310654281E+02  0.90350783647E+02  0.13781773677E+03  0.00000000000E+00 0.  1.
          3    1    6    6  503    0  0.32255214877E+02  0.21846804451E+01 -0.16059708659E+03  0.16381878994E+03  0.00000000000E+00 0. -1.
         -3    1    6    6    0  503  0.69238633566E+02 -0.95653880451E+02 -0.18153493587E+03  0.21656081401E+03  0.00000000000E+00 0.  1.
<mgrwt>
<rscale>  0 0.21607714E+04</rscale>
<asrwt>0</asrwt>
<pdfrwt beam="1">  1        1 0.12672412E+00 0.21607714E+04</pdfrwt>
<pdfrwt beam="2">  1       -2 0.21800761E+00 0.21607714E+04</pdfrwt>
<totfact> 0.17199021E+00</totfact>
</mgrwt>
</event>
<event>
12    4  0.4486176E-008  0.1951075E+04  0.7818608E-02  0.8629843E-01
         -2   -1    0    0    0  501 -0.00000000000E+00  0.00000000000E+00  0.61484678531E+03  0.61484678531E+03  0.00000000000E+00 0.  1.
          1   -1    0    0  501    0  0.00000000000E+00 -0.00000000000E+00 -0.15478212707E+04  0.15478212707E+04  0.00000000000E+00 0. -1.
        -24    2    1    2    0    0  0.23657046385E+03  0.37585401183E+03  0.31148069989E+03  0.54807748220E+03  0.78338225083E+02 0.  0.
        254    2    1    2    0    0 -0.23657046385E+03 -0.37585401183E+03 -0.12444551853E+04  0.16145905738E+04  0.92790203702E+03 0.  0.
         23    2    4    4    0    0 -0.85621354901E+02 -0.45126275020E+03 -0.13256575961E+04  0.14059632453E+04  0.91626954970E+02 0.  0.
         23    2    4    4    0    0 -0.15094910895E+03  0.75408738364E+02  0.81202410811E+02  0.20862732853E+03  0.91975101939E+02 0.  0.
          1    1    3    3  502    0  0.60801436230E+02  0.50531982237E+02  0.35451610474E+02  0.86643595040E+02  0.00000000000E+00 0. -1.
         -2    1    3    3    0  502  0.17576902762E+03  0.32532202960E+03  0.27602908942E+03  0.46143388716E+03  0.00000000000E+00 0.  1.
         11    1    5    5    0    0 -0.80039864531E+02 -0.36998682580E+03 -0.97358747461E+03  0.10445904470E+04  0.00000000000E+00 0.  1.
        -11    1    5    5    0    0 -0.55814903701E+01 -0.81275924396E+02 -0.35207012146E+03  0.36137279829E+03  0.00000000000E+00 0. -1.
          3    1    6    6  503    0 -0.10533779899E+03  0.13047684998E+02  0.77226390335E+02  0.13126389201E+03  0.00000000000E+00 0. -1.
         -3    1    6    6    0  503 -0.45611309952E+02  0.62361053367E+02  0.39760204762E+01  0.77363436528E+02  0.00000000000E+00 0.  1.
<mgrwt>
<rscale>  0 0.19510745E+04</rscale>
<asrwt>0</asrwt>
<pdfrwt beam="1">  1        1 0.23812635E+00 0.19510745E+04</pdfrwt>
<pdfrwt beam="2">  1       -2 0.94591815E-01 0.19510745E+04</pdfrwt>
<totfact> 0.46660898E+00</totfact>
</mgrwt>
</event>
<event>
12    4  0.4486176E-008  0.1457394E+04  0.7818608E-02  0.8913290E-01
         -2   -1    0    0    0  501 -0.00000000000E+00  0.00000000000E+00  0.38903614349E+03  0.38903614349E+03  0.00000000000E+00 0.  1.
          1   -1    0    0  501    0  0.00000000000E+00 -0.00000000000E+00 -0.13649103289E+04  0.13649103289E+04  0.00000000000E+00 0. -1.
        -24    2    1    2    0    0 -0.10682995176E+03 -0.88413823075E+02 -0.72669370956E+03  0.74424676507E+03  0.81177934772E+02 0.  0.
        254    2    1    2    0    0  0.10682995176E+03  0.88413823075E+02 -0.24918047589E+03  0.10096997074E+04  0.96859328244E+03 0.  0.
         23    2    4    4    0    0  0.37065317081E+03 -0.30990310820E+03 -0.11967478220E+03  0.50649510075E+03  0.93763127532E+02 0.  0.
         23    2    4    4    0    0 -0.26382321905E+03  0.39831693128E+03 -0.12950569369E+03  0.50320460661E+03  0.90465920460E+02 0.  0.
          1    1    3    3  502    0 -0.97247142419E+02 -0.54148034564E+02 -0.65293966330E+03  0.66235883044E+03  0.00000000000E+00 0. -1.
         -2    1    3    3    0  502 -0.95828093413E+01 -0.34265788511E+02 -0.73754046262E+02  0.81887934625E+02  0.00000000000E+00 0.  1.
         11    1    5    5    0    0  0.88634693616E+02 -0.83946114107E+02  0.10172595665E+02  0.12250118648E+03  0.00000000000E+00 0.  1.
        -11    1    5    5    0    0  0.28201847720E+03 -0.22595699409E+03 -0.12984737786E+03  0.38399391427E+03  0.00000000000E+00 0. -1.
          1    1    6    6  503    0 -0.19341038941E+03  0.24222430241E+03 -0.48381793220E+02  0.31372119680E+03  0.00000000000E+00 0. -1.
         -1    1    6    6    0  503 -0.70412829646E+02  0.15609262886E+03 -0.81123900473E+02  0.18948340981E+03  0.00000000000E+00 0.  1.
<mgrwt>
<rscale>  0 0.14573942E+04</rscale>
<asrwt>0</asrwt>
<pdfrwt beam="1">  1        1 0.20998620E+00 0.14573942E+04</pdfrwt>
<pdfrwt beam="2">  1       -2 0.59851715E-01 0.14573942E+04</pdfrwt>
<totfact> 0.18031417E+01</totfact>
</mgrwt>
</event>
<event>
12    4  0.4486176E-008  0.1263760E+04  0.7818608E-02  0.9058808E-01
         -2   -1    0    0    0  501 -0.00000000000E+00  0.00000000000E+00  0.33013676520E+03  0.33013676520E+03  0.00000000000E+00 0.  1.
          1   -1    0    0  501    0  0.00000000000E+00 -0.00000000000E+00 -0.12094154373E+04  0.12094154373E+04  0.00000000000E+00 0. -1.
        -24    2    1    2    0    0 -0.91943800142E+02  0.15829309645E+03  0.42093520900E+02  0.20500606350E+03  0.82129500196E+02 0.  0.
        254    2    1    2    0    0  0.91943800142E+02 -0.15829309645E+03 -0.92137219300E+03  0.13345461390E+04  0.94793265179E+03 0.  0.
         23    2    4    4    0    0  0.40900476915E+03 -0.36449491715E+03 -0.67566992301E+03  0.87453954664E+03  0.90266981602E+02 0.  0.
         23    2    4    4    0    0 -0.31706096900E+03  0.20620182070E+03 -0.24570227000E+03  0.46000659237E+03  0.90496467418E+02 0.  0.
          3    1    3    3  502    0  0.10630107284E+01  0.25981904137E+01 -0.14697300000E+02  0.14962994771E+02  0.00000000000E+00 0. -1.
         -4    1    3    3    0  502 -0.93006810870E+02  0.15569490604E+03  0.56790820901E+02  0.19004306873E+03  0.00000000000E+00 0.  1.
         11    1    5    5    0    0  0.48700937579E+02 -0.10071932717E+02 -0.55853934832E+02  0.74785608147E+02  0.00000000000E+00 0.  1.
        -11    1    5    5    0    0  0.36030383157E+03 -0.35442298443E+03 -0.61981598817E+03  0.79975393849E+03  0.00000000000E+00 0. -1.
          4    1    6    6  503    0 -0.16046804057E+03  0.15742582040E+03 -0.13736669963E+03  0.26344352552E+03  0.00000000000E+00 0. -1.
         -4    1    6    6    0  503 -0.15659292843E+03  0.48776000300E+02 -0.10833557037E+03  0.19656306685E+03  0.00000000000E+00 0.  1.
<mgrwt>
<rscale>  0 0.12637603E+04</rscale>
<asrwt>0</asrwt>
<pdfrwt beam="1">  1        1 0.18606391E+00 0.12637603E+04</pdfrwt>
<pdfrwt beam="2">  1       -2 0.50790272E-01 0.12637603E+04</pdfrwt>
<totfact> 0.33299977E+01</totfact>
</mgrwt>
</event>
<event>
12    4  0.4486176E-008  0.1096444E+04  0.7818608E-02  0.9208665E-01
         -2   -1    0    0    0  501 -0.00000000000E+00  0.00000000000E+00  0.95799503366E+03  0.95799503366E+03  0.00000000000E+00 0.  1.
          1   -1    0    0  501    0  0.00000000000E+00 -0.00000000000E+00 -0.31372536701E+03  0.31372536701E+03  0.00000000000E+00 0. -1.
        -24    2    1    2    0    0 -0.75144364612E+02  0.12984125279E+03  0.39547901114E+01  0.17023633228E+03  0.80370031762E+02 0.  0.
        254    2    1    2    0    0  0.75144364612E+02 -0.12984125279E+03  0.64031487654E+03  0.11014840684E+04  0.88360544664E+03 0.  0.
         23    2    4    4    0    0 -0.29584702034E+03 -0.26025206490E+03  0.55809304069E+03  0.68891426167E+03  0.88760470576E+02 0.  0.
         23    2    4    4    0    0  0.37099138495E+03  0.13041081211E+03  0.82221835849E+02  0.41256980671E+03  0.93871334819E+02 0.  0.
          3    1    3    3  502    0 -0.46149740112E+02  0.12737074669E+03 -0.13756831623E+02  0.13617031997E+03  0.00000000000E+00 0. -1.
         -4    1    3    3    0  502 -0.28994624499E+02  0.24705060975E+01  0.17711621734E+02  0.34066012310E+02  0.00000000000E+00 0.  1.
         11    1    5    5    0    0 -0.67275988423E+02 -0.21937381904E+02  0.69371188421E+02  0.99094243657E+02  0.00000000000E+00 0. -1.
        -11    1    5    5    0    0 -0.22857103191E+03 -0.23831468299E+03  0.48872185227E+03  0.58982001801E+03  0.00000000000E+00 0.  1.
          2    1    6    6  503    0  0.72048032199E+02 -0.11852039933E+02  0.97713827434E+01  0.73667290673E+02  0.00000000000E+00 0. -1.
         -2    1    6    6    0  503  0.29894335275E+03  0.14226285204E+03  0.72450453105E+02  0.33890251604E+03  0.00000000000E+00 0.  1.
<mgrwt>
<rscale>  0 0.10964440E+04</rscale>
<asrwt>0</asrwt>
<pdfrwt beam="1">  1        1 0.48265441E-01 0.10964440E+04</pdfrwt>
<pdfrwt beam="2">  1       -2 0.14738385E+00 0.10964440E+04</pdfrwt>
<totfact> 0.22556141E+01</totfact>
</mgrwt>
</event>
<event>
12    4  0.4486176E-008  0.1597026E+04  0.7818608E-02  0.8822377E-01
          1   -1    0    0  501    0  0.00000000000E+00  0.00000000000E+00  0.84624073041E+03  0.84624073041E+03  0.00000000000E+00 0. -1.
         -2   -1    0    0    0  501 -0.00000000000E+00 -0.00000000000E+00 -0.75347679348E+03  0.75347679348E+03  0.00000000000E+00 0.  1.
        -24    2    1    2    0    0  0.40482364724E+03  0.18710073328E+03  0.32544836192E+03  0.55756140801E+03  0.77905183801E+02 0.  0.
        254    2    1    2    0    0 -0.40482364724E+03 -0.18710073328E+03 -0.23268442499E+03  0.10421561159E+04  0.91272036160E+03 0.  0.
         23    2    4    4    0    0 -0.18860310629E+03 -0.55530201494E+02  0.34332990468E+03  0.40600617141E+03  0.91163878782E+02 0.  0.
         23    2    4    4    0    0 -0.21622054095E+03 -0.13157053178E+03 -0.57601432967E+03  0.63614994447E+03  0.93979341862E+02 0.  0.
          1    1    3    3  502    0  0.30693230009E+03  0.17588166896E+03  0.24425694074E+03  0.42988748692E+03  0.00000000000E+00 0. -1.
         -2    1    3    3    0  502  0.97891347150E+02  0.11219064318E+02  0.81191421184E+02  0.12767392108E+03  0.00000000000E+00 0.  1.
         11    1    5    5    0    0 -0.40806113006E+02 -0.14316741645E+01  0.18033889369E+02  0.44636416919E+02  0.00000000000E+00 0.  1.
        -11    1    5    5    0    0 -0.14779699328E+03 -0.54098527329E+02  0.32529601531E+03  0.36136975449E+03  0.00000000000E+00 0. -1.
          1    1    6    6  503    0 -0.22520647586E+03 -0.11966721231E+03 -0.54687169533E+03  0.60341266943E+03  0.00000000000E+00 0. -1.
         -1    1    6    6    0  503  0.89859349128E+01 -0.11903319468E+02 -0.29142634343E+02  0.32737275040E+02  0.00000000000E+00 0.  1.
<mgrwt>
<rscale>  0 0.15970257E+04</rscale>
<asrwt>0</asrwt>
<pdfrwt beam="1">  1        1 0.13019088E+00 0.15970257E+04</pdfrwt>
<pdfrwt beam="2">  1       -2 0.11591951E+00 0.15970257E+04</pdfrwt>
<totfact> 0.98097871E+00</totfact>
</mgrwt>
</event>
<event>
12    4  0.4486176E-008  0.2002848E+04  0.7818608E-02  0.8605290E-01
         -2   -1    0    0    0  501 -0.00000000000E+00  0.00000000000E+00  0.61991231715E+03  0.61991231715E+03  0.00000000000E+00 0.  1.
          1   -1    0    0  501    0  0.00000000000E+00 -0.00000000000E+00 -0.16177290575E+04  0.16177290575E+04  0.00000000000E+00 0. -1.
        -24    2    1    2    0    0  0.23595725174E+03  0.35403419790E+03 -0.11530407044E+04  0.12317582832E+04  0.81911930190E+02 0.  0.
        254    2    1    2    0    0 -0.23595725174E+03 -0.35403419790E+03  0.15522396406E+03  0.10058830914E+04  0.89815938268E+03 0.  0.
         23    2    4    4    0    0 -0.20740408984E+02  0.74723438259E+02  0.42970667397E+03  0.44595590317E+03  0.90637106796E+02 0.  0.
         23    2    4    4    0    0 -0.21521684276E+03 -0.42875763616E+03 -0.27448270992E+03  0.55992718827E+03  0.89589609581E+02 0.  0.
          3    1    3    3  502    0  0.30344229842E+02  0.10929529590E+03 -0.31859240184E+03  0.33818242488E+03  0.00000000000E+00 0. -1.
         -4    1    3    3    0  502  0.20561302190E+03  0.24473890200E+03 -0.83444830261E+03  0.89357585837E+03  0.00000000000E+00 0.  1.
         11    1    5    5    0    0 -0.84986476462E+01 -0.48761866124E+01  0.11128622273E+01  0.98611698104E+01  0.00000000000E+00 0. -1.
        -11    1    5    5    0    0 -0.12241761338E+02  0.79599624872E+02  0.42859381175E+03  0.43609473336E+03  0.00000000000E+00 0.  1.
          1    1    6    6  503    0 -0.21176977682E+02 -0.12774721051E+03 -0.62842241791E+02  0.14393387902E+03  0.00000000000E+00 0. -1.
         -1    1    6    6    0  503 -0.19403986508E+03 -0.30101042565E+03 -0.21164046813E+03  0.41599330925E+03  0.00000000000E+00 0.  1.
<mgrwt>
<rscale>  0 0.20028481E+04</rscale>
<asrwt>0</asrwt>
<pdfrwt beam="1">  1        1 0.24888139E+00 0.20028481E+04</pdfrwt>
<pdfrwt beam="2">  1       -2 0.95371127E-01 0.20028481E+04</pdfrwt>
<totfact> 0.40796986E+00</totfact>
</mgrwt>
</event>
<event>
12    4  0.4486176E-008  0.1356702E+04  0.7818608E-02  0.8985770E-01
          1   -1    0    0  501    0  0.00000000000E+00  0.00000000000E+00  0.45047157118E+03  0.45047157118E+03  0.00000000000E+00 0. -1.
         -2   -1    0    0    0  501 -0.00000000000E+00 -0.00000000000E+00 -0.10215076500E+04  0.10215076500E+04  0.00000000000E+00 0.  1.
        -24    2    1    2    0    0  0.44904345055E+02 -0.36324175574E+03 -0.66140881568E+02  0.38045218142E+03  0.80051688403E+02 0.  0.
        254    2    1    2    0    0 -0.44904345055E+02  0.36324175574E+03 -0.50489519724E+03  0.10915270397E+04  0.89585218924E+03 0.  0.
         23    2    4    4    0    0 -0.17972418361E+03  0.47815579033E+03  0.30968244113E+02  0.51951849266E+03  0.89480109899E+02 0.  0.
         23    2    4    4    0    0  0.13481983855E+03 -0.11491403459E+03 -0.53586344135E+03  0.57200854708E+03  0.93072691712E+02 0.  0.
          3    1    3    3  502    0  0.45449846899E+02 -0.31836325194E+03 -0.83623453613E+02  0.33228561625E+03  0.00000000000E+00 0. -1.
         -4    1    3    3    0  502 -0.54550184425E+00 -0.44878503797E+02  0.17482572046E+02  0.48166565174E+02  0.00000000000E+00 0.  1.
         11    1    5    5    0    0 -0.79912177159E+02  0.10347798395E+03  0.32215260337E+01  0.13078236674E+03  0.00000000000E+00 0.  1.
        -11    1    5    5    0    0 -0.99812006449E+02  0.37467780639E+03  0.27746718079E+02  0.38873612592E+03  0.00000000000E+00 0. -1.
          3    1    6    6  503    0  0.19696602186E+02 -0.52193398135E+02 -0.26848257337E+03  0.27421706575E+03  0.00000000000E+00 0. -1.
         -3    1    6    6    0  503  0.11512323637E+03 -0.62720636457E+02 -0.26738086798E+03  0.29779148133E+03  0.00000000000E+00 0.  1.
<mgrwt>
<rscale>  0 0.13567021E+04</rscale>
<asrwt>0</asrwt>
<pdfrwt beam="1">  1        1 0.69303319E-01 0.13567021E+04</pdfrwt>
<pdfrwt beam="2">  1       -2 0.15715502E+00 0.13567021E+04</pdfrwt>
<totfact> 0.11553572E+01</totfact>
</mgrwt>
</event>
<event>
12    4  0.4486176E-008  0.2459510E+04  0.7818608E-02  0.8417554E-01
          1   -1    0    0  501    0  0.00000000000E+00  0.00000000000E+00  0.10115421216E+04  0.10115421216E+04  0.00000000000E+00 0. -1.
         -2   -1    0    0    0  501 -0.00000000000E+00 -0.00000000000E+00 -0.14950413968E+04  0.14950413968E+04  0.00000000000E+00 0.  1.
        -24    2    1    2    0    0  0.51026585315E+03 -0.78974056285E+03 -0.71645127873E+03  0.11847746238E+04  0.79542924580E+02 0.  0.
        254    2    1    2    0    0 -0.51026585315E+03  0.78974056285E+03  0.23295200358E+03  0.13218088946E+04  0.89936128463E+03 0.  0.
         23    2    4    4    0    0 -0.69567649349E+03  0.58570635781E+03 -0.51651464498E+02  0.91537932374E+03  0.90739800330E+02 0.  0.
         23    2    4    4    0    0  0.18541064034E+03  0.20403420504E+03  0.28460346808E+03  0.40642957083E+03  0.90436716152E+02 0.  0.
          3    1    3    3  502    0  0.22709172293E+03 -0.30941396416E+03 -0.33225271887E+03  0.50764113410E+03  0.00000000000E+00 0. -1.
         -4    1    3    3    0  502  0.28317413023E+03 -0.48032659869E+03 -0.38419855986E+03  0.67713348968E+03  0.00000000000E+00 0.  1.
         11    1    5    5    0    0 -0.12805236067E+02 -0.20121600208E+01 -0.69573145554E+00  0.12981020797E+02  0.00000000000E+00 0.  1.
        -11    1    5    5    0    0 -0.68287125743E+03  0.58771851783E+03 -0.50955733042E+02  0.90239830294E+03  0.00000000000E+00 0. -1.
          1    1    6    6  503    0  0.13892342692E+03  0.17952704524E+03  0.26821588472E+03  0.35138218415E+03  0.00000000000E+00 0. -1.
         -1    1    6    6    0  503  0.46487213417E+02  0.24507159796E+02  0.16387583361E+02  0.55047386686E+02  0.00000000000E+00 0.  1.
<mgrwt>
<rscale>  0 0.24595100E+04</rscale>
<asrwt>0</asrwt>
<pdfrwt beam="1">  1        1 0.15562187E+00 0.24595100E+04</pdfrwt>
<pdfrwt beam="2">  1       -2 0.23000637E+00 0.24595100E+04</pdfrwt>
<totfact> 0.99055923E-01</totfact>
</mgrwt>
</event>
<event>
12    4  0.4486176E-008  0.1178872E+04  0.7818608E-02  0.9131553E-01
         -2   -1    0    0    0  501 -0.00000000000E+00  0.00000000000E+00  0.33896275995E+03  0.33896275995E+03  0.00000000000E+00 0.  1.
          1   -1    0    0  501    0  0.00000000000E+00 -0.00000000000E+00 -0.10249947921E+04  0.10249947921E+04  0.00000000000E+00 0. -1.
        -24    2    1    2    0    0  0.15619293085E+03  0.17009122821E+03 -0.75885190746E+02  0.25644151938E+03  0.81709443326E+02 0.  0.
        254    2    1    2    0    0 -0.15619293085E+03 -0.17009122821E+03 -0.61014684137E+03  0.11075160326E+04  0.89497784159E+03 0.  0.
         23    2    4    4    0    0 -0.48691866054E+03 -0.24455731362E+03 -0.48542681173E+03  0.73518420580E+03  0.89210791236E+02 0.  0.
         23    2    4    4    0    0  0.33072572970E+03  0.74466085412E+02 -0.12472002963E+03  0.37233182683E+03  0.90283981529E+02 0.  0.
          1    1    3    3  502    0 -0.67180283535E+01  0.65345423225E+01 -0.15020878805E+02  0.17704771910E+02  0.00000000000E+00 0. -1.
         -2    1    3    3    0  502  0.16291095920E+03  0.16355668589E+03 -0.60864311941E+02  0.23873674747E+03  0.00000000000E+00 0.  1.
         11    1    5    5    0    0 -0.16988390219E+03 -0.12916380808E+03 -0.16335198428E+03  0.26875211684E+03  0.00000000000E+00 0.  1.
        -11    1    5    5    0    0 -0.31703475835E+03 -0.11539350555E+03 -0.32207482745E+03  0.46643208895E+03  0.00000000000E+00 0. -1.
          1    1    6    6  503    0  0.24823800813E+03  0.15540999681E+02 -0.99355849918E+02  0.26783430748E+03  0.00000000000E+00 0. -1.
         -1    1    6    6    0  503  0.82487721563E+02  0.58925085731E+02 -0.25364179715E+02  0.10449751935E+03  0.00000000000E+00 0.  1.
<mgrwt>
<rscale>  0 0.11788725E+04</rscale>
<asrwt>0</asrwt>
<pdfrwt beam="1">  1        1 0.15769150E+00 0.11788725E+04</pdfrwt>
<pdfrwt beam="2">  1       -2 0.52148119E-01 0.11788725E+04</pdfrwt>
<totfact> 0.43640516E+01</totfact>
</mgrwt>
</event>
<event>
12    4  0.4486176E-008  0.1401132E+04  0.7818608E-02  0.8953000E-01
         -2   -1    0    0    0  501 -0.00000000000E+00  0.00000000000E+00  0.61294705592E+03  0.61294705592E+03  0.00000000000E+00 0.  1.
          1   -1    0    0  501    0  0.00000000000E+00 -0.00000000000E+00 -0.80070973602E+03  0.80070973602E+03  0.00000000000E+00 0. -1.
        -24    2    1    2    0    0  0.31642561299E+03 -0.21840718217E+02  0.21038394605E+03  0.38896477330E+03  0.80187309358E+02 0.  0.
        254    2    1    2    0    0 -0.31642561299E+03  0.21840718217E+02 -0.39814662614E+03  0.10246920186E+04  0.88930917662E+03 0.  0.
         23    2    4    4    0    0 -0.12267470156E+03 -0.40382755250E+03 -0.33038640963E+03  0.54378513149E+03  0.91767723081E+02 0.  0.
         23    2    4    4    0    0 -0.19375091143E+03  0.42566827072E+03 -0.67760216516E+02  0.48090688715E+03  0.89146479386E+02 0.  0.
          1    1    3    3  502    0  0.18480284449E+03  0.18882333299E+02  0.91934062672E+02  0.20726916249E+03  0.00000000000E+00 0. -1.
         -2    1    3    3    0  502  0.13162276851E+03 -0.40723051516E+02  0.11844988338E+03  0.18169561081E+03  0.00000000000E+00 0.  1.
         11    1    5    5    0    0 -0.15496849578E+02 -0.48906203601E+02 -0.84674091687E+02  0.99003388328E+02  0.00000000000E+00 0.  1.
        -11    1    5    5    0    0 -0.10717785198E+03 -0.35492134890E+03 -0.24571231794E+03  0.44478174316E+03  0.00000000000E+00 0. -1.
          1    1    6    6  503    0 -0.10784662295E+03  0.14622068151E+03 -0.47800118401E+02  0.18787291743E+03  0.00000000000E+00 0. -1.
         -1    1    6    6    0  503 -0.85904288481E+02  0.27944758921E+03 -0.19960098115E+02  0.29303396972E+03  0.00000000000E+00 0.  1.
<mgrwt>
<rscale>  0 0.14011319E+04</rscale>
<asrwt>0</asrwt>
<pdfrwt beam="1">  1        1 0.12318611E+00 0.14011319E+04</pdfrwt>
<pdfrwt beam="2">  1       -2 0.94299548E-01 0.14011319E+04</pdfrwt>
<totfact> 0.17883367E+01</totfact>
</mgrwt>
</event>
<event>
12    4  0.4486176E-008  0.1276515E+04  0.7818608E-02  0.9048399E-01
          1   -1    0    0  501    0  0.00000000000E+00  0.00000000000E+00  0.16369496504E+04  0.16369496504E+04  0.00000000000E+00 0. -1.
         -2   -1    0    0    0  501 -0.00000000000E+00 -0.00000000000E+00 -0.24886081681E+03  0.24886081681E+03  0.00000000000E+00 0.  1.
        -24    2    1    2    0    0 -0.17868680612E+03  0.66868944376E+02  0.72136015183E+03  0.74986389531E+03  0.74397328239E+02 0.  0.
        254    2    1    2    0    0  0.17868680612E+03 -0.66868944376E+02  0.66672868179E+03  0.11359465719E+04  0.89969275242E+03 0.  0.
         23    2    4    4    0    0  0.35133615897E+03 -0.26638930322E+03  0.72198225823E+03  0.85080931595E+03  0.90651825366E+02 0.  0.
         23    2    4    4    0    0 -0.17264935285E+03  0.19952035884E+03 -0.55253576435E+02  0.28513725598E+03  0.92919989286E+02 0.  0.
          1    1    3    3  502    0 -0.15713771970E+03  0.51214049788E+02  0.68580485839E+03  0.70543847758E+03  0.00000000000E+00 0. -1.
         -2    1    3    3    0  502 -0.21549086420E+02  0.15654894588E+02  0.35555293432E+02  0.44425417738E+02  0.00000000000E+00 0.  1.
         11    1    5    5    0    0  0.28370546951E+02 -0.11945123837E+02  0.18292892283E+02  0.35807873797E+02  0.00000000000E+00 0. -1.
        -11    1    5    5    0    0  0.32296561202E+03 -0.25444417938E+03  0.70368936594E+03  0.81500144215E+03  0.00000000000E+00 0.  1.
          2    1    6    6  503    0 -0.66904066976E+02  0.32260713520E+02 -0.45307771968E+02  0.87004034478E+02  0.00000000000E+00 0. -1.
         -2    1    6    6    0  503 -0.10574528588E+03  0.16725964532E+03 -0.99458044666E+01  0.19813322151E+03  0.00000000000E+00 0.  1.
<mgrwt>
<rscale>  0 0.12765150E+04</rscale>
<asrwt>0</asrwt>
<pdfrwt beam="1">  1        1 0.25183840E+00 0.12765150E+04</pdfrwt>
<pdfrwt beam="2">  1       -2 0.38286281E-01 0.12765150E+04</pdfrwt>
<totfact> 0.29293474E+01</totfact>
</mgrwt>
</event>
<event>
12    4  0.4486176E-008  0.4073236E+04  0.7818608E-02  0.7989933E-01
         -2   -1    0    0    0  501 -0.00000000000E+00  0.00000000000E+00  0.99320159477E+03  0.99320159477E+03  0.00000000000E+00 0.  1.
          1   -1    0    0  501    0  0.00000000000E+00 -0.00000000000E+00 -0.41762053319E+04  0.41762053319E+04  0.00000000000E+00 0. -1.
        -24    2    1    2    0    0 -0.14173527836E+03 -0.15245255202E+04 -0.10783087920E+02  0.15332518115E+04  0.80485349426E+02 0.  0.
        254    2    1    2    0    0  0.14173527836E+03  0.15245255202E+04 -0.31722206492E+04  0.36361551151E+04  0.90242629797E+03 0.  0.
         23    2    4    4    0    0  0.48530500607E+03  0.63093136226E+03 -0.16712009008E+04  0.18535508532E+04  0.95618941763E+02 0.  0.
         23    2    4    4    0    0 -0.34356972771E+03  0.89359415798E+03 -0.15010197484E+04  0.17826042619E+04  0.89816437405E+02 0.  0.
          3    1    3    3  502    0 -0.17579282656E+02 -0.46379867744E+03 -0.30126344554E+02  0.46510841855E+03  0.00000000000E+00 0. -1.
         -4    1    3    3    0  502 -0.12415599570E+03 -0.10607268428E+04  0.19343256634E+02  0.10681433929E+04  0.00000000000E+00 0.  1.
         11    1    5    5    0    0  0.48169912251E+03  0.60589571236E+03 -0.16391555433E+04  0.18127257249E+04  0.00000000000E+00 0. -1.
        -11    1    5    5    0    0  0.36058835587E+01  0.25035649910E+02 -0.32045357501E+02  0.40825128291E+02  0.00000000000E+00 0.  1.
          3    1    6    6  503    0 -0.29467171033E+03  0.77534090380E+03 -0.13522821610E+04  0.15863959080E+04  0.00000000000E+00 0. -1.
         -3    1    6    6    0  503 -0.48898017388E+02  0.11825325418E+03 -0.14873758744E+03  0.19620835392E+03  0.00000000000E+00 0.  1.
<mgrwt>
<rscale>  0 0.40732365E+04</rscale>
<asrwt>0</asrwt>
<pdfrwt beam="1">  1        1 0.64249312E+00 0.40732365E+04</pdfrwt>
<pdfrwt beam="2">  1       -2 0.15280025E+00 0.40732365E+04</pdfrwt>
<totfact> 0.12965063E-02</totfact>
</mgrwt>
</event>
<event>
12    4  0.4486176E-008  0.2008550E+04  0.7818608E-02  0.8602634E-01
         -2   -1    0    0    0  501 -0.00000000000E+00  0.00000000000E+00  0.25196346904E+04  0.25196346904E+04  0.00000000000E+00 0.  1.
          1   -1    0    0  501    0  0.00000000000E+00 -0.00000000000E+00 -0.40028362845E+03  0.40028362845E+03  0.00000000000E+00 0. -1.
        -24    2    1    2    0    0  0.25061964949E+03  0.36676931326E+03 -0.12282036653E+03  0.46832090887E+03  0.83124565523E+02 0.  0.
        254    2    1    2    0    0 -0.25061964949E+03 -0.36676931326E+03  0.22421714284E+04  0.24515974099E+04  0.88637870463E+03 0.  0.
         23    2    4    4    0    0 -0.52141157340E+03 -0.57775193532E+01  0.11456060697E+04  0.12620027744E+04  0.91292535959E+02 0.  0.
         23    2    4    4    0    0  0.27079192391E+03 -0.36099179391E+03  0.10965653588E+04  0.11895946355E+04  0.95060346704E+02 0.  0.
          1    1    3    3  502    0  0.34254437367E+02  0.59017198881E+02 -0.51333863670E+02  0.85390642359E+02  0.00000000000E+00 0. -1.
         -2    1    3    3    0  502  0.21636521212E+03  0.30775211438E+03 -0.71486502861E+02  0.38293026652E+03  0.00000000000E+00 0.  1.
         11    1    5    5    0    0 -0.35700063048E+03  0.35438924452E+02  0.81548262637E+03  0.89090812177E+03  0.00000000000E+00 0.  1.
        -11    1    5    5    0    0 -0.16441094292E+03 -0.41216443805E+02  0.33012344329E+03  0.37109465262E+03  0.00000000000E+00 0. -1.
          3    1    6    6  503    0  0.97343582045E+01  0.88416446133E+00  0.63979501883E+02  0.64721836637E+02  0.00000000000E+00 0. -1.
         -3    1    6    6    0  503  0.26105756571E+03 -0.36187595837E+03  0.10325858569E+04  0.11248727989E+04  0.00000000000E+00 0.  1.
<mgrwt>
<rscale>  0 0.20085502E+04</rscale>
<asrwt>0</asrwt>
<pdfrwt beam="1">  1        1 0.61582098E-01 0.20085502E+04</pdfrwt>
<pdfrwt beam="2">  1       -2 0.38763610E+00 0.20085502E+04</pdfrwt>
<totfact> 0.43564114E-01</totfact>
</mgrwt>
</event>
<event>
12    4  0.4486176E-008  0.1428904E+04  0.7818608E-02  0.8933158E-01
          1   -1    0    0  501    0  0.00000000000E+00  0.00000000000E+00  0.16142620758E+04  0.16142620758E+04  0.00000000000E+00 0. -1.
         -2   -1    0    0    0  501 -0.00000000000E+00 -0.00000000000E+00 -0.31620735629E+03  0.31620735629E+03  0.00000000000E+00 0.  1.
        -24    2    1    2    0    0 -0.34522170169E+02 -0.15169427441E+02 -0.18059277002E+03  0.20132056716E+03  0.80587408556E+02 0.  0.
        254    2    1    2    0    0  0.34522170169E+02  0.15169427441E+02  0.14786474895E+04  0.17291488649E+04  0.89562018011E+03 0.  0.
         23    2    4    4    0    0 -0.69167190975E+02  0.21718206262E+03  0.14635772384E+04  0.14840299332E+04  0.91292722874E+02 0.  0.
         23    2    4    4    0    0  0.10368936114E+03 -0.20201263518E+03  0.15070251115E+02  0.24511893171E+03  0.91080128609E+02 0.  0.
          1    1    3    3  502    0  0.23675930484E+02 -0.15095091364E+02 -0.83796500343E+02  0.88375703320E+02  0.00000000000E+00 0. -1.
         -2    1    3    3    0  502 -0.58198100653E+02 -0.74336076946E-01 -0.96796269674E+02  0.11294486384E+03  0.00000000000E+00 0.  1.
         11    1    5    5    0    0 -0.81260769427E+02  0.20478489423E+03  0.12123490416E+04  0.12322054878E+04  0.00000000000E+00 0.  1.
        -11    1    5    5    0    0  0.12093578453E+02  0.12397168397E+02  0.25122819683E+03  0.25182444541E+03  0.00000000000E+00 0. -1.
          2    1    6    6  503    0  0.27326954763E+02 -0.55103899377E+02  0.45844616653E+02  0.76713304317E+02  0.00000000000E+00 0. -1.
         -2    1    6    6    0  503  0.76362406380E+02 -0.14690873580E+03 -0.30774365538E+02  0.16840562739E+03  0.00000000000E+00 0.  1.
<mgrwt>
<rscale>  0 0.14289038E+04</rscale>
<asrwt>0</asrwt>
<pdfrwt beam="1">  1        1 0.24834801E+00 0.14289038E+04</pdfrwt>
<pdfrwt beam="2">  1       -2 0.48647287E-01 0.14289038E+04</pdfrwt>
<totfact> 0.18640463E+01</totfact>
</mgrwt>
</event>
<event>
12    4  0.4486176E-008  0.1420133E+04  0.7818608E-02  0.8939373E-01
          3   -1    0    0  501    0  0.00000000000E+00  0.00000000000E+00  0.67765925826E+03  0.67765925826E+03  0.00000000000E+00 0. -1.
         -4   -1    0    0    0  501 -0.00000000000E+00 -0.00000000000E+00 -0.74402375894E+03  0.74402375894E+03  0.00000000000E+00 0.  1.
        -24    2    1    2    0    0 -0.14939702169E+02  0.26658319309E+03 -0.35365119323E+03  0.45029932242E+03  0.80065721522E+02 0.  0.
        254    2    1    2    0    0  0.14939702169E+02 -0.26658319309E+03  0.28728669255E+03  0.97138369477E+03  0.88868602173E+03 0.  0.
         23    2    4    4    0    0 -0.32822907598E+03 -0.86659206679E+02  0.42311709283E+03  0.54993546143E+03  0.90314965956E+02 0.  0.
         23    2    4    4    0    0  0.34316877815E+03 -0.17992398641E+03 -0.13583040028E+03  0.42144823334E+03  0.95032965677E+02 0.  0.
          3    1    3    3  502    0  0.36597782556E+01 -0.71226592910E+00 -0.29541986517E+02  0.29776337367E+02  0.00000000000E+00 0. -1.
         -4    1    3    3    0  502 -0.18599480425E+02  0.26729545902E+03 -0.32410920671E+03  0.42052298506E+03  0.00000000000E+00 0.  1.
         11    1    5    5    0    0 -0.86315601349E+02 -0.33584873924E+02  0.59849081455E+02  0.11027347525E+03  0.00000000000E+00 0. -1.
        -11    1    5    5    0    0 -0.24191347463E+03 -0.53074332755E+02  0.36326801138E+03  0.43966198618E+03  0.00000000000E+00 0.  1.
          2    1    6    6  503    0  0.76616686980E+02  0.12983852210E+01 -0.27249686956E+02  0.81328641739E+02  0.00000000000E+00 0. -1.
         -2    1    6    6    0  503  0.26655209117E+03 -0.18122237163E+03 -0.10858071333E+03  0.34011959160E+03  0.00000000000E+00 0.  1.
<mgrwt>
<rscale>  0 0.14201332E+04</rscale>
<asrwt>0</asrwt>
<pdfrwt beam="1">  1        3 0.10425527E+00 0.14201332E+04</pdfrwt>
<pdfrwt beam="2">  1       -4 0.11446519E+00 0.14201332E+04</pdfrwt>
<totfact> 0.10498982E+00</totfact>
</mgrwt>
</event>
<event>
12    4  0.4486176E-008  0.2034928E+04  0.7818608E-02  0.8590463E-01
          1   -1    0    0  501    0  0.00000000000E+00  0.00000000000E+00  0.27234536849E+04  0.27234536849E+04  0.00000000000E+00 0. -1.
         -2   -1    0    0    0  501 -0.00000000000E+00 -0.00000000000E+00 -0.38011774420E+03  0.38011774420E+03  0.00000000000E+00 0.  1.
        -24    2    1    2    0    0 -0.77217487599E+03  0.17305055791E+03  0.64069335845E+03  0.10204780845E+04  0.68461716731E+02 0.  0.
        254    2    1    2    0    0  0.77217487599E+03 -0.17305055791E+03  0.17026425823E+04  0.20830933446E+04  0.90226691440E+03 0.  0.
         23    2    4    4    0    0 -0.74980420136E+02  0.17391060168E+03  0.93651567218E+02  0.22976831190E+03  0.90310023427E+02 0.  0.
         23    2    4    4    0    0  0.84715529612E+03 -0.34696115959E+03  0.16089910150E+04  0.18533250327E+04  0.88923835109E+02 0.  0.
          3    1    3    3  502    0 -0.15812860306E+03  0.12737436390E+02  0.14926450898E+03  0.21782284323E+03  0.00000000000E+00 0. -1.
         -4    1    3    3    0  502 -0.61404627292E+03  0.16031312152E+03  0.49142884947E+03  0.80265524125E+03  0.00000000000E+00 0.  1.
         11    1    5    5    0    0 -0.85637623239E+01  0.17474257751E+01  0.35099918579E+02  0.36171754260E+02  0.00000000000E+00 0.  1.
        -11    1    5    5    0    0 -0.66416657812E+02  0.17216317590E+03  0.58551648639E+02  0.19359655764E+03  0.00000000000E+00 0. -1.
          2    1    6    6  503    0  0.73009048475E+03 -0.28861043691E+03  0.13144688819E+04  0.15310638595E+04  0.00000000000E+00 0. -1.
         -2    1    6    6    0  503  0.11706481137E+03 -0.58350722681E+02  0.29452213309E+03  0.32226117324E+03  0.00000000000E+00 0.  1.
<mgrwt>
<rscale>  0 0.20349281E+04</rscale>
<asrwt>0</asrwt>
<pdfrwt beam="1">  1        1 0.41899286E+00 0.20349281E+04</pdfrwt>
<pdfrwt beam="2">  1       -2 0.58479655E-01 0.20349281E+04</pdfrwt>
<totfact> 0.21004593E+00</totfact>
</mgrwt>
</event>
<event>
12    4  0.4486176E-008  0.1693620E+04  0.7818608E-02  0.8765012E-01
         -4   -1    0    0    0  501 -0.00000000000E+00  0.00000000000E+00  0.62769127195E+03  0.62769127195E+03  0.00000000000E+00 0.  1.
          3   -1    0    0  501    0  0.00000000000E+00 -0.00000000000E+00 -0.11424198786E+04  0.11424198786E+04  0.00000000000E+00 0. -1.
        -24    2    1    2    0    0  0.36551452821E+03  0.19306897931E+03 -0.63705489043E+03  0.76359508526E+03  0.79762269937E+02 0.  0.
        254    2    1    2    0    0 -0.36551452821E+03 -0.19306897931E+03  0.12232628377E+03  0.10065160653E+04  0.90952425417E+03 0.  0.
         23    2    4    4    0    0  0.11794823522E+03  0.25695453958E+03 -0.82057827297E+02  0.30836289599E+03  0.91742939795E+02 0.  0.
         23    2    4    4    0    0 -0.48346276343E+03 -0.45002351889E+03  0.20438411107E+03  0.69815316932E+03  0.96889482384E+02 0.  0.
          1    1    3    3  502    0  0.15677955338E+03  0.12377332062E+03 -0.27322487420E+03  0.33845456879E+03  0.00000000000E+00 0. -1.
         -2    1    3    3    0  502  0.20873497483E+03  0.69295658690E+02 -0.36383001623E+03  0.42514051646E+03  0.00000000000E+00 0.  1.
         11    1    5    5    0    0  0.50180314572E+01  0.62799413859E+02  0.13235117740E+02  0.64374803784E+02  0.00000000000E+00 0.  1.
        -11    1    5    5    0    0  0.11293020376E+03  0.19415512572E+03 -0.95292945037E+02  0.24398809221E+03  0.00000000000E+00 0. -1.
          4    1    6    6  503    0 -0.47923965683E+02 -0.79131565244E+02  0.52078229982E+02  0.10616333238E+03  0.00000000000E+00 0.  1.
         -4    1    6    6    0  503 -0.43553879775E+03 -0.37089195364E+03  0.15230588108E+03  0.59198983693E+03  0.00000000000E+00 0. -1.
<mgrwt>
<rscale>  0 0.16936198E+04</rscale>
<asrwt>0</asrwt>
<pdfrwt beam="1">  1        3 0.17575690E+00 0.16936198E+04</pdfrwt>
<pdfrwt beam="2">  1       -4 0.96567889E-01 0.16936198E+04</pdfrwt>
<totfact> 0.41500284E-01</totfact>
</mgrwt>
</event>
<event>
12    4  0.4486176E-008  0.1939680E+04  0.7818608E-02  0.8635353E-01
         -2   -1    0    0    0  501 -0.00000000000E+00  0.00000000000E+00  0.47555250071E+03  0.47555250071E+03  0.00000000000E+00 0.  1.
          1   -1    0    0  501    0  0.00000000000E+00 -0.00000000000E+00 -0.19778887443E+04  0.19778887443E+04  0.00000000000E+00 0. -1.
        -24    2    1    2    0    0 -0.17380782208E+03  0.55060717064E+03 -0.11873696689E+04  0.13230463696E+04  0.85014999379E+02 0.  0.
        254    2    1    2    0    0  0.17380782208E+03 -0.55060717064E+03 -0.31496657467E+03  0.11303948754E+04  0.91935369460E+03 0.  0.
         23    2    4    4    0    0  0.12172255209E+02 -0.78069817273E+03 -0.19356811632E+03  0.80953164870E+03  0.90747307892E+02 0.  0.
         23    2    4    4    0    0  0.16163556687E+03  0.23009100209E+03 -0.12139845834E+03  0.32086322669E+03  0.95643603189E+02 0.  0.
          3    1    3    3  502    0 -0.17317695142E+03  0.48300954685E+03 -0.10871612488E+04  0.12021680663E+04  0.00000000000E+00 0. -1.
         -4    1    3    3    0  502 -0.63087066138E+00  0.67597623787E+02 -0.10020842013E+03  0.12087830328E+03  0.00000000000E+00 0.  1.
         11    1    5    5    0    0  0.10161568286E+02 -0.15615867169E+03 -0.76204209195E+02  0.17405708751E+03  0.00000000000E+00 0. -1.
        -11    1    5    5    0    0  0.20106869227E+01 -0.62453950104E+03 -0.11736390713E+03  0.63547456119E+03  0.00000000000E+00 0.  1.
          1    1    6    6  503    0  0.80240708667E+02  0.81838581858E+02 -0.96671463419E+02  0.14993830947E+03  0.00000000000E+00 0. -1.
         -1    1    6    6    0  503  0.81394858206E+02  0.14825242023E+03 -0.24726994925E+02  0.17092491721E+03  0.00000000000E+00 0.  1.
<mgrwt>
<rscale>  0 0.19396803E+04</rscale>
<asrwt>0</asrwt>
<pdfrwt beam="1">  1        1 0.30429058E+00 0.19396803E+04</pdfrwt>
<pdfrwt beam="2">  1       -2 0.73161922E-01 0.19396803E+04</pdfrwt>
<totfact> 0.42611983E+00</totfact>
</mgrwt>
</event>
<event>
12    4  0.4486176E-008  0.1770162E+04  0.7818608E-02  0.8722330E-01
          1   -1    0    0  501    0  0.00000000000E+00  0.00000000000E+00  0.41663278289E+03  0.41663278289E+03  0.00000000000E+00 0. -1.
         -2   -1    0    0    0  501 -0.00000000000E+00 -0.00000000000E+00 -0.18802368631E+04  0.18802368631E+04  0.00000000000E+00 0.  1.
        -24    2    1    2    0    0 -0.20882556056E+03  0.52643717461E+03 -0.13284779056E+03  0.58735073146E+03  0.81167313216E+02 0.  0.
        254    2    1    2    0    0  0.20882556056E+03 -0.52643717461E+03 -0.13307562896E+04  0.17095189145E+04  0.91148143324E+03 0.  0.
         23    2    4    4    0    0 -0.19631592586E+03  0.12181342518E+03 -0.11994406003E+03  0.27466385270E+03  0.87608225314E+02 0.  0.
         23    2    4    4    0    0  0.40514148642E+03 -0.64825059979E+03 -0.12108122296E+04  0.14348550618E+04  0.91511359607E+02 0.  0.
          3    1    3    3  502    0 -0.20590464296E+03  0.49035448523E+03 -0.10602707345E+03  0.54229695138E+03  0.00000000000E+00 0. -1.
         -4    1    3    3    0  502 -0.29209175997E+01  0.36082689383E+02 -0.26820717115E+02  0.45053780078E+02  0.00000000000E+00 0.  1.
         11    1    5    5    0    0 -0.52285380174E+02 -0.44278036884E+01 -0.87381804864E+01  0.53195133458E+02  0.00000000000E+00 0.  1.
        -11    1    5    5    0    0 -0.14403054568E+03  0.12624122887E+03 -0.11120587955E+03  0.22146871924E+03  0.00000000000E+00 0. -1.
          1    1    6    6  503    0  0.39277460085E+03 -0.61381149140E+03 -0.11806540124E+04  0.13874366043E+04  0.00000000000E+00 0. -1.
         -1    1    6    6    0  503  0.12366885562E+02 -0.34439108389E+02 -0.30158217179E+02  0.47418457467E+02  0.00000000000E+00 0.  1.
<mgrwt>
<rscale>  0 0.17701619E+04</rscale>
<asrwt>0</asrwt>
<pdfrwt beam="1">  1        1 0.64097352E-01 0.17701619E+04</pdfrwt>
<pdfrwt beam="2">  1       -2 0.28926721E+00 0.17701619E+04</pdfrwt>
<totfact> 0.17402497E+00</totfact>
</mgrwt>
</event>
<event>
12    4  0.4486176E-008  0.1522058E+04  0.7818608E-02  0.8869916E-01
         -2   -1    0    0    0  501 -0.00000000000E+00  0.00000000000E+00  0.14999664959E+03  0.14999664959E+03  0.00000000000E+00 0.  1.
          1   -1    0    0  501    0  0.00000000000E+00 -0.00000000000E+00 -0.38611865111E+04  0.38611865111E+04  0.00000000000E+00 0. -1.
        -24    2    1    2    0    0  0.18711400130E+03 -0.40737853407E+03 -0.68438957300E+03  0.82185558010E+03  0.78029400903E+02 0.  0.
        254    2    1    2    0    0 -0.18711400130E+03  0.40737853407E+03 -0.30268002885E+04  0.31893275806E+04  0.89962298232E+03 0.  0.
         23    2    4    4    0    0  0.25511280312E+03  0.27710741718E+03 -0.22285224274E+04  0.22619849487E+04  0.91611329846E+02 0.  0.
         23    2    4    4    0    0 -0.44222680442E+03  0.13027111689E+03 -0.79827786109E+03  0.92734263187E+03  0.10090442476E+03 0.  0.
          3    1    3    3  502    0  0.72738366566E+02 -0.24472273735E+03 -0.41003859896E+03  0.48302354061E+03  0.00000000000E+00 0. -1.
         -4    1    3    3    0  502  0.11437563473E+03 -0.16265579672E+03 -0.27435097404E+03  0.33883203949E+03  0.00000000000E+00 0.  1.
         11    1    5    5    0    0  0.30993159206E+02  0.56674148537E+02 -0.23033454910E+03  0.23922069212E+03  0.00000000000E+00 0. -1.
        -11    1    5    5    0    0  0.22411964392E+03  0.22043326864E+03 -0.19981878783E+04  0.20227642566E+04  0.00000000000E+00 0.  1.
          1    1    6    6  503    0 -0.98829276320E+02 -0.11401751627E+02 -0.19385377499E+03  0.21789105507E+03  0.00000000000E+00 0. -1.
         -1    1    6    6    0  503 -0.34339752810E+03  0.14167286852E+03 -0.60442408609E+03  0.70945157681E+03  0.00000000000E+00 0.  1.
<mgrwt>
<rscale>  0 0.15220579E+04</rscale>
<asrwt>0</asrwt>
<pdfrwt beam="1">  1        1 0.59402870E+00 0.15220579E+04</pdfrwt>
<pdfrwt beam="2">  1       -2 0.23076407E-01 0.15220579E+04</pdfrwt>
<totfact> 0.18080486E+00</totfact>
</mgrwt>
</event>
<event>
12    4  0.4486176E-008  0.1605197E+04  0.7818608E-02  0.8817362E-01
         -2   -1    0    0    0  501 -0.00000000000E+00  0.00000000000E+00  0.44378088656E+03  0.44378088656E+03  0.00000000000E+00 0.  1.
          1   -1    0    0  501    0  0.00000000000E+00 -0.00000000000E+00 -0.14515369463E+04  0.14515369463E+04  0.00000000000E+00 0. -1.
        -24    2    1    2    0    0 -0.21748008924E+03  0.19063345907E+02 -0.78747974048E+03  0.82023268522E+03  0.70684622453E+02 0.  0.
        254    2    1    2    0    0  0.21748008924E+03 -0.19063345907E+02 -0.22027631929E+03  0.10750851477E+04  0.10293810847E+04 0.  0.
         23    2    4    4    0    0  0.46157884559E+03 -0.54954902433E+02 -0.50167337483E+03  0.68974441475E+03  0.89420974430E+02 0.  0.
         23    2    4    4    0    0 -0.24409875635E+03  0.35891556526E+02  0.28139705554E+03  0.38534073293E+03  0.91819229509E+02 0.  0.
          3    1    3    3  502    0 -0.15120197871E+03 -0.13377905938E+02 -0.59600414630E+03  0.61503003922E+03  0.00000000000E+00 0. -1.
         -4    1    3    3    0  502 -0.66278110531E+02  0.32441251845E+02 -0.19147559418E+03  0.20520264599E+03  0.00000000000E+00 0.  1.
         11    1    5    5    0    0  0.30624233749E+03 -0.29329806962E+02 -0.38995012177E+03  0.49669477984E+03  0.00000000000E+00 0. -1.
        -11    1    5    5    0    0  0.15533650810E+03 -0.25625095471E+02 -0.11172325306E+03  0.19304963491E+03  0.00000000000E+00 0.  1.
          4    1    6    6  503    0 -0.20138722980E+03 -0.76287356101E+01  0.20335412989E+03  0.28630039483E+03  0.00000000000E+00 0. -1.
         -4    1    6    6    0  503 -0.42711526542E+02  0.43520292136E+02  0.78042925646E+02  0.99040338097E+02  0.00000000000E+00 0.  1.
<mgrwt>
<rscale>  0 0.16051970E+04</rscale>
<asrwt>0</asrwt>
<pdfrwt beam="1">  1        1 0.22331337E+00 0.16051970E+04</pdfrwt>
<pdfrwt beam="2">  1       -2 0.68273984E-01 0.16051970E+04</pdfrwt>
<totfact> 0.11678909E+01</totfact>
</mgrwt>
</event>
<event>
12    4  0.4486176E-008  0.1398205E+04  0.7818608E-02  0.8955119E-01
          1   -1    0    0  501    0  0.00000000000E+00  0.00000000000E+00  0.20122694739E+04  0.20122694739E+04  0.00000000000E+00 0. -1.
         -4   -1    0    0    0  501 -0.00000000000E+00 -0.00000000000E+00 -0.24288228706E+03  0.24288228706E+03  0.00000000000E+00 0.  1.
        -24    2    1    2    0    0 -0.19067387536E+03  0.32261023585E+03  0.28031314173E+03  0.47477276240E+03  0.79998921673E+02 0.  0.
        254    2    1    2    0    0  0.19067387536E+03 -0.32261023585E+03  0.14890740451E+04  0.17803789985E+04  0.90109598579E+03 0.  0.
         23    2    4    4    0    0 -0.32235363795E+03 -0.25454097254E+03  0.88175212859E+03  0.97729250288E+03  0.94397273882E+02 0.  0.
         23    2    4    4    0    0  0.51302751332E+03 -0.68069263310E+02  0.60732191648E+03  0.80308649563E+03  0.90979971372E+02 0.  0.
          1    1    3    3  502    0 -0.46446313468E+01  0.33172617039E+02  0.51972553861E+02  0.61831557286E+02  0.00000000000E+00 0. -1.
         -2    1    3    3    0  502 -0.18602924402E+03  0.28943761882E+03  0.22834058786E+03  0.41294120511E+03  0.00000000000E+00 0.  1.
         11    1    5    5    0    0 -0.18192783712E+03 -0.19966492139E+03  0.54147762443E+03  0.60511307746E+03  0.00000000000E+00 0. -1.
        -11    1    5    5    0    0 -0.14042580084E+03 -0.54876051160E+02  0.34027450416E+03  0.37217942543E+03  0.00000000000E+00 0.  1.
          1    1    6    6  503    0  0.31523452958E+03 -0.69536075030E+02  0.42809993111E+03  0.53616939990E+03  0.00000000000E+00 0. -1.
         -1    1    6    6    0  503  0.19779298373E+03  0.14668117197E+01  0.17922198538E+03  0.26691709573E+03  0.00000000000E+00 0.  1.
<mgrwt>
<rscale>  0 0.13982054E+04</rscale>
<asrwt>0</asrwt>
<pdfrwt beam="1">  1        1 0.30957991E+00 0.13982054E+04</pdfrwt>
<pdfrwt beam="2">  1       -4 0.37366507E-01 0.13982054E+04</pdfrwt>
<totfact> 0.98828011E+00</totfact>
</mgrwt>
</event>
<event>
12    4  0.4486176E-008  0.2492522E+04  0.7818608E-02  0.8405654E-01
         -4   -1    0    0    0  501 -0.00000000000E+00  0.00000000000E+00  0.90361680708E+03  0.90361680708E+03  0.00000000000E+00 0.  1.
          1   -1    0    0  501    0  0.00000000000E+00 -0.00000000000E+00 -0.17188330078E+04  0.17188330078E+04  0.00000000000E+00 0. -1.
        -24    2    1    2    0    0 -0.35553729095E+03 -0.63804530782E+03 -0.11957592446E+04  0.14034437944E+04  0.79408644825E+02 0.  0.
        254    2    1    2    0    0  0.35553729095E+03  0.63804530782E+03  0.38054304382E+03  0.12190060205E+04  0.89869577157E+03 0.  0.
         23    2    4    4    0    0  0.86377705376E+02  0.51278309193E+03 -0.19624853648E+03  0.56382916587E+03  0.94774642497E+02 0.  0.
         23    2    4    4    0    0  0.26915958558E+03  0.12526221588E+03  0.57679158029E+03  0.65517685467E+03  0.91818726670E+02 0.  0.
          3    1    3    3  502    0 -0.21320656510E+03 -0.31670127889E+03 -0.66706891417E+03  0.76859461077E+03  0.00000000000E+00 0. -1.
         -4    1    3    3    0  502 -0.14233072586E+03 -0.32134402893E+03 -0.52869033039E+03  0.63484918359E+03  0.00000000000E+00 0.  1.
         11    1    5    5    0    0  0.77699816992E+02  0.39937758947E+03 -0.19230633416E+03  0.45002382903E+03  0.00000000000E+00 0.  1.
        -11    1    5    5    0    0  0.86778883843E+01  0.11340550246E+03 -0.39422023121E+01  0.11380533684E+03  0.00000000000E+00 0. -1.
          2    1    6    6  503    0  0.31446680038E+02  0.13407545950E+02  0.15130725569E+03  0.15512105466E+03  0.00000000000E+00 0. -1.
         -2    1    6    6    0  503  0.23771290554E+03  0.11185466993E+03  0.42548432460E+03  0.50005580001E+03  0.00000000000E+00 0.  1.
<mgrwt>
<rscale>  0 0.24925219E+04</rscale>
<asrwt>0</asrwt>
<pdfrwt beam="1">  1        1 0.26443585E+00 0.24925219E+04</pdfrwt>
<pdfrwt beam="2">  1       -4 0.13901797E+00 0.24925219E+04</pdfrwt>
<totfact> 0.73230819E-01</totfact>
</mgrwt>
</event>
<event>
12    4  0.4486176E-008  0.1407593E+04  0.7818608E-02  0.8948340E-01
         -2   -1    0    0    0  501 -0.00000000000E+00  0.00000000000E+00  0.45755737935E+03  0.45755737935E+03  0.00000000000E+00 0.  1.
          1   -1    0    0  501    0  0.00000000000E+00 -0.00000000000E+00 -0.10825522729E+04  0.10825522729E+04  0.00000000000E+00 0. -1.
        -24    2    1    2    0    0 -0.31980648685E+03  0.24872663305E+03 -0.15940338675E+03  0.44229679355E+03  0.77947975308E+02 0.  0.
        254    2    1    2    0    0  0.31980648685E+03 -0.24872663305E+03 -0.46559150681E+03  0.10978128587E+04  0.90789674221E+03 0.  0.
         23    2    4    4    0    0 -0.74757813023E+02 -0.43156505785E+03 -0.47667897995E+03  0.65359504763E+03  0.90147138539E+02 0.  0.
         23    2    4    4    0    0  0.39456429987E+03  0.18283842480E+03  0.11087473149E+02  0.44421781109E+03  0.89975859597E+02 0.  0.
          3    1    3    3  502    0 -0.18687257032E+03  0.17284979203E+03 -0.13219009115E+03  0.28683205599E+03  0.00000000000E+00 0. -1.
         -4    1    3    3    0  502 -0.13293391653E+03  0.75876841023E+02 -0.27213295597E+02  0.15546473756E+03  0.00000000000E+00 0.  1.
         11    1    5    5    0    0  0.18348536939E+02 -0.33407881106E+02 -0.45663797379E+02  0.59480565892E+02  0.00000000000E+00 0. -1.
        -11    1    5    5    0    0 -0.93106349962E+02 -0.39815717674E+03 -0.43101518258E+03  0.59411448173E+03  0.00000000000E+00 0.  1.
          4    1    6    6  503    0  0.71941026737E+02  0.69625717974E+02 -0.15352064998E+02  0.10128641484E+03  0.00000000000E+00 0. -1.
         -4    1    6    6    0  503  0.32262327313E+03  0.11321270682E+03  0.26439538147E+02  0.34293139625E+03  0.00000000000E+00 0.  1.
<mgrwt>
<rscale>  0 0.14075934E+04</rscale>
<asrwt>0</asrwt>
<pdfrwt beam="1">  1        1 0.16654650E+00 0.14075934E+04</pdfrwt>
<pdfrwt beam="2">  1       -2 0.70393443E-01 0.14075934E+04</pdfrwt>
<totfact> 0.20507849E+01</totfact>
</mgrwt>
</event>
<event>
12    4  0.4486176E-008  0.2382483E+04  0.7818608E-02  0.8446091E-01
          1   -1    0    0  501    0  0.00000000000E+00  0.00000000000E+00  0.16010921924E+04  0.16010921924E+04  0.00000000000E+00 0. -1.
         -2   -1    0    0    0  501 -0.00000000000E+00 -0.00000000000E+00 -0.88630511339E+03  0.88630511339E+03  0.00000000000E+00 0.  1.
        -24    2    1    2    0    0  0.77803096902E+03 -0.19549638702E+03 -0.34941862489E+03  0.87853509851E+03  0.78609909149E+02 0.  0.
        254    2    1    2    0    0 -0.77803096902E+03  0.19549638702E+03  0.10642057039E+04  0.16088622073E+04  0.90130616092E+03 0.  0.
         23    2    4    4    0    0 -0.82439919716E+02  0.24899303823E+03 -0.58866491003E+02  0.28354143203E+03  0.90203140004E+02 0.  0.
         23    2    4    4    0    0 -0.69559104930E+03 -0.53496651202E+02  0.11230721949E+04  0.13253207752E+04  0.92060864641E+02 0.  0.
          3    1    3    3  502    0  0.57702813636E+03 -0.13832835491E+03 -0.22065585541E+03  0.63307599105E+03  0.00000000000E+00 0. -1.
         -4    1    3    3    0  502  0.20100283266E+03 -0.57168032118E+02 -0.12876276948E+03  0.24545910746E+03  0.00000000000E+00 0.  1.
         11    1    5    5    0    0 -0.13416001066E+02  0.15212153387E+03 -0.61334714265E+02  0.16456882246E+03  0.00000000000E+00 0.  1.
        -11    1    5    5    0    0 -0.69023918650E+02  0.96871504358E+02  0.24682232625E+01  0.11897260957E+03  0.00000000000E+00 0. -1.
          3    1    6    6  503    0 -0.39802628051E+03  0.12296987857E+02  0.66585337922E+03  0.77584589868E+03  0.00000000000E+00 0.  1.
         -3    1    6    6    0  503 -0.29756476879E+03 -0.65793639060E+02  0.45721881567E+03  0.54947487656E+03  0.00000000000E+00 0. -1.
<mgrwt>
<rscale>  0 0.23824829E+04</rscale>
<asrwt>0</asrwt>
<pdfrwt beam="1">  1        1 0.24632187E+00 0.23824829E+04</pdfrwt>
<pdfrwt beam="2">  1       -2 0.13635463E+00 0.23824829E+04</pdfrwt>
<totfact> 0.16883756E+00</totfact>
</mgrwt>
</event>
<event>
12    4  0.4486176E-008  0.1678570E+04  0.7818608E-02  0.8773682E-01
         -2   -1    0    0    0  501 -0.00000000000E+00  0.00000000000E+00  0.39718494428E+03  0.39718494428E+03  0.00000000000E+00 0.  1.
          1   -1    0    0  501    0  0.00000000000E+00 -0.00000000000E+00 -0.17734797171E+04  0.17734797171E+04  0.00000000000E+00 0. -1.
        -24    2    1    2    0    0 -0.34204994142E+02  0.28106463696E+03  0.21013866737E+03  0.36178528945E+03  0.81012495121E+02 0.  0.
        254    2    1    2    0    0  0.34204994142E+02 -0.28106463696E+03 -0.15864334402E+04  0.18088793719E+04  0.82164847121E+03 0.  0.
         23    2    4    4    0    0  0.19956003416E+03 -0.41788451315E+03 -0.14781463123E+04  0.15516203604E+04  0.90319148534E+02 0.  0.
         23    2    4    4    0    0 -0.16535504002E+03  0.13681987619E+03 -0.10828712783E+03  0.25725901150E+03  0.91619480268E+02 0.  0.
          1    1    3    3  502    0  0.11406690612E+02  0.13117638502E+03  0.59680822366E+02  0.14456540781E+03  0.00000000000E+00 0. -1.
         -2    1    3    3    0  502 -0.45611684753E+02  0.14988825194E+03  0.15045784501E+03  0.21721988164E+03  0.00000000000E+00 0.  1.
         11    1    5    5    0    0  0.16933766256E+03 -0.30509116575E+03 -0.12063548307E+04  0.12558056541E+04  0.00000000000E+00 0. -1.
        -11    1    5    5    0    0  0.30222371596E+02 -0.11279334740E+03 -0.27179148165E+03  0.29581470629E+03  0.00000000000E+00 0.  1.
          2    1    6    6  503    0 -0.17107256599E+03  0.11342944887E+03 -0.80478363771E+02  0.22047410220E+03  0.00000000000E+00 0. -1.
         -2    1    6    6    0  503  0.57175259763E+01  0.23390427314E+02 -0.27808764063E+02  0.36784909296E+02  0.00000000000E+00 0.  1.
<mgrwt>
<rscale>  0 0.16785702E+04</rscale>
<asrwt>0</asrwt>
<pdfrwt beam="1">  1        1 0.27284304E+00 0.16785702E+04</pdfrwt>
<pdfrwt beam="2">  1       -2 0.61105375E-01 0.16785702E+04</pdfrwt>
<totfact> 0.88552233E+00</totfact>
</mgrwt>
</event>
<event>
12    4  0.4486176E-008  0.3169248E+04  0.7818608E-02  0.8196986E-01
          1   -1    0    0  501    0  0.00000000000E+00  0.00000000000E+00  0.15958408913E+04  0.15958408913E+04  0.00000000000E+00 0. -1.
         -2   -1    0    0    0  501 -0.00000000000E+00 -0.00000000000E+00 -0.15734857830E+04  0.15734857830E+04  0.00000000000E+00 0.  1.
        -24    2    1    2    0    0 -0.28915009564E+03 -0.10117787554E+04 -0.99927838247E+03  0.14533341901E+04  0.79491853684E+02 0.  0.
        254    2    1    2    0    0  0.28915009564E+03  0.10117787554E+04  0.10216334908E+04  0.17159924841E+04  0.89083735234E+03 0.  0.
         23    2    4    4    0    0 -0.83757548182E+02  0.94200392594E+01  0.51394318462E+03  0.52851951053E+03  0.89951164438E+02 0.  0.
         23    2    4    4    0    0  0.37290764382E+03  0.10023587162E+04  0.50769030616E+03  0.11874729736E+04  0.92517616251E+02 0.  0.
          1    1    3    3  502    0 -0.13465135402E+03 -0.44782571931E+03 -0.49802700988E+03  0.68316159478E+03  0.00000000000E+00 0. -1.
         -2    1    3    3    0  502 -0.15449874161E+03 -0.56395303614E+03 -0.50125137258E+03  0.77017259536E+03  0.00000000000E+00 0.  1.
         11    1    5    5    0    0 -0.52132469138E+02  0.42856371671E+02  0.19669558156E+03  0.20795099119E+03  0.00000000000E+00 0. -1.
        -11    1    5    5    0    0 -0.31625079044E+02 -0.33436332412E+02  0.31724760306E+03  0.32056851935E+03  0.00000000000E+00 0.  1.
          4    1    6    6  503    0  0.36818331544E+03  0.99644819139E+03  0.51147314383E+03  0.11790134557E+04  0.00000000000E+00 0.  1.
         -4    1    6    6    0  503  0.47243283737E+01  0.59105248009E+01 -0.37828376697E+01  0.84595178846E+01  0.00000000000E+00 0. -1.
<mgrwt>
<rscale>  0 0.31692478E+04</rscale>
<asrwt>0</asrwt>
<pdfrwt beam="1">  1        1 0.24551398E+00 0.31692478E+04</pdfrwt>
<pdfrwt beam="2">  1       -2 0.24207474E+00 0.31692478E+04</pdfrwt>
<totfact> 0.29769399E-01</totfact>
</mgrwt>
</event>
<event>
12    4  0.4486176E-008  0.1330399E+04  0.7818608E-02  0.9005800E-01
          1   -1    0    0  501    0  0.00000000000E+00  0.00000000000E+00  0.20102658094E+04  0.20102658094E+04  0.00000000000E+00 0. -1.
         -2   -1    0    0    0  501 -0.00000000000E+00 -0.00000000000E+00 -0.22011531869E+03  0.22011531869E+03  0.00000000000E+00 0.  1.
        -24    2    1    2    0    0 -0.64513062380E+02  0.20461712081E+02  0.11088391732E+04  0.11137510340E+04  0.79601738333E+02 0.  0.
        254    2    1    2    0    0  0.64513062380E+02 -0.20461712081E+02  0.68131131748E+03  0.11166300941E+04  0.88209808912E+03 0.  0.
         23    2    4    4    0    0 -0.23524536345E+03 -0.34883829945E+03  0.30746842168E+03  0.52878825167E+03  0.89730956680E+02 0.  0.
         23    2    4    4    0    0  0.29975842583E+03  0.32837658737E+03  0.37384289580E+03  0.58784184242E+03  0.90073436525E+02 0.  0.
          1    1    3    3  502    0 -0.82203710987E+02  0.24895824613E+02  0.94717624231E+03  0.95106260897E+03  0.00000000000E+00 0. -1.
         -2    1    3    3    0  502  0.17690648607E+02 -0.44341125321E+01  0.16166293093E+03  0.16268842503E+03  0.00000000000E+00 0.  1.
         11    1    5    5    0    0 -0.35049558794E+02 -0.11223660688E+02  0.17278746595E+02  0.40657068448E+02  0.00000000000E+00 0.  1.
        -11    1    5    5    0    0 -0.20019580466E+03 -0.33761463876E+03  0.29018967508E+03  0.48813118322E+03  0.00000000000E+00 0. -1.
          4    1    6    6  503    0  0.27852133011E+03  0.30316189965E+03  0.37194741521E+03  0.55482082550E+03  0.00000000000E+00 0. -1.
         -4    1    6    6    0  503  0.21237095724E+02  0.25214687720E+02  0.18954805853E+01  0.33021016918E+02  0.00000000000E+00 0.  1.
<mgrwt>
<rscale>  0 0.13303989E+04</rscale>
<asrwt>0</asrwt>
<pdfrwt beam="1">  1        1 0.30927165E+00 0.13303989E+04</pdfrwt>
<pdfrwt beam="2">  1       -2 0.33863896E-01 0.13303989E+04</pdfrwt>
<totfact> 0.20616149E+01</totfact>
</mgrwt>
</event>
<event>
12    4  0.4486176E-008  0.1407953E+04  0.7818608E-02  0.8948082E-01
         -2   -1    0    0    0  501 -0.00000000000E+00  0.00000000000E+00  0.57614525954E+03  0.57614525954E+03  0.00000000000E+00 0.  1.
          1   -1    0    0  501    0  0.00000000000E+00 -0.00000000000E+00 -0.86016994613E+03  0.86016994613E+03  0.00000000000E+00 0. -1.
        -24    2    1    2    0    0 -0.31496495516E+03  0.11085317886E+03  0.16384722713E+03  0.38043370130E+03  0.79953342662E+02 0.  0.
        254    2    1    2    0    0  0.31496495516E+03 -0.11085317886E+03 -0.44787191371E+03  0.10558815044E+04  0.89599394527E+03 0.  0.
         23    2    4    4    0    0  0.21535365954E+03 -0.44575302244E+03 -0.47720546907E+03  0.69355336054E+03  0.90654555974E+02 0.  0.
         23    2    4    4    0    0  0.99611295623E+02  0.33489984358E+03  0.29333555356E+02  0.36232814384E+03  0.91328587542E+02 0.  0.
          1    1    3    3  502    0 -0.68684189057E+01 -0.11652022050E+01 -0.77413406745E+01  0.10414472136E+02  0.00000000000E+00 0. -1.
         -2    1    3    3    0  502 -0.30809653625E+03  0.11201838106E+03  0.17158856780E+03  0.37001922916E+03  0.00000000000E+00 0.  1.
         11    1    5    5    0    0  0.68933302392E+01 -0.49787507534E+02 -0.83833345906E+02  0.97746323686E+02  0.00000000000E+00 0.  1.
        -11    1    5    5    0    0  0.20846032930E+03 -0.39596551490E+03 -0.39337212316E+03  0.59580703685E+03  0.00000000000E+00 0. -1.
          3    1    6    6  503    0  0.52306316792E+02  0.22035843559E+03 -0.23324267506E+02  0.22767918738E+03  0.00000000000E+00 0. -1.
         -3    1    6    6    0  503  0.47304978831E+02  0.11454140799E+03  0.52657822861E+02  0.13464895646E+03  0.00000000000E+00 0.  1.
<mgrwt>
<rscale>  0 0.14079529E+04</rscale>
<asrwt>0</asrwt>
<pdfrwt beam="1">  1        1 0.13233384E+00 0.14079529E+04</pdfrwt>
<pdfrwt beam="2">  1       -2 0.88637733E-01 0.14079529E+04</pdfrwt>
<totfact> 0.18355774E+01</totfact>
</mgrwt>
</event>
<event>
12    4  0.4486176E-008  0.1793033E+04  0.7818608E-02  0.8710013E-01
          1   -1    0    0  501    0  0.00000000000E+00  0.00000000000E+00  0.13318881383E+04  0.13318881383E+04  0.00000000000E+00 0. -1.
         -2   -1    0    0    0  501 -0.00000000000E+00 -0.00000000000E+00 -0.60346050149E+03  0.60346050149E+03  0.00000000000E+00 0.  1.
        -24    2    1    2    0    0  0.91206972958E+02  0.36274740770E+03 -0.32445530303E+03  0.50162957338E+03  0.80352918518E+02 0.  0.
        254    2    1    2    0    0 -0.91206972958E+02 -0.36274740770E+03  0.10528829399E+04  0.14337190664E+04  0.89837825145E+03 0.  0.
         23    2    4    4    0    0  0.29540705212E+03  0.11710512469E+03  0.50859752560E+03  0.60648904984E+03  0.90435545300E+02 0.  0.
         23    2    4    4    0    0 -0.38661402508E+03 -0.47985253239E+03  0.54428541427E+03  0.82723001660E+03  0.91290913782E+02 0.  0.
          3    1    3    3  502    0 -0.50876348779E+01  0.50430478334E+02 -0.74821421727E+02  0.90373460279E+02  0.00000000000E+00 0. -1.
         -4    1    3    3    0  502  0.96294607836E+02  0.31231692937E+03 -0.24963388130E+03  0.41125611310E+03  0.00000000000E+00 0.  1.
         11    1    5    5    0    0  0.48576554906E+02 -0.60173745619E+01  0.12307253517E+03  0.13244900678E+03  0.00000000000E+00 0. -1.
        -11    1    5    5    0    0  0.24683049722E+03  0.12312249925E+03  0.38552499043E+03  0.47404004306E+03  0.00000000000E+00 0.  1.
          1    1    6    6  503    0 -0.18064651862E+03 -0.15385225542E+03  0.20235306324E+03  0.31185003349E+03  0.00000000000E+00 0. -1.
         -1    1    6    6    0  503 -0.20596750647E+03 -0.32600027697E+03  0.34193235104E+03  0.51537998311E+03  0.00000000000E+00 0.  1.
<mgrwt>
<rscale>  0 0.17930331E+04</rscale>
<asrwt>0</asrwt>
<pdfrwt beam="1">  1        1 0.20490587E+00 0.17930331E+04</pdfrwt>
<pdfrwt beam="2">  1       -2 0.92840078E-01 0.17930331E+04</pdfrwt>
<totfact> 0.69925806E+00</totfact>
</mgrwt>
</event>
<event>
12    4  0.4486176E-008  0.1444368E+04  0.7818608E-02  0.8922314E-01
         -4   -1    0    0    0  501 -0.00000000000E+00  0.00000000000E+00  0.15854195153E+04  0.15854195153E+04  0.00000000000E+00 0.  1.
          3   -1    0    0  501    0  0.00000000000E+00 -0.00000000000E+00 -0.32896644219E+03  0.32896644219E+03  0.00000000000E+00 0. -1.
        -24    2    1    2    0    0  0.31362297335E+03  0.37941752984E+02 -0.16611926992E+02  0.32626823747E+03  0.79850238760E+02 0.  0.
        254    2    1    2    0    0 -0.31362297335E+03 -0.37941752984E+02  0.12730650001E+04  0.15881177200E+04  0.89533482682E+03 0.  0.
         23    2    4    4    0    0  0.23638734587E+03  0.21071459815E+02  0.84626553489E+03  0.88374372009E+03  0.92274717832E+02 0.  0.
         23    2    4    4    0    0 -0.55001031923E+03 -0.59013212799E+02  0.42679946522E+03  0.70437399993E+03  0.89392604446E+02 0.  0.
          1    1    3    3  502    0  0.30259774241E+03  0.30658082722E+02 -0.32184407248E+02  0.30584497350E+03  0.00000000000E+00 0. -1.
         -2    1    3    3    0  502  0.11025230946E+02  0.72836702613E+01  0.15572480255E+02  0.20423263970E+02  0.00000000000E+00 0.  1.
         11    1    5    5    0    0  0.41766015260E+02  0.40770808722E+02  0.22221797956E+03  0.22975528137E+03  0.00000000000E+00 0. -1.
        -11    1    5    5    0    0  0.19462133061E+03 -0.19699348907E+02  0.62404755532E+03  0.65398843872E+03  0.00000000000E+00 0.  1.
          3    1    6    6  503    0 -0.19537612307E+02 -0.17254142518E+02  0.81432585521E+01  0.27308174390E+02  0.00000000000E+00 0. -1.
         -3    1    6    6    0  503 -0.53047270692E+03 -0.41759070281E+02  0.41865620666E+03  0.67706582554E+03  0.00000000000E+00 0.  1.
<mgrwt>
<rscale>  0 0.14443681E+04</rscale>
<asrwt>0</asrwt>
<pdfrwt beam="1">  1        3 0.50610223E-01 0.14443681E+04</pdfrwt>
<pdfrwt beam="2">  1       -4 0.24391069E+00 0.14443681E+04</pdfrwt>
<totfact> 0.59308945E-01</totfact>
</mgrwt>
</event>
<event>
12    4  0.4486176E-008  0.1838383E+04  0.7818608E-02  0.8686150E-01
         -2   -1    0    0    0  501 -0.00000000000E+00  0.00000000000E+00  0.33622827783E+03  0.33622827783E+03  0.00000000000E+00 0.  1.
          1   -1    0    0  501    0  0.00000000000E+00 -0.00000000000E+00 -0.25129160701E+04  0.25129160701E+04  0.00000000000E+00 0. -1.
        -24    2    1    2    0    0 -0.89302977516E+02  0.24267301511E+03  0.17015988729E+03  0.32114700484E+03  0.85532434907E+02 0.  0.
        254    2    1    2    0    0  0.89302977516E+02 -0.24267301511E+03 -0.23468476795E+04  0.25279973431E+04  0.90344414412E+03 0.  0.
         23    2    4    4    0    0 -0.16677398202E+03 -0.43803340796E+03 -0.69881092044E+03  0.84631152354E+03  0.90662366944E+02 0.  0.
         23    2    4    4    0    0  0.25607695954E+03  0.19536039286E+03 -0.16480367591E+04  0.16816858195E+04  0.91109516296E+02 0.  0.
          3    1    3    3  502    0 -0.25197463504E+02  0.57023812364E+02  0.16574839812E+01  0.62364850651E+02  0.00000000000E+00 0. -1.
         -4    1    3    3    0  502 -0.64105514012E+02  0.18564920274E+03  0.16850240331E+03  0.25878215419E+03  0.00000000000E+00 0.  1.
         11    1    5    5    0    0 -0.49031239170E+02 -0.68306793899E+02 -0.80970578479E+02  0.11673095171E+03  0.00000000000E+00 0.  1.
        -11    1    5    5    0    0 -0.11774274285E+03 -0.36972661406E+03 -0.61784034196E+03  0.72958057183E+03  0.00000000000E+00 0. -1.
          3    1    6    6  503    0  0.20170310825E+03  0.18236301187E+03 -0.12150736316E+04  0.12451282432E+04  0.00000000000E+00 0. -1.
         -3    1    6    6    0  503  0.54373851283E+02  0.12997380989E+02 -0.43296312751E+03  0.43655757627E+03  0.00000000000E+00 0.  1.
<mgrwt>
<rscale>  0 0.18383835E+04</rscale>
<asrwt>0</asrwt>
<pdfrwt beam="1">  1        1 0.38660247E+00 0.18383835E+04</pdfrwt>
<pdfrwt beam="2">  1       -2 0.51727427E-01 0.18383835E+04</pdfrwt>
<totfact> 0.38731800E+00</totfact>
</mgrwt>
</event>
<event>
12    4  0.4486176E-008  0.1585733E+04  0.7818608E-02  0.8829361E-01
         -2   -1    0    0    0  501 -0.00000000000E+00  0.00000000000E+00  0.28644836648E+03  0.28644836648E+03  0.00000000000E+00 0.  1.
          1   -1    0    0  501    0  0.00000000000E+00 -0.00000000000E+00 -0.21945908148E+04  0.21945908148E+04  0.00000000000E+00 0. -1.
        -24    2    1    2    0    0  0.26042212244E+02 -0.14448212067E+02  0.18579896204E+03  0.20424285149E+03  0.79416247938E+02 0.  0.
        254    2    1    2    0    0 -0.26042212244E+02  0.14448212067E+02 -0.20939414103E+04  0.22767963298E+04  0.89348975916E+03 0.  0.
         23    2    4    4    0    0  0.19643199742E+03 -0.37680830011E+03 -0.10162897121E+04  0.11053568244E+04  0.91645544524E+02 0.  0.
         23    2    4    4    0    0 -0.22247420966E+03  0.39125651218E+03 -0.10776516983E+04  0.11714395053E+04  0.91437954987E+02 0.  0.
          3    1    3    3  502    0  0.79223116356E+01 -0.12093868483E+02 -0.28290695212E+01  0.14731880765E+02  0.00000000000E+00 0. -1.
         -4    1    3    3    0  502  0.18119900608E+02 -0.23543435838E+01  0.18862803156E+03  0.18951097072E+03  0.00000000000E+00 0.  1.
         11    1    5    5    0    0  0.16598643843E+02 -0.39640606327E+02 -0.19271406834E+03  0.19744772671E+03  0.00000000000E+00 0. -1.
        -11    1    5    5    0    0  0.17983335357E+03 -0.33716769378E+03 -0.82357564372E+03  0.90790909772E+03  0.00000000000E+00 0.  1.
          3    1    6    6  503    0 -0.13513109666E+03  0.22855209322E+03 -0.51757938122E+03  0.58170859411E+03  0.00000000000E+00 0. -1.
         -3    1    6    6    0  503 -0.87343113002E+02  0.16270441896E+03 -0.56007231706E+03  0.58973091124E+03  0.00000000000E+00 0.  1.
<mgrwt>
<rscale>  0 0.15857326E+04</rscale>
<asrwt>0</asrwt>
<pdfrwt beam="1">  1        1 0.33762937E+00 0.15857326E+04</pdfrwt>
<pdfrwt beam="2">  1       -2 0.44068977E-01 0.15857326E+04</pdfrwt>
<totfact> 0.90579184E+00</totfact>
</mgrwt>
</event>
<event>
12    4  0.5593813E-008  0.1979804E+04  0.7818608E-02  0.8616122E-01
          1   -1    0    0  501    0  0.00000000000E+00  0.00000000000E+00  0.15985950077E+04  0.15985950077E+04  0.00000000000E+00 0. -1.
         -2   -1    0    0    0  501 -0.00000000000E+00 -0.00000000000E+00 -0.61297951594E+03  0.61297951594E+03  0.00000000000E+00 0.  1.
        -24    2    1    2    0    0  0.47368980659E+03 -0.56734358225E+02  0.10887043398E+04  0.11912413523E+04  0.78600252036E+02 0.  0.
        254    2    1    2    0    0 -0.47368980659E+03  0.56734358225E+02 -0.10308884803E+03  0.10203331714E+04  0.89601989360E+03 0.  0.
         23    2    4    4    0    0 -0.29814145261E+02  0.31638303179E+03  0.22831502657E+03  0.40159131886E+03  0.90336758658E+02 0.  0.
         23    2    4    4    0    0 -0.44387566133E+03 -0.25964867356E+03 -0.33140387460E+03  0.61874185251E+03  0.92573838322E+02 0.  0.
          1    1    3    3  502    0  0.42265111221E+03 -0.51986219520E+02  0.89934508851E+03  0.99506689116E+03  0.00000000000E+00 0. -1.
         -2    1    3    3    0  502  0.51038694380E+02 -0.47481387050E+01  0.18935925127E+03  0.19617446109E+03  0.00000000000E+00 0.  1.
         11    1    5    5    0    0  0.32200018028E+02  0.13059237731E+03  0.91911006981E+02  0.16290746876E+03  0.00000000000E+00 0.  1.
        -11    1    5    5    0    0 -0.62014163290E+02  0.18579065447E+03  0.13640401959E+03  0.23868385010E+03  0.00000000000E+00 0. -1.
          4    1    6    6  503    0 -0.31546102008E+03 -0.14503837670E+03 -0.18878282527E+03  0.39520974308E+03  0.00000000000E+00 0. -1.
         -4    1    6    6    0  503 -0.12841464124E+03 -0.11461029686E+03 -0.14262104933E+03  0.22353210943E+03  0.00000000000E+00 0.  1.
<mgrwt>
<rscale>  0 0.19798040E+04</rscale>
<asrwt>0</asrwt>
<pdfrwt beam="1">  1        1 0.24593769E+00 0.19798040E+04</pdfrwt>
<pdfrwt beam="2">  1       -2 0.94304542E-01 0.19798040E+04</pdfrwt>
<totfact> 0.43254405E+00</totfact>
</mgrwt>
</event>
<event>
12    4  0.4486176E-008  0.3765595E+04  0.7818608E-02  0.8053579E-01
          1   -1    0    0  501    0  0.00000000000E+00  0.00000000000E+00  0.12455130630E+04  0.12455130630E+04  0.00000000000E+00 0. -1.
         -2   -1    0    0    0  501 -0.00000000000E+00 -0.00000000000E+00 -0.28461575604E+04  0.28461575604E+04  0.00000000000E+00 0.  1.
        -24    2    1    2    0    0  0.14055334522E+03 -0.46077246772E+03 -0.26171159448E+04  0.26622525917E+04  0.78908070851E+02 0.  0.
        254    2    1    2    0    0 -0.14055334522E+03  0.46077246772E+03  0.10164714474E+04  0.14294180317E+04  0.88201768467E+03 0.  0.
         23    2    4    4    0    0 -0.38647250215E+03  0.34129203092E+03  0.19544007531E+03  0.55924547823E+03  0.93367213717E+02 0.  0.
         23    2    4    4    0    0  0.24591915693E+03  0.11948043680E+03  0.82103137207E+03  0.87017255345E+03  0.91410898253E+02 0.  0.
          1    1    3    3  502    0  0.24313012413E+02 -0.11690145661E+03 -0.48657186324E+03  0.50100823469E+03  0.00000000000E+00 0. -1.
         -2    1    3    3    0  502  0.11624033281E+03 -0.34387101111E+03 -0.21305440816E+04  0.21612443570E+04  0.00000000000E+00 0.  1.
         11    1    5    5    0    0 -0.23046188716E+03  0.22321996973E+03  0.74995419916E+02  0.32949074240E+03  0.00000000000E+00 0.  1.
        -11    1    5    5    0    0 -0.15601061499E+03  0.11807206119E+03  0.12044465540E+03  0.22975473583E+03  0.00000000000E+00 0. -1.
          2    1    6    6  503    0  0.11711870275E+03  0.84657057500E+02  0.31029930989E+03  0.34229997025E+03  0.00000000000E+00 0. -1.
         -2    1    6    6    0  503  0.12880045418E+03  0.34823379299E+02  0.51073206218E+03  0.52787258319E+03  0.00000000000E+00 0.  1.
<mgrwt>
<rscale>  0 0.37655950E+04</rscale>
<asrwt>0</asrwt>
<pdfrwt beam="1">  1        1 0.19161740E+00 0.37655950E+04</pdfrwt>
<pdfrwt beam="2">  1       -2 0.43787039E+00 0.37655950E+04</pdfrwt>
<totfact> 0.28937441E-02</totfact>
</mgrwt>
</event>
<event>
12    4  0.4486176E-008  0.3959222E+04  0.7818608E-02  0.8012824E-01
         -2   -1    0    0    0  501 -0.00000000000E+00  0.00000000000E+00  0.14013529448E+04  0.14013529448E+04  0.00000000000E+00 0.  1.
          1   -1    0    0  501    0  0.00000000000E+00 -0.00000000000E+00 -0.27964830661E+04  0.27964830661E+04  0.00000000000E+00 0. -1.
        -24    2    1    2    0    0 -0.87888256742E+03 -0.50636318796E+03  0.10120289249E+04  0.14350599058E+04  0.79725422358E+02 0.  0.
        254    2    1    2    0    0  0.87888256742E+03  0.50636318796E+03 -0.24071590462E+04  0.27627761050E+04  0.89982158624E+03 0.  0.
         23    2    4    4    0    0  0.85306326092E+03  0.15367022402E+03 -0.21384949509E+04  0.23092639085E+04  0.90596242099E+02 0.  0.
         23    2    4    4    0    0  0.25819306506E+02  0.35269296395E+03 -0.26866409534E+03  0.45351219653E+03  0.91836555214E+02 0.  0.
          1    1    3    3  502    0 -0.87826955263E+00  0.13776238340E+01 -0.69573009474E+00  0.17757379311E+01  0.00000000000E+00 0. -1.
         -2    1    3    3    0  502 -0.87800429787E+03 -0.50774081179E+03  0.10127246550E+04  0.14332841679E+04  0.00000000000E+00 0.  1.
         11    1    5    5    0    0  0.61854599563E+03  0.81927459738E+02 -0.16084912924E+04  0.17252696876E+04  0.00000000000E+00 0.  1.
        -11    1    5    5    0    0  0.23451726528E+03  0.71742764278E+02 -0.53000365854E+03  0.58399422087E+03  0.00000000000E+00 0. -1.
          1    1    6    6  503    0  0.23646580412E+02  0.42483334023E+02 -0.10079112316E+02  0.49654636642E+02  0.00000000000E+00 0. -1.
         -1    1    6    6    0  503  0.21727260940E+01  0.31020962992E+03 -0.25858498303E+03  0.40385755989E+03  0.00000000000E+00 0.  1.
<mgrwt>
<rscale>  0 0.39592220E+04</rscale>
<asrwt>0</asrwt>
<pdfrwt beam="1">  1        1 0.43022816E+00 0.39592220E+04</pdfrwt>
<pdfrwt beam="2">  1       -2 0.21559276E+00 0.39592220E+04</pdfrwt>
<totfact> 0.61071437E-02</totfact>
</mgrwt>
</event>
<event>
12    4  0.4486176E-008  0.1956417E+04  0.7818608E-02  0.8627272E-01
          1   -1    0    0  501    0  0.00000000000E+00  0.00000000000E+00  0.11263213807E+04  0.11263213807E+04  0.00000000000E+00 0. -1.
         -2   -1    0    0    0  501 -0.00000000000E+00 -0.00000000000E+00 -0.84957292335E+03  0.84957292335E+03  0.00000000000E+00 0.  1.
        -24    2    1    2    0    0  0.17255262109E+03 -0.67201332442E+03 -0.23499450829E+03  0.73712892794E+03  0.82221178762E+02 0.  0.
        254    2    1    2    0    0 -0.17255262109E+03  0.67201332442E+03  0.51174296561E+03  0.12387653761E+04  0.88954059991E+03 0.  0.
         23    2    4    4    0    0  0.17768731713E+03 -0.55177347265E+02 -0.90544744197E+02  0.22664896746E+03  0.92488277241E+02 0.  0.
         23    2    4    4    0    0 -0.35023993822E+03  0.72719067169E+03  0.60228770981E+03  0.10121164086E+04  0.10077128515E+03 0.  0.
          3    1    3    3  502    0  0.55890218405E+02 -0.31939576708E+03 -0.75538360705E+02  0.33293154924E+03  0.00000000000E+00 0. -1.
         -4    1    3    3    0  502  0.11666240268E+03 -0.35261755734E+03 -0.15945614759E+03  0.40419737870E+03  0.00000000000E+00 0.  1.
         11    1    5    5    0    0  0.89265044642E+02  0.20264504556E+02 -0.40913502849E+02  0.10026371754E+03  0.00000000000E+00 0.  1.
        -11    1    5    5    0    0  0.88422272488E+02 -0.75441851822E+02 -0.49631241347E+02  0.12638524991E+03  0.00000000000E+00 0. -1.
          2    1    6    6  503    0 -0.32800643165E+03  0.66740114371E+03  0.51740415516E+03  0.90593574033E+03  0.00000000000E+00 0. -1.
         -2    1    6    6    0  503 -0.22233506570E+02  0.59789527977E+02  0.84883554650E+02  0.10618066830E+03  0.00000000000E+00 0.  1.
<mgrwt>
<rscale>  0 0.19564173E+04</rscale>
<asrwt>0</asrwt>
<pdfrwt beam="1">  1        1 0.17328021E+00 0.19564173E+04</pdfrwt>
<pdfrwt beam="2">  1       -2 0.13070353E+00 0.19564173E+04</pdfrwt>
<totfact> 0.42379887E+00</totfact>
</mgrwt>
</event>
<event>
12    4  0.4486176E-008  0.1380659E+04  0.7818608E-02  0.8967939E-01
         -4   -1    0    0    0  501 -0.00000000000E+00  0.00000000000E+00  0.72531372481E+03  0.72531372481E+03  0.00000000000E+00 0.  1.
          3   -1    0    0  501    0  0.00000000000E+00 -0.00000000000E+00 -0.65703245837E+03  0.65703245837E+03  0.00000000000E+00 0. -1.
        -24    2    1    2    0    0  0.72860391433E+02 -0.14269659579E+03  0.37755277148E+03  0.41805222453E+03  0.80935851734E+02 0.  0.
        254    2    1    2    0    0 -0.72860391433E+02  0.14269659579E+03 -0.30927150504E+03  0.96429395865E+03  0.89919020222E+03 0.  0.
         23    2    4    4    0    0  0.37956775293E+03  0.18712851109E+03 -0.24111825843E+03  0.49528620516E+03  0.89898007425E+02 0.  0.
         23    2    4    4    0    0 -0.45242814437E+03 -0.44431915302E+02 -0.68153246602E+02  0.46900775349E+03  0.93048304109E+02 0.  0.
          3    1    3    3  502    0  0.35814746781E+02 -0.44338255038E+02  0.56587216126E+02  0.80316187507E+02  0.00000000000E+00 0. -1.
         -4    1    3    3    0  502  0.37045644652E+02 -0.98358340754E+02  0.32096555535E+03  0.33773603703E+03  0.00000000000E+00 0.  1.
         11    1    5    5    0    0  0.50163818400E+02 -0.34612555486E+01 -0.14398517138E+02  0.52303979411E+02  0.00000000000E+00 0. -1.
        -11    1    5    5    0    0  0.32940393453E+03  0.19058976664E+03 -0.22671974130E+03  0.44298222575E+03  0.00000000000E+00 0.  1.
          4    1    6    6  503    0 -0.10557117675E+03  0.27833816847E+02 -0.64427464832E+01  0.10936865960E+03  0.00000000000E+00 0. -1.
         -4    1    6    6    0  503 -0.34685696761E+03 -0.72265732149E+02 -0.61710500119E+02  0.35963909389E+03  0.00000000000E+00 0.  1.
<mgrwt>
<rscale>  0 0.13806588E+04</rscale>
<asrwt>0</asrwt>
<pdfrwt beam="1">  1        3 0.10108192E+00 0.13806588E+04</pdfrwt>
<pdfrwt beam="2">  1       -4 0.11158673E+00 0.13806588E+04</pdfrwt>
<totfact> 0.12051996E+00</totfact>
</mgrwt>
</event>
<event>
12    4  0.4486176E-008  0.1950806E+04  0.7818608E-02  0.8629972E-01
          1   -1    0    0  501    0  0.00000000000E+00  0.00000000000E+00  0.10281245628E+04  0.10281245628E+04  0.00000000000E+00 0. -1.
         -2   -1    0    0    0  501 -0.00000000000E+00 -0.00000000000E+00 -0.92538507421E+03  0.92538507421E+03  0.00000000000E+00 0.  1.
        -24    2    1    2    0    0 -0.52201245549E+03  0.38903784904E+03  0.44231875070E+03  0.79112393989E+03  0.79898431622E+02 0.  0.
        254    2    1    2    0    0  0.52201245549E+03 -0.38903784904E+03 -0.33957926216E+03  0.11623856971E+04  0.90109876363E+03 0.  0.
         23    2    4    4    0    0  0.76419653550E+03 -0.24310025728E+03 -0.29055399513E+03  0.85767485320E+03  0.89946927509E+02 0.  0.
         23    2    4    4    0    0 -0.24218408001E+03 -0.14593759176E+03 -0.49025267031E+02  0.30471084388E+03  0.10244175063E+03 0.  0.
          3    1    3    3  502    0 -0.37407760007E+03  0.31639974313E+03  0.35112254513E+03  0.60276852110E+03  0.00000000000E+00 0. -1.
         -4    1    3    3    0  502 -0.14793485542E+03  0.72638105910E+02  0.91196205563E+02  0.18835541879E+03  0.00000000000E+00 0.  1.
         11    1    5    5    0    0  0.64404978359E+03 -0.18802914598E+03 -0.21062983113E+03  0.70322116666E+03  0.00000000000E+00 0. -1.
        -11    1    5    5    0    0  0.12014675191E+03 -0.55071111301E+02 -0.79924164000E+02  0.15445368654E+03  0.00000000000E+00 0.  1.
          3    1    6    6  503    0 -0.19579845788E+03 -0.87050781331E+02  0.15502352544E+01  0.21428317215E+03  0.00000000000E+00 0. -1.
         -3    1    6    6    0  503 -0.46385622129E+02 -0.58886810426E+02 -0.50575502286E+02  0.90427671726E+02  0.00000000000E+00 0.  1.
<mgrwt>
<rscale>  0 0.19508061E+04</rscale>
<asrwt>0</asrwt>
<pdfrwt beam="1">  1        1 0.15817301E+00 0.19508061E+04</pdfrwt>
<pdfrwt beam="2">  1       -2 0.14236694E+00 0.19508061E+04</pdfrwt>
<totfact> 0.40395016E+00</totfact>
</mgrwt>
</event>
<event>
12    4  0.4486176E-008  0.1470822E+04  0.7818608E-02  0.8904091E-01
         -2   -1    0    0    0  501 -0.00000000000E+00  0.00000000000E+00  0.35118261849E+03  0.35118261849E+03  0.00000000000E+00 0.  1.
          1   -1    0    0  501    0  0.00000000000E+00 -0.00000000000E+00 -0.15400226009E+04  0.15400226009E+04  0.00000000000E+00 0. -1.
        -24    2    1    2    0    0 -0.26835645186E+03  0.10577960681E+03  0.80547558236E+02  0.30797415116E+03  0.71802912006E+02 0.  0.
        254    2    1    2    0    0  0.26835645186E+03 -0.10577960681E+03 -0.12693875407E+04  0.15832310683E+04  0.90115003004E+03 0.  0.
         23    2    4    4    0    0 -0.25202198907E+03 -0.27682225261E+03 -0.58061795893E+03  0.69826652117E+03  0.10155430980E+03 0.  0.
         23    2    4    4    0    0  0.52037844092E+03  0.17104264580E+03 -0.68876958175E+03  0.88496454711E+03  0.93324189926E+02 0.  0.
          3    1    3    3  502    0 -0.76864981247E+02  0.14855244958E+02 -0.70549019173E+01  0.78604550033E+02  0.00000000000E+00 0. -1.
         -4    1    3    3    0  502 -0.19149147061E+03  0.90924361848E+02  0.87602460154E+02  0.22936960112E+03  0.00000000000E+00 0.  1.
         11    1    5    5    0    0 -0.13248430782E+03 -0.16614916831E+03 -0.41337353768E+03  0.46479599783E+03  0.00000000000E+00 0. -1.
        -11    1    5    5    0    0 -0.11953768125E+03 -0.11067308430E+03 -0.16724442125E+03  0.23347052333E+03  0.00000000000E+00 0.  1.
          4    1    6    6  503    0  0.27847895928E+03  0.87101596499E+02 -0.29236116170E+03  0.41305237894E+03  0.00000000000E+00 0. -1.
         -4    1    6    6    0  503  0.24189948164E+03  0.83941049305E+02 -0.39640842006E+03  0.47191216817E+03  0.00000000000E+00 0.  1.
<mgrwt>
<rscale>  0 0.14708218E+04</rscale>
<asrwt>0</asrwt>
<pdfrwt beam="1">  1        1 0.23692655E+00 0.14708218E+04</pdfrwt>
<pdfrwt beam="2">  1       -2 0.54028096E-01 0.14708218E+04</pdfrwt>
<totfact> 0.16847382E+01</totfact>
</mgrwt>
</event>
<event>
12    4  0.4486176E-008  0.1138216E+04  0.7818608E-02  0.9168724E-01
          1   -1    0    0  501    0  0.00000000000E+00  0.00000000000E+00  0.66968257783E+03  0.66968257783E+03  0.00000000000E+00 0. -1.
         -2   -1    0    0    0  501 -0.00000000000E+00 -0.00000000000E+00 -0.48363833980E+03  0.48363833980E+03  0.00000000000E+00 0.  1.
        -24    2    1    2    0    0 -0.38827239142E+02 -0.19028529025E+03  0.57005261935E+02  0.21757853483E+03  0.79842173979E+02 0.  0.
        254    2    1    2    0    0  0.38827239142E+02  0.19028529025E+03  0.12903897609E+03  0.93574238280E+03  0.90622662918E+03 0.  0.
         23    2    4    4    0    0  0.39532010925E+03 -0.61241724501E+02  0.24092549643E+03  0.47604455161E+03  0.92437993780E+02 0.  0.
         23    2    4    4    0    0 -0.35649287010E+03  0.25152701475E+03 -0.11188652034E+03  0.45969783119E+03  0.91926584729E+02 0.  0.
          1    1    3    3  502    0 -0.20904598356E+02 -0.47021961325E+02  0.51931795800E+02  0.73109359827E+02  0.00000000000E+00 0. -1.
         -2    1    3    3    0  502 -0.17922640786E+02 -0.14326332893E+03  0.50734661350E+01  0.14446917501E+03  0.00000000000E+00 0.  1.
         11    1    5    5    0    0  0.12329394227E+03 -0.60209793738E+02  0.99175891444E+02  0.16929994952E+03  0.00000000000E+00 0. -1.
        -11    1    5    5    0    0  0.27202616697E+03 -0.10319307635E+01  0.14174960498E+03  0.30674460209E+03  0.00000000000E+00 0.  1.
          4    1    6    6  503    0 -0.27047501044E+02  0.52324964361E+02 -0.44098941397E+00  0.58903851145E+02  0.00000000000E+00 0. -1.
         -4    1    6    6    0  503 -0.32944536906E+03  0.19920205039E+03 -0.11144553092E+03  0.40079398004E+03  0.00000000000E+00 0.  1.
<mgrwt>
<rscale>  0 0.11382164E+04</rscale>
<asrwt>0</asrwt>
<pdfrwt beam="1">  1        1 0.10302809E+00 0.11382164E+04</pdfrwt>
<pdfrwt beam="2">  1       -2 0.74405899E-01 0.11382164E+04</pdfrwt>
<totfact> 0.41217841E+01</totfact>
</mgrwt>
</event>
<event>
12    4  0.4486176E-008  0.2306346E+04  0.7818608E-02  0.8475423E-01
         -2   -1    0    0    0  501 -0.00000000000E+00  0.00000000000E+00  0.96943408188E+03  0.96943408188E+03  0.00000000000E+00 0.  1.
          1   -1    0    0  501    0  0.00000000000E+00 -0.00000000000E+00 -0.13717357817E+04  0.13717357817E+04  0.00000000000E+00 0. -1.
        -24    2    1    2    0    0  0.60064611724E+03  0.26448074385E+03  0.56141302146E+03  0.86726550974E+03  0.78987731259E+02 0.  0.
        254    2    1    2    0    0 -0.60064611724E+03 -0.26448074385E+03 -0.96371472132E+03  0.14739043539E+04  0.90162195975E+03 0.  0.
         23    2    4    4    0    0 -0.66168969171E+03 -0.49708477378E+03 -0.58527216424E+03  0.10175077197E+04  0.88611133380E+02 0.  0.
         23    2    4    4    0    0  0.61043574462E+02  0.23260402993E+03 -0.37844255708E+03  0.45639663421E+03  0.85136161424E+02 0.  0.
          1    1    3    3  502    0  0.10098756726E+03  0.73072886362E+02  0.12820371646E+03  0.17881366943E+03  0.00000000000E+00 0. -1.
         -4    1    3    3    0  502  0.49965854998E+03  0.19140785749E+03  0.43320930500E+03  0.68845184030E+03  0.00000000000E+00 0.  1.
         11    1    5    5    0    0 -0.46645104021E+03 -0.29904099932E+03 -0.39893111428E+03  0.68275041277E+03  0.00000000000E+00 0. -1.
        -11    1    5    5    0    0 -0.19523865149E+03 -0.19804377446E+03 -0.18634104996E+03  0.33475730692E+03  0.00000000000E+00 0.  1.
          3    1    6    6  503    0  0.10893249131E+02 -0.51935105038E+01 -0.18770315836E+02  0.22315021500E+02  0.00000000000E+00 0. -1.
         -3    1    6    6    0  503  0.50150325331E+02  0.23779754043E+03 -0.35967224125E+03  0.43408161271E+03  0.00000000000E+00 0.  1.
<mgrwt>
<rscale>  0 0.23063455E+04</rscale>
<asrwt>0</asrwt>
<pdfrwt beam="1">  1        1 0.21103627E+00 0.23063455E+04</pdfrwt>
<pdfrwt beam="2">  1       -2 0.14914371E+00 0.23063455E+04</pdfrwt>
<totfact> 0.19402192E+00</totfact>
</mgrwt>
</event>
<event>
12    4  0.4486176E-008  0.2096419E+04  0.7818608E-02  0.8562823E-01
         -2   -1    0    0    0  501 -0.00000000000E+00  0.00000000000E+00  0.50948191092E+03  0.50948191092E+03  0.00000000000E+00 0.  1.
          1   -1    0    0  501    0  0.00000000000E+00 -0.00000000000E+00 -0.21565882647E+04  0.21565882647E+04  0.00000000000E+00 0. -1.
        -24    2    1    2    0    0 -0.17306868722E+03  0.59114722050E+03 -0.14136625041E+04  0.15446135084E+04  0.89338726056E+02 0.  0.
        254    2    1    2    0    0  0.17306868722E+03 -0.59114722050E+03 -0.23344384964E+03  0.11214566672E+04  0.90761292336E+03 0.  0.
         23    2    4    4    0    0 -0.20937413379E+03  0.37046286365E+02  0.16162323557E+03  0.28146307211E+03  0.88822494064E+02 0.  0.
         23    2    4    4    0    0  0.38244282101E+03 -0.62819350686E+03 -0.39506708521E+03  0.83999359508E+03  0.92852811267E+02 0.  0.
          1    1    3    3  502    0 -0.12762219355E+03  0.45047983895E+03 -0.11614396755E+04  0.12522626040E+04  0.00000000000E+00 0. -1.
         -2    1    3    3    0  502 -0.45446493669E+02  0.14066738155E+03 -0.25222282865E+03  0.29235090442E+03  0.00000000000E+00 0.  1.
         11    1    5    5    0    0 -0.46120089941E+02 -0.24907266594E+02  0.59019124315E+02  0.78934730381E+02  0.00000000000E+00 0. -1.
        -11    1    5    5    0    0 -0.16325404385E+03  0.61953552959E+02  0.10260411126E+03  0.20252834173E+03  0.00000000000E+00 0.  1.
          3    1    6    6  503    0  0.29110234483E+02 -0.95231234567E+02 -0.76580142020E+02  0.12562209973E+03  0.00000000000E+00 0. -1.
         -3    1    6    6    0  503  0.35333258653E+03 -0.53296227230E+03 -0.31848694319E+03  0.71437149535E+03  0.00000000000E+00 0.  1.
<mgrwt>
<rscale>  0 0.20964186E+04</rscale>
<asrwt>0</asrwt>
<pdfrwt beam="1">  1        1 0.33178280E+00 0.20964186E+04</pdfrwt>
<pdfrwt beam="2">  1       -2 0.78381834E-01 0.20964186E+04</pdfrwt>
<totfact> 0.27275132E+00</totfact>
</mgrwt>
</event>
<event>
12    4  0.4486176E-008  0.1144310E+04  0.7818608E-02  0.9163048E-01
          1   -1    0    0  501    0  0.00000000000E+00  0.00000000000E+00  0.15932315398E+04  0.15932315398E+04  0.00000000000E+00 0. -1.
         -2   -1    0    0    0  501 -0.00000000000E+00 -0.00000000000E+00 -0.20547021029E+03  0.20547021029E+03  0.00000000000E+00 0.  1.
        -24    2    1    2    0    0 -0.13560204700E+03 -0.13710935877E+03  0.17175213719E+03  0.27059950487E+03  0.80860398213E+02 0.  0.
        254    2    1    2    0    0  0.13560204700E+03  0.13710935877E+03  0.12160091923E+04  0.15281022452E+04  0.90511392906E+03 0.  0.
         23    2    4    4    0    0 -0.15155146640E+02 -0.37049803086E+03  0.42210374548E+03  0.56932701223E+03  0.91995682325E+02 0.  0.
         23    2    4    4    0    0  0.15075719364E+03  0.50760738962E+03  0.79390544683E+03  0.95877523297E+03  0.92580210690E+02 0.  0.
          1    1    3    3  502    0  0.10196543558E+02 -0.38874194499E+01  0.14482765415E+02  0.18133726163E+02  0.00000000000E+00 0. -1.
         -2    1    3    3    0  502 -0.14579859055E+03 -0.13322193932E+03  0.15726937177E+03  0.25246577871E+03  0.00000000000E+00 0.  1.
         11    1    5    5    0    0  0.12349226226E+02 -0.10913339364E+03  0.71084010737E+02  0.13082636423E+03  0.00000000000E+00 0.  1.
        -11    1    5    5    0    0 -0.27504372865E+02 -0.26136463722E+03  0.35101973475E+03  0.43850064800E+03  0.00000000000E+00 0. -1.
          2    1    6    6  503    0  0.22577487206E+02  0.20505338017E+03  0.26058333108E+03  0.33235568911E+03  0.00000000000E+00 0. -1.
         -2    1    6    6    0  503  0.12817970643E+03  0.30255400946E+03  0.53332211576E+03  0.62641954386E+03  0.00000000000E+00 0.  1.
<mgrwt>
<rscale>  0 0.11443105E+04</rscale>
<asrwt>0</asrwt>
<pdfrwt beam="1">  1        1 0.24511254E+00 0.11443105E+04</pdfrwt>
<pdfrwt beam="2">  1       -2 0.31610803E-01 0.11443105E+04</pdfrwt>
<totfact> 0.45723073E+01</totfact>
</mgrwt>
</event>
<event>
12    4  0.4486176E-008  0.2040791E+04  0.7818608E-02  0.8587783E-01
         -2   -1    0    0    0  501 -0.00000000000E+00  0.00000000000E+00  0.13367286264E+04  0.13367286264E+04  0.00000000000E+00 0.  1.
          1   -1    0    0  501    0  0.00000000000E+00 -0.00000000000E+00 -0.77892195104E+03  0.77892195104E+03  0.00000000000E+00 0. -1.
        -24    2    1    2    0    0 -0.74209796666E+03  0.27905124668E+03  0.45807029441E+03  0.91920937919E+03  0.80860978064E+02 0.  0.
        254    2    1    2    0    0  0.74209796666E+03 -0.27905124668E+03  0.99736380934E+02  0.11964411982E+04  0.89047470753E+03 0.  0.
         23    2    4    4    0    0 -0.12782544909E+03 -0.65676070300E+02 -0.18707634694E+03  0.25152885281E+03  0.87272633521E+02 0.  0.
         23    2    4    4    0    0  0.86992341575E+03 -0.21337517638E+03  0.28681272788E+03  0.94491234543E+03  0.91115775267E+02 0.  0.
          1    1    3    3  502    0 -0.17976613267E+03  0.52912974740E+02  0.14558314621E+03  0.23729748800E+03  0.00000000000E+00 0. -1.
         -2    1    3    3    0  502 -0.56233183399E+03  0.22613827194E+03  0.31248714820E+03  0.68191189119E+03  0.00000000000E+00 0.  1.
         11    1    5    5    0    0 -0.11019677873E+03 -0.12692553969E+02 -0.10879741330E+03  0.15537473447E+03  0.00000000000E+00 0. -1.
        -11    1    5    5    0    0 -0.17628670361E+02 -0.52983516331E+02 -0.78278933641E+02  0.96154118339E+02  0.00000000000E+00 0.  1.
          2    1    6    6  503    0  0.28533479760E+03 -0.71015531851E+02  0.49733749225E+02  0.29821569089E+03  0.00000000000E+00 0. -1.
         -2    1    6    6    0  503  0.58458861816E+03 -0.14235964452E+03  0.23707897865E+03  0.64669665453E+03  0.00000000000E+00 0.  1.
<mgrwt>
<rscale>  0 0.20407913E+04</rscale>
<asrwt>0</asrwt>
<pdfrwt beam="1">  1        1 0.11983415E+00 0.20407913E+04</pdfrwt>
<pdfrwt beam="2">  1       -2 0.20565056E+00 0.20407913E+04</pdfrwt>
<totfact> 0.22820159E+00</totfact>
</mgrwt>
</event>
<event>
12    4  0.4486176E-008  0.3176227E+04  0.7818608E-02  0.8195124E-01
          1   -1    0    0  501    0  0.00000000000E+00  0.00000000000E+00  0.24855460633E+04  0.24855460633E+04  0.00000000000E+00 0. -1.
         -2   -1    0    0    0  501 -0.00000000000E+00 -0.00000000000E+00 -0.10147081021E+04  0.10147081021E+04  0.00000000000E+00 0.  1.
        -24    2    1    2    0    0 -0.31904199377E+03  0.12868503765E+03 -0.88552315509E+03  0.95327075120E+03  0.78906490060E+02 0.  0.
        254    2    1    2    0    0  0.31904199377E+03 -0.12868503765E+03  0.23563611163E+04  0.25469834142E+04  0.90351489702E+03 0.  0.
         23    2    4    4    0    0  0.18421317201E+03 -0.50414640091E+03  0.15590010139E+04  0.16513829992E+04  0.92106255467E+02 0.  0.
         23    2    4    4    0    0  0.13482882176E+03  0.37546136326E+03  0.79736010234E+03  0.89560041499E+03  0.84657687416E+02 0.  0.
          1    1    3    3  502    0 -0.73158384243E+02  0.53359156358E+02 -0.16473856578E+03  0.18798442438E+03  0.00000000000E+00 0. -1.
         -2    1    3    3    0  502 -0.24588360953E+03  0.75325881292E+02 -0.72078458931E+03  0.76528632682E+03  0.00000000000E+00 0.  1.
         11    1    5    5    0    0  0.12174930376E+03 -0.20036108262E+03  0.66958989052E+03  0.70944913692E+03  0.00000000000E+00 0. -1.
        -11    1    5    5    0    0  0.62463868254E+02 -0.30378531829E+03  0.88941112339E+03  0.94193386225E+03  0.00000000000E+00 0.  1.
          2    1    6    6  503    0 -0.80123594691E+01  0.48388596723E+02  0.12718548915E+03  0.13631508665E+03  0.00000000000E+00 0. -1.
         -2    1    6    6    0  503  0.14284118123E+03  0.32707276654E+03  0.67017461319E+03  0.75928532834E+03  0.00000000000E+00 0.  1.
<mgrwt>
<rscale>  0 0.31762265E+04</rscale>
<asrwt>0</asrwt>
<pdfrwt beam="1">  1        1 0.38239170E+00 0.31762265E+04</pdfrwt>
<pdfrwt beam="2">  1       -2 0.15610894E+00 0.31762265E+04</pdfrwt>
<totfact> 0.27532121E-01</totfact>
</mgrwt>
</event>
<event>
12    4  0.4486176E-008  0.1485011E+04  0.7818608E-02  0.8894482E-01
          1   -1    0    0  501    0  0.00000000000E+00  0.00000000000E+00  0.22279014838E+04  0.22279014838E+04  0.00000000000E+00 0. -1.
         -2   -1    0    0    0  501 -0.00000000000E+00 -0.00000000000E+00 -0.24745915503E+03  0.24745915503E+03  0.00000000000E+00 0.  1.
        -24    2    1    2    0    0 -0.12279804982E+03  0.91213891540E+02  0.13617612614E+04  0.13728617065E+04  0.83403819345E+02 0.  0.
        254    2    1    2    0    0  0.12279804982E+03 -0.91213891540E+02  0.61868106737E+03  0.11024989323E+04  0.89963231244E+03 0.  0.
         23    2    4    4    0    0  0.39798390924E+03  0.22832850509E+03  0.23069759690E+03  0.52197875906E+03  0.93356014513E+02 0.  0.
         23    2    4    4    0    0 -0.27518585942E+03 -0.31954239663E+03  0.38798347047E+03  0.58052017326E+03  0.92940291226E+02 0.  0.
          1    1    3    3  502    0 -0.75761911351E+02  0.10023288468E+03  0.92886825298E+03  0.93732744000E+03  0.00000000000E+00 0. -1.
         -2    1    3    3    0  502 -0.47036138472E+02 -0.90189931351E+01  0.43289300840E+03  0.43553426648E+03  0.00000000000E+00 0.  1.
         11    1    5    5    0    0  0.16054786381E+03  0.71171837050E+02  0.42552989654E+02  0.18069810152E+03  0.00000000000E+00 0. -1.
        -11    1    5    5    0    0  0.23743604543E+03  0.15715666804E+03  0.18814460724E+03  0.34128065754E+03  0.00000000000E+00 0.  1.
          4    1    6    6  503    0 -0.58816652160E+02 -0.47748329695E+02  0.11938293872E+03  0.14139161084E+03  0.00000000000E+00 0. -1.
         -4    1    6    6    0  503 -0.21636920726E+03 -0.27179406694E+03  0.26860053175E+03  0.43912856241E+03  0.00000000000E+00 0.  1.
<mgrwt>
<rscale>  0 0.14850113E+04</rscale>
<asrwt>0</asrwt>
<pdfrwt beam="1">  1        1 0.34275406E+00 0.14850113E+04</pdfrwt>
<pdfrwt beam="2">  1       -2 0.38070641E-01 0.14850113E+04</pdfrwt>
<totfact> 0.11565053E+01</totfact>
</mgrwt>
</event>
<event>
12    4  0.4486176E-008  0.2519520E+04  0.7818608E-02  0.8396064E-01
         -2   -1    0    0    0  501 -0.00000000000E+00  0.00000000000E+00  0.11485036777E+04  0.11485036777E+04  0.00000000000E+00 0.  1.
          1   -1    0    0  501    0  0.00000000000E+00 -0.00000000000E+00 -0.13817936496E+04  0.13817936496E+04  0.00000000000E+00 0. -1.
        -24    2    1    2    0    0  0.19910620538E+03 -0.85884621181E+03  0.52820598606E+03  0.10309989064E+04  0.81835717739E+02 0.  0.
        254    2    1    2    0    0 -0.19910620538E+03  0.85884621181E+03 -0.76149595794E+03  0.14992984209E+04  0.94380059562E+03 0.  0.
         23    2    4    4    0    0 -0.27339720736E+03  0.10284251770E+04 -0.54126737954E+03  0.11974159635E+04  0.91816316510E+02 0.  0.
         23    2    4    4    0    0  0.74291001980E+02 -0.16957896515E+03 -0.22022857840E+03  0.30188245733E+03  0.91412323594E+02 0.  0.
          1    1    3    3  502    0  0.21341156076E+02 -0.24903295452E+03  0.16074860456E+03  0.29717498422E+03  0.00000000000E+00 0. -1.
         -2    1    3    3    0  502  0.17776504930E+03 -0.60981325728E+03  0.36745738151E+03  0.73382392216E+03  0.00000000000E+00 0.  1.
         11    1    5    5    0    0 -0.18511779050E+03  0.56179036503E+03 -0.26673644571E+03  0.64886465620E+03  0.00000000000E+00 0. -1.
        -11    1    5    5    0    0 -0.88279416862E+02  0.46663481193E+03 -0.27453093383E+03  0.54855130733E+03  0.00000000000E+00 0.  1.
          4    1    6    6  503    0  0.10445337858E+02  0.10848465415E+02 -0.14843879637E+02  0.21145568035E+02  0.00000000000E+00 0. -1.
         -4    1    6    6    0  503  0.63845664122E+02 -0.18042743056E+03 -0.20538469877E+03  0.28073688930E+03  0.00000000000E+00 0.  1.
<mgrwt>
<rscale>  0 0.25195199E+04</rscale>
<asrwt>0</asrwt>
<pdfrwt beam="1">  1        1 0.21258364E+00 0.25195199E+04</pdfrwt>
<pdfrwt beam="2">  1       -2 0.17669287E+00 0.25195199E+04</pdfrwt>
<totfact> 0.11778968E+00</totfact>
</mgrwt>
</event>
<event>
12    4  0.4486176E-008  0.1455914E+04  0.7818608E-02  0.8914311E-01
         -2   -1    0    0    0  501 -0.00000000000E+00  0.00000000000E+00  0.38086517045E+03  0.38086517045E+03  0.00000000000E+00 0.  1.
          1   -1    0    0  501    0  0.00000000000E+00 -0.00000000000E+00 -0.13913617294E+04  0.13913617294E+04  0.00000000000E+00 0. -1.
        -24    2    1    2    0    0 -0.39057211351E+03 -0.21583193015E+03 -0.26798363284E+03  0.52677532628E+03  0.80913651360E+02 0.  0.
        254    2    1    2    0    0  0.39057211351E+03  0.21583193015E+03 -0.74251292609E+03  0.12454515736E+04  0.89481516457E+03 0.  0.
         23    2    4    4    0    0 -0.32422944157E+02  0.27766405857E+03  0.87413784811E+02  0.30731362398E+03  0.93015681358E+02 0.  0.
         23    2    4    4    0    0  0.42299505767E+03 -0.61832128426E+02 -0.82992671090E+03  0.93813794958E+03  0.92609049506E+02 0.  0.
          1    1    3    3  502    0 -0.74520023009E+02 -0.12243384573E+02 -0.26897373208E+02  0.80166096204E+02  0.00000000000E+00 0. -1.
         -2    1    3    3    0  502 -0.31605209051E+03 -0.20358854557E+03 -0.24108625964E+03  0.44660923007E+03  0.00000000000E+00 0.  1.
         11    1    5    5    0    0 -0.59093250050E+02  0.15906126260E+03  0.73630840972E+02  0.18497026302E+03  0.00000000000E+00 0.  1.
        -11    1    5    5    0    0  0.26670305893E+02  0.11860279598E+03  0.13782943839E+02  0.12234336096E+03  0.00000000000E+00 0. -1.
          1    1    6    6  503    0  0.25762143733E+02  0.66109431146E+01 -0.19423794914E+02  0.32934426174E+02  0.00000000000E+00 0. -1.
         -1    1    6    6    0  503  0.39723291394E+03 -0.68443071540E+02 -0.81050291599E+03  0.90520352341E+03  0.00000000000E+00 0.  1.
<mgrwt>
<rscale>  0 0.14559138E+04</rscale>
<asrwt>0</asrwt>
<pdfrwt beam="1">  1        1 0.21405565E+00 0.14559138E+04</pdfrwt>
<pdfrwt beam="2">  1       -2 0.58594642E-01 0.14559138E+04</pdfrwt>
<totfact> 0.18067484E+01</totfact>
</mgrwt>
</event>
<event>
12    4  0.4486176E-008  0.1251323E+04  0.7818608E-02  0.9069083E-01
         -2   -1    0    0    0  501 -0.00000000000E+00  0.00000000000E+00  0.26832127838E+03  0.26832127838E+03  0.00000000000E+00 0.  1.
          1   -1    0    0  501    0  0.00000000000E+00 -0.00000000000E+00 -0.14588945235E+04  0.14588945235E+04  0.00000000000E+00 0. -1.
        -24    2    1    2    0    0 -0.21194926637E+02 -0.27263175810E+03 -0.41786098663E+03  0.50570180569E+03  0.79681940785E+02 0.  0.
        254    2    1    2    0    0  0.21194926637E+02  0.27263175810E+03 -0.77271225845E+03  0.12215139962E+04  0.90566821078E+03 0.  0.
         23    2    4    4    0    0  0.30438038991E+03  0.11491420152E+03  0.41831450518E+02  0.34043975666E+03  0.91086015327E+02 0.  0.
         23    2    4    4    0    0 -0.28318546327E+03  0.15771755658E+03 -0.81454370897E+03  0.88107423950E+03  0.87985950181E+02 0.  0.
          1    1    3    3  502    0 -0.46496407336E+02 -0.21378618388E+03 -0.34668005186E+03  0.40994329690E+03  0.00000000000E+00 0. -1.
         -2    1    3    3    0  502  0.25301480699E+02 -0.58845574219E+02 -0.71180934770E+02  0.95758508789E+02  0.00000000000E+00 0.  1.
         11    1    5    5    0    0  0.17500076239E+03  0.66963933014E+02 -0.21529342821E+02  0.18860792074E+03  0.00000000000E+00 0. -1.
        -11    1    5    5    0    0  0.12937962752E+03  0.47950268502E+02  0.63360793339E+02  0.15183183592E+03  0.00000000000E+00 0.  1.
          4    1    6    6  503    0 -0.20659730456E+03  0.14487301074E+03 -0.68549068517E+03  0.73045746964E+03  0.00000000000E+00 0.  1.
         -4    1    6    6    0  503 -0.76588158715E+02  0.12844545845E+02 -0.12905302380E+03  0.15061676986E+03  0.00000000000E+00 0. -1.
<mgrwt>
<rscale>  0 0.12513232E+04</rscale>
<asrwt>0</asrwt>
<pdfrwt beam="1">  1        1 0.22444532E+00 0.12513232E+04</pdfrwt>
<pdfrwt beam="2">  1       -2 0.41280195E-01 0.12513232E+04</pdfrwt>
<totfact> 0.33599630E+01</totfact>
</mgrwt>
</event>
<event>
12    4  0.4486176E-008  0.1460486E+04  0.7818608E-02  0.8911163E-01
          1   -1    0    0  501    0  0.00000000000E+00  0.00000000000E+00  0.13271207569E+04  0.13271207569E+04  0.00000000000E+00 0. -1.
         -2   -1    0    0    0  501 -0.00000000000E+00 -0.00000000000E+00 -0.40181313262E+03  0.40181313262E+03  0.00000000000E+00 0.  1.
        -24    2    1    2    0    0 -0.10676232076E+03 -0.49880603270E+02  0.79370282709E+03  0.80638254062E+03  0.80014725918E+02 0.  0.
        254    2    1    2    0    0  0.10676232076E+03  0.49880603270E+02  0.13160479721E+03  0.92255134892E+03  0.90548048075E+03 0.  0.
         23    2    4    4    0    0 -0.34341907571E+03 -0.18087461481E+03  0.48634646167E+02  0.40163739169E+03  0.91076768441E+02 0.  0.
         23    2    4    4    0    0  0.45018139647E+03  0.23075521808E+03  0.82970151043E+02  0.52091395722E+03  0.92498888999E+02 0.  0.
          3    1    3    3  502    0 -0.44895303224E+02  0.16621165734E+02  0.36776654234E+03  0.37086935849E+03  0.00000000000E+00 0. -1.
         -4    1    3    3    0  502 -0.61867017534E+02 -0.66501769004E+02  0.42593628476E+03  0.43551318213E+03  0.00000000000E+00 0.  1.
         11    1    5    5    0    0 -0.41033804125E+02 -0.22731351176E+01 -0.16807392735E+02  0.44400773358E+02  0.00000000000E+00 0.  1.
        -11    1    5    5    0    0 -0.30238527159E+03 -0.17860147969E+03  0.65442038902E+02  0.35723661833E+03  0.00000000000E+00 0. -1.
          4    1    6    6  503    0  0.32580362867E+03  0.11853374031E+03  0.59204460683E+02  0.35171497013E+03  0.00000000000E+00 0. -1.
         -4    1    6    6    0  503  0.12437776780E+03  0.11222147777E+03  0.23765690360E+02  0.16919898709E+03  0.00000000000E+00 0.  1.
<mgrwt>
<rscale>  0 0.14604856E+04</rscale>
<asrwt>0</asrwt>
<pdfrwt beam="1">  1        1 0.20417242E+00 0.14604856E+04</pdfrwt>
<pdfrwt beam="2">  1       -2 0.61817406E-01 0.14604856E+04</pdfrwt>
<totfact> 0.17902648E+01</totfact>
</mgrwt>
</event>
<event>
12    4  0.4486176E-008  0.2586874E+04  0.7818608E-02  0.8372673E-01
         -2   -1    0    0    0  501 -0.00000000000E+00  0.00000000000E+00  0.67044773867E+03  0.67044773867E+03  0.00000000000E+00 0.  1.
          1   -1    0    0  501    0  0.00000000000E+00 -0.00000000000E+00 -0.24953173310E+04  0.24953173310E+04  0.00000000000E+00 0. -1.
        -24    2    1    2    0    0 -0.27932432736E+03  0.27516447555E+03  0.50019307026E+03  0.64051576330E+03  0.79559833041E+02 0.  0.
        254    2    1    2    0    0  0.27932432736E+03 -0.27516447555E+03 -0.23250626626E+04  0.25252493063E+04  0.90400780188E+03 0.  0.
         23    2    4    4    0    0  0.37187554361E+03 -0.22939059720E+03 -0.41275723464E+03  0.60796481907E+03  0.91330282244E+02 0.  0.
         23    2    4    4    0    0 -0.92551216248E+02 -0.45773878348E+02 -0.19123054279E+04  0.19172844873E+04  0.91688493844E+02 0.  0.
          3    1    3    3  502    0 -0.53516063408E+02  0.52877876420E+02  0.51310342548E+02  0.91064757782E+02  0.00000000000E+00 0. -1.
         -4    1    3    3    0  502 -0.22580826396E+03  0.22228659913E+03  0.44888272771E+03  0.54945100552E+03  0.00000000000E+00 0.  1.
         11    1    5    5    0    0  0.35432504613E+03 -0.22767072198E+03 -0.36593720479E+03  0.55793389735E+03  0.00000000000E+00 0.  1.
        -11    1    5    5    0    0  0.17550497486E+02 -0.17198752141E+01 -0.46820029850E+02  0.50030921717E+02  0.00000000000E+00 0. -1.
          2    1    6    6  503    0 -0.29584662541E+02 -0.46749346497E+02 -0.14044963254E+04  0.14055855299E+04  0.00000000000E+00 0. -1.
         -2    1    6    6    0  503 -0.62966553707E+02  0.97546814894E+00 -0.50780910249E+03  0.51169895739E+03  0.00000000000E+00 0.  1.
<mgrwt>
<rscale>  0 0.25868745E+04</rscale>
<asrwt>0</asrwt>
<pdfrwt beam="1">  1        1 0.38389499E+00 0.25868745E+04</pdfrwt>
<pdfrwt beam="2">  1       -2 0.10314580E+00 0.25868745E+04</pdfrwt>
<totfact> 0.81159823E-01</totfact>
</mgrwt>
</event>
<event>
12    4  0.4486176E-008  0.1324016E+04  0.7818608E-02  0.9010734E-01
          1   -1    0    0  501    0  0.00000000000E+00  0.00000000000E+00  0.13307141917E+04  0.13307141917E+04  0.00000000000E+00 0. -1.
         -2   -1    0    0    0  501 -0.00000000000E+00 -0.00000000000E+00 -0.32933787543E+03  0.32933787543E+03  0.00000000000E+00 0.  1.
        -24    2    1    2    0    0 -0.20505494423E+03 -0.26820590616E+03  0.39946209507E+03  0.52934561749E+03  0.81577442399E+02 0.  0.
        254    2    1    2    0    0  0.20505494423E+03  0.26820590616E+03  0.60191422126E+03  0.11307064497E+04  0.89566422691E+03 0.  0.
         23    2    4    4    0    0  0.52629363877E+03  0.82057857857E+01  0.32416162609E+03  0.62465331440E+03  0.89770118841E+02 0.  0.
         23    2    4    4    0    0 -0.32123869453E+03  0.26000012037E+03  0.27775259517E+03  0.50605313529E+03  0.90271314110E+02 0.  0.
          1    1    3    3  502    0 -0.19956936827E+01 -0.35162449628E+02  0.64983375719E+02  0.73913596698E+02  0.00000000000E+00 0. -1.
         -2    1    3    3    0  502 -0.20305925055E+03 -0.23304345653E+03  0.33447871935E+03  0.45543202079E+03  0.00000000000E+00 0.  1.
         11    1    5    5    0    0  0.17538918630E+02  0.13691820794E+02  0.28650082934E+02  0.36275430742E+02  0.00000000000E+00 0.  1.
        -11    1    5    5    0    0  0.50875472014E+03 -0.54860350083E+01  0.29551154315E+03  0.58837788366E+03  0.00000000000E+00 0. -1.
          1    1    6    6  503    0 -0.30393181466E+03  0.22605192545E+03  0.27454534554E+03  0.46781317609E+03  0.00000000000E+00 0. -1.
         -1    1    6    6    0  503 -0.17306879871E+02  0.33948194918E+02  0.32072496264E+01  0.38239959195E+02  0.00000000000E+00 0.  1.
<mgrwt>
<rscale>  0 0.13240160E+04</rscale>
<asrwt>0</asrwt>
<pdfrwt beam="1">  1        1 0.20472526E+00 0.13240160E+04</pdfrwt>
<pdfrwt beam="2">  1       -2 0.50667366E-01 0.13240160E+04</pdfrwt>
<totfact> 0.27249694E+01</totfact>
</mgrwt>
</event>
<event>
12    4  0.4486176E-008  0.1976149E+04  0.7818608E-02  0.8617853E-01
          1   -1    0    0  501    0  0.00000000000E+00  0.00000000000E+00  0.97786349532E+03  0.97786349532E+03  0.00000000000E+00 0. -1.
         -2   -1    0    0    0  501 -0.00000000000E+00 -0.00000000000E+00 -0.99839252491E+03  0.99839252491E+03  0.00000000000E+00 0.  1.
        -24    2    1    2    0    0  0.73806878935E+02 -0.42876394623E+03  0.63952316426E+03  0.77757464191E+03  0.79664729683E+02 0.  0.
        254    2    1    2    0    0 -0.73806878935E+02  0.42876394623E+03 -0.66005219386E+03  0.11986813783E+04  0.90104504391E+03 0.  0.
         23    2    4    4    0    0 -0.21509670934E+03  0.35240011853E+03 -0.83901604371E+03  0.94027145526E+03  0.98539586341E+02 0.  0.
         23    2    4    4    0    0  0.14128983041E+03  0.76363827696E+02  0.17896384985E+03  0.25840992306E+03  0.94622293491E+02 0.  0.
          1    1    3    3  502    0  0.17599717563E+02 -0.30740627829E+03  0.46488526222E+03  0.55760799584E+03  0.00000000000E+00 0. -1.
         -2    1    3    3    0  502  0.56207161372E+02 -0.12135766794E+03  0.17463790204E+03  0.21996664607E+03  0.00000000000E+00 0.  1.
         11    1    5    5    0    0 -0.10445556150E+03  0.15719661065E+03 -0.49278549648E+03  0.52769241445E+03  0.00000000000E+00 0. -1.
        -11    1    5    5    0    0 -0.11064114784E+03  0.19520350788E+03 -0.34623054723E+03  0.41257904081E+03  0.00000000000E+00 0.  1.
          1    1    6    6  503    0  0.91983936331E+02  0.82168579673E+02  0.78093441736E+02  0.14598392264E+03  0.00000000000E+00 0. -1.
         -1    1    6    6    0  503  0.49305894075E+02 -0.58047519769E+01  0.10087040812E+03  0.11242600042E+03  0.00000000000E+00 0.  1.
<mgrwt>
<rscale>  0 0.19761494E+04</rscale>
<asrwt>0</asrwt>
<pdfrwt beam="1">  1        1 0.15044054E+00 0.19761494E+04</pdfrwt>
<pdfrwt beam="2">  1       -2 0.15359885E+00 0.19761494E+04</pdfrwt>
<totfact> 0.36093941E+00</totfact>
</mgrwt>
</event>
<event>
12    4  0.4486176E-008  0.2093346E+04  0.7818608E-02  0.8564180E-01
         -2   -1    0    0    0  501 -0.00000000000E+00  0.00000000000E+00  0.11032969540E+04  0.11032969540E+04  0.00000000000E+00 0.  1.
          1   -1    0    0  501    0  0.00000000000E+00 -0.00000000000E+00 -0.99295552715E+03  0.99295552715E+03  0.00000000000E+00 0. -1.
        -24    2    1    2    0    0 -0.72792451041E+03 -0.23068278902E+03 -0.30444995803E+03  0.82585825315E+03  0.79141868446E+02 0.  0.
        254    2    1    2    0    0  0.72792451041E+03  0.23068278902E+03  0.41479138490E+03  0.12703942280E+04  0.92669356294E+03 0.  0.
         23    2    4    4    0    0  0.77561196056E+03 -0.66848759778E+02  0.51741200357E+03  0.93896147455E+03  0.88830170588E+02 0.  0.
         23    2    4    4    0    0 -0.47687450153E+02  0.29753154880E+03 -0.10262061867E+03  0.33143275346E+03  0.92290645587E+02 0.  0.
          3    1    3    3  502    0 -0.34473919083E+03 -0.12022397083E+03 -0.18659018504E+03  0.41001806059E+03  0.00000000000E+00 0. -1.
         -4    1    3    3    0  502 -0.38318531958E+03 -0.11045881818E+03 -0.11785977300E+03  0.41584019256E+03  0.00000000000E+00 0.  1.
         11    1    5    5    0    0  0.36774198852E+03  0.82183799361E+01  0.21975484795E+03  0.42847859350E+03  0.00000000000E+00 0. -1.
        -11    1    5    5    0    0  0.40786997205E+03 -0.75067139714E+02  0.29765715562E+03  0.51048288106E+03  0.00000000000E+00 0.  1.
          2    1    6    6  503    0 -0.63692162892E+02  0.12537365578E+03 -0.29385426652E+02  0.14366192425E+03  0.00000000000E+00 0. -1.
         -2    1    6    6    0  503  0.16004712739E+02  0.17215789301E+03 -0.73235192016E+02  0.18777082922E+03  0.00000000000E+00 0.  1.
<mgrwt>
<rscale>  0 0.20933464E+04</rscale>
<asrwt>0</asrwt>
<pdfrwt beam="1">  1        1 0.15276239E+00 0.20933464E+04</pdfrwt>
<pdfrwt beam="2">  1       -2 0.16973799E+00 0.20933464E+04</pdfrwt>
<totfact> 0.26459350E+00</totfact>
</mgrwt>
</event>
<event>
12    4  0.4486176E-008  0.1551409E+04  0.7818608E-02  0.8850968E-01
         -2   -1    0    0    0  501 -0.00000000000E+00  0.00000000000E+00  0.15021180912E+04  0.15021180912E+04  0.00000000000E+00 0.  1.
          1   -1    0    0  501    0  0.00000000000E+00 -0.00000000000E+00 -0.40057917456E+03  0.40057917456E+03  0.00000000000E+00 0. -1.
        -24    2    1    2    0    0 -0.10081554612E+03  0.43025040401E+03  0.56869626151E+02  0.45265463394E+03  0.79892920592E+02 0.  0.
        254    2    1    2    0    0  0.10081554612E+03 -0.43025040401E+03  0.10446692905E+04  0.14500426318E+04  0.90333300789E+03 0.  0.
         23    2    4    4    0    0  0.18835241238E+03  0.23961033531E+03  0.40009288494E+03  0.51100207455E+03  0.90327512816E+02 0.  0.
         23    2    4    4    0    0 -0.87536866262E+02 -0.66986073932E+03  0.64457640555E+03  0.93904055729E+03  0.99711145832E+02 0.  0.
          1    1    3    3  502    0 -0.54269905165E+02  0.31294927614E+03  0.71627104291E+02  0.32559624401E+03  0.00000000000E+00 0. -1.
         -2    1    3    3    0  502 -0.46545640956E+02  0.11730112786E+03 -0.14757478140E+02  0.12705838993E+03  0.00000000000E+00 0.  1.
         11    1    5    5    0    0  0.95373936733E+02  0.13705959058E+03  0.14671106504E+03  0.22227383063E+03  0.00000000000E+00 0. -1.
        -11    1    5    5    0    0  0.92978475649E+02  0.10255074473E+03  0.25338181990E+03  0.28872824392E+03  0.00000000000E+00 0.  1.
          3    1    6    6  503    0 -0.54753300124E+01 -0.10931097389E+03  0.59275367238E+02  0.12446862019E+03  0.00000000000E+00 0.  1.
         -3    1    6    6    0  503 -0.82061536249E+02 -0.56054976543E+03  0.58530103831E+03  0.81457193710E+03  0.00000000000E+00 0. -1.
<mgrwt>
<rscale>  0 0.15514087E+04</rscale>
<asrwt>0</asrwt>
<pdfrwt beam="1">  1        1 0.61627566E-01 0.15514087E+04</pdfrwt>
<pdfrwt beam="2">  1       -2 0.23109509E+00 0.15514087E+04</pdfrwt>
<totfact> 0.42425827E+00</totfact>
</mgrwt>
</event>
<event>
12    4  0.4486176E-008  0.1088965E+04  0.7818608E-02  0.9216015E-01
         -2   -1    0    0    0  501 -0.00000000000E+00  0.00000000000E+00  0.45687596403E+03  0.45687596403E+03  0.00000000000E+00 0.  1.
          1   -1    0    0  501    0  0.00000000000E+00 -0.00000000000E+00 -0.64888714567E+03  0.64888714567E+03  0.00000000000E+00 0. -1.
        -24    2    1    2    0    0 -0.51995654854E+02  0.10576611504E+03 -0.19817402972E+02  0.14464597345E+03  0.81484409302E+02 0.  0.
        254    2    1    2    0    0  0.51995654854E+02 -0.10576611504E+03 -0.17219377867E+03  0.96111713624E+03  0.93819264171E+03 0.  0.
         23    2    4    4    0    0  0.30435457558E+02  0.31582309893E+03  0.20389986771E+03  0.38844605681E+03  0.92976535216E+02 0.  0.
         23    2    4    4    0    0  0.21560197295E+02 -0.42158921398E+03 -0.37609364638E+03  0.57267107943E+03  0.91123141534E+02 0.  0.
          3    1    3    3  502    0 -0.72091092887E+02  0.93605098218E+02 -0.81765663872E+01  0.11843097705E+03  0.00000000000E+00 0. -1.
         -4    1    3    3    0  502  0.20095438034E+02  0.12161016824E+02 -0.11640836585E+02  0.26214996402E+02  0.00000000000E+00 0.  1.
         11    1    5    5    0    0  0.16630095341E+02  0.31545866657E+03  0.18894925191E+03  0.36809312705E+03  0.00000000000E+00 0.  1.
        -11    1    5    5    0    0  0.13805362218E+02  0.36443236563E+00  0.14950615804E+02  0.20352929761E+02  0.00000000000E+00 0. -1.
          4    1    6    6  503    0  0.52391423768E+02 -0.20762591305E+03 -0.16287891219E+03  0.26904074244E+03  0.00000000000E+00 0.  1.
         -4    1    6    6    0  503 -0.30831226473E+02 -0.21396330093E+03 -0.21321473419E+03  0.30363033700E+03  0.00000000000E+00 0. -1.
<mgrwt>
<rscale>  0 0.10889645E+04</rscale>
<asrwt>0</asrwt>
<pdfrwt beam="1">  1        1 0.99828792E-01 0.10889645E+04</pdfrwt>
<pdfrwt beam="2">  1       -2 0.70288610E-01 0.10889645E+04</pdfrwt>
<totfact> 0.49132197E+01</totfact>
</mgrwt>
</event>
<event>
12    4  0.4486176E-008  0.3471988E+04  0.7818608E-02  0.8120461E-01
         -2   -1    0    0    0  501 -0.00000000000E+00  0.00000000000E+00  0.84079807566E+03  0.84079807566E+03  0.00000000000E+00 0.  1.
          1   -1    0    0  501    0  0.00000000000E+00 -0.00000000000E+00 -0.35843032819E+04  0.35843032819E+04  0.00000000000E+00 0. -1.
        -24    2    1    2    0    0 -0.12729833521E+04  0.38330824430E+03 -0.96674941427E+02  0.13353346500E+04  0.79754361776E+02 0.  0.
        254    2    1    2    0    0  0.12729833521E+04 -0.38330824430E+03 -0.26468302648E+04  0.30897667076E+04  0.87950897193E+03 0.  0.
         23    2    4    4    0    0  0.11270123685E+04 -0.60841291630E+03 -0.23605446268E+04  0.26871837865E+04  0.91992455300E+02 0.  0.
         23    2    4    4    0    0  0.14597098357E+03  0.22510467201E+03 -0.28628563806E+03  0.40258292111E+03  0.90188138958E+02 0.  0.
          3    1    3    3  502    0 -0.22229063861E+03  0.96936464958E+02 -0.66180455177E+01  0.24259761907E+03  0.00000000000E+00 0. -1.
         -4    1    3    3    0  502 -0.10506927135E+04  0.28637177934E+03 -0.90056895909E+02  0.10927370309E+04  0.00000000000E+00 0.  1.
         11    1    5    5    0    0  0.49449032468E+03 -0.26893412662E+03 -0.11336735591E+04  0.12657258725E+04  0.00000000000E+00 0. -1.
        -11    1    5    5    0    0  0.63252204386E+03 -0.33947878968E+03 -0.12268710677E+04  0.14214579140E+04  0.00000000000E+00 0.  1.
          3    1    6    6  503    0  0.12420668325E+03  0.11217700865E+03 -0.15592888816E+03  0.22874614663E+03  0.00000000000E+00 0. -1.
         -3    1    6    6    0  503  0.21764300318E+02  0.11292766335E+03 -0.13035674989E+03  0.17383677448E+03  0.00000000000E+00 0.  1.
<mgrwt>
<rscale>  0 0.34719881E+04</rscale>
<asrwt>0</asrwt>
<pdfrwt beam="1">  1        1 0.55143127E+00 0.34719881E+04</pdfrwt>
<pdfrwt beam="2">  1       -2 0.12935355E+00 0.34719881E+04</pdfrwt>
<totfact> 0.67738799E-02</totfact>
</mgrwt>
</event>
<event>
12    4  0.4486176E-008  0.1543702E+04  0.7818608E-02  0.8855900E-01
          1   -1    0    0  501    0  0.00000000000E+00  0.00000000000E+00  0.22792919651E+03  0.22792919651E+03  0.00000000000E+00 0. -1.
         -2   -1    0    0    0  501 -0.00000000000E+00 -0.00000000000E+00 -0.26137689449E+04  0.26137689449E+04  0.00000000000E+00 0.  1.
        -24    2    1    2    0    0 -0.36066280191E+03  0.32530600508E+03 -0.10732773486E+04  0.11806718027E+04  0.78485572811E+02 0.  0.
        254    2    1    2    0    0  0.36066280191E+03 -0.32530600508E+03 -0.13125623997E+04  0.16610263386E+04  0.89458749756E+03 0.  0.
         23    2    4    4    0    0  0.46179267575E+03 -0.48636573516E+03 -0.55737234208E+03  0.87663744604E+03  0.89583371065E+02 0.  0.
         23    2    4    4    0    0 -0.10112987385E+03  0.16105973008E+03 -0.75519005767E+03  0.78438889259E+03  0.93735924740E+02 0.  0.
          3    1    3    3  502    0 -0.10569546031E+03  0.98678760178E+02 -0.41113675993E+03  0.43582389035E+03  0.00000000000E+00 0. -1.
         -4    1    3    3    0  502 -0.25496734159E+03  0.22662724490E+03 -0.66214058868E+03  0.74484791238E+03  0.00000000000E+00 0.  1.
         11    1    5    5    0    0  0.43662191289E+03 -0.42221079383E+03 -0.50879813408E+03  0.79232328660E+03  0.00000000000E+00 0.  1.
        -11    1    5    5    0    0  0.25170762863E+02 -0.64154941325E+02 -0.48574207998E+02  0.84314159440E+02  0.00000000000E+00 0. -1.
          4    1    6    6  503    0  0.10583714102E+02  0.38255189301E+02 -0.83016271133E+02  0.92017258085E+02  0.00000000000E+00 0. -1.
         -4    1    6    6    0  503 -0.11171358795E+03  0.12280454078E+03 -0.67217378653E+03  0.69237163451E+03  0.00000000000E+00 0.  1.
<mgrwt>
<rscale>  0 0.15437024E+04</rscale>
<asrwt>0</asrwt>
<pdfrwt beam="1">  1        1 0.35066031E-01 0.15437024E+04</pdfrwt>
<pdfrwt beam="2">  1       -2 0.40211829E+00 0.15437024E+04</pdfrwt>
<totfact> 0.76525952E-01</totfact>
</mgrwt>
</event>
<event>
12    4  0.4486176E-008  0.2754898E+04  0.7818608E-02  0.8317409E-01
         -2   -1    0    0    0  501 -0.00000000000E+00  0.00000000000E+00  0.81703655301E+03  0.81703655301E+03  0.00000000000E+00 0.  1.
          1   -1    0    0  501    0  0.00000000000E+00 -0.00000000000E+00 -0.23222540124E+04  0.23222540124E+04  0.00000000000E+00 0. -1.
        -24    2    1    2    0    0  0.10774142020E+02  0.48922013570E+03  0.60458850052E+03  0.78189581148E+03  0.79883551110E+02 0.  0.
        254    2    1    2    0    0 -0.10774142020E+02 -0.48922013570E+03 -0.21098059599E+04  0.23573947539E+04  0.93090086156E+03 0.  0.
         23    2    4    4    0    0 -0.30739474986E+03 -0.46541722686E+03 -0.63393507921E+03  0.84910049021E+03  0.89404868525E+02 0.  0.
         23    2    4    4    0    0  0.29662060784E+03 -0.23802908845E+02 -0.14758708807E+04  0.15082942637E+04  0.90588994921E+02 0.  0.
          3    1    3    3  502    0  0.23724481311E+01  0.10551402887E+03  0.18699300880E+03  0.21472127081E+03  0.00000000000E+00 0. -1.
         -4    1    3    3    0  502  0.84016938885E+01  0.38370610683E+03  0.41759549172E+03  0.56717454067E+03  0.00000000000E+00 0.  1.
         11    1    5    5    0    0 -0.22020441628E+03 -0.39729927238E+03 -0.50990531972E+03  0.68289101023E+03  0.00000000000E+00 0.  1.
        -11    1    5    5    0    0 -0.87190333588E+02 -0.68117954481E+02 -0.12402975949E+03  0.16620947997E+03  0.00000000000E+00 0. -1.
          3    1    6    6  503    0  0.39444827675E+02 -0.18707811599E+02 -0.10875804401E+03  0.11719295534E+03  0.00000000000E+00 0. -1.
         -3    1    6    6    0  503  0.25717578017E+03 -0.50950972458E+01 -0.13671128367E+04  0.13911013084E+04  0.00000000000E+00 0.  1.
<mgrwt>
<rscale>  0 0.27548985E+04</rscale>
<asrwt>0</asrwt>
<pdfrwt beam="1">  1        1 0.35726984E+00 0.27548985E+04</pdfrwt>
<pdfrwt beam="2">  1       -2 0.12569793E+00 0.27548985E+04</pdfrwt>
<totfact> 0.64912868E-01</totfact>
</mgrwt>
</event>
<event>
12    4  0.4486176E-008  0.2628053E+04  0.7818608E-02  0.8358734E-01
         -2   -1    0    0    0  501 -0.00000000000E+00  0.00000000000E+00  0.97879536743E+03  0.97879536743E+03  0.00000000000E+00 0.  1.
          1   -1    0    0  501    0  0.00000000000E+00 -0.00000000000E+00 -0.17640719766E+04  0.17640719766E+04  0.00000000000E+00 0. -1.
        -24    2    1    2    0    0  0.14863591672E+03 -0.55048581481E+03 -0.14107762436E+04  0.15237460461E+04  0.79907041043E+02 0.  0.
        254    2    1    2    0    0 -0.14863591672E+03  0.55048581481E+03  0.62549963452E+03  0.12191212979E+04  0.87742787637E+03 0.  0.
         23    2    4    4    0    0 -0.26015100117E+02  0.17531616859E+03  0.76575034996E+03  0.79052181340E+03  0.84490204088E+02 0.  0.
         23    2    4    4    0    0 -0.12262081661E+03  0.37516964621E+03 -0.14025071544E+03  0.42859948453E+03  0.90769636178E+02 0.  0.
          1    1    3    3  502    0  0.10440335405E+03 -0.33828007664E+03 -0.96919389812E+03  0.10318286111E+04  0.00000000000E+00 0. -1.
         -2    1    3    3    0  502  0.44232562673E+02 -0.21220573817E+03 -0.44158234553E+03  0.49191743494E+03  0.00000000000E+00 0.  1.
         11    1    5    5    0    0 -0.43970763810E+02  0.62607978336E+02  0.21877551367E+03  0.23176693552E+03  0.00000000000E+00 0. -1.
        -11    1    5    5    0    0  0.17955663692E+02  0.11270819026E+03  0.54697483629E+03  0.55875487787E+03  0.00000000000E+00 0.  1.
          4    1    6    6  503    0 -0.24667790812E+02  0.10962590026E+03  0.79168099728E+00  0.11236976759E+03  0.00000000000E+00 0. -1.
         -4    1    6    6    0  503 -0.97953025795E+02  0.26554374596E+03 -0.14104239644E+03  0.31622971693E+03  0.00000000000E+00 0.  1.
<mgrwt>
<rscale>  0 0.26280529E+04</rscale>
<asrwt>0</asrwt>
<pdfrwt beam="1">  1        1 0.27139568E+00 0.26280529E+04</pdfrwt>
<pdfrwt beam="2">  1       -2 0.15058391E+00 0.26280529E+04</pdfrwt>
<totfact> 0.98662044E-01</totfact>
</mgrwt>
</event>
<event>
12    4  0.4486176E-008  0.1132834E+04  0.7818608E-02  0.9173767E-01
         -2   -1    0    0    0  501 -0.00000000000E+00  0.00000000000E+00  0.48866203227E+03  0.48866203227E+03  0.00000000000E+00 0.  1.
          1   -1    0    0  501    0  0.00000000000E+00 -0.00000000000E+00 -0.65654471913E+03  0.65654471913E+03  0.00000000000E+00 0. -1.
        -24    2    1    2    0    0  0.13711121896E+03  0.14232557359E+03 -0.10402680461E+03  0.23914222439E+03  0.85506562013E+02 0.  0.
        254    2    1    2    0    0 -0.13711121896E+03 -0.14232557359E+03 -0.63855882246E+02  0.90606452700E+03  0.88194064320E+03 0.  0.
         23    2    4    4    0    0  0.80865358805E+02  0.69456952361E+02  0.35442546108E+03  0.38084409107E+03  0.89784963982E+02 0.  0.
         23    2    4    4    0    0 -0.21797657776E+03 -0.21178252595E+03 -0.41828134332E+03  0.52522043593E+03  0.92366646568E+02 0.  0.
          3    1    3    3  502    0  0.10591346070E+03  0.10114616032E+03 -0.11514451635E+03  0.18629671642E+03  0.00000000000E+00 0. -1.
         -4    1    3    3    0  502  0.31197758259E+02  0.41179413275E+02  0.11117711742E+02  0.52845507968E+02  0.00000000000E+00 0.  1.
         11    1    5    5    0    0  0.29455557218E+01  0.36630439165E+02  0.36224615009E+02  0.51601241308E+02  0.00000000000E+00 0.  1.
        -11    1    5    5    0    0  0.77919803083E+02  0.32826513196E+02  0.31820084607E+03  0.32924284976E+03  0.00000000000E+00 0. -1.
          4    1    6    6  503    0 -0.80708755412E+02 -0.13639432508E+03 -0.24358490128E+03  0.29060440334E+03  0.00000000000E+00 0. -1.
         -4    1    6    6    0  503 -0.13726782235E+03 -0.75388200873E+02 -0.17469644205E+03  0.23461603259E+03  0.00000000000E+00 0.  1.
<mgrwt>
<rscale>  0 0.11328345E+04</rscale>
<asrwt>0</asrwt>
<pdfrwt beam="1">  1        1 0.10100688E+00 0.11328345E+04</pdfrwt>
<pdfrwt beam="2">  1       -2 0.75178774E-01 0.11328345E+04</pdfrwt>
<totfact> 0.41507513E+01</totfact>
</mgrwt>
</event>
<event>
12    4  0.4486176E-008  0.2596024E+04  0.7818608E-02  0.8369553E-01
          1   -1    0    0  501    0  0.00000000000E+00  0.00000000000E+00  0.35996167601E+04  0.35996167601E+04  0.00000000000E+00 0. -1.
         -2   -1    0    0    0  501 -0.00000000000E+00 -0.00000000000E+00 -0.46805948497E+03  0.46805948497E+03  0.00000000000E+00 0.  1.
        -24    2    1    2    0    0  0.21205238823E+03  0.80923129038E+03  0.16314914814E+03  0.85604326940E+03  0.79818154962E+02 0.  0.
        254    2    1    2    0    0 -0.21205238823E+03 -0.80923129038E+03  0.29684081270E+04  0.32116329757E+04  0.89628012663E+03 0.  0.
         23    2    4    4    0    0  0.11723702772E+03 -0.65314706124E+03  0.97316773679E+03  0.11813845516E+04  0.90930801473E+02 0.  0.
         23    2    4    4    0    0 -0.32928941595E+03 -0.15608422914E+03  0.19952403902E+04  0.20302484240E+04  0.90170075778E+02 0.  0.
          1    1    3    3  502    0  0.14575579496E+02  0.14444061473E+02 -0.19556878917E+01  0.20613178906E+02  0.00000000000E+00 0. -1.
         -2    1    3    3    0  502  0.19747680873E+03  0.79478722890E+03  0.16510483603E+03  0.83543009049E+03  0.00000000000E+00 0.  1.
         11    1    5    5    0    0  0.81966234078E+02 -0.43770387528E+03  0.72519234645E+03  0.85100357538E+03  0.00000000000E+00 0. -1.
        -11    1    5    5    0    0  0.35270793641E+02 -0.21544318596E+03  0.24797539034E+03  0.33038097626E+03  0.00000000000E+00 0.  1.
          2    1    6    6  503    0 -0.32800100532E+03 -0.13836401658E+03  0.19336603612E+04  0.19661565688E+04  0.00000000000E+00 0. -1.
         -2    1    6    6    0  503 -0.12884106220E+01 -0.17720212562E+02  0.61580029032E+02  0.64091855260E+02  0.00000000000E+00 0.  1.
<mgrwt>
<rscale>  0 0.25960237E+04</rscale>
<asrwt>0</asrwt>
<pdfrwt beam="1">  1        1 0.55378718E+00 0.25960237E+04</pdfrwt>
<pdfrwt beam="2">  1       -2 0.72009154E-01 0.25960237E+04</pdfrwt>
<totfact> 0.28199363E-01</totfact>
</mgrwt>
</event>
<event>
12    4  0.4486176E-008  0.2644628E+04  0.7818608E-02  0.8353198E-01
         -2   -1    0    0    0  501 -0.00000000000E+00  0.00000000000E+00  0.83226544092E+03  0.83226544092E+03  0.00000000000E+00 0.  1.
          1   -1    0    0  501    0  0.00000000000E+00 -0.00000000000E+00 -0.21009093599E+04  0.21009093599E+04  0.00000000000E+00 0. -1.
        -24    2    1    2    0    0  0.35826026961E+03  0.87160858527E+03  0.20459184094E+03  0.96768163252E+03  0.80610010728E+02 0.  0.
        254    2    1    2    0    0 -0.35826026961E+03 -0.87160858527E+03 -0.14732357599E+04  0.19654931683E+04  0.89704394740E+03 0.  0.
         23    2    4    4    0    0  0.13939588857E+03 -0.74295357630E+03 -0.70694190519E+03  0.10388742681E+04  0.89898038135E+02 0.  0.
         23    2    4    4    0    0 -0.49765615818E+03 -0.12865500898E+03 -0.76629385468E+03  0.92661890018E+03  0.84867846315E+02 0.  0.
          1    1    3    3  502    0  0.12018572550E+03  0.25875667333E+03  0.26595258083E+02  0.28654307243E+03  0.00000000000E+00 0. -1.
         -2    1    3    3    0  502  0.23807454411E+03  0.61285191194E+03  0.17799658285E+03  0.68113856008E+03  0.00000000000E+00 0.  1.
         11    1    5    5    0    0  0.91278572262E+02 -0.25504883643E+03 -0.24431160499E+03  0.36478739980E+03  0.00000000000E+00 0.  1.
        -11    1    5    5    0    0  0.48117316310E+02 -0.48790473987E+03 -0.46263030020E+03  0.67408686827E+03  0.00000000000E+00 0. -1.
          3    1    6    6  503    0 -0.40510713766E+03 -0.90194576013E+02 -0.55753151774E+03  0.69504550052E+03  0.00000000000E+00 0. -1.
         -3    1    6    6    0  503 -0.92549020525E+02 -0.38460432963E+02 -0.20876233695E+03  0.23157339966E+03  0.00000000000E+00 0.  1.
<mgrwt>
<rscale>  0 0.26446280E+04</rscale>
<asrwt>0</asrwt>
<pdfrwt beam="1">  1        1 0.32321682E+00 0.26446280E+04</pdfrwt>
<pdfrwt beam="2">  1       -2 0.12804084E+00 0.26446280E+04</pdfrwt>
<totfact> 0.88564790E-01</totfact>
</mgrwt>
</event>
<event>
12    4  0.4486176E-008  0.2425058E+04  0.7818608E-02  0.8430182E-01
         -2   -1    0    0    0  501 -0.00000000000E+00  0.00000000000E+00  0.11696087389E+04  0.11696087389E+04  0.00000000000E+00 0.  1.
          1   -1    0    0  501    0  0.00000000000E+00 -0.00000000000E+00 -0.12570237793E+04  0.12570237793E+04  0.00000000000E+00 0. -1.
        -24    2    1    2    0    0 -0.12702515707E+03  0.10015807823E+04 -0.26837775067E+03  0.10477078190E+04  0.79784729319E+02 0.  0.
        254    2    1    2    0    0  0.12702515707E+03 -0.10015807823E+04  0.18096271029E+03  0.13789246992E+04  0.92162159779E+03 0.  0.
         23    2    4    4    0    0 -0.14157694589E+03 -0.98745031395E+02 -0.26805121011E+03  0.33149867225E+03  0.90803665281E+02 0.  0.
         23    2    4    4    0    0  0.26860210296E+03 -0.90283575086E+03  0.44901392040E+03  0.10474260269E+04  0.90709968422E+02 0.  0.
          1    1    3    3  502    0 -0.94850222988E+02  0.71864423080E+03 -0.15535173358E+03  0.74133680361E+03  0.00000000000E+00 0. -1.
         -2    1    3    3    0  502 -0.32174934080E+02  0.28293655145E+03 -0.11302601709E+03  0.30637101539E+03  0.00000000000E+00 0.  1.
         11    1    5    5    0    0 -0.47523072287E+02 -0.82336358988E+02 -0.16913890550E+03  0.19402496686E+03  0.00000000000E+00 0.  1.
        -11    1    5    5    0    0 -0.94053873606E+02 -0.16408672407E+02 -0.98912304608E+02  0.13747370539E+03  0.00000000000E+00 0. -1.
          3    1    6    6  503    0  0.74491893522E+02 -0.16479433142E+03  0.57853109324E+02  0.18987679197E+03  0.00000000000E+00 0. -1.
         -3    1    6    6    0  503  0.19411020944E+03 -0.73804141944E+03  0.39116081108E+03  0.85754923494E+03  0.00000000000E+00 0.  1.
<mgrwt>
<rscale>  0 0.24250575E+04</rscale>
<asrwt>0</asrwt>
<pdfrwt beam="1">  1        1 0.19338827E+00 0.24250575E+04</pdfrwt>
<pdfrwt beam="2">  1       -2 0.17993981E+00 0.24250575E+04</pdfrwt>
<totfact> 0.13832615E+00</totfact>
</mgrwt>
</event>
<event>
12    4  0.4486176E-008  0.1310460E+04  0.7818608E-02  0.9021311E-01
          1   -1    0    0  501    0  0.00000000000E+00  0.00000000000E+00  0.13402098834E+04  0.13402098834E+04  0.00000000000E+00 0. -1.
         -2   -1    0    0    0  501 -0.00000000000E+00 -0.00000000000E+00 -0.32034269793E+03  0.32034269793E+03  0.00000000000E+00 0.  1.
        -24    2    1    2    0    0  0.15861726040E+03  0.31891543255E+02 -0.11336974234E+03  0.21255151815E+03  0.78415199797E+02 0.  0.
        254    2    1    2    0    0 -0.15861726040E+03 -0.31891543255E+02  0.11332369278E+04  0.14480010632E+04  0.88673820183E+03 0.  0.
         23    2    4    4    0    0  0.30075411392E+03 -0.23194785517E+03  0.52810521229E+03  0.65683194588E+03  0.90995853373E+02 0.  0.
         23    2    4    4    0    0 -0.45937137432E+03  0.20005631191E+03  0.60513171552E+03  0.79116911729E+03  0.93378753206E+02 0.  0.
          3    1    3    3  502    0  0.88940371931E+02  0.31901120033E+02 -0.20905177686E+02  0.96773434746E+02  0.00000000000E+00 0. -1.
         -4    1    3    3    0  502  0.69676888470E+02 -0.95767778420E-02 -0.92464564657E+02  0.11577808340E+03  0.00000000000E+00 0.  1.
         11    1    5    5    0    0  0.18606557053E+03 -0.17843920355E+03  0.40626426964E+03  0.48115652618E+03  0.00000000000E+00 0.  1.
        -11    1    5    5    0    0  0.11468854339E+03 -0.53508651615E+02  0.12184094265E+03  0.17567541970E+03  0.00000000000E+00 0. -1.
          1    1    6    6  503    0 -0.11822108980E+02  0.63882041808E+01 -0.69852240655E+00  0.13455829478E+02  0.00000000000E+00 0. -1.
         -1    1    6    6    0  503 -0.44754926534E+03  0.19366810773E+03  0.60583023793E+03  0.77771328782E+03  0.00000000000E+00 0.  1.
<mgrwt>
<rscale>  0 0.13104601E+04</rscale>
<asrwt>0</asrwt>
<pdfrwt beam="1">  1        1 0.20618613E+00 0.13104601E+04</pdfrwt>
<pdfrwt beam="2">  1       -2 0.49283493E-01 0.13104601E+04</pdfrwt>
<totfact> 0.28420054E+01</totfact>
</mgrwt>
</event>
<event>
12    4  0.4486176E-008  0.1502793E+04  0.7818608E-02  0.8882597E-01
         -2   -1    0    0    0  501 -0.00000000000E+00  0.00000000000E+00  0.11216054853E+04  0.11216054853E+04  0.00000000000E+00 0.  1.
          1   -1    0    0  501    0  0.00000000000E+00 -0.00000000000E+00 -0.50338288510E+03  0.50338288510E+03  0.00000000000E+00 0. -1.
        -24    2    1    2    0    0 -0.27004123296E+03 -0.16161179740E+03  0.58866291783E+03  0.67244522434E+03  0.81350527655E+02 0.  0.
        254    2    1    2    0    0  0.27004123296E+03  0.16161179740E+03  0.29559682415E+02  0.95254314612E+03  0.89856776585E+03 0.  0.
         23    2    4    4    0    0 -0.17233332992E+03 -0.26329487898E+03  0.43338150216E+02  0.33204604062E+03  0.96713018390E+02 0.  0.
         23    2    4    4    0    0  0.44237456288E+03  0.42490667638E+03 -0.13778467800E+02  0.62049710550E+03  0.92659992658E+02 0.  0.
          1    1    3    3  502    0 -0.10409680965E+03 -0.10344276225E+03  0.30926005740E+03  0.34231321030E+03  0.00000000000E+00 0. -1.
         -2    1    3    3    0  502 -0.16594442331E+03 -0.58169035152E+02  0.27940286043E+03  0.33013201404E+03  0.00000000000E+00 0.  1.
         11    1    5    5    0    0 -0.59282147294E+02 -0.40132590740E+02  0.39690464549E+02  0.81855548397E+02  0.00000000000E+00 0. -1.
        -11    1    5    5    0    0 -0.11305118262E+03 -0.22316228824E+03  0.36476856668E+01  0.25019049222E+03  0.00000000000E+00 0.  1.
          4    1    6    6  503    0  0.19916156943E+03  0.17135818683E+03 -0.49466579530E+02  0.26734977355E+03  0.00000000000E+00 0. -1.
         -4    1    6    6    0  503  0.24321299345E+03  0.25354848956E+03  0.35688111730E+02  0.35314733194E+03  0.00000000000E+00 0.  1.
<mgrwt>
<rscale>  0 0.15027934E+04</rscale>
<asrwt>0</asrwt>
<pdfrwt beam="1">  1        1 0.77443521E-01 0.15027934E+04</pdfrwt>
<pdfrwt beam="2">  1       -2 0.17255469E+00 0.15027934E+04</pdfrwt>
<totfact> 0.75855079E+00</totfact>
</mgrwt>
</event>
<event>
12    4  0.4486176E-008  0.1791464E+04  0.7818608E-02  0.8710852E-01
          1   -1    0    0  501    0  0.00000000000E+00  0.00000000000E+00  0.59265318620E+03  0.59265318620E+03  0.00000000000E+00 0. -1.
         -2   -1    0    0    0  501 -0.00000000000E+00 -0.00000000000E+00 -0.13538038399E+04  0.13538038399E+04  0.00000000000E+00 0.  1.
        -24    2    1    2    0    0 -0.15791257951E+03 -0.56339668847E+03 -0.67404794677E+03  0.89640655765E+03  0.82776027406E+02 0.  0.
        254    2    1    2    0    0  0.15791257951E+03  0.56339668847E+03 -0.87102706908E+02  0.10500504684E+04  0.86756376904E+03 0.  0.
         23    2    4    4    0    0  0.16832550442E+03  0.77881057539E+03 -0.12963003485E+03  0.81234231025E+03  0.90645988969E+02 0.  0.
         23    2    4    4    0    0 -0.10412924906E+02 -0.21541388692E+03  0.42527327946E+02  0.23770815817E+03  0.90471117798E+02 0.  0.
          3    1    3    3  502    0 -0.37605330602E+02 -0.54469640249E+02 -0.99435715147E+02  0.11945109479E+03  0.00000000000E+00 0. -1.
         -4    1    3    3    0  502 -0.12030724891E+03 -0.50892704822E+03 -0.57461223162E+03  0.77695546287E+03  0.00000000000E+00 0.  1.
         11    1    5    5    0    0  0.14792022817E+03  0.58827008713E+03 -0.64756389182E+02  0.61002908066E+03  0.00000000000E+00 0.  1.
        -11    1    5    5    0    0  0.20405276247E+02  0.19054048826E+03 -0.64873645672E+02  0.20231322959E+03  0.00000000000E+00 0. -1.
          1    1    6    6  503    0 -0.48034205211E+02 -0.80854689415E+02  0.13588707623E+02  0.95023253183E+02  0.00000000000E+00 0. -1.
         -1    1    6    6    0  503  0.37621280306E+02 -0.13455919751E+03  0.28938620323E+02  0.14268490499E+03  0.00000000000E+00 0.  1.
<mgrwt>
<rscale>  0 0.17914644E+04</rscale>
<asrwt>0</asrwt>
<pdfrwt beam="1">  1        1 0.91177414E-01 0.17914644E+04</pdfrwt>
<pdfrwt beam="2">  1       -2 0.20827751E+00 0.17914644E+04</pdfrwt>
<totfact> 0.33829610E+00</totfact>
</mgrwt>
</event>
<event>
12    4  0.4486176E-008  0.1427197E+04  0.7818608E-02  0.8934364E-01
         -2   -1    0    0    0  501 -0.00000000000E+00  0.00000000000E+00  0.92282944899E+03  0.92282944899E+03  0.00000000000E+00 0.  1.
          1   -1    0    0  501    0  0.00000000000E+00 -0.00000000000E+00 -0.55180634667E+03  0.55180634667E+03  0.00000000000E+00 0. -1.
        -24    2    1    2    0    0  0.13231438647E+03  0.12673459745E+03  0.53789248168E+03  0.57329425955E+03  0.75955454889E+02 0.  0.
        254    2    1    2    0    0 -0.13231438647E+03 -0.12673459745E+03 -0.16686937936E+03  0.90134153611E+03  0.86660395793E+03 0.  0.
         23    2    4    4    0    0  0.21586345635E+03 -0.17266204567E+03 -0.38236333820E+03  0.47957876762E+03  0.85935197392E+02 0.  0.
         23    2    4    4    0    0 -0.34817784283E+03  0.45927448224E+02  0.21549395884E+03  0.42176276849E+03  0.90050240682E+02 0.  0.
          3    1    3    3  502    0  0.16869682694E+02  0.25482144650E+02  0.30505303583E+02  0.43179849894E+02  0.00000000000E+00 0. -1.
         -4    1    3    3    0  502  0.11544470378E+03  0.10125245280E+03  0.50738717809E+03  0.53011440965E+03  0.00000000000E+00 0.  1.
         11    1    5    5    0    0 -0.24221404485E+01 -0.11889352446E+02 -0.17107802663E+01  0.12253580500E+02  0.00000000000E+00 0.  1.
        -11    1    5    5    0    0  0.21828559680E+03 -0.16077269323E+03 -0.38065255793E+03  0.46732518712E+03  0.00000000000E+00 0. -1.
          1    1    6    6  503    0 -0.23581139017E+03  0.27033397280E+02  0.19230869249E+03  0.30548395950E+03  0.00000000000E+00 0. -1.
         -1    1    6    6    0  503 -0.11236645266E+03  0.18894050944E+02  0.23185266350E+02  0.11627880899E+03  0.00000000000E+00 0.  1.
<mgrwt>
<rscale>  0 0.14271975E+04</rscale>
<asrwt>0</asrwt>
<pdfrwt beam="1">  1        1 0.84893284E-01 0.14271975E+04</pdfrwt>
<pdfrwt beam="2">  1       -2 0.14197376E+00 0.14271975E+04</pdfrwt>
<totfact> 0.11373587E+01</totfact>
</mgrwt>
</event>
<event>
12    4  0.4486176E-008  0.1778000E+04  0.7818608E-02  0.8718087E-01
         -2   -1    0    0    0  501 -0.00000000000E+00  0.00000000000E+00  0.72752900908E+03  0.72752900908E+03  0.00000000000E+00 0.  1.
          1   -1    0    0  501    0  0.00000000000E+00 -0.00000000000E+00 -0.10863086447E+04  0.10863086447E+04  0.00000000000E+00 0. -1.
        -24    2    1    2    0    0 -0.16883278362E+03 -0.60789707289E+03 -0.30561751515E+03  0.70599701991E+03  0.83584487194E+02 0.  0.
        254    2    1    2    0    0  0.16883278362E+03  0.60789707289E+03 -0.53162120436E+02  0.11078406338E+04  0.90908816894E+03 0.  0.
         23    2    4    4    0    0 -0.35667466092E+03  0.13210847598E+03 -0.36367428763E+02  0.39302291083E+03  0.92059520923E+02 0.  0.
         23    2    4    4    0    0  0.52550744455E+03  0.47578859690E+03 -0.16794691673E+02  0.71481772301E+03  0.90274316654E+02 0.  0.
          3    1    3    3  502    0 -0.10445969071E+03 -0.39239577195E+03 -0.15175268822E+03  0.43349180755E+03  0.00000000000E+00 0. -1.
         -4    1    3    3    0  502 -0.64373092908E+02 -0.21550130093E+03 -0.15386482693E+03  0.27250521236E+03  0.00000000000E+00 0.  1.
         11    1    5    5    0    0 -0.19076315345E+02 -0.13763336993E+02 -0.36608661997E+01  0.23806242745E+02  0.00000000000E+00 0. -1.
        -11    1    5    5    0    0 -0.33759834558E+03  0.14587181297E+03 -0.32706562563E+02  0.36921666809E+03  0.00000000000E+00 0.  1.
          1    1    6    6  503    0  0.45850454609E+03  0.44678355577E+03 -0.28748202970E+02  0.64083416237E+03  0.00000000000E+00 0. -1.
         -1    1    6    6    0  503  0.67002898453E+02  0.29005041138E+02  0.11953511297E+02  0.73983560639E+02  0.00000000000E+00 0.  1.
<mgrwt>
<rscale>  0 0.17780001E+04</rscale>
<asrwt>0</asrwt>
<pdfrwt beam="1">  1        1 0.16712441E+00 0.17780001E+04</pdfrwt>
<pdfrwt beam="2">  1       -2 0.11192754E+00 0.17780001E+04</pdfrwt>
<totfact> 0.67799948E+00</totfact>
</mgrwt>
</event>
<event>
12    4  0.4486176E-008  0.1140922E+04  0.7818608E-02  0.9166200E-01
         -2   -1    0    0    0  501 -0.00000000000E+00  0.00000000000E+00  0.28971309501E+03  0.28971309501E+03  0.00000000000E+00 0.  1.
          1   -1    0    0  501    0  0.00000000000E+00 -0.00000000000E+00 -0.11232683841E+04  0.11232683841E+04  0.00000000000E+00 0. -1.
        -24    2    1    2    0    0 -0.12759029995E+03  0.66169256554E+02 -0.37195088238E+03  0.40668401958E+03  0.79917318094E+02 0.  0.
        254    2    1    2    0    0  0.12759029995E+03 -0.66169256554E+02 -0.46160440674E+03  0.10062974596E+04  0.88255214783E+03 0.  0.
         23    2    4    4    0    0 -0.86341731596E+02  0.34975070205E+03 -0.48275020918E+02  0.37465496298E+03  0.90859316789E+02 0.  0.
         23    2    4    4    0    0  0.21393203154E+03 -0.41591995860E+03 -0.41332938582E+03  0.63164249657E+03  0.96823221458E+02 0.  0.
          3    1    3    3  502    0 -0.12052196162E+03  0.35561647414E+02 -0.33713181359E+03  0.35978887383E+03  0.00000000000E+00 0. -1.
         -4    1    3    3    0  502 -0.70683383290E+01  0.30607609140E+02 -0.34819068788E+02  0.46895145754E+02  0.00000000000E+00 0.  1.
         11    1    5    5    0    0 -0.49232891623E+02  0.24859110948E+03 -0.73750990166E+02  0.26393299506E+03  0.00000000000E+00 0. -1.
        -11    1    5    5    0    0 -0.37108839973E+02  0.10115959257E+03  0.25475969248E+02  0.11072196793E+03  0.00000000000E+00 0.  1.
          2    1    6    6  503    0  0.13153156776E+03 -0.18031435172E+03 -0.24013723384E+03  0.32784098253E+03  0.00000000000E+00 0.  1.
         -2    1    6    6    0  503  0.82400463786E+02 -0.23560560688E+03 -0.17319215198E+03  0.30380151404E+03  0.00000000000E+00 0. -1.
<mgrwt>
<rscale>  0 0.11409217E+04</rscale>
<asrwt>0</asrwt>
<pdfrwt beam="1">  1        1 0.17281052E+00 0.11409217E+04</pdfrwt>
<pdfrwt beam="2">  1       -2 0.44571245E-01 0.11409217E+04</pdfrwt>
<totfact> 0.50650605E+01</totfact>
</mgrwt>
</event>
<event>
12    4  0.4486176E-008  0.1399543E+04  0.7818608E-02  0.8954150E-01
         -2   -1    0    0    0  501 -0.00000000000E+00  0.00000000000E+00  0.21515543398E+03  0.21515543398E+03  0.00000000000E+00 0.  1.
          1   -1    0    0  501    0  0.00000000000E+00 -0.00000000000E+00 -0.22759359568E+04  0.22759359568E+04  0.00000000000E+00 0. -1.
        -24    2    1    2    0    0  0.28776898068E+03  0.10362749163E+03 -0.11053015586E+04  0.11495981685E+04  0.79591269487E+02 0.  0.
        254    2    1    2    0    0 -0.28776898068E+03 -0.10362749163E+03 -0.95547896417E+03  0.13414932223E+04  0.89056968915E+03 0.  0.
         23    2    4    4    0    0 -0.16417392676E+03  0.24095951070E+03  0.78161381360E+01  0.30703249226E+03  0.95881673237E+02 0.  0.
         23    2    4    4    0    0 -0.12359505392E+03 -0.34458700233E+03 -0.96329510230E+03  0.10344607300E+04  0.90308406722E+02 0.  0.
          1    1    3    3  502    0  0.26309170485E+03  0.85849039839E+02 -0.10560780972E+04  0.10917363465E+04  0.00000000000E+00 0. -1.
         -2    1    3    3    0  502  0.24677275832E+02  0.17778451792E+02 -0.49223461398E+02  0.57861821978E+02  0.00000000000E+00 0.  1.
         11    1    5    5    0    0 -0.52898928773E+02  0.16056966186E+03  0.13840769242E+02  0.16962452614E+03  0.00000000000E+00 0. -1.
        -11    1    5    5    0    0 -0.11127499799E+03  0.80389848847E+02 -0.60246311059E+01  0.13740796612E+03  0.00000000000E+00 0.  1.
          3    1    6    6  503    0 -0.11668633258E+03 -0.25269538141E+03 -0.63173694622E+03  0.69033486456E+03  0.00000000000E+00 0. -1.
         -3    1    6    6    0  503 -0.69087213441E+01 -0.91891620918E+02 -0.33155815608E+03  0.34412586547E+03  0.00000000000E+00 0.  1.
<mgrwt>
<rscale>  0 0.13995428E+04</rscale>
<asrwt>0</asrwt>
<pdfrwt beam="1">  1        1 0.35014399E+00 0.13995428E+04</pdfrwt>
<pdfrwt beam="2">  1       -2 0.33100836E-01 0.13995428E+04</pdfrwt>
<totfact> 0.14132108E+01</totfact>
</mgrwt>
</event>
<event>
12    4  0.4486176E-008  0.3040457E+04  0.7818608E-02  0.8232272E-01
          3   -1    0    0  501    0  0.00000000000E+00  0.00000000000E+00  0.11747701837E+04  0.11747701837E+04  0.00000000000E+00 0. -1.
         -4   -1    0    0    0  501 -0.00000000000E+00 -0.00000000000E+00 -0.19672733252E+04  0.19672733252E+04  0.00000000000E+00 0.  1.
        -24    2    1    2    0    0  0.10977669169E+04  0.52162684912E+03 -0.10511476098E+04  0.16088040436E+04  0.78437105977E+02 0.  0.
        254    2    1    2    0    0 -0.10977669169E+04 -0.52162684912E+03  0.25864446828E+03  0.15332394652E+04  0.89818679743E+03 0.  0.
         23    2    4    4    0    0 -0.95641102673E+03 -0.32865803303E+03 -0.17434601503E+03  0.10301701425E+04  0.90087927917E+02 0.  0.
         23    2    4    4    0    0 -0.14135589022E+03 -0.19296881609E+03  0.43299048331E+03  0.50306932276E+03  0.91539790132E+02 0.  0.
          1    1    3    3  502    0  0.36724586670E+03  0.21089864487E+03 -0.38926277051E+03  0.57521584603E+03  0.00000000000E+00 0. -1.
         -2    1    3    3    0  502  0.73052105025E+03  0.31072820425E+03 -0.66188483925E+03  0.10335881976E+04  0.00000000000E+00 0.  1.
         11    1    5    5    0    0 -0.47459792827E+03 -0.20676972490E+03 -0.70751643364E+02  0.52249661022E+03  0.00000000000E+00 0. -1.
        -11    1    5    5    0    0 -0.48181309845E+03 -0.12188830812E+03 -0.10359437167E+03  0.50767353224E+03  0.00000000000E+00 0.  1.
          3    1    6    6  503    0  0.59425002682E+01 -0.12485499858E+02  0.72841756492E+02  0.74142582266E+02  0.00000000000E+00 0. -1.
         -3    1    6    6    0  503 -0.14729839049E+03 -0.18048331623E+03  0.36014872682E+03  0.42892674049E+03  0.00000000000E+00 0.  1.
<mgrwt>
<rscale>  0 0.30404566E+04</rscale>
<asrwt>0</asrwt>
<pdfrwt beam="1">  1        3 0.18073388E+00 0.30404566E+04</pdfrwt>
<pdfrwt beam="2">  1       -4 0.30265743E+00 0.30404566E+04</pdfrwt>
<totfact> 0.11279197E-02</totfact>
</mgrwt>
</event>
<event>
12    4  0.4486176E-008  0.3410452E+04  0.7818608E-02  0.8135346E-01
          1   -1    0    0  501    0  0.00000000000E+00  0.00000000000E+00  0.21141854489E+04  0.21141854489E+04  0.00000000000E+00 0. -1.
         -2   -1    0    0    0  501 -0.00000000000E+00 -0.00000000000E+00 -0.13753743080E+04  0.13753743080E+04  0.00000000000E+00 0.  1.
        -24    2    1    2    0    0  0.10331472115E+04  0.82003851511E+03  0.12523845911E+04  0.18206339999E+04  0.79904134028E+02 0.  0.
        254    2    1    2    0    0 -0.10331472115E+04 -0.82003851511E+03 -0.51357345025E+03  0.16689257570E+04  0.88413752711E+03 0.  0.
         23    2    4    4    0    0 -0.35723466038E+03 -0.82377451425E+03 -0.24295822550E+03  0.93481020724E+03  0.92845954740E+02 0.  0.
         23    2    4    4    0    0 -0.67591255112E+03  0.37359991394E+01 -0.27061522475E+03  0.73411554981E+03  0.93921808742E+02 0.  0.
          3    1    3    3  502    0  0.67327295407E+03  0.56403826211E+03  0.79195215974E+03  0.11826342863E+04  0.00000000000E+00 0. -1.
         -4    1    3    3    0  502  0.35987425742E+03  0.25600025300E+03  0.46043243137E+03  0.63799971359E+03  0.00000000000E+00 0.  1.
         11    1    5    5    0    0 -0.34969987784E+03 -0.74171672348E+03 -0.22720795132E+03  0.85091548088E+03  0.00000000000E+00 0. -1.
        -11    1    5    5    0    0 -0.75347825327E+01 -0.82057790772E+02 -0.15750274174E+02  0.83894726358E+02  0.00000000000E+00 0.  1.
          3    1    6    6  503    0 -0.54734086851E+03 -0.10598554947E+02 -0.18041438089E+03  0.57640585054E+03  0.00000000000E+00 0. -1.
         -3    1    6    6    0  503 -0.12857168261E+03  0.14334554087E+02 -0.90200843862E+02  0.15770969927E+03  0.00000000000E+00 0.  1.
<mgrwt>
<rscale>  0 0.34104524E+04</rscale>
<asrwt>0</asrwt>
<pdfrwt beam="1">  1        1 0.32525930E+00 0.34104524E+04</pdfrwt>
<pdfrwt beam="2">  1       -2 0.21159605E+00 0.34104524E+04</pdfrwt>
<totfact> 0.20148968E-01</totfact>
</mgrwt>
</event>
<event>
12    4  0.4486176E-008  0.1408784E+04  0.7818608E-02  0.8947485E-01
          1   -1    0    0  501    0  0.00000000000E+00  0.00000000000E+00  0.27486425193E+04  0.27486425193E+04  0.00000000000E+00 0. -1.
         -2   -1    0    0    0  501 -0.00000000000E+00 -0.00000000000E+00 -0.18051375401E+03  0.18051375401E+03  0.00000000000E+00 0.  1.
        -24    2    1    2    0    0  0.36794246019E+03 -0.23538742120E+02  0.11457047020E+04  0.12062071577E+04  0.79754101382E+02 0.  0.
        254    2    1    2    0    0 -0.36794246019E+03  0.23538742120E+02  0.14224240633E+04  0.17229491156E+04  0.89962642959E+03 0.  0.
         23    2    4    4    0    0 -0.60616300487E+03  0.20460958041E+03  0.10893317171E+04  0.12672261120E+04  0.99597993302E+02 0.  0.
         23    2    4    4    0    0  0.23822054468E+03 -0.18107083829E+03  0.33309234622E+03  0.45572300361E+03  0.84836716824E+02 0.  0.
          1    1    3    3  502    0  0.32581347983E+03 -0.34642660033E+02  0.10679089430E+04  0.11170425453E+04  0.00000000000E+00 0. -1.
         -2    1    3    3    0  502  0.42128980362E+02  0.11103917913E+02  0.77795758992E+02  0.89164612355E+02  0.00000000000E+00 0.  1.
         11    1    5    5    0    0 -0.38612161367E+03  0.13841827019E+03  0.60226709340E+03  0.72868043055E+03  0.00000000000E+00 0. -1.
        -11    1    5    5    0    0 -0.22004139120E+03  0.66191310219E+02  0.48706462370E+03  0.53854568149E+03  0.00000000000E+00 0.  1.
          3    1    6    6  503    0  0.15199261135E+03 -0.89860389152E+02  0.24658121781E+03  0.30328030008E+03  0.00000000000E+00 0. -1.
         -3    1    6    6    0  503  0.86227933334E+02 -0.91210449142E+02  0.86511128408E+02  0.15244270353E+03  0.00000000000E+00 0.  1.
<mgrwt>
<rscale>  0 0.14087836E+04</rscale>
<asrwt>0</asrwt>
<pdfrwt beam="1">  1        1 0.42286805E+00 0.14087836E+04</pdfrwt>
<pdfrwt beam="2">  1       -2 0.27771349E-01 0.14087836E+04</pdfrwt>
<totfact> 0.92289038E+00</totfact>
</mgrwt>
</event>
<event>
12    4  0.4486176E-008  0.2453376E+04  0.7818608E-02  0.8419786E-01
         -2   -1    0    0    0  501 -0.00000000000E+00  0.00000000000E+00  0.93925223509E+03  0.93925223509E+03  0.00000000000E+00 0.  1.
          1   -1    0    0  501    0  0.00000000000E+00 -0.00000000000E+00 -0.16020868266E+04  0.16020868266E+04  0.00000000000E+00 0. -1.
        -24    2    1    2    0    0  0.10610201824E+02 -0.30712280238E+02 -0.13854282890E+04  0.13878493179E+04  0.75222103231E+02 0.  0.
        254    2    1    2    0    0 -0.10610201824E+02  0.30712280238E+02  0.72259369750E+03  0.11534897437E+04  0.89852162840E+03 0.  0.
         23    2    4    4    0    0 -0.12208067939E+03 -0.28972697820E+03 -0.23306131487E+02  0.32890958353E+03  0.93770593444E+02 0.  0.
         23    2    4    4    0    0  0.11147047757E+03  0.32043925844E+03  0.74589982898E+03  0.82458016021E+03  0.91972278469E+02 0.  0.
          3    1    3    3  502    0  0.25390325628E+02 -0.42945147767E+02 -0.12576066441E+04  0.12585958151E+04  0.00000000000E+00 0. -1.
         -4    1    3    3    0  502 -0.14780123804E+02  0.12232867529E+02 -0.12782164483E+03  0.12925350284E+03  0.00000000000E+00 0.  1.
         11    1    5    5    0    0 -0.20874356924E+01 -0.11872992313E+03 -0.30079554599E+00  0.11874865267E+03  0.00000000000E+00 0. -1.
        -11    1    5    5    0    0 -0.11999324370E+03 -0.17099705508E+03 -0.23005335941E+02  0.21016093086E+03  0.00000000000E+00 0.  1.
          2    1    6    6  503    0  0.51967477511E+02  0.23458422744E+03  0.43988377173E+03  0.50122660655E+03  0.00000000000E+00 0. -1.
         -2    1    6    6    0  503  0.59503000056E+02  0.85855031001E+02  0.30601605726E+03  0.32335355366E+03  0.00000000000E+00 0.  1.
<mgrwt>
<rscale>  0 0.24533761E+04</rscale>
<asrwt>0</asrwt>
<pdfrwt beam="1">  1        1 0.24647489E+00 0.24533761E+04</pdfrwt>
<pdfrwt beam="2">  1       -2 0.14450034E+00 0.24533761E+04</pdfrwt>
<totfact> 0.14407110E+00</totfact>
</mgrwt>
</event>
<event>
12    4  0.4486176E-008  0.1237620E+04  0.7818608E-02  0.9080551E-01
          1   -1    0    0  501    0  0.00000000000E+00  0.00000000000E+00  0.17247242731E+04  0.17247242731E+04  0.00000000000E+00 0. -1.
         -2   -1    0    0    0  501 -0.00000000000E+00 -0.00000000000E+00 -0.22202144068E+03  0.22202144068E+03  0.00000000000E+00 0.  1.
        -24    2    1    2    0    0  0.18849977802E+03  0.10667048751E+03  0.64366978193E+03  0.68379868156E+03  0.79743899523E+02 0.  0.
        254    2    1    2    0    0 -0.18849977802E+03 -0.10667048751E+03  0.85903305053E+03  0.12629470323E+04  0.90010369691E+03 0.  0.
         23    2    4    4    0    0 -0.45976038156E+02 -0.49312856952E+03  0.47531090032E+03  0.69247140394E+03  0.91140612001E+02 0.  0.
         23    2    4    4    0    0 -0.14252373986E+03  0.38645808201E+03  0.38372215021E+03  0.57047562832E+03  0.92395283282E+02 0.  0.
          1    1    3    3  502    0  0.18300971807E+03  0.11518219025E+03  0.63373310203E+03  0.66960969114E+03  0.00000000000E+00 0. -1.
         -2    1    3    3    0  502  0.54900599547E+01 -0.85117027340E+01  0.99366799011E+01  0.14188990422E+02  0.00000000000E+00 0.  1.
         11    1    5    5    0    0 -0.27045708930E+02 -0.98235635551E+02  0.14544001096E+03  0.17757958005E+03  0.00000000000E+00 0. -1.
        -11    1    5    5    0    0 -0.18930329226E+02 -0.39489293397E+03  0.32987088936E+03  0.51489182389E+03  0.00000000000E+00 0.  1.
          4    1    6    6  503    0 -0.40012002878E+02  0.19516761536E+03  0.13647045092E+03  0.24148611230E+03  0.00000000000E+00 0. -1.
         -4    1    6    6    0  503 -0.10251173699E+03  0.19129046665E+03  0.24725169929E+03  0.32898951602E+03  0.00000000000E+00 0.  1.
<mgrwt>
<rscale>  0 0.12376199E+04</rscale>
<asrwt>0</asrwt>
<pdfrwt beam="1">  1        1 0.26534219E+00 0.12376199E+04</pdfrwt>
<pdfrwt beam="2">  1       -2 0.34157146E-01 0.12376199E+04</pdfrwt>
<totfact> 0.31889274E+01</totfact>
</mgrwt>
</event>
<event>
12    4  0.4486176E-008  0.1786125E+04  0.7818608E-02  0.8713713E-01
         -2   -1    0    0    0  501 -0.00000000000E+00  0.00000000000E+00  0.50580061530E+03  0.50580061530E+03  0.00000000000E+00 0.  1.
          1   -1    0    0  501    0  0.00000000000E+00 -0.00000000000E+00 -0.15768281860E+04  0.15768281860E+04  0.00000000000E+00 0. -1.
        -24    2    1    2    0    0 -0.33483175423E+03 -0.25067971496E+03  0.20060168112E+03  0.47090269899E+03  0.80967242210E+02 0.  0.
        254    2    1    2    0    0  0.33483175423E+03  0.25067971496E+03 -0.12716292518E+04  0.16117261023E+04  0.89758980144E+03 0.  0.
         23    2    4    4    0    0 -0.21436912749E+03  0.62302483311E+02 -0.86268860009E+03  0.89572977785E+03  0.90909251192E+02 0.  0.
         23    2    4    4    0    0  0.54920088172E+03  0.18837723165E+03 -0.40894065176E+03  0.71599632448E+03  0.91162986602E+02 0.  0.
          3    1    3    3  502    0 -0.20005942822E+03 -0.11729640422E+03  0.76149484464E+02  0.24409212451E+03  0.00000000000E+00 0. -1.
         -4    1    3    3    0  502 -0.13477232600E+03 -0.13338331074E+03  0.12445219666E+03  0.22681057447E+03  0.00000000000E+00 0.  1.
         11    1    5    5    0    0 -0.13200303620E+03  0.27477388896E+02 -0.66819140049E+03  0.68165941360E+03  0.00000000000E+00 0. -1.
        -11    1    5    5    0    0 -0.82366091293E+02  0.34825094415E+02 -0.19449719960E+03  0.21407036425E+03  0.00000000000E+00 0.  1.
          3    1    6    6  503    0  0.38645389481E+03  0.17551415890E+03 -0.29234896594E+03  0.51538311058E+03  0.00000000000E+00 0. -1.
         -3    1    6    6    0  503  0.16274698691E+03  0.12863072746E+02 -0.11659168582E+03  0.20061321390E+03  0.00000000000E+00 0.  1.
<mgrwt>
<rscale>  0 0.17861250E+04</rscale>
<asrwt>0</asrwt>
<pdfrwt beam="1">  1        1 0.24258896E+00 0.17861250E+04</pdfrwt>
<pdfrwt beam="2">  1       -2 0.77815478E-01 0.17861250E+04</pdfrwt>
<totfact> 0.70598392E+00</totfact>
</mgrwt>
</event>
<event>
12    4  0.4486176E-008  0.1579045E+04  0.7818608E-02  0.8833526E-01
          1   -1    0    0  501    0  0.00000000000E+00  0.00000000000E+00  0.83082756211E+03  0.83082756211E+03  0.00000000000E+00 0. -1.
         -2   -1    0    0    0  501 -0.00000000000E+00 -0.00000000000E+00 -0.75027134529E+03  0.75027134529E+03  0.00000000000E+00 0.  1.
        -24    2    1    2    0    0  0.41182686956E+03  0.11477349472E+03 -0.29330838928E+03  0.52455646410E+03  0.79720431714E+02 0.  0.
        254    2    1    2    0    0 -0.41182686956E+03 -0.11477349472E+03  0.37386460610E+03  0.10565424433E+04  0.89091686774E+03 0.  0.
         23    2    4    4    0    0 -0.13964162143E+03  0.92227465063E+01  0.63055906253E+03  0.65202321929E+03  0.89133078414E+02 0.  0.
         23    2    4    4    0    0 -0.27218524813E+03 -0.12399624122E+03 -0.25669445643E+03  0.40451922401E+03  0.91015830998E+02 0.  0.
          3    1    3    3  502    0  0.12475095541E+01 -0.54880348615E+01  0.35296305619E+00  0.56390947542E+01  0.00000000000E+00 0. -1.
         -4    1    3    3    0  502  0.41057936001E+03  0.12026152958E+03 -0.29366135233E+03  0.51891736935E+03  0.00000000000E+00 0.  1.
         11    1    5    5    0    0 -0.11463476716E+02 -0.27269588284E+02  0.17060419383E+03  0.17314974067E+03  0.00000000000E+00 0. -1.
        -11    1    5    5    0    0 -0.12817814472E+03  0.36492334790E+02  0.45995486870E+03  0.47887347862E+03  0.00000000000E+00 0.  1.
          4    1    6    6  503    0 -0.21587758150E+03 -0.86638119855E+02 -0.14540380838E+03  0.27432018062E+03  0.00000000000E+00 0. -1.
         -4    1    6    6    0  503 -0.56307666625E+02 -0.37358121367E+02 -0.11129064806E+03  0.13019904338E+03  0.00000000000E+00 0.  1.
<mgrwt>
<rscale>  0 0.15790454E+04</rscale>
<asrwt>0</asrwt>
<pdfrwt beam="1">  1        1 0.12781963E+00 0.15790454E+04</pdfrwt>
<pdfrwt beam="2">  1       -2 0.11542636E+00 0.15790454E+04</pdfrwt>
<totfact> 0.10231098E+01</totfact>
</mgrwt>
</event>
<event>
12    4  0.4486176E-008  0.1646684E+04  0.7818608E-02  0.8792371E-01
         -2   -1    0    0    0  501 -0.00000000000E+00  0.00000000000E+00  0.46017027159E+03  0.46017027159E+03  0.00000000000E+00 0.  1.
          1   -1    0    0  501    0  0.00000000000E+00 -0.00000000000E+00 -0.14731326520E+04  0.14731326520E+04  0.00000000000E+00 0. -1.
        -24    2    1    2    0    0 -0.41639314219E+02  0.33865074208E+03  0.18685839332E+03  0.39724563654E+03  0.80435558042E+02 0.  0.
        254    2    1    2    0    0  0.41639314219E+02 -0.33865074208E+03 -0.11998207737E+04  0.15360572871E+04  0.89637265826E+03 0.  0.
         23    2    4    4    0    0  0.57184148448E+02  0.29683959046E+03 -0.43288175924E+03  0.53602385605E+03  0.92472630966E+02 0.  0.
         23    2    4    4    0    0 -0.15544834229E+02 -0.63549033253E+03 -0.76693901449E+03  0.10000334310E+04  0.88214548577E+02 0.  0.
          3    1    3    3  502    0 -0.33706379352E+02  0.76263144920E+02  0.74089591229E+02  0.11154126954E+03  0.00000000000E+00 0. -1.
         -4    1    3    3    0  502 -0.79329348667E+01  0.26238759716E+03  0.11276880209E+03  0.28570436700E+03  0.00000000000E+00 0.  1.
         11    1    5    5    0    0  0.26216406056E+02  0.19986505832E+03 -0.35349339946E+03  0.40692864847E+03  0.00000000000E+00 0.  1.
        -11    1    5    5    0    0  0.30967742392E+02  0.96974532137E+02 -0.79388359780E+02  0.12909520758E+03  0.00000000000E+00 0. -1.
          2    1    6    6  503    0  0.10406392349E+02 -0.98475561598E+02 -0.16942926314E+03  0.19624475647E+03  0.00000000000E+00 0. -1.
         -2    1    6    6    0  503 -0.25951226578E+02 -0.53701477093E+03 -0.59750975135E+03  0.80378867454E+03  0.00000000000E+00 0.  1.
<mgrwt>
<rscale>  0 0.16466838E+04</rscale>
<asrwt>0</asrwt>
<pdfrwt beam="1">  1        1 0.22663579E+00 0.16466838E+04</pdfrwt>
<pdfrwt beam="2">  1       -2 0.70795427E-01 0.16466838E+04</pdfrwt>
<totfact> 0.10387087E+01</totfact>
</mgrwt>
</event>
<event>
12    4  0.4486176E-008  0.1507899E+04  0.7818608E-02  0.8879217E-01
          1   -1    0    0  501    0  0.00000000000E+00  0.00000000000E+00  0.12347177315E+04  0.12347177315E+04  0.00000000000E+00 0. -1.
         -2   -1    0    0    0  501 -0.00000000000E+00 -0.00000000000E+00 -0.46038012778E+03  0.46038012778E+03  0.00000000000E+00 0.  1.
        -24    2    1    2    0    0  0.38963879291E+03 -0.15592819677E+03 -0.22651618261E+02  0.42801020326E+03  0.80917530847E+02 0.  0.
        254    2    1    2    0    0 -0.38963879291E+03  0.15592819677E+03  0.79698922196E+03  0.12670876560E+04  0.89117187826E+03 0.  0.
         23    2    4    4    0    0 -0.48366423557E+03 -0.23087704985E+03  0.61273195539E+03  0.81902984869E+03  0.90189461592E+02 0.  0.
         23    2    4    4    0    0  0.94025442661E+02  0.38680524662E+03  0.18425726657E+03  0.44805780731E+03  0.91356311936E+02 0.  0.
          1    1    3    3  502    0  0.67998987981E+02 -0.62018429069E+02 -0.11572454988E+02  0.92758124308E+02  0.00000000000E+00 0. -1.
         -2    1    3    3    0  502  0.32163980493E+03 -0.93909767698E+02 -0.11079163273E+02  0.33525207895E+03  0.00000000000E+00 0.  1.
         11    1    5    5    0    0 -0.42448959303E+01 -0.10437602615E+02  0.34160513976E+02  0.35970868837E+02  0.00000000000E+00 0. -1.
        -11    1    5    5    0    0 -0.47941933964E+03 -0.22043944723E+03  0.57857144141E+03  0.78305897986E+03  0.00000000000E+00 0.  1.
          2    1    6    6  503    0 -0.12982473817E+02  0.51528327516E+02  0.44769552318E+02  0.69483997998E+02  0.00000000000E+00 0. -1.
         -2    1    6    6    0  503  0.10700791648E+03  0.33527691910E+03  0.13948771426E+03  0.37857380931E+03  0.00000000000E+00 0.  1.
<mgrwt>
<rscale>  0 0.15078985E+04</rscale>
<asrwt>0</asrwt>
<pdfrwt beam="1">  1        1 0.18995657E+00 0.15078985E+04</pdfrwt>
<pdfrwt beam="2">  1       -2 0.70827712E-01 0.15078985E+04</pdfrwt>
<totfact> 0.15485868E+01</totfact>
</mgrwt>
</event>
<event>
12    4  0.4486176E-008  0.1551832E+04  0.7818608E-02  0.8850698E-01
          1   -1    0    0  501    0  0.00000000000E+00  0.00000000000E+00  0.66521644184E+03  0.66521644184E+03  0.00000000000E+00 0. -1.
         -2   -1    0    0    0  501 -0.00000000000E+00 -0.00000000000E+00 -0.90503707716E+03  0.90503707716E+03  0.00000000000E+00 0.  1.
        -24    2    1    2    0    0  0.57018300424E+02 -0.43032406582E+03 -0.29572467188E+03  0.53108454757E+03  0.78535513614E+02 0.  0.
        254    2    1    2    0    0 -0.57018300424E+02  0.43032406582E+03  0.55904036566E+02  0.10391689714E+04  0.94250570379E+03 0.  0.
         23    2    4    4    0    0  0.13060418229E+03 -0.23976612761E+03  0.15884936116E+03  0.32972398386E+03  0.94549128026E+02 0.  0.
         23    2    4    4    0    0 -0.18762248271E+03  0.67009019343E+03 -0.10294532459E+03  0.70944498757E+03  0.92148723182E+02 0.  0.
          1    1    3    3  502    0  0.22351037697E+02 -0.13469419993E+03 -0.51029030911E+02  0.14576027709E+03  0.00000000000E+00 0. -1.
         -2    1    3    3    0  502  0.34667262728E+02 -0.29562986589E+03 -0.24469564097E+03  0.38532427048E+03  0.00000000000E+00 0.  1.
         11    1    5    5    0    0  0.55739276129E+01 -0.15620722984E+02 -0.12805479775E+02  0.20953662397E+02  0.00000000000E+00 0. -1.
        -11    1    5    5    0    0  0.12503025468E+03 -0.22414540463E+03  0.17165484093E+03  0.30877032146E+03  0.00000000000E+00 0.  1.
          1    1    6    6  503    0 -0.31948938778E+02  0.19067443240E+03  0.73081094953E+01  0.19347062393E+03  0.00000000000E+00 0. -1.
         -1    1    6    6    0  503 -0.15567354394E+03  0.47941576103E+03 -0.11025343409E+03  0.51597436364E+03  0.00000000000E+00 0.  1.
<mgrwt>
<rscale>  0 0.15518319E+04</rscale>
<asrwt>0</asrwt>
<pdfrwt beam="1">  1        1 0.10234099E+00 0.15518319E+04</pdfrwt>
<pdfrwt beam="2">  1       -2 0.13923647E+00 0.15518319E+04</pdfrwt>
<totfact> 0.90352484E+00</totfact>
</mgrwt>
</event>
<event>
12    4  0.4486176E-008  0.1703747E+04  0.7818608E-02  0.8759230E-01
          1   -1    0    0  501    0  0.00000000000E+00  0.00000000000E+00  0.28969455286E+04  0.28969455286E+04  0.00000000000E+00 0. -1.
         -2   -1    0    0    0  501 -0.00000000000E+00 -0.00000000000E+00 -0.25050121907E+03  0.25050121907E+03  0.00000000000E+00 0.  1.
        -24    2    1    2    0    0 -0.28625324414E+03  0.51443289460E+03  0.69439855249E+03  0.91381874402E+03  0.79329845512E+02 0.  0.
        254    2    1    2    0    0  0.28625324414E+03 -0.51443289460E+03  0.19520457570E+04  0.22336280036E+04  0.91215640011E+03 0.  0.
         23    2    4    4    0    0 -0.13221657112E+03  0.91712223664E+02  0.48787609099E+02  0.19064711889E+03  0.89853989853E+02 0.  0.
         23    2    4    4    0    0  0.41846981526E+03 -0.60614511827E+03  0.19032581479E+04  0.20429808847E+04  0.94076708429E+02 0.  0.
          3    1    3    3  502    0 -0.86203501590E+02  0.10066319798E+03  0.18722244693E+03  0.22938257943E+03  0.00000000000E+00 0. -1.
         -4    1    3    3    0  502 -0.20004974255E+03  0.41376969662E+03  0.50717610556E+03  0.68443616458E+03  0.00000000000E+00 0.  1.
         11    1    5    5    0    0 -0.17466576815E+02  0.28885396902E+02  0.49388868053E+02  0.59822301422E+02  0.00000000000E+00 0.  1.
        -11    1    5    5    0    0 -0.11474999431E+03  0.62826826763E+02 -0.60125895459E+00  0.13082481747E+03  0.00000000000E+00 0. -1.
          1    1    6    6  503    0  0.27501924866E+03 -0.45035767833E+03  0.14390018160E+04  0.15327047505E+04  0.00000000000E+00 0. -1.
         -1    1    6    6    0  503  0.14345056660E+03 -0.15578743993E+03  0.46425633189E+03  0.51027613427E+03  0.00000000000E+00 0.  1.
<mgrwt>
<rscale>  0 0.17037469E+04</rscale>
<asrwt>0</asrwt>
<pdfrwt beam="1">  1        1 0.44568390E+00 0.17037469E+04</pdfrwt>
<pdfrwt beam="2">  1       -2 0.38538651E-01 0.17037469E+04</pdfrwt>
<totfact> 0.37861516E+00</totfact>
</mgrwt>
</event>
<event>
12    4  0.4486176E-008  0.1708257E+04  0.7818608E-02  0.8756669E-01
          1   -1    0    0  501    0  0.00000000000E+00  0.00000000000E+00  0.15090697917E+04  0.15090697917E+04  0.00000000000E+00 0. -1.
         -4   -1    0    0    0  501 -0.00000000000E+00 -0.00000000000E+00 -0.48343378816E+03  0.48343378816E+03  0.00000000000E+00 0.  1.
        -24    2    1    2    0    0  0.34198708830E+03 -0.10223673723E+03 -0.21221229598E+03  0.42288303529E+03  0.79927992420E+02 0.  0.
        254    2    1    2    0    0 -0.34198708830E+03  0.10223673723E+03  0.12378482995E+04  0.15696205445E+04  0.89667871741E+03 0.  0.
         23    2    4    4    0    0 -0.40855015664E+03 -0.13144171660E+03  0.12348064552E+04  0.13101305550E+04  0.86631022386E+02 0.  0.
         23    2    4    4    0    0  0.66563068337E+02  0.23367845383E+03  0.30418442953E+01  0.25948998951E+03  0.91046910940E+02 0.  0.
          3    1    3    3  502    0  0.18866250479E+03 -0.82478297659E+02 -0.85314639709E+02  0.22287843782E+03  0.00000000000E+00 0. -1.
         -4    1    3    3    0  502  0.15332458351E+03 -0.19758439574E+02 -0.12689765627E+03  0.20000459747E+03  0.00000000000E+00 0.  1.
         11    1    5    5    0    0  0.18340124462E+01 -0.95517170680E+01  0.27750561629E+02  0.29405655431E+02  0.00000000000E+00 0.  1.
        -11    1    5    5    0    0 -0.41038416908E+03 -0.12188999953E+03  0.12070558936E+04  0.12807248996E+04  0.00000000000E+00 0. -1.
          3    1    6    6  503    0  0.60950816562E+02  0.17857519823E+03 -0.35514055924E+02  0.19200351984E+03  0.00000000000E+00 0. -1.
         -3    1    6    6    0  503  0.56122517750E+01  0.55103255595E+02  0.38555900219E+02  0.67486469673E+02  0.00000000000E+00 0.  1.
<mgrwt>
<rscale>  0 0.17082568E+04</rscale>
<asrwt>0</asrwt>
<pdfrwt beam="1">  1        1 0.23216458E+00 0.17082568E+04</pdfrwt>
<pdfrwt beam="2">  1       -4 0.74374430E-01 0.17082568E+04</pdfrwt>
<totfact> 0.49186563E+00</totfact>
</mgrwt>
</event>
<event>
12    4  0.4486176E-008  0.1461488E+04  0.7818608E-02  0.8910474E-01
         -2   -1    0    0    0  501 -0.00000000000E+00  0.00000000000E+00  0.22008814310E+04  0.22008814310E+04  0.00000000000E+00 0.  1.
          1   -1    0    0  501    0  0.00000000000E+00 -0.00000000000E+00 -0.24262416606E+03  0.24262416606E+03  0.00000000000E+00 0. -1.
        -24    2    1    2    0    0  0.20052870303E+03 -0.20990630888E+03  0.13460661576E+04  0.13792768368E+04  0.78981471183E+02 0.  0.
        254    2    1    2    0    0 -0.20052870303E+03  0.20990630888E+03  0.61219110732E+03  0.10642287602E+04  0.82069024783E+03 0.  0.
         23    2    4    4    0    0 -0.11471417888E+03 -0.30513528364E+03  0.18442465646E+03  0.38413004444E+03  0.85302713765E+02 0.  0.
         23    2    4    4    0    0 -0.85814524142E+02  0.51504159252E+03  0.42776645086E+03  0.68009871574E+03  0.83175429658E+02 0.  0.
          3    1    3    3  502    0  0.84345846675E+01  0.36731631843E+01  0.10490898744E+03  0.10531158527E+03  0.00000000000E+00 0. -1.
         -4    1    3    3    0  502  0.19209411836E+03 -0.21357947207E+03  0.12411571702E+04  0.12739652516E+04  0.00000000000E+00 0.  1.
         11    1    5    5    0    0 -0.62500900145E+02 -0.64651470373E+02  0.36812284420E+02  0.97166452156E+02  0.00000000000E+00 0.  1.
        -11    1    5    5    0    0 -0.52213278738E+02 -0.24048381326E+03  0.14761237204E+03  0.28696359229E+03  0.00000000000E+00 0. -1.
          2    1    6    6  503    0 -0.10126882536E+03  0.46678197171E+03  0.39436971695E+03  0.61940960418E+03  0.00000000000E+00 0. -1.
         -2    1    6    6    0  503  0.15454301217E+02  0.48259620809E+02  0.33396733909E+02  0.60689111565E+02  0.00000000000E+00 0.  1.
<mgrwt>
<rscale>  0 0.14614883E+04</rscale>
<asrwt>0</asrwt>
<pdfrwt beam="1">  1        1 0.37326796E-01 0.14614883E+04</pdfrwt>
<pdfrwt beam="2">  1       -2 0.33859713E+00 0.14614883E+04</pdfrwt>
<totfact> 0.18093434E+00</totfact>
</mgrwt>
</event>
<event>
12    4  0.4486176E-008  0.1793457E+04  0.7818608E-02  0.8709787E-01
          1   -1    0    0  501    0  0.00000000000E+00  0.00000000000E+00  0.85446404756E+03  0.85446404756E+03  0.00000000000E+00 0. -1.
         -2   -1    0    0    0  501 -0.00000000000E+00 -0.00000000000E+00 -0.94108389295E+03  0.94108389295E+03  0.00000000000E+00 0.  1.
        -24    2    1    2    0    0  0.43705352418E+03 -0.48119244979E+03 -0.19204997208E+03  0.68248213674E+03  0.79603507848E+02 0.  0.
        254    2    1    2    0    0 -0.43705352418E+03  0.48119244979E+03  0.10543012669E+03  0.11130658038E+04  0.89735055312E+03 0.  0.
         23    2    4    4    0    0 -0.60817439978E+03  0.85295712700E+02 -0.97006241131E+02  0.62800736747E+03  0.88496235121E+02 0.  0.
         23    2    4    4    0    0  0.17112087560E+03  0.39589673709E+03  0.20243636783E+03  0.48505843630E+03  0.91019904950E+02 0.  0.
          3    1    3    3  502    0  0.22481777305E+03 -0.26345297958E+03 -0.62323107834E+02  0.35190151079E+03  0.00000000000E+00 0. -1.
         -2    1    3    3    0  502  0.21223575112E+03 -0.21773947021E+03 -0.12972686424E+03  0.33058062595E+03  0.00000000000E+00 0.  1.
         11    1    5    5    0    0 -0.11241534363E+02 -0.36849310718E+01  0.94762759792E+01  0.15157526786E+02  0.00000000000E+00 0.  1.
        -11    1    5    5    0    0 -0.59693286542E+03  0.88980643772E+02 -0.10648251711E+03  0.61284984069E+03  0.00000000000E+00 0. -1.
          3    1    6    6  503    0  0.16085030612E+03  0.32679572191E+03  0.19914030114E+03  0.41512061426E+03  0.00000000000E+00 0. -1.
         -3    1    6    6    0  503  0.10270569479E+02  0.69101015179E+02  0.32960666814E+01  0.69937822040E+02  0.00000000000E+00 0.  1.
<mgrwt>
<rscale>  0 0.17934574E+04</rscale>
<asrwt>0</asrwt>
<pdfrwt beam="1">  1        1 0.13145601E+00 0.17934574E+04</pdfrwt>
<pdfrwt beam="2">  1       -2 0.14478214E+00 0.17934574E+04</pdfrwt>
<totfact> 0.54019214E+00</totfact>
</mgrwt>
</event>
<event>
12    4  0.4486176E-008  0.2594635E+04  0.7818608E-02  0.8370026E-01
          1   -1    0    0  501    0  0.00000000000E+00  0.00000000000E+00  0.31715407490E+04  0.31715407490E+04  0.00000000000E+00 0. -1.
         -2   -1    0    0    0  501 -0.00000000000E+00 -0.00000000000E+00 -0.53066703109E+03  0.53066703109E+03  0.00000000000E+00 0.  1.
        -24    2    1    2    0    0  0.27790173786E+03 -0.10975167406E+04  0.94243369975E+03  0.14752290136E+04  0.79668013671E+02 0.  0.
        254    2    1    2    0    0 -0.27790173786E+03  0.10975167406E+04  0.16984400182E+04  0.22269787665E+04  0.89048501356E+03 0.  0.
         23    2    4    4    0    0 -0.76379043906E+01  0.54814087192E+03  0.17463578176E+03  0.58220147908E+03  0.89129977714E+02 0.  0.
         23    2    4    4    0    0 -0.27026383347E+03  0.54937586866E+03  0.15238042364E+04  0.16447772874E+04  0.91959716991E+02 0.  0.
          3    1    3    3  502    0  0.10685173080E+03 -0.33262328110E+03  0.25273984701E+03  0.43119945474E+03  0.00000000000E+00 0. -1.
         -4    1    3    3    0  502  0.17105000706E+03 -0.76489345948E+03  0.68969385274E+03  0.10440295589E+04  0.00000000000E+00 0.  1.
         11    1    5    5    0    0  0.94529651176E+01  0.12397303207E+03  0.78177649161E+02  0.14686870347E+03  0.00000000000E+00 0.  1.
        -11    1    5    5    0    0 -0.17090869508E+02  0.42416783984E+03  0.96458132599E+02  0.43533277561E+03  0.00000000000E+00 0. -1.
          3    1    6    6  503    0 -0.21816576884E+03  0.50039720972E+03  0.13835169582E+04  0.14873173313E+04  0.00000000000E+00 0. -1.
         -3    1    6    6    0  503 -0.52098064632E+02  0.48978658936E+02  0.14028727818E+03  0.15745995615E+03  0.00000000000E+00 0.  1.
<mgrwt>
<rscale>  0 0.25946346E+04</rscale>
<asrwt>0</asrwt>
<pdfrwt beam="1">  1        1 0.48792933E+00 0.25946346E+04</pdfrwt>
<pdfrwt beam="2">  1       -2 0.81641084E-01 0.25946346E+04</pdfrwt>
<totfact> 0.45682480E-01</totfact>
</mgrwt>
</event>
<event>
12    4  0.4486176E-008  0.2945775E+04  0.7818608E-02  0.8259387E-01
         -2   -1    0    0    0  501 -0.00000000000E+00  0.00000000000E+00  0.11645926341E+04  0.11645926341E+04  0.00000000000E+00 0.  1.
          1   -1    0    0  501    0  0.00000000000E+00 -0.00000000000E+00 -0.18627955200E+04  0.18627955200E+04  0.00000000000E+00 0. -1.
        -24    2    1    2    0    0 -0.58075689031E+03  0.38959752332E+03 -0.14807592181E+04  0.16394910534E+04  0.78855920947E+02 0.  0.
        254    2    1    2    0    0  0.58075689031E+03 -0.38959752332E+03  0.78255633219E+03  0.13878971008E+04  0.90818453718E+03 0.  0.
         23    2    4    4    0    0  0.76596568468E+03 -0.33710795871E+03  0.81207823234E+03  0.11702171603E+04  0.97938454957E+02 0.  0.
         23    2    4    4    0    0 -0.18520879437E+03 -0.52489564607E+02 -0.29521900147E+02  0.21767994049E+03  0.97239714100E+02 0.  0.
          3    1    3    3  502    0 -0.57999365252E+03  0.38046633408E+03 -0.14495909494E+04  0.16070037924E+04  0.00000000000E+00 0. -1.
         -4    1    3    3    0  502 -0.76323778395E+00  0.91311892431E+01 -0.31168268685E+02  0.32487260915E+02  0.00000000000E+00 0.  1.
         11    1    5    5    0    0  0.42366954110E+03 -0.13849896570E+03  0.45996319529E+03  0.64050291535E+03  0.00000000000E+00 0. -1.
        -11    1    5    5    0    0  0.34229614358E+03 -0.19860899301E+03  0.35211503705E+03  0.52971424497E+03  0.00000000000E+00 0.  1.
          3    1    6    6  503    0 -0.17946074903E+03 -0.56656583648E+02 -0.90333334893E+00  0.18819390246E+03  0.00000000000E+00 0. -1.
         -3    1    6    6    0  503 -0.57480453409E+01  0.41670190415E+01 -0.28618566798E+02  0.29486038027E+02  0.00000000000E+00 0.  1.
<mgrwt>
<rscale>  0 0.29457752E+04</rscale>
<asrwt>0</asrwt>
<pdfrwt beam="1">  1        1 0.28658392E+00 0.29457752E+04</pdfrwt>
<pdfrwt beam="2">  1       -2 0.17916810E+00 0.29457752E+04</pdfrwt>
<totfact> 0.50992553E-01</totfact>
</mgrwt>
</event>
<event>
12    4  0.4486176E-008  0.1033829E+04  0.7818608E-02  0.9272201E-01
          1   -1    0    0  501    0  0.00000000000E+00  0.00000000000E+00  0.26355322199E+03  0.26355322199E+03  0.00000000000E+00 0. -1.
         -2   -1    0    0    0  501 -0.00000000000E+00 -0.00000000000E+00 -0.10138388219E+04  0.10138388219E+04  0.00000000000E+00 0.  1.
        -24    2    1    2    0    0 -0.74012054274E+02 -0.10006094443E+02 -0.33005818347E+02  0.11249531685E+03  0.77381562174E+02 0.  0.
        254    2    1    2    0    0  0.74012054274E+02  0.10006094443E+02 -0.71727978161E+03  0.11648967271E+04  0.91483123774E+03 0.  0.
         23    2    4    4    0    0 -0.32600108481E+03 -0.25901776930E+03 -0.34070669807E+03  0.54566664876E+03  0.91126973793E+02 0.  0.
         23    2    4    4    0    0  0.40001313908E+03  0.26902386374E+03 -0.37657308354E+03  0.61923007832E+03  0.96199022605E+02 0.  0.
          1    1    3    3  502    0 -0.53741592789E+02  0.13575440738E+02  0.13030419015E+02  0.56940699033E+02  0.00000000000E+00 0. -1.
         -2    1    3    3    0  502 -0.20270461485E+02 -0.23581535181E+02 -0.46036237362E+02  0.55554617817E+02  0.00000000000E+00 0.  1.
         11    1    5    5    0    0 -0.24004120329E+01 -0.79742850252E+01 -0.31249917427E+02  0.32340509253E+02  0.00000000000E+00 0.  1.
        -11    1    5    5    0    0 -0.32360067277E+03 -0.25104348427E+03 -0.30945678064E+03  0.51332613951E+03  0.00000000000E+00 0. -1.
          4    1    6    6  503    0  0.26670348418E+03  0.23127428036E+03 -0.27133204030E+03  0.44524107776E+03  0.00000000000E+00 0. -1.
         -4    1    6    6    0  503  0.13330965489E+03  0.37749583387E+02 -0.10524104323E+03  0.17398900056E+03  0.00000000000E+00 0.  1.
<mgrwt>
<rscale>  0 0.10338288E+04</rscale>
<asrwt>0</asrwt>
<pdfrwt beam="1">  1        1 0.40546650E-01 0.10338288E+04</pdfrwt>
<pdfrwt beam="2">  1       -2 0.15597520E+00 0.10338288E+04</pdfrwt>
<totfact> 0.24428066E+01</totfact>
</mgrwt>
</event>
<event>
12    4  0.4486176E-008  0.2053544E+04  0.7818608E-02  0.8581988E-01
         -2   -1    0    0    0  501 -0.00000000000E+00  0.00000000000E+00  0.37825978315E+03  0.37825978315E+03  0.00000000000E+00 0.  1.
          1   -1    0    0  501    0  0.00000000000E+00 -0.00000000000E+00 -0.27871349940E+04  0.27871349940E+04  0.00000000000E+00 0. -1.
        -24    2    1    2    0    0 -0.35995335042E+03  0.43202960059E+03 -0.32544201120E+02  0.56898662333E+03  0.80440426636E+02 0.  0.
        254    2    1    2    0    0  0.35995335042E+03 -0.43202960059E+03 -0.23763310098E+04  0.25964081538E+04  0.88213958257E+03 0.  0.
         23    2    4    4    0    0  0.31100835120E+03 -0.55018685099E+03 -0.85546699831E+03  0.10674719004E+04  0.90778342569E+02 0.  0.
         23    2    4    4    0    0  0.48944999214E+02  0.11815725040E+03 -0.15208640115E+04  0.15289362534E+04  0.90895417469E+02 0.  0.
          1    1    3    3  502    0 -0.23734751449E+02  0.24133327188E+02  0.17343567887E+02  0.38033606909E+02  0.00000000000E+00 0. -1.
         -2    1    3    3    0  502 -0.33621859897E+03  0.40789627340E+03 -0.49887769007E+02  0.53095301642E+03  0.00000000000E+00 0.  1.
         11    1    5    5    0    0  0.27104306990E+03 -0.50011875847E+03 -0.80607195798E+03  0.98657747782E+03  0.00000000000E+00 0. -1.
        -11    1    5    5    0    0  0.39965281303E+02 -0.50068092525E+02 -0.49395040331E+02  0.80894422601E+02  0.00000000000E+00 0.  1.
          4    1    6    6  503    0  0.45533861015E+02  0.75142102181E+02 -0.13445943701E+04  0.13474619431E+04  0.00000000000E+00 0. -1.
         -4    1    6    6    0  503  0.34111381990E+01  0.43015148220E+02 -0.17626964133E+03  0.18147431029E+03  0.00000000000E+00 0.  1.
<mgrwt>
<rscale>  0 0.20535443E+04</rscale>
<asrwt>0</asrwt>
<pdfrwt beam="1">  1        1 0.42878998E+00 0.20535443E+04</pdfrwt>
<pdfrwt beam="2">  1       -2 0.58193815E-01 0.20535443E+04</pdfrwt>
<totfact> 0.19095274E+00</totfact>
</mgrwt>
</event>
<event>
12    4  0.4486176E-008  0.3627481E+04  0.7818608E-02  0.8084226E-01
         -2   -1    0    0    0  501 -0.00000000000E+00  0.00000000000E+00  0.12649992888E+04  0.12649992888E+04  0.00000000000E+00 0.  1.
          1   -1    0    0  501    0  0.00000000000E+00 -0.00000000000E+00 -0.26005193335E+04  0.26005193335E+04  0.00000000000E+00 0. -1.
        -24    2    1    2    0    0 -0.15901777159E+04  0.18952477416E+03 -0.11626333953E+02  0.16034309775E+04  0.79189139693E+02 0.  0.
        254    2    1    2    0    0  0.15901777159E+04 -0.18952477416E+03 -0.13238937107E+04  0.22620876447E+04  0.89429365810E+03 0.  0.
         23    2    4    4    0    0  0.11261440936E+04 -0.26345829566E+03 -0.40928481039E+03  0.12302619841E+04  0.91758925967E+02 0.  0.
         23    2    4    4    0    0  0.46403362235E+03  0.73933521503E+02 -0.91460890036E+03  0.10318256606E+04  0.85798514273E+02 0.  0.
          3    1    3    3  502    0 -0.17892572227E+03  0.22295585998E+02  0.23739019413E+02  0.18186546755E+03  0.00000000000E+00 0. -1.
         -4    1    3    3    0  502 -0.14112519937E+04  0.16722918816E+03 -0.35365353365E+02  0.14215655100E+04  0.00000000000E+00 0.  1.
         11    1    5    5    0    0  0.10959100068E+04 -0.25711161875E+03 -0.38105688895E+03  0.11884146919E+04  0.00000000000E+00 0. -1.
        -11    1    5    5    0    0  0.30234086829E+02 -0.63466769102E+01 -0.28227921440E+02  0.41847292183E+02  0.00000000000E+00 0.  1.
          2    1    6    6  503    0  0.40482099181E+03  0.52420571273E+02 -0.72490770576E+03  0.83193697692E+03  0.00000000000E+00 0. -1.
         -2    1    6    6    0  503  0.59212630542E+02  0.21512950230E+02 -0.18970119459E+03  0.19988868370E+03  0.00000000000E+00 0.  1.
<mgrwt>
<rscale>  0 0.36274813E+04</rscale>
<asrwt>0</asrwt>
<pdfrwt beam="1">  1        1 0.40007989E+00 0.36274813E+04</pdfrwt>
<pdfrwt beam="2">  1       -2 0.19461528E+00 0.36274813E+04</pdfrwt>
<totfact> 0.11821656E-01</totfact>
</mgrwt>
</event>
<event>
12    4  0.4486176E-008  0.1241336E+04  0.7818608E-02  0.9077425E-01
          1   -1    0    0  501    0  0.00000000000E+00  0.00000000000E+00  0.10473786160E+04  0.10473786160E+04  0.00000000000E+00 0. -1.
         -2   -1    0    0    0  501 -0.00000000000E+00 -0.00000000000E+00 -0.36780298103E+03  0.36780298103E+03  0.00000000000E+00 0.  1.
        -24    2    1    2    0    0  0.28654536517E+03  0.30598863256E+02  0.15775934037E+03  0.33648721590E+03  0.72739949563E+02 0.  0.
        254    2    1    2    0    0 -0.28654536517E+03 -0.30598863256E+02  0.52181629457E+03  0.10786943811E+04  0.89902435217E+03 0.  0.
         23    2    4    4    0    0 -0.28181032943E+03 -0.42211754363E+03  0.41595811426E+03  0.66281715632E+03  0.93301379799E+02 0.  0.
         23    2    4    4    0    0 -0.47350357326E+01  0.39151868037E+03  0.10585818031E+03  0.41587722478E+03  0.91861929571E+02 0.  0.
          1    1    3    3  502    0  0.10209328694E+03 -0.22671850957E+02  0.66297268054E+02  0.12382398724E+03  0.00000000000E+00 0. -1.
         -2    1    3    3    0  502  0.18445207823E+03  0.53270714212E+02  0.91462072312E+02  0.21266322867E+03  0.00000000000E+00 0.  1.
         11    1    5    5    0    0 -0.15104288954E+03 -0.23173612430E+03  0.16651961278E+03  0.32286896293E+03  0.00000000000E+00 0.  1.
        -11    1    5    5    0    0 -0.13076743989E+03 -0.19038141933E+03  0.24943850148E+03  0.33994819339E+03  0.00000000000E+00 0. -1.
          2    1    6    6  503    0  0.38259959160E+02  0.13261830290E+03  0.18431134065E+02  0.13925209313E+03  0.00000000000E+00 0. -1.
         -2    1    6    6    0  503 -0.42994994892E+02  0.25890037747E+03  0.87427046246E+02  0.27662513164E+03  0.00000000000E+00 0.  1.
<mgrwt>
<rscale>  0 0.12413363E+04</rscale>
<asrwt>0</asrwt>
<pdfrwt beam="1">  1        1 0.16113517E+00 0.12413363E+04</pdfrwt>
<pdfrwt beam="2">  1       -2 0.56585074E-01 0.12413363E+04</pdfrwt>
<totfact> 0.35244180E+01</totfact>
</mgrwt>
</event>
<event>
12    4  0.4486176E-008  0.1673158E+04  0.7818608E-02  0.8776823E-01
         -2   -1    0    0    0  501 -0.00000000000E+00  0.00000000000E+00  0.56012146898E+03  0.56012146898E+03  0.00000000000E+00 0.  1.
          1   -1    0    0  501    0  0.00000000000E+00 -0.00000000000E+00 -0.12494867396E+04  0.12494867396E+04  0.00000000000E+00 0. -1.
        -24    2    1    2    0    0  0.21721326727E+03  0.28684666290E+03  0.26258483398E+03  0.45249734772E+03  0.79626899725E+02 0.  0.
        254    2    1    2    0    0 -0.21721326727E+03 -0.28684666290E+03 -0.95195010459E+03  0.13571108608E+04  0.89781862060E+03 0.  0.
         23    2    4    4    0    0 -0.29854695701E+03 -0.33372337146E+03 -0.66177200555E+02  0.46179185966E+03  0.91491669431E+02 0.  0.
         23    2    4    4    0    0  0.81333689743E+02  0.46876708558E+02 -0.88577290403E+03  0.89531900118E+03  0.90497963907E+02 0.  0.
          3    1    3    3  502    0  0.71491984905E+02  0.12306989395E+03  0.14723542029E+03  0.20478176601E+03  0.00000000000E+00 0. -1.
         -4    1    3    3    0  502  0.14572128236E+03  0.16377676895E+03  0.11534941369E+03  0.24771558170E+03  0.00000000000E+00 0.  1.
         11    1    5    5    0    0  0.76785711001E+00 -0.10160598361E+02 -0.14891115877E+02  0.18043633106E+02  0.00000000000E+00 0. -1.
        -11    1    5    5    0    0 -0.29931481412E+03 -0.32356277310E+03 -0.51286084678E+02  0.44374822655E+03  0.00000000000E+00 0.  1.
          4    1    6    6  503    0  0.66605569179E+02  0.59737599246E+02 -0.84872560448E+03  0.85342840023E+03  0.00000000000E+00 0.  1.
         -4    1    6    6    0  503  0.14728120564E+02 -0.12860890688E+02 -0.37047299548E+02  0.41890600955E+02  0.00000000000E+00 0. -1.
<mgrwt>
<rscale>  0 0.16731579E+04</rscale>
<asrwt>0</asrwt>
<pdfrwt beam="1">  1        1 0.19222873E+00 0.16731579E+04</pdfrwt>
<pdfrwt beam="2">  1       -2 0.86172534E-01 0.16731579E+04</pdfrwt>
<totfact> 0.96090167E+00</totfact>
</mgrwt>
</event>
<event>
12    4  0.4486176E-008  0.1996803E+04  0.7818608E-02  0.8608117E-01
          3   -1    0    0  501    0  0.00000000000E+00  0.00000000000E+00  0.25986893368E+04  0.25986893368E+04  0.00000000000E+00 0. -1.
         -4   -1    0    0    0  501 -0.00000000000E+00 -0.00000000000E+00 -0.38358022276E+03  0.38358022276E+03  0.00000000000E+00 0.  1.
        -24    2    1    2    0    0  0.33714264227E+03  0.70517896430E+03  0.66459927921E+03  0.10291505735E+04  0.80722785857E+02 0.  0.
        254    2    1    2    0    0 -0.33714264227E+03 -0.70517896430E+03  0.15505098348E+04  0.19531189860E+04  0.89423178914E+03 0.  0.
         23    2    4    4    0    0 -0.30741955310E+03 -0.73445189167E+03  0.61026628829E+03  0.10075468268E+04  0.93804598745E+02 0.  0.
         23    2    4    4    0    0 -0.29723089173E+02  0.29272927370E+02  0.94024354649E+03  0.94557215919E+03  0.91150508553E+02 0.  0.
          3    1    3    3  502    0  0.31866932084E+03  0.69120053225E+03  0.65468395101E+03  0.10039518851E+04  0.00000000000E+00 0. -1.
         -4    1    3    3    0  502  0.18473321427E+02  0.13978432055E+02  0.99153282042E+01  0.25198688471E+02  0.00000000000E+00 0.  1.
         11    1    5    5    0    0 -0.49167175593E+02 -0.51426129130E+02  0.46094597258E+02  0.84774818250E+02  0.00000000000E+00 0. -1.
        -11    1    5    5    0    0 -0.25825237750E+03 -0.68302576254E+03  0.56417169103E+03  0.92277200854E+03  0.00000000000E+00 0.  1.
          2    1    6    6  503    0  0.52266700022E+01 -0.26615886153E+02  0.46352582028E+03  0.46431875855E+03  0.00000000000E+00 0.  1.
         -2    1    6    6    0  503 -0.34949759175E+02  0.55888813523E+02  0.47671772622E+03  0.48125340064E+03  0.00000000000E+00 0. -1.
<mgrwt>
<rscale>  0 0.19968033E+04</rscale>
<asrwt>0</asrwt>
<pdfrwt beam="1">  1        3 0.39979835E+00 0.19968033E+04</pdfrwt>
<pdfrwt beam="2">  1       -4 0.59012344E-01 0.19968033E+04</pdfrwt>
<totfact> 0.64796515E-02</totfact>
</mgrwt>
</event>
<event>
12    4  0.4486176E-008  0.1173405E+04  0.7818608E-02  0.9136459E-01
          1   -1    0    0  501    0  0.00000000000E+00  0.00000000000E+00  0.14679136495E+04  0.14679136495E+04  0.00000000000E+00 0. -1.
         -2   -1    0    0    0  501 -0.00000000000E+00 -0.00000000000E+00 -0.23449597636E+03  0.23449597636E+03  0.00000000000E+00 0.  1.
        -24    2    1    2    0    0  0.76032665987E+01  0.20062030166E+03  0.46571411462E+03  0.51338621951E+03  0.79808888746E+02 0.  0.
        254    2    1    2    0    0 -0.76032665987E+01 -0.20062030166E+03  0.76770355849E+03  0.11890234063E+04  0.88549511119E+03 0.  0.
         23    2    4    4    0    0  0.24248863056E+03 -0.40665310122E+03  0.68996639468E+03  0.84210947375E+03  0.94484174923E+02 0.  0.
         23    2    4    4    0    0 -0.25009189715E+03  0.20603279956E+03  0.77737163812E+02  0.34691393256E+03  0.96492167838E+02 0.  0.
          3    1    3    3  502    0 -0.11520114565E+02  0.17454715696E+03  0.43472668729E+03  0.46860080632E+03  0.00000000000E+00 0. -1.
         -4    1    3    3    0  502  0.19123381164E+02  0.26073144701E+02  0.30987427325E+02  0.44785413182E+02  0.00000000000E+00 0.  1.
         11    1    5    5    0    0  0.18346284625E+03 -0.33424435720E+03  0.60886980739E+03  0.71840124487E+03  0.00000000000E+00 0. -1.
        -11    1    5    5    0    0  0.59025784302E+02 -0.72408744024E+02  0.81096587289E+02  0.12370822888E+03  0.00000000000E+00 0.  1.
          3    1    6    6  503    0 -0.15471429483E+03  0.16843673982E+03  0.20820027938E+02  0.22965391768E+03  0.00000000000E+00 0. -1.
         -3    1    6    6    0  503 -0.95377602328E+02  0.37596059740E+02  0.56917135874E+02  0.11726001488E+03  0.00000000000E+00 0.  1.
<mgrwt>
<rscale>  0 0.11734050E+04</rscale>
<asrwt>0</asrwt>
<pdfrwt beam="1">  1        1 0.22583286E+00 0.11734050E+04</pdfrwt>
<pdfrwt beam="2">  1       -2 0.36076305E-01 0.11734050E+04</pdfrwt>
<totfact> 0.43298474E+01</totfact>
</mgrwt>
</event>
<event>
12    4  0.4486176E-008  0.1637959E+04  0.7818608E-02  0.8797562E-01
          1   -1    0    0  501    0  0.00000000000E+00  0.00000000000E+00  0.26087352865E+04  0.26087352865E+04  0.00000000000E+00 0. -1.
         -2   -1    0    0    0  501 -0.00000000000E+00 -0.00000000000E+00 -0.25710837332E+03  0.25710837332E+03  0.00000000000E+00 0.  1.
        -24    2    1    2    0    0 -0.52665218775E+03 -0.11045319223E+03  0.48969405004E+03  0.73217439771E+03  0.81955179712E+02 0.  0.
        254    2    1    2    0    0  0.52665218775E+03  0.11045319223E+03  0.18619328631E+04  0.21336692621E+04  0.89229372895E+03 0.  0.
         23    2    4    4    0    0  0.72307352689E+03  0.26627751965E+03  0.14031521373E+04  0.16032956841E+04  0.89342528903E+02 0.  0.
         23    2    4    4    0    0 -0.19642133914E+03 -0.15582432742E+03  0.45878072582E+03  0.53037357801E+03  0.89184159880E+02 0.  0.
          3    1    3    3  502    0 -0.95324339446E+02 -0.86177129417E+01  0.12975133032E+03  0.16123399886E+03  0.00000000000E+00 0. -1.
         -4    1    3    3    0  502 -0.43132784830E+03 -0.10183547928E+03  0.35994271972E+03  0.57094039885E+03  0.00000000000E+00 0.  1.
         11    1    5    5    0    0  0.29270065568E+03  0.12446679976E+03  0.66509309872E+03  0.73723435083E+03  0.00000000000E+00 0. -1.
        -11    1    5    5    0    0  0.43037287121E+03  0.14181071989E+03  0.73805903856E+03  0.86606133325E+03  0.00000000000E+00 0.  1.
          2    1    6    6  503    0 -0.11110517672E+03 -0.13371640767E+03  0.25808694041E+03  0.31118050515E+03  0.00000000000E+00 0. -1.
         -2    1    6    6    0  503 -0.85316162426E+02 -0.22107919757E+02  0.20069378541E+03  0.21919307286E+03  0.00000000000E+00 0.  1.
<mgrwt>
<rscale>  0 0.16379593E+04</rscale>
<asrwt>0</asrwt>
<pdfrwt beam="1">  1        1 0.40134387E+00 0.16379593E+04</pdfrwt>
<pdfrwt beam="2">  1       -2 0.39555136E-01 0.16379593E+04</pdfrwt>
<totfact> 0.57906916E+00</totfact>
</mgrwt>
</event>
<event>
12    4  0.4486176E-008  0.2792511E+04  0.7818608E-02  0.8305597E-01
         -2   -1    0    0    0  501 -0.00000000000E+00  0.00000000000E+00  0.78353070153E+03  0.78353070153E+03  0.00000000000E+00 0.  1.
          1   -1    0    0  501    0  0.00000000000E+00 -0.00000000000E+00 -0.24881346589E+04  0.24881346589E+04  0.00000000000E+00 0. -1.
        -24    2    1    2    0    0  0.24730985623E+02 -0.12347941879E+04 -0.89614713053E+03  0.15279889844E+04  0.79638864550E+02 0.  0.
        254    2    1    2    0    0 -0.24730985623E+02  0.12347941879E+04 -0.80845682681E+03  0.17436763760E+04  0.92815761335E+03 0.  0.
         23    2    4    4    0    0  0.34085474690E+03  0.79705053208E+03 -0.77226352774E+03  0.11644567390E+04  0.89983507325E+02 0.  0.
         23    2    4    4    0    0 -0.36558573253E+03  0.43774365584E+03 -0.36193299068E+02  0.57921963698E+03  0.94408669655E+02 0.  0.
          1    1    3    3  502    0 -0.42748759233E+01 -0.69566781196E+02 -0.30323734846E+02  0.76008818601E+02  0.00000000000E+00 0. -1.
         -2    1    3    3    0  502  0.29005861546E+02 -0.11652274067E+04 -0.86582339569E+03  0.14519801658E+04  0.00000000000E+00 0.  1.
         11    1    5    5    0    0  0.21919948664E+03  0.45615570542E+03 -0.50107839937E+03  0.71218396841E+03  0.00000000000E+00 0.  1.
        -11    1    5    5    0    0  0.12165526026E+03  0.34089482665E+03 -0.27118512836E+03  0.45227277061E+03  0.00000000000E+00 0. -1.
          4    1    6    6  503    0 -0.18493064935E+03  0.15392886434E+03  0.20566841504E+01  0.24061934730E+03  0.00000000000E+00 0. -1.
         -4    1    6    6    0  503 -0.18065508318E+03  0.28381479150E+03 -0.38249983219E+02  0.33860028968E+03  0.00000000000E+00 0.  1.
<mgrwt>
<rscale>  0 0.27925113E+04</rscale>
<asrwt>0</asrwt>
<pdfrwt beam="1">  1        1 0.38278995E+00 0.27925113E+04</pdfrwt>
<pdfrwt beam="2">  1       -2 0.12054319E+00 0.27925113E+04</pdfrwt>
<totfact> 0.55216611E-01</totfact>
</mgrwt>
</event>
<event>
12    4  0.4486176E-008  0.1610714E+04  0.7818608E-02  0.8813993E-01
          1   -1    0    0  501    0  0.00000000000E+00  0.00000000000E+00  0.20462798577E+04  0.20462798577E+04  0.00000000000E+00 0. -1.
         -2   -1    0    0    0  501 -0.00000000000E+00 -0.00000000000E+00 -0.31696521591E+03  0.31696521591E+03  0.00000000000E+00 0.  1.
        -24    2    1    2    0    0 -0.54404829141E+03  0.13880442999E+03  0.73228651039E+03  0.92616938007E+03  0.79315661157E+02 0.  0.
        254    2    1    2    0    0  0.54404829141E+03 -0.13880442999E+03  0.99702813143E+03  0.14370756936E+04  0.86940568263E+03 0.  0.
         23    2    4    4    0    0  0.71871273718E+03 -0.16141832611E+01  0.94597833688E+03  0.11914561884E+04  0.90234310492E+02 0.  0.
         23    2    4    4    0    0 -0.17466444577E+03 -0.13719024673E+03  0.51049794544E+02  0.24561950519E+03  0.91618924867E+02 0.  0.
          1    1    3    3  502    0 -0.37462281489E+03  0.11427785794E+03  0.55924205252E+03  0.68275424243E+03  0.00000000000E+00 0. -1.
         -2    1    3    3    0  502 -0.16942547652E+03  0.24526572043E+02  0.17304445787E+03  0.24341513763E+03  0.00000000000E+00 0.  1.
         11    1    5    5    0    0  0.53363366119E+03  0.21128580037E+02  0.64504659114E+03  0.83743441892E+03  0.00000000000E+00 0.  1.
        -11    1    5    5    0    0  0.18507907599E+03 -0.22742763298E+02  0.30093174575E+03  0.35402176946E+03  0.00000000000E+00 0. -1.
          3    1    6    6  503    0 -0.77744033871E+02 -0.17007478513E+02 -0.87227087094E+01  0.80059195444E+02  0.00000000000E+00 0. -1.
         -3    1    6    6    0  503 -0.96920411896E+02 -0.12018276821E+03  0.59772503253E+02  0.16556030974E+03  0.00000000000E+00 0.  1.
<mgrwt>
<rscale>  0 0.16107136E+04</rscale>
<asrwt>0</asrwt>
<pdfrwt beam="1">  1        1 0.31481228E+00 0.16107136E+04</pdfrwt>
<pdfrwt beam="2">  1       -2 0.48763881E-01 0.16107136E+04</pdfrwt>
<totfact> 0.92961592E+00</totfact>
</mgrwt>
</event>
<event>
12    4  0.4486176E-008  0.2661031E+04  0.7818608E-02  0.8347761E-01
          1   -1    0    0  501    0  0.00000000000E+00  0.00000000000E+00  0.20212326303E+04  0.20212326303E+04  0.00000000000E+00 0. -1.
         -2   -1    0    0    0  501 -0.00000000000E+00 -0.00000000000E+00 -0.87583727260E+03  0.87583727260E+03  0.00000000000E+00 0.  1.
        -24    2    1    2    0    0 -0.20240847923E+02  0.11208243063E+04  0.11132739125E+03  0.11295521990E+04  0.82689568772E+02 0.  0.
        254    2    1    2    0    0  0.20240847923E+02 -0.11208243063E+04  0.10340679665E+04  0.17675177039E+04  0.89340106153E+03 0.  0.
         23    2    4    4    0    0 -0.19499284415E+03 -0.11306424521E+04  0.66114652554E+03  0.13272751366E+04  0.90388031819E+02 0.  0.
         23    2    4    4    0    0  0.21523369208E+03  0.98181458071E+01  0.37292144094E+03  0.44024256726E+03  0.91220495087E+02 0.  0.
          3    1    3    3  502    0 -0.11332355222E+02  0.18631917440E+02  0.13123438891E+01  0.21847033411E+02  0.00000000000E+00 0. -1.
         -4    1    3    3    0  502 -0.89084927003E+01  0.11021923889E+04  0.11001504736E+03  0.11077051656E+04  0.00000000000E+00 0.  1.
         11    1    5    5    0    0 -0.91643718781E+02 -0.36807676064E+03  0.18155346592E+03  0.42052435590E+03  0.00000000000E+00 0. -1.
        -11    1    5    5    0    0 -0.10334912537E+03 -0.76256569147E+03  0.47959305962E+03  0.90675078073E+03  0.00000000000E+00 0.  1.
          1    1    6    6  503    0  0.24314942918E+02 -0.21816278991E+02  0.21648094371E+02  0.39189366772E+02  0.00000000000E+00 0. -1.
         -1    1    6    6    0  503  0.19091874916E+03  0.31634424798E+02  0.35127334657E+03  0.40105320049E+03  0.00000000000E+00 0.  1.
<mgrwt>
<rscale>  0 0.26610305E+04</rscale>
<asrwt>0</asrwt>
<pdfrwt beam="1">  1        1 0.31095886E+00 0.26610305E+04</pdfrwt>
<pdfrwt beam="2">  1       -2 0.13474420E+00 0.26610305E+04</pdfrwt>
<totfact> 0.87995516E-01</totfact>
</mgrwt>
</event>
<event>
12    4  0.4486176E-008  0.1304571E+04  0.7818608E-02  0.9025949E-01
          1   -1    0    0  501    0  0.00000000000E+00  0.00000000000E+00  0.18395579063E+04  0.18395579063E+04  0.00000000000E+00 0. -1.
         -2   -1    0    0    0  501 -0.00000000000E+00 -0.00000000000E+00 -0.23129256680E+03  0.23129256680E+03  0.00000000000E+00 0.  1.
        -24    2    1    2    0    0 -0.15784473023E+03  0.16864174082E+03  0.79115356375E+03  0.82798386167E+03  0.79235838716E+02 0.  0.
        254    2    1    2    0    0  0.15784473023E+03 -0.16864174082E+03  0.81711177574E+03  0.12428666114E+04  0.90757410944E+03 0.  0.
         23    2    4    4    0    0 -0.24280594135E+03 -0.55018809941E+02 -0.56228921793E+02  0.27085726993E+03  0.90665177580E+02 0.  0.
         23    2    4    4    0    0  0.40065067158E+03 -0.11362293088E+03  0.87334069754E+03  0.97200934149E+03  0.92989541978E+02 0.  0.
          1    1    3    3  502    0 -0.14377181680E+03  0.17618009233E+03  0.71976876807E+03  0.75483563756E+03  0.00000000000E+00 0. -1.
         -2    1    3    3    0  502 -0.14072913432E+02 -0.75383515082E+01  0.71384795682E+02  0.73148224110E+02  0.00000000000E+00 0.  1.
         11    1    5    5    0    0 -0.20810398241E+02 -0.10111663314E+02  0.21314914532E+02  0.31458607589E+02  0.00000000000E+00 0. -1.
        -11    1    5    5    0    0 -0.22199554311E+03 -0.44907146626E+02 -0.77543836325E+02  0.23939866234E+03  0.00000000000E+00 0.  1.
          3    1    6    6  503    0  0.61999633737E+02 -0.34396486876E+02  0.22994018973E+03  0.24062328181E+03  0.00000000000E+00 0. -1.
         -3    1    6    6    0  503  0.33865103785E+03 -0.79226444004E+02  0.64340050780E+03  0.73138605969E+03  0.00000000000E+00 0.  1.
<mgrwt>
<rscale>  0 0.13045705E+04</rscale>
<asrwt>0</asrwt>
<pdfrwt beam="1">  1        1 0.28300890E+00 0.13045705E+04</pdfrwt>
<pdfrwt beam="2">  1       -2 0.35583473E-01 0.13045705E+04</pdfrwt>
<totfact> 0.24517937E+01</totfact>
</mgrwt>
</event>
<event>
12    4  0.4486176E-008  0.1674156E+04  0.7818608E-02  0.8776243E-01
         -2   -1    0    0    0  501 -0.00000000000E+00  0.00000000000E+00  0.12431561394E+04  0.12431561394E+04  0.00000000000E+00 0.  1.
          1   -1    0    0  501    0  0.00000000000E+00 -0.00000000000E+00 -0.56364535000E+03  0.56364535000E+03  0.00000000000E+00 0. -1.
        -24    2    1    2    0    0 -0.37814307710E+03 -0.44939195985E+03  0.20983062069E+03  0.62864510095E+03  0.78869849899E+02 0.  0.
        254    2    1    2    0    0  0.37814307710E+03  0.44939195985E+03  0.46968016867E+03  0.11781563884E+04  0.90692209942E+03 0.  0.
         23    2    4    4    0    0 -0.84708020779E+02 -0.21967431349E+03  0.18009441257E+03  0.30981176631E+03  0.90094840663E+02 0.  0.
         23    2    4    4    0    0  0.46285109788E+03  0.66906627334E+03  0.28958575610E+03  0.86834462212E+03  0.91003602593E+02 0.  0.
          3    1    3    3  502    0 -0.15378100172E+03 -0.17547754759E+03  0.12437849482E+03  0.26440683837E+03  0.00000000000E+00 0. -1.
         -4    1    3    3    0  502 -0.22436207538E+03 -0.27391441226E+03  0.85452125868E+02  0.36423826258E+03  0.00000000000E+00 0.  1.
         11    1    5    5    0    0 -0.31008098095E+02 -0.19771663759E+02  0.21324959146E+01  0.36837051648E+02  0.00000000000E+00 0. -1.
        -11    1    5    5    0    0 -0.53699922684E+02 -0.19990264973E+03  0.17796191666E+03  0.27297471467E+03  0.00000000000E+00 0.  1.
          4    1    6    6  503    0  0.38490740744E+02  0.24308785154E+02  0.27504441272E+02  0.53187859972E+02  0.00000000000E+00 0. -1.
         -4    1    6    6    0  503  0.42436035714E+03  0.64475748819E+03  0.26208131483E+03  0.81515676214E+03  0.00000000000E+00 0.  1.
<mgrwt>
<rscale>  0 0.16741555E+04</rscale>
<asrwt>0</asrwt>
<pdfrwt beam="1">  1        1 0.86714670E-01 0.16741555E+04</pdfrwt>
<pdfrwt beam="2">  1       -2 0.19125479E+00 0.16741555E+04</pdfrwt>
<totfact> 0.47490823E+00</totfact>
</mgrwt>
</event>
<event>
12    4  0.4486176E-008  0.1755720E+04  0.7818608E-02  0.8730208E-01
         -2   -1    0    0    0  501 -0.00000000000E+00  0.00000000000E+00  0.22793624261E+04  0.22793624261E+04  0.00000000000E+00 0.  1.
          1   -1    0    0  501    0  0.00000000000E+00 -0.00000000000E+00 -0.33809370818E+03  0.33809370818E+03  0.00000000000E+00 0. -1.
        -24    2    1    2    0    0  0.25430464968E+03 -0.35151582905E+03  0.14140396926E+04  0.14812264048E+04  0.79304331558E+02 0.  0.
        254    2    1    2    0    0 -0.25430464968E+03  0.35151582905E+03  0.52722902532E+03  0.11362297295E+04  0.90819233654E+03 0.  0.
         23    2    4    4    0    0 -0.24388898344E+03 -0.17954626089E+03 -0.77851577216E+02  0.32546081107E+03  0.90250625607E+02 0.  0.
         23    2    4    4    0    0 -0.10415666241E+02  0.53106208994E+03  0.60508060254E+03  0.81076891844E+03  0.95332439697E+02 0.  0.
          1    1    3    3  502    0  0.45504799870E+02 -0.11265789919E+03  0.32727007570E+03  0.34909624963E+03  0.00000000000E+00 0. -1.
         -2    1    3    3    0  502  0.20879984981E+03 -0.23885792987E+03  0.10867696169E+04  0.11321301551E+04  0.00000000000E+00 0.  1.
         11    1    5    5    0    0 -0.15391002602E+03 -0.10244301488E+03 -0.22453941982E+01  0.18489972743E+03  0.00000000000E+00 0. -1.
        -11    1    5    5    0    0 -0.89978957420E+02 -0.77103246012E+02 -0.75606183018E+02  0.14056108364E+03  0.00000000000E+00 0.  1.
          3    1    6    6  503    0  0.24776838751E+02  0.28169925256E+03  0.26459839596E+03  0.38727338119E+03  0.00000000000E+00 0. -1.
         -3    1    6    6    0  503 -0.35192504992E+02  0.24936283739E+03  0.34048220658E+03  0.42349553725E+03  0.00000000000E+00 0.  1.
<mgrwt>
<rscale>  0 0.17557199E+04</rscale>
<asrwt>0</asrwt>
<pdfrwt beam="1">  1        1 0.52014418E-01 0.17557199E+04</pdfrwt>
<pdfrwt beam="2">  1       -2 0.35067113E+00 0.17557199E+04</pdfrwt>
<totfact> 0.96016734E-01</totfact>
</mgrwt>
</event>
<event>
12    4  0.4486176E-008  0.1134680E+04  0.7818608E-02  0.9172034E-01
          1   -1    0    0  501    0  0.00000000000E+00  0.00000000000E+00  0.14434572793E+04  0.14434572793E+04  0.00000000000E+00 0. -1.
         -2   -1    0    0    0  501 -0.00000000000E+00 -0.00000000000E+00 -0.22298866553E+03  0.22298866553E+03  0.00000000000E+00 0.  1.
        -24    2    1    2    0    0  0.85650194590E+02 -0.83913799211E+02 -0.17867607627E+02  0.14544511261E+03  0.80358869136E+02 0.  0.
        254    2    1    2    0    0 -0.85650194590E+02  0.83913799211E+02  0.12383362214E+04  0.15210008322E+04  0.87497968709E+03 0.  0.
         23    2    4    4    0    0 -0.33551451153E+02 -0.25856741334E+03  0.50508017855E+02  0.28052494727E+03  0.90334816407E+02 0.  0.
         23    2    4    4    0    0 -0.52098743437E+02  0.34248121255E+03  0.11878282035E+04  0.12404758849E+04  0.88526380166E+02 0.  0.
          3    1    3    3  502    0  0.48228643338E+02 -0.35543690790E+02  0.30728728858E+02  0.67332093168E+02  0.00000000000E+00 0. -1.
         -4    1    3    3    0  502  0.37421551252E+02 -0.48370108421E+02 -0.48596336485E+02  0.78113019443E+02  0.00000000000E+00 0.  1.
         11    1    5    5    0    0 -0.40135530294E+02 -0.60385463429E+02 -0.10032284481E+02  0.73197757598E+02  0.00000000000E+00 0. -1.
        -11    1    5    5    0    0  0.65840791408E+01 -0.19818194991E+03  0.60540302337E+02  0.20732718967E+03  0.00000000000E+00 0.  1.
          3    1    6    6  503    0 -0.97851771612E+01  0.16972522420E+03  0.72455860078E+03  0.74423623090E+03  0.00000000000E+00 0. -1.
         -3    1    6    6    0  503 -0.42313566276E+02  0.17275598836E+03  0.46326960272E+03  0.49623965401E+03  0.00000000000E+00 0.  1.
<mgrwt>
<rscale>  0 0.11346799E+04</rscale>
<asrwt>0</asrwt>
<pdfrwt beam="1">  1        1 0.22207034E+00 0.11346799E+04</pdfrwt>
<pdfrwt beam="2">  1       -2 0.34305950E-01 0.11346799E+04</pdfrwt>
<totfact> 0.49721974E+01</totfact>
</mgrwt>
</event>
<event>
12    4  0.4486176E-008  0.1511748E+04  0.7818608E-02  0.8876678E-01
         -2   -1    0    0    0  501 -0.00000000000E+00  0.00000000000E+00  0.25653476694E+03  0.25653476694E+03  0.00000000000E+00 0.  1.
          1   -1    0    0  501    0  0.00000000000E+00 -0.00000000000E+00 -0.22271657883E+04  0.22271657883E+04  0.00000000000E+00 0. -1.
        -24    2    1    2    0    0  0.36693340545E+03 -0.31494499204E+03 -0.85981724596E+03  0.98960347136E+03  0.78732852204E+02 0.  0.
        254    2    1    2    0    0 -0.36693340545E+03  0.31494499204E+03 -0.11108137754E+04  0.14940970839E+04  0.87440744531E+03 0.  0.
         23    2    4    4    0    0 -0.36459035496E+03 -0.25128000813E+02 -0.54578287080E+02  0.38065671510E+03  0.91450543897E+02 0.  0.
         23    2    4    4    0    0 -0.23430504889E+01  0.34007299286E+03 -0.10562354883E+04  0.11134403688E+04  0.91983246835E+02 0.  0.
          1    1    3    3  502    0  0.50036976988E+02 -0.71358190381E+02 -0.11473481686E+03  0.14408250623E+03  0.00000000000E+00 0. -1.
         -2    1    3    3    0  502  0.31689642846E+03 -0.24358680166E+03 -0.74508242910E+03  0.84552096513E+03  0.00000000000E+00 0.  1.
         11    1    5    5    0    0 -0.71136158299E+02 -0.41047411417E+02 -0.21629110575E+02  0.84929744058E+02  0.00000000000E+00 0. -1.
        -11    1    5    5    0    0 -0.29345419666E+03  0.15919410604E+02 -0.32949176506E+02  0.29572697104E+03  0.00000000000E+00 0.  1.
          2    1    6    6  503    0 -0.11034387401E+02  0.14816811720E+03 -0.32430278692E+03  0.35671816082E+03  0.00000000000E+00 0. -1.
         -2    1    6    6    0  503  0.86913369123E+01  0.19190487566E+03 -0.73193270140E+03  0.75672220796E+03  0.00000000000E+00 0.  1.
<mgrwt>
<rscale>  0 0.15117479E+04</rscale>
<asrwt>0</asrwt>
<pdfrwt beam="1">  1        1 0.34264090E+00 0.15117479E+04</pdfrwt>
<pdfrwt beam="2">  1       -2 0.39466887E-01 0.15117479E+04</pdfrwt>
<totfact> 0.10768770E+01</totfact>
</mgrwt>
</event>
<event>
12    4  0.4486176E-008  0.2019906E+04  0.7818608E-02  0.8597370E-01
         -2   -1    0    0    0  501 -0.00000000000E+00  0.00000000000E+00  0.14501662655E+04  0.14501662655E+04  0.00000000000E+00 0.  1.
          1   -1    0    0  501    0  0.00000000000E+00 -0.00000000000E+00 -0.70337114823E+03  0.70337114823E+03  0.00000000000E+00 0. -1.
        -24    2    1    2    0    0  0.18362561113E+03 -0.29377363310E+03  0.10913896891E+04  0.11475742370E+04  0.75985943182E+02 0.  0.
        254    2    1    2    0    0 -0.18362561113E+03  0.29377363310E+03 -0.34459457182E+03  0.10059631767E+04  0.87931517746E+03 0.  0.
         23    2    4    4    0    0  0.28315335909E+03 -0.98601508200E+02 -0.20296705018E+03  0.37331681528E+03  0.90949100733E+02 0.  0.
         23    2    4    4    0    0 -0.46677897022E+03  0.39237514130E+03 -0.14162752164E+03  0.63264636139E+03  0.91335672871E+02 0.  0.
          1    1    3    3  502    0  0.12092111897E+03 -0.25011311360E+03  0.87917628863E+03  0.92202463801E+03  0.00000000000E+00 0. -1.
         -2    1    3    3    0  502  0.62704492162E+02 -0.43660519502E+02  0.21221340042E+03  0.22554959902E+03  0.00000000000E+00 0.  1.
         11    1    5    5    0    0  0.51675011260E+02 -0.32320881183E+02 -0.42032701051E+01  0.61095119516E+02  0.00000000000E+00 0.  1.
        -11    1    5    5    0    0  0.23147834783E+03 -0.66280627018E+02 -0.19876378008E+03  0.31222169576E+03  0.00000000000E+00 0. -1.
          3    1    6    6  503    0 -0.22338260733E+03  0.16642884154E+03 -0.21159230552E+02  0.27936725218E+03  0.00000000000E+00 0. -1.
         -3    1    6    6    0  503 -0.24339636290E+03  0.22594629976E+03 -0.12046829108E+03  0.35327910921E+03  0.00000000000E+00 0.  1.
<mgrwt>
<rscale>  0 0.20199060E+04</rscale>
<asrwt>0</asrwt>
<pdfrwt beam="1">  1        1 0.10821095E+00 0.20199060E+04</pdfrwt>
<pdfrwt beam="2">  1       -2 0.22310250E+00 0.20199060E+04</pdfrwt>
<totfact> 0.20716142E+00</totfact>
</mgrwt>
</event>
<event>
12    4  0.4486176E-008  0.2129495E+04  0.7818608E-02  0.8548361E-01
         -2   -1    0    0    0  501 -0.00000000000E+00  0.00000000000E+00  0.33606469635E+03  0.33606469635E+03  0.00000000000E+00 0.  1.
          1   -1    0    0  501    0  0.00000000000E+00 -0.00000000000E+00 -0.33734194976E+04  0.33734194976E+04  0.00000000000E+00 0. -1.
        -24    2    1    2    0    0 -0.59739139707E+03 -0.41866890616E+03 -0.20939316704E+04  0.22188542087E+04  0.81265151210E+02 0.  0.
        254    2    1    2    0    0  0.59739139707E+03  0.41866890616E+03 -0.94342313086E+03  0.14906299853E+04  0.89429883982E+03 0.  0.
         23    2    4    4    0    0  0.54017058505E+03  0.21442336822E+03 -0.76324292011E+02  0.59326884625E+03  0.91547171368E+02 0.  0.
         23    2    4    4    0    0  0.57220812022E+02  0.20424553794E+03 -0.86709883884E+03  0.89736113903E+03  0.91685093812E+02 0.  0.
          1    1    3    3  502    0 -0.52354674328E+03 -0.37547413024E+03 -0.19161000968E+04  0.20215146786E+04  0.00000000000E+00 0. -1.
         -2    1    3    3    0  502 -0.73844653797E+02 -0.43194775917E+02 -0.17783157363E+03  0.19733953011E+03  0.00000000000E+00 0.  1.
         11    1    5    5    0    0  0.11598032379E+03  0.22225708140E+02 -0.45486142413E+02  0.12654804131E+03  0.00000000000E+00 0.  1.
        -11    1    5    5    0    0  0.42419026126E+03  0.19219766008E+03 -0.30838149598E+02  0.46672080493E+03  0.00000000000E+00 0. -1.
          3    1    6    6  503    0  0.57416578390E+02  0.12528404289E+03 -0.68740467354E+03  0.70108340451E+03  0.00000000000E+00 0. -1.
         -3    1    6    6    0  503 -0.19576636765E+00  0.78961495050E+02 -0.17969416530E+03  0.19627773452E+03  0.00000000000E+00 0.  1.
<mgrwt>
<rscale>  0 0.21294950E+04</rscale>
<asrwt>0</asrwt>
<pdfrwt beam="1">  1        1 0.51898762E+00 0.21294950E+04</pdfrwt>
<pdfrwt beam="2">  1       -2 0.51702261E-01 0.21294950E+04</pdfrwt>
<totfact> 0.89585658E-01</totfact>
</mgrwt>
</event>
<event>
12    4  0.4486176E-008  0.2203422E+04  0.7818608E-02  0.8517005E-01
          1   -1    0    0  501    0  0.00000000000E+00  0.00000000000E+00  0.83282281243E+03  0.83282281243E+03  0.00000000000E+00 0. -1.
         -2   -1    0    0    0  501 -0.00000000000E+00 -0.00000000000E+00 -0.14574132141E+04  0.14574132141E+04  0.00000000000E+00 0.  1.
        -24    2    1    2    0    0  0.27449809533E+03  0.72138140275E+03 -0.77239325481E+03  0.10949334327E+04  0.80916928754E+02 0.  0.
        254    2    1    2    0    0 -0.27449809533E+03 -0.72138140275E+03  0.14780285313E+03  0.11953025938E+04  0.90064547681E+03 0.  0.
         23    2    4    4    0    0  0.63461213323E+02 -0.49484636020E+03  0.45177694876E+03  0.67966041680E+03  0.94528434556E+02 0.  0.
         23    2    4    4    0    0 -0.33795930865E+03 -0.22653504255E+03 -0.30397409562E+03  0.51564217705E+03  0.89173898252E+02 0.  0.
          3    1    3    3  502    0  0.18020721872E+02  0.32709150349E+02 -0.64665106877E+02  0.74674031502E+02  0.00000000000E+00 0. -1.
         -2    1    3    3    0  502  0.25647737346E+03  0.68867225240E+03 -0.70772814794E+03  0.10202594012E+04  0.00000000000E+00 0.  1.
         11    1    5    5    0    0 -0.14430396153E+02 -0.36639563120E+02  0.60098793077E+02  0.71850948832E+02  0.00000000000E+00 0.  1.
        -11    1    5    5    0    0  0.77891609476E+02 -0.45820679708E+03  0.39167815568E+03  0.60780946797E+03  0.00000000000E+00 0. -1.
          1    1    6    6  503    0 -0.25732093645E+03 -0.21421239350E+03 -0.23929447121E+03  0.41153718886E+03  0.00000000000E+00 0. -1.
         -1    1    6    6    0  503 -0.80638372201E+02 -0.12322649059E+02 -0.64679624411E+02  0.10410498819E+03  0.00000000000E+00 0.  1.
<mgrwt>
<rscale>  0 0.22034219E+04</rscale>
<asrwt>0</asrwt>
<pdfrwt beam="1">  1        1 0.12812659E+00 0.22034219E+04</pdfrwt>
<pdfrwt beam="2">  1       -2 0.22421742E+00 0.22034219E+04</pdfrwt>
<totfact> 0.15375565E+00</totfact>
</mgrwt>
</event>
<event>
12    4  0.4486176E-008  0.1511434E+04  0.7818608E-02  0.8876885E-01
         -2   -1    0    0    0  501 -0.00000000000E+00  0.00000000000E+00  0.20783566107E+03  0.20783566107E+03  0.00000000000E+00 0.  1.
          1   -1    0    0  501    0  0.00000000000E+00 -0.00000000000E+00 -0.27478822846E+04  0.27478822846E+04  0.00000000000E+00 0. -1.
        -24    2    1    2    0    0  0.24077520746E+02  0.28021750399E+03 -0.16633456642E+04  0.16888514609E+04  0.79993009589E+02 0.  0.
        254    2    1    2    0    0 -0.24077520746E+02 -0.28021750399E+03 -0.87670095934E+03  0.12668664849E+04  0.87019799000E+03 0.  0.
         23    2    4    4    0    0  0.20324973107E+03 -0.10292607922E+03  0.84704167038E+02  0.25913309072E+03  0.89838365013E+02 0.  0.
         23    2    4    4    0    0 -0.22732725181E+03 -0.17729142477E+03 -0.96140512638E+03  0.10077333941E+04  0.90093550992E+02 0.  0.
          3    1    3    3  502    0  0.84051585710E+01  0.47794264920E+02 -0.50418101936E+03  0.50651104502E+03  0.00000000000E+00 0. -1.
         -2    1    3    3    0  502  0.15672362175E+02  0.23242323907E+03 -0.11591646449E+04  0.11823404158E+04  0.00000000000E+00 0.  1.
         11    1    5    5    0    0  0.34981172458E+02 -0.89432633642E+01 -0.18430199079E+02  0.40538088562E+02  0.00000000000E+00 0.  1.
        -11    1    5    5    0    0  0.16826855861E+03 -0.93982815857E+02  0.10313436612E+03  0.21859500215E+03  0.00000000000E+00 0. -1.
          3    1    6    6  503    0 -0.98467058119E+02 -0.13299267652E+03 -0.50487498983E+03  0.53130176820E+03  0.00000000000E+00 0. -1.
         -3    1    6    6    0  503 -0.12886019369E+03 -0.44298748242E+02 -0.45653013655E+03  0.47643162594E+03  0.00000000000E+00 0.  1.
<mgrwt>
<rscale>  0 0.15114337E+04</rscale>
<asrwt>0</asrwt>
<pdfrwt beam="1">  1        1 0.42275113E+00 0.15114337E+04</pdfrwt>
<pdfrwt beam="2">  1       -2 0.31974716E-01 0.15114337E+04</pdfrwt>
<totfact> 0.70368394E+00</totfact>
</mgrwt>
</event>
<event>
12    4  0.4486176E-008  0.1145810E+04  0.7818608E-02  0.9161658E-01
          1   -1    0    0  501    0  0.00000000000E+00  0.00000000000E+00  0.92168465364E+03  0.92168465364E+03  0.00000000000E+00 0. -1.
         -2   -1    0    0    0  501 -0.00000000000E+00 -0.00000000000E+00 -0.35610864494E+03  0.35610864494E+03  0.00000000000E+00 0.  1.
        -24    2    1    2    0    0  0.16216504566E+02  0.14277941066E+03 -0.59741478325E+02  0.17382835224E+03  0.77448800385E+02 0.  0.
        254    2    1    2    0    0 -0.16216504566E+02 -0.14277941066E+03  0.62531748702E+03  0.11039649463E+04  0.89836947189E+03 0.  0.
         23    2    4    4    0    0  0.30756827710E+03  0.16803512893E+03  0.51771190260E+03  0.63197954944E+03  0.92403934912E+02 0.  0.
         23    2    4    4    0    0 -0.32378478167E+03 -0.31081453959E+03  0.10760558443E+03  0.47198539690E+03  0.98736974945E+02 0.  0.
          1    1    3    3  502    0 -0.38906736971E+01  0.16291566077E+02  0.17531668476E+02  0.24246893958E+02  0.00000000000E+00 0. -1.
         -2    1    3    3    0  502  0.20107178263E+02  0.12648784458E+03 -0.77273146801E+02  0.14958145828E+03  0.00000000000E+00 0.  1.
         11    1    5    5    0    0  0.30103160547E+03  0.17846827856E+03  0.49622052399E+03  0.60721146430E+03  0.00000000000E+00 0. -1.
        -11    1    5    5    0    0  0.65366716274E+01 -0.10433149631E+02  0.21491378600E+02  0.24768085137E+02  0.00000000000E+00 0.  1.
          1    1    6    6  503    0 -0.31951039871E+03 -0.30239555102E+03  0.12038636363E+03  0.45609521013E+03  0.00000000000E+00 0. -1.
         -1    1    6    6    0  503 -0.42743829596E+01 -0.84189885730E+01 -0.12780779203E+02  0.15890186762E+02  0.00000000000E+00 0.  1.
<mgrwt>
<rscale>  0 0.11458095E+04</rscale>
<asrwt>0</asrwt>
<pdfrwt beam="1">  1        1 0.14179764E+00 0.11458095E+04</pdfrwt>
<pdfrwt beam="2">  1       -2 0.54785946E-01 0.11458095E+04</pdfrwt>
<totfact> 0.47678977E+01</totfact>
</mgrwt>
</event>
<event>
12    4  0.4486176E-008  0.2201811E+04  0.7818608E-02  0.8517675E-01
         -2   -1    0    0    0  501 -0.00000000000E+00  0.00000000000E+00  0.13747349435E+04  0.13747349435E+04  0.00000000000E+00 0.  1.
          1   -1    0    0  501    0  0.00000000000E+00 -0.00000000000E+00 -0.88161900860E+03  0.88161900860E+03  0.00000000000E+00 0. -1.
        -24    2    1    2    0    0  0.44735413451E+02  0.57340770551E+03  0.93628982840E+03  0.11017178318E+04  0.79661057723E+02 0.  0.
        254    2    1    2    0    0 -0.44735413451E+02 -0.57340770551E+03 -0.44317389348E+03  0.11546361204E+04  0.89776601440E+03 0.  0.
         23    2    4    4    0    0  0.28752696103E+03 -0.25849051230E+03  0.12917008473E+03  0.41735655148E+03  0.89512468428E+02 0.  0.
         23    2    4    4    0    0 -0.33226237448E+03 -0.31491719320E+03 -0.57234397821E+03  0.73727956887E+03  0.80202301781E+02 0.  0.
          1    1    3    3  502    0  0.13614013707E+02  0.34267004121E+03  0.48625235831E+03  0.59502054962E+03  0.00000000000E+00 0. -1.
         -2    1    3    3    0  502  0.31121399743E+02  0.23073766430E+03  0.45003747010E+03  0.50669728215E+03  0.00000000000E+00 0.  1.
         11    1    5    5    0    0  0.21181480127E+03 -0.21133005715E+03  0.61674330172E+02  0.30549897887E+03  0.00000000000E+00 0. -1.
        -11    1    5    5    0    0  0.75712159763E+02 -0.47160455158E+02  0.67495754558E+02  0.11185757261E+03  0.00000000000E+00 0.  1.
          4    1    6    6  503    0 -0.16808903029E+03 -0.15189373572E+03 -0.22021707381E+03  0.31594491395E+03  0.00000000000E+00 0. -1.
         -4    1    6    6    0  503 -0.16417334419E+03 -0.16302345748E+03 -0.35212690440E+03  0.42133465492E+03  0.00000000000E+00 0.  1.
<mgrwt>
<rscale>  0 0.22018106E+04</rscale>
<asrwt>0</asrwt>
<pdfrwt beam="1">  1        1 0.13563369E+00 0.22018106E+04</pdfrwt>
<pdfrwt beam="2">  1       -2 0.21149768E+00 0.22018106E+04</pdfrwt>
<totfact> 0.16858236E+00</totfact>
</mgrwt>
</event>
<event>
12    4  0.4486176E-008  0.1924854E+04  0.7818608E-02  0.8642583E-01
         -2   -1    0    0    0  501 -0.00000000000E+00  0.00000000000E+00  0.54809753550E+03  0.54809753550E+03  0.00000000000E+00 0.  1.
          1   -1    0    0  501    0  0.00000000000E+00 -0.00000000000E+00 -0.16899656598E+04  0.16899656598E+04  0.00000000000E+00 0. -1.
        -24    2    1    2    0    0 -0.71110994615E+02  0.52665487530E+03 -0.11126757623E+04  0.12356651215E+04  0.79992557836E+02 0.  0.
        254    2    1    2    0    0  0.71110994615E+02 -0.52665487530E+03 -0.29192361986E+02  0.10023980738E+04  0.84942779155E+03 0.  0.
         23    2    4    4    0    0  0.16711037582E+03 -0.68376474832E+03 -0.19667174160E+03  0.73650306101E+03  0.91087189988E+02 0.  0.
         23    2    4    4    0    0 -0.95999381209E+02  0.15710987302E+03  0.16747937962E+03  0.26589501275E+03  0.93549034296E+02 0.  0.
          1    1    3    3  502    0 -0.50234353561E+02  0.50386309185E+03 -0.10415458409E+04  0.11581102039E+04  0.00000000000E+00 0. -1.
         -2    1    3    3    0  502 -0.20876641054E+02  0.22791783450E+02 -0.71129921327E+02  0.77554917591E+02  0.00000000000E+00 0.  1.
         11    1    5    5    0    0 -0.42737192997E+01 -0.11272175693E+03 -0.19049187409E+02  0.11439987195E+03  0.00000000000E+00 0.  1.
        -11    1    5    5    0    0  0.17138409512E+03 -0.57104299139E+03 -0.17762255419E+03  0.62210318906E+03  0.00000000000E+00 0. -1.
          4    1    6    6  503    0 -0.88042519620E+02  0.61666581362E+02  0.11189092208E+03  0.15515743928E+03  0.00000000000E+00 0. -1.
         -4    1    6    6    0  503 -0.79568615893E+01  0.95443291658E+02  0.55588457533E+02  0.11073757348E+03  0.00000000000E+00 0.  1.
<mgrwt>
<rscale>  0 0.19248543E+04</rscale>
<asrwt>0</asrwt>
<pdfrwt beam="1">  1        1 0.25999471E+00 0.19248543E+04</pdfrwt>
<pdfrwt beam="2">  1       -2 0.84322699E-01 0.19248543E+04</pdfrwt>
<totfact> 0.48694186E+00</totfact>
</mgrwt>
</event>
<event>
12    4  0.4486176E-008  0.1969800E+04  0.7818608E-02  0.8620872E-01
          1   -1    0    0  501    0  0.00000000000E+00  0.00000000000E+00  0.11990636143E+04  0.11990636143E+04  0.00000000000E+00 0. -1.
         -2   -1    0    0    0  501 -0.00000000000E+00 -0.00000000000E+00 -0.80898769927E+03  0.80898769927E+03  0.00000000000E+00 0.  1.
        -24    2    1    2    0    0 -0.56939076655E+02 -0.47197011018E+03 -0.46847158745E+03  0.67231242203E+03  0.80873488918E+02 0.  0.
        254    2    1    2    0    0  0.56939076655E+02  0.47197011018E+03  0.85854750249E+03  0.13357388915E+04  0.90614387875E+03 0.  0.
         23    2    4    4    0    0  0.45666477751E+03  0.22421826019E+03  0.29248198369E+03  0.59386225639E+03  0.91159868125E+02 0.  0.
         23    2    4    4    0    0 -0.39972570086E+03  0.24775184999E+03  0.56606551880E+03  0.74187663516E+03  0.93750493922E+02 0.  0.
          1    1    3    3  502    0 -0.40575802549E+02 -0.90200992708E+02 -0.11615537332E+03  0.15256043258E+03  0.00000000000E+00 0. -1.
         -2    1    3    3    0  502 -0.16363274106E+02 -0.38176911747E+03 -0.35231621413E+03  0.51975198945E+03  0.00000000000E+00 0.  1.
         11    1    5    5    0    0  0.45611965976E+03  0.20918944241E+03  0.28425915734E+03  0.57672232085E+03  0.00000000000E+00 0. -1.
        -11    1    5    5    0    0  0.54511775624E+00  0.15028817776E+02  0.82228263449E+01  0.17139935537E+02  0.00000000000E+00 0.  1.
          2    1    6    6  503    0 -0.27924003441E+03  0.13474371318E+03  0.32056124880E+03  0.44597127631E+03  0.00000000000E+00 0. -1.
         -2    1    6    6    0  503 -0.12048566645E+03  0.11300813682E+03  0.24550427000E+03  0.29590535885E+03  0.00000000000E+00 0.  1.
<mgrwt>
<rscale>  0 0.19697997E+04</rscale>
<asrwt>0</asrwt>
<pdfrwt beam="1">  1        1 0.18447133E+00 0.19697997E+04</pdfrwt>
<pdfrwt beam="2">  1       -2 0.12445965E+00 0.19697997E+04</pdfrwt>
<totfact> 0.42324005E+00</totfact>
</mgrwt>
</event>
<event>
12    4  0.4486176E-008  0.1435797E+04  0.7818608E-02  0.8928307E-01
          1   -1    0    0  501    0  0.00000000000E+00  0.00000000000E+00  0.81015581362E+03  0.81015581362E+03  0.00000000000E+00 0. -1.
         -2   -1    0    0    0  501 -0.00000000000E+00 -0.00000000000E+00 -0.63614734906E+03  0.63614734906E+03  0.00000000000E+00 0.  1.
        -24    2    1    2    0    0  0.12303393431E+03  0.57300062461E+02  0.46880465261E+03  0.49968233751E+03  0.10716337977E+03 0.  0.
        254    2    1    2    0    0 -0.12303393431E+03 -0.57300062461E+02 -0.29479618805E+03  0.94662082517E+03  0.88924999185E+03 0.  0.
         23    2    4    4    0    0  0.18924610110E+03  0.10433556946E+03  0.21686420526E+03  0.31912435423E+03  0.90057049172E+02 0.  0.
         23    2    4    4    0    0 -0.31228003540E+03 -0.16163563192E+03 -0.51166039331E+03  0.62749647094E+03  0.91162300012E+02 0.  0.
          3    1    3    3  502    0  0.96985635061E+02  0.50238320210E+02  0.45760910640E+03  0.47046380996E+03  0.00000000000E+00 0. -1.
         -4    1    3    3    0  502  0.26048299244E+02  0.70617422508E+01  0.11195546212E+02  0.29218527549E+02  0.00000000000E+00 0.  1.
         11    1    5    5    0    0  0.13568944007E+03  0.26385608618E+02  0.11198140986E+03  0.17789789387E+03  0.00000000000E+00 0. -1.
        -11    1    5    5    0    0  0.53556661026E+02  0.77949960845E+02  0.10488279539E+03  0.14122646036E+03  0.00000000000E+00 0.  1.
          4    1    6    6  503    0 -0.23351662645E+03 -0.81640791639E+02 -0.39103919674E+03  0.46271685411E+03  0.00000000000E+00 0. -1.
         -4    1    6    6    0  503 -0.78763408948E+02 -0.79994840285E+02 -0.12062119657E+03  0.16477961683E+03  0.00000000000E+00 0.  1.
<mgrwt>
<rscale>  0 0.14357973E+04</rscale>
<asrwt>0</asrwt>
<pdfrwt beam="1">  1        1 0.12463936E+00 0.14357973E+04</pdfrwt>
<pdfrwt beam="2">  1       -2 0.97868823E-01 0.14357973E+04</pdfrwt>
<totfact> 0.16039964E+01</totfact>
</mgrwt>
</event>
<event>
12    4  0.4486176E-008  0.1228321E+04  0.7818608E-02  0.9088422E-01
          1   -1    0    0  501    0  0.00000000000E+00  0.00000000000E+00  0.37089694877E+03  0.37089694877E+03  0.00000000000E+00 0. -1.
         -2   -1    0    0    0  501 -0.00000000000E+00 -0.00000000000E+00 -0.10169751463E+04  0.10169751463E+04  0.00000000000E+00 0.  1.
        -24    2    1    2    0    0 -0.97986506039E+02  0.24141657987E+03 -0.24122983398E+03  0.36367896021E+03  0.78658965767E+02 0.  0.
        254    2    1    2    0    0  0.97986506039E+02 -0.24141657987E+03 -0.40484836359E+03  0.10241931349E+04  0.90398343994E+03 0.  0.
         23    2    4    4    0    0 -0.22908881182E+03  0.22551952724E+03 -0.29744026537E+02  0.33534198327E+03  0.90712721034E+02 0.  0.
         23    2    4    4    0    0  0.32707531786E+03 -0.46693610711E+03 -0.37510433706E+03  0.68885115164E+03  0.93835247993E+02 0.  0.
          1    1    3    3  502    0 -0.24532410692E+02  0.63442361685E+01 -0.29566374104E+02  0.38939170311E+02  0.00000000000E+00 0. -1.
         -2    1    3    3    0  502 -0.73454095347E+02  0.23507234370E+03 -0.21166345988E+03  0.32473978990E+03  0.00000000000E+00 0.  1.
         11    1    5    5    0    0 -0.15956380084E+03  0.94631891587E+02 -0.94907347841E+01  0.18575757182E+03  0.00000000000E+00 0. -1.
        -11    1    5    5    0    0 -0.69525010981E+02  0.13088763566E+03 -0.20253291753E+02  0.14958441144E+03  0.00000000000E+00 0.  1.
          3    1    6    6  503    0  0.20980965512E+03 -0.22034714697E+03 -0.21132449281E+03  0.37044702431E+03  0.00000000000E+00 0. -1.
         -3    1    6    6    0  503  0.11726566274E+03 -0.24658896014E+03 -0.16377984425E+03  0.31840412733E+03  0.00000000000E+00 0.  1.
<mgrwt>
<rscale>  0 0.12283208E+04</rscale>
<asrwt>0</asrwt>
<pdfrwt beam="1">  1        1 0.57061069E-01 0.12283208E+04</pdfrwt>
<pdfrwt beam="2">  1       -2 0.15645772E+00 0.12283208E+04</pdfrwt>
<totfact> 0.15301861E+01</totfact>
</mgrwt>
</event>
<event>
12    4  0.4486176E-008  0.1773116E+04  0.7818608E-02  0.8720728E-01
          1   -1    0    0  501    0  0.00000000000E+00  0.00000000000E+00  0.39113223677E+03  0.39113223677E+03  0.00000000000E+00 0. -1.
         -2   -1    0    0    0  501 -0.00000000000E+00 -0.00000000000E+00 -0.20095120100E+04  0.20095120100E+04  0.00000000000E+00 0.  1.
        -24    2    1    2    0    0 -0.43429371985E+03  0.16324257949E+03  0.25575926214E+02  0.47142631971E+03  0.79557979171E+02 0.  0.
        254    2    1    2    0    0  0.43429371985E+03 -0.16324257949E+03 -0.16439556995E+04  0.19292179271E+04  0.89667847834E+03 0.  0.
         23    2    4    4    0    0  0.13336205123E+03  0.31923499736E+03 -0.10138625684E+04  0.10752012790E+04  0.91891579997E+02 0.  0.
         23    2    4    4    0    0  0.30093166862E+03 -0.48247757684E+03 -0.63009313110E+03  0.85401664814E+03  0.94776579903E+02 0.  0.
          1    1    3    3  502    0 -0.21429607982E+03  0.96100674177E+02  0.49990119217E+02  0.24011905677E+03  0.00000000000E+00 0. -1.
         -2    1    3    3    0  502 -0.21999764003E+03  0.67141905308E+02 -0.24414193003E+02  0.23130726294E+03  0.00000000000E+00 0.  1.
         11    1    5    5    0    0 -0.13093099649E+02  0.31533977249E+02 -0.12286679983E+03  0.12752282729E+03  0.00000000000E+00 0.  1.
        -11    1    5    5    0    0  0.14645515088E+03  0.28770102011E+03 -0.89099576857E+03  0.94767845169E+03  0.00000000000E+00 0. -1.
          1    1    6    6  503    0  0.18839886008E+03 -0.26629894703E+03 -0.29604416489E+03  0.44051266410E+03  0.00000000000E+00 0. -1.
         -1    1    6    6    0  503  0.11253280855E+03 -0.21617862981E+03 -0.33404896621E+03  0.41350398404E+03  0.00000000000E+00 0.  1.
<mgrwt>
<rscale>  0 0.17731158E+04</rscale>
<asrwt>0</asrwt>
<pdfrwt beam="1">  1        1 0.60174189E-01 0.17731158E+04</pdfrwt>
<pdfrwt beam="2">  1       -2 0.30915570E+00 0.17731158E+04</pdfrwt>
<totfact> 0.14310472E+00</totfact>
</mgrwt>
</event>
<event>
12    4  0.4486176E-008  0.3024432E+04  0.7818608E-02  0.8236788E-01
          1   -1    0    0  501    0  0.00000000000E+00  0.00000000000E+00  0.17122255020E+04  0.17122255020E+04  0.00000000000E+00 0. -1.
         -2   -1    0    0    0  501 -0.00000000000E+00 -0.00000000000E+00 -0.13355702325E+04  0.13355702325E+04  0.00000000000E+00 0.  1.
        -24    2    1    2    0    0  0.80195661721E+03 -0.88054445389E+03 -0.52350296483E+03  0.13036622653E+04  0.83588256047E+02 0.  0.
        254    2    1    2    0    0 -0.80195661721E+03  0.88054445389E+03  0.90015823436E+03  0.17441334692E+04  0.90178919944E+03 0.  0.
         23    2    4    4    0    0 -0.42307188583E+03  0.70188876097E+03  0.92813721757E+02  0.83004664234E+03  0.93409786205E+02 0.  0.
         23    2    4    4    0    0 -0.37888473138E+03  0.17865569292E+03  0.80734451261E+03  0.91408682683E+03  0.90983892346E+02 0.  0.
          3    1    3    3  502    0  0.50688934098E+02 -0.61698239838E+02 -0.58710068860E+02  0.99110610051E+02  0.00000000000E+00 0. -1.
         -4    1    3    3    0  502  0.75126768311E+03 -0.81884621405E+03 -0.46479289597E+03  0.12045516552E+04  0.00000000000E+00 0.  1.
         11    1    5    5    0    0 -0.26991844047E+03  0.47488191569E+03  0.19573751399E+02  0.54658204334E+03  0.00000000000E+00 0. -1.
        -11    1    5    5    0    0 -0.15315344537E+03  0.22700684527E+03  0.73239970358E+02  0.28346459900E+03  0.00000000000E+00 0.  1.
          4    1    6    6  503    0 -0.32069040031E+03  0.16422271440E+03  0.74522975696E+03  0.82775529200E+03  0.00000000000E+00 0. -1.
         -4    1    6    6    0  503 -0.58194331064E+02  0.14432978520E+02  0.62114755647E+02  0.86331534829E+02  0.00000000000E+00 0.  1.
<mgrwt>
<rscale>  0 0.30244321E+04</rscale>
<asrwt>0</asrwt>
<pdfrwt beam="1">  1        1 0.26341931E+00 0.30244321E+04</pdfrwt>
<pdfrwt beam="2">  1       -2 0.20547234E+00 0.30244321E+04</pdfrwt>
<totfact> 0.42738359E-01</totfact>
</mgrwt>
</event>
<event>
12    4  0.4486176E-008  0.1733608E+04  0.7818608E-02  0.8742425E-01
          1   -1    0    0  501    0  0.00000000000E+00  0.00000000000E+00  0.90173803544E+03  0.90173803544E+03  0.00000000000E+00 0. -1.
         -2   -1    0    0    0  501 -0.00000000000E+00 -0.00000000000E+00 -0.83322377443E+03  0.83322377443E+03  0.00000000000E+00 0.  1.
        -24    2    1    2    0    0 -0.29766919111E+03 -0.39157424427E+03 -0.36628698294E+03  0.61858631665E+03  0.80904518876E+02 0.  0.
        254    2    1    2    0    0  0.29766919111E+03  0.39157424427E+03  0.43480124395E+03  0.11163754932E+04  0.90294229274E+03 0.  0.
         23    2    4    4    0    0 -0.71085275916E+02 -0.57385086810E+02 -0.20793418513E+03  0.24516649550E+03  0.92324539168E+02 0.  0.
         23    2    4    4    0    0  0.36875446702E+03  0.44895933108E+03  0.64273542907E+03  0.87120899772E+03  0.91388992821E+02 0.  0.
          1    1    3    3  502    0 -0.13652353356E+03 -0.16715474299E+03 -0.11226966798E+03  0.24327733488E+03  0.00000000000E+00 0. -1.
         -2    1    3    3    0  502 -0.16114565755E+03 -0.22441950128E+03 -0.25401731496E+03  0.37530898178E+03  0.00000000000E+00 0.  1.
         11    1    5    5    0    0 -0.15798310173E+02 -0.46368647030E+02 -0.27600202509E+02  0.56226410256E+02  0.00000000000E+00 0.  1.
        -11    1    5    5    0    0 -0.55286965743E+02 -0.11016439780E+02 -0.18033398262E+03  0.18894008525E+03  0.00000000000E+00 0. -1.
          2    1    6    6  503    0  0.12408029981E+03  0.22103208900E+03  0.29005418629E+03  0.38520453807E+03  0.00000000000E+00 0.  1.
         -2    1    6    6    0  503  0.24467416722E+03  0.22792724208E+03  0.35268124278E+03  0.48600445965E+03  0.00000000000E+00 0. -1.
<mgrwt>
<rscale>  0 0.17336085E+04</rscale>
<asrwt>0</asrwt>
<pdfrwt beam="1">  1        1 0.13872893E+00 0.17336085E+04</pdfrwt>
<pdfrwt beam="2">  1       -2 0.12818827E+00 0.17336085E+04</pdfrwt>
<totfact> 0.67862087E+00</totfact>
</mgrwt>
</event>
<event>
12    4  0.4486176E-008  0.1502860E+04  0.7818608E-02  0.8882553E-01
          1   -1    0    0  501    0  0.00000000000E+00  0.00000000000E+00  0.78648069063E+03  0.78648069063E+03  0.00000000000E+00 0. -1.
         -2   -1    0    0    0  501 -0.00000000000E+00 -0.00000000000E+00 -0.71794115206E+03  0.71794115206E+03  0.00000000000E+00 0.  1.
        -24    2    1    2    0    0  0.28391074333E+03  0.33659825562E+03  0.20776254301E+03  0.49335113536E+03  0.79538497736E+02 0.  0.
        254    2    1    2    0    0 -0.28391074333E+03 -0.33659825562E+03 -0.13922300443E+03  0.10110707073E+04  0.89943161741E+03 0.  0.
         23    2    4    4    0    0  0.22912775730E+03  0.14826341913E+03  0.58461959445E+01  0.28471857413E+03  0.80925384318E+02 0.  0.
         23    2    4    4    0    0 -0.51303850064E+03 -0.48486167475E+03 -0.14506920038E+03  0.72635213321E+03  0.90790978307E+02 0.  0.
          1    1    3    3  502    0  0.28788278650E+03  0.32134455376E+03  0.19714931019E+03  0.47434868135E+03  0.00000000000E+00 0. -1.
         -2    1    3    3    0  502 -0.39720431726E+01  0.15253701864E+02  0.10613232820E+02  0.19002454011E+02  0.00000000000E+00 0.  1.
         11    1    5    5    0    0  0.49258693193E+02  0.98525040780E+00  0.16619109697E+02  0.51996003506E+02  0.00000000000E+00 0. -1.
        -11    1    5    5    0    0  0.17986906411E+03  0.14727816872E+03 -0.10772913753E+02  0.23272257062E+03  0.00000000000E+00 0.  1.
          4    1    6    6  503    0 -0.16502545944E+03 -0.12122344722E+03 -0.90586387673E+01  0.20496483931E+03  0.00000000000E+00 0. -1.
         -4    1    6    6    0  503 -0.34801304120E+03 -0.36363822753E+03 -0.13601056161E+03  0.52138729389E+03  0.00000000000E+00 0.  1.
<mgrwt>
<rscale>  0 0.15028597E+04</rscale>
<asrwt>0</asrwt>
<pdfrwt beam="1">  1        1 0.12099703E+00 0.15028597E+04</pdfrwt>
<pdfrwt beam="2">  1       -2 0.11045249E+00 0.15028597E+04</pdfrwt>
<totfact> 0.12521157E+01</totfact>
</mgrwt>
</event>
<event>
12    4  0.4486176E-008  0.1168232E+04  0.7818608E-02  0.9141127E-01
         -2   -1    0    0    0  501 -0.00000000000E+00  0.00000000000E+00  0.36710173737E+03  0.36710173737E+03  0.00000000000E+00 0.  1.
          1   -1    0    0  501    0  0.00000000000E+00 -0.00000000000E+00 -0.92941939896E+03  0.92941939896E+03  0.00000000000E+00 0. -1.
        -24    2    1    2    0    0  0.22294658396E+03 -0.62936205387E+02 -0.16659744567E+03  0.29627324897E+03  0.79730696135E+02 0.  0.
        254    2    1    2    0    0 -0.22294658396E+03  0.62936205387E+02 -0.39572021592E+03  0.10002478874E+04  0.88895174313E+03 0.  0.
         23    2    4    4    0    0  0.33350091099E+03  0.87776534444E+02 -0.13783999684E+03  0.37999917107E+03  0.80448291785E+02 0.  0.
         23    2    4    4    0    0 -0.55644749495E+03 -0.24840329057E+02 -0.25788021908E+03  0.62024871629E+03  0.89193083124E+02 0.  0.
          3    1    3    3  502    0  0.16355302266E+03 -0.58487534401E+02 -0.16033561406E+03  0.23638505037E+03  0.00000000000E+00 0. -1.
         -4    1    3    3    0  502  0.59393561292E+02 -0.44486709862E+01 -0.62618316090E+01  0.59888198600E+02  0.00000000000E+00 0.  1.
         11    1    5    5    0    0  0.50735279524E+02  0.39670761163E+02 -0.71475932741E+01  0.64799120127E+02  0.00000000000E+00 0.  1.
        -11    1    5    5    0    0  0.28276563147E+03  0.48105773280E+02 -0.13069240357E+03  0.31520005094E+03  0.00000000000E+00 0. -1.
          4    1    6    6  503    0 -0.38295619849E+03 -0.57959792039E+02 -0.17032006302E+03  0.42311193711E+03  0.00000000000E+00 0.  1.
         -4    1    6    6    0  503 -0.17349129646E+03  0.33119462982E+02 -0.87560156061E+02  0.19713677918E+03  0.00000000000E+00 0. -1.
<mgrwt>
<rscale>  0 0.11682320E+04</rscale>
<asrwt>0</asrwt>
<pdfrwt beam="1">  1        1 0.14298760E+00 0.11682320E+04</pdfrwt>
<pdfrwt beam="2">  1       -2 0.56477190E-01 0.11682320E+04</pdfrwt>
<totfact> 0.44041305E+01</totfact>
</mgrwt>
</event>
<event>
12    4  0.4486176E-008  0.1429683E+04  0.7818608E-02  0.8932608E-01
         -2   -1    0    0    0  501 -0.00000000000E+00  0.00000000000E+00  0.40353454793E+03  0.40353454793E+03  0.00000000000E+00 0.  1.
          3   -1    0    0  501    0  0.00000000000E+00 -0.00000000000E+00 -0.12663071846E+04  0.12663071846E+04  0.00000000000E+00 0. -1.
        -24    2    1    2    0    0 -0.53570197500E+02 -0.28203431330E+03  0.10192856684E+03  0.31441938163E+03  0.77826697630E+02 0.  0.
        254    2    1    2    0    0  0.53570197500E+02  0.28203431330E+03 -0.96470120353E+03  0.13554223509E+04  0.90780406332E+03 0.  0.
         23    2    4    4    0    0  0.40887317709E+03  0.99340145254E+02 -0.81024004333E+03  0.91752344190E+03  0.91184424205E+02 0.  0.
         23    2    4    4    0    0 -0.35530297959E+03  0.18269416805E+03 -0.15446116021E+03  0.43789890904E+03  0.90993616193E+02 0.  0.
          3    1    3    3  502    0  0.41614582387E+01 -0.64122440162E+02 -0.59013737486E+01  0.64527755882E+02  0.00000000000E+00 0. -1.
         -4    1    3    3    0  502 -0.57731655739E+02 -0.21791187314E+03  0.10782994059E+03  0.24989162574E+03  0.00000000000E+00 0.  1.
         11    1    5    5    0    0  0.29871995727E+03  0.30560454815E+02 -0.58332439755E+03  0.65607538214E+03  0.00000000000E+00 0. -1.
        -11    1    5    5    0    0  0.11015321981E+03  0.68779690439E+02 -0.22691564578E+03  0.26144805976E+03  0.00000000000E+00 0.  1.
          2    1    6    6  503    0 -0.41363892928E+02  0.14926657860E+02 -0.50732614754E+02  0.67138475949E+02  0.00000000000E+00 0.  1.
         -2    1    6    6    0  503 -0.31393908666E+03  0.16776751019E+03 -0.10372854545E+03  0.37076043309E+03  0.00000000000E+00 0. -1.
<mgrwt>
<rscale>  0 0.14296835E+04</rscale>
<asrwt>0</asrwt>
<pdfrwt beam="1">  1        3 0.19481649E+00 0.14296835E+04</pdfrwt>
<pdfrwt beam="2">  1       -2 0.62082239E-01 0.14296835E+04</pdfrwt>
<totfact> 0.15275226E+00</totfact>
</mgrwt>
</event>
<event>
12    4  0.4486176E-008  0.3721737E+04  0.7818608E-02  0.8063162E-01
          1   -1    0    0  501    0  0.00000000000E+00  0.00000000000E+00  0.23143021062E+04  0.23143021062E+04  0.00000000000E+00 0. -1.
         -2   -1    0    0    0  501 -0.00000000000E+00 -0.00000000000E+00 -0.14962747665E+04  0.14962747665E+04  0.00000000000E+00 0.  1.
        -24    2    1    2    0    0 -0.25433657652E+03 -0.11126775363E+04  0.17455527024E+04  0.20871970470E+04  0.81846699172E+02 0.  0.
        254    2    1    2    0    0  0.25433657652E+03  0.11126775363E+04 -0.92752536269E+03  0.17233798258E+04  0.89832974541E+03 0.  0.
         23    2    4    4    0    0 -0.23978047316E+03  0.43130322896E+03 -0.67330495592E+03  0.83951399424E+03  0.89033882515E+02 0.  0.
         23    2    4    4    0    0  0.49411704969E+03  0.68137430733E+03 -0.25422040677E+03  0.88386583153E+03  0.90378025191E+02 0.  0.
          3    1    3    3  502    0 -0.22278471351E+03 -0.99859830316E+03  0.16058210682E+04  0.19040727147E+04  0.00000000000E+00 0. -1.
         -4    1    3    3    0  502 -0.31551863017E+02 -0.11407923313E+03  0.13973163416E+03  0.18312433229E+03  0.00000000000E+00 0.  1.
         11    1    5    5    0    0 -0.19562587853E+03  0.40130907555E+03 -0.62058518447E+03  0.76448965307E+03  0.00000000000E+00 0.  1.
        -11    1    5    5    0    0 -0.44154594631E+02  0.29994153410E+02 -0.52719771447E+02  0.75024341165E+02  0.00000000000E+00 0. -1.
          3    1    6    6  503    0  0.30530884793E+01 -0.25300641918E+01  0.10002583690E+01  0.40893875926E+01  0.00000000000E+00 0. -1.
         -3    1    6    6    0  503  0.49106396121E+03  0.68390437153E+03 -0.25522066514E+03  0.87977644393E+03  0.00000000000E+00 0.  1.
<mgrwt>
<rscale>  0 0.37217371E+04</rscale>
<asrwt>0</asrwt>
<pdfrwt beam="1">  1        1 0.35604648E+00 0.37217371E+04</pdfrwt>
<pdfrwt beam="2">  1       -2 0.23019612E+00 0.37217371E+04</pdfrwt>
<totfact> 0.10929372E-01</totfact>
</mgrwt>
</event>
<event>
12    4  0.4486176E-008  0.1751366E+04  0.7818608E-02  0.8732599E-01
         -2   -1    0    0    0  501 -0.00000000000E+00  0.00000000000E+00  0.17081612987E+04  0.17081612987E+04  0.00000000000E+00 0.  1.
          1   -1    0    0  501    0  0.00000000000E+00 -0.00000000000E+00 -0.44891600144E+03  0.44891600144E+03  0.00000000000E+00 0. -1.
        -24    2    1    2    0    0  0.53636289526E+02  0.60646514138E+03  0.70930071021E+03  0.93768543637E+03  0.73957155269E+02 0.  0.
        254    2    1    2    0    0 -0.53636289526E+02 -0.60646514138E+03  0.54994458709E+03  0.12193918638E+04  0.90210900083E+03 0.  0.
         23    2    4    4    0    0  0.22899272355E+03 -0.63388448555E+03  0.61061772539E+03  0.91391072003E+03  0.90175324590E+02 0.  0.
         23    2    4    4    0    0 -0.28262901307E+03  0.27419344162E+02 -0.60673138297E+02  0.30548114378E+03  0.94902687150E+02 0.  0.
          3    1    3    3  502    0  0.59012264230E+01  0.40204168345E+03  0.43656012677E+03  0.59351249692E+03  0.00000000000E+00 0. -1.
         -4    1    3    3    0  502  0.47735063104E+02  0.20442345793E+03  0.27274058344E+03  0.34417293946E+03  0.00000000000E+00 0.  1.
         11    1    5    5    0    0  0.22572031551E+03 -0.63670094388E+03  0.60513647714E+03  0.90693324382E+03  0.00000000000E+00 0.  1.
        -11    1    5    5    0    0  0.32724080378E+01  0.28164583334E+01  0.54812482476E+01  0.69774762100E+01  0.00000000000E+00 0. -1.
          1    1    6    6  503    0 -0.12231016566E+03 -0.13487630998E+02 -0.66601590697E+02  0.13991949362E+03  0.00000000000E+00 0. -1.
         -1    1    6    6    0  503 -0.16031884742E+03  0.40906975160E+02  0.59284523999E+01  0.16556165015E+03  0.00000000000E+00 0.  1.
<mgrwt>
<rscale>  0 0.17513663E+04</rscale>
<asrwt>0</asrwt>
<pdfrwt beam="1">  1        1 0.69064001E-01 0.17513663E+04</pdfrwt>
<pdfrwt beam="2">  1       -2 0.26279404E+00 0.17513663E+04</pdfrwt>
<totfact> 0.22848912E+00</totfact>
</mgrwt>
</event>
<event>
12    4  0.4486176E-008  0.1623600E+04  0.7818608E-02  0.8806179E-01
          1   -1    0    0  501    0  0.00000000000E+00  0.00000000000E+00  0.32041897369E+03  0.32041897369E+03  0.00000000000E+00 0. -1.
         -2   -1    0    0    0  501 -0.00000000000E+00 -0.00000000000E+00 -0.20567417954E+04  0.20567417954E+04  0.00000000000E+00 0.  1.
        -24    2    1    2    0    0 -0.17101727205E+03  0.54120152810E+03 -0.66250878964E+03  0.87591146942E+03  0.78466582397E+02 0.  0.
        254    2    1    2    0    0  0.17101727205E+03 -0.54120152810E+03 -0.10738140321E+04  0.15012492997E+04  0.88234170418E+03 0.  0.
         23    2    4    4    0    0 -0.28216681349E+03 -0.22915091649E+03 -0.79311788857E+03  0.87726040477E+03  0.91769163896E+02 0.  0.
         23    2    4    4    0    0  0.45318408554E+03 -0.31205061162E+03 -0.28069614351E+03  0.62398889491E+03  0.88433118170E+02 0.  0.
          3    1    3    3  502    0 -0.70165170480E+02  0.25767955382E+03 -0.25427041298E+03  0.36874835121E+03  0.00000000000E+00 0. -1.
         -4    1    3    3    0  502 -0.10085210157E+03  0.28352197429E+03 -0.40823837667E+03  0.50716311822E+03  0.00000000000E+00 0.  1.
         11    1    5    5    0    0 -0.10199050911E+03 -0.14170182061E+03 -0.36354780163E+03  0.40329700468E+03  0.00000000000E+00 0. -1.
        -11    1    5    5    0    0 -0.18017630439E+03 -0.87449095875E+02 -0.42957008694E+03  0.47396340009E+03  0.00000000000E+00 0.  1.
          1    1    6    6  503    0  0.40058493941E+03 -0.23959588722E+03 -0.22153334674E+03  0.51667350094E+03  0.00000000000E+00 0.  1.
         -1    1    6    6    0  503  0.52599146128E+02 -0.72454724394E+02 -0.59162796766E+02  0.10731539396E+03  0.00000000000E+00 0. -1.
<mgrwt>
<rscale>  0 0.16235998E+04</rscale>
<asrwt>0</asrwt>
<pdfrwt beam="1">  1        1 0.49295225E-01 0.16235998E+04</pdfrwt>
<pdfrwt beam="2">  1       -2 0.31642183E+00 0.16235998E+04</pdfrwt>
<totfact> 0.17018308E+00</totfact>
</mgrwt>
</event>
<event>
12    4  0.4486176E-008  0.1112431E+04  0.7818608E-02  0.9193160E-01
          1   -1    0    0  501    0  0.00000000000E+00  0.00000000000E+00  0.14381472814E+04  0.14381472814E+04  0.00000000000E+00 0. -1.
         -2   -1    0    0    0  501 -0.00000000000E+00 -0.00000000000E+00 -0.21512098815E+03  0.21512098815E+03  0.00000000000E+00 0.  1.
        -24    2    1    2    0    0  0.12631146862E+03  0.10545267534E+03  0.24324781492E+03  0.30499370501E+03  0.82321362932E+02 0.  0.
        254    2    1    2    0    0 -0.12631146862E+03 -0.10545267534E+03  0.97977847829E+03  0.13482745645E+04  0.91148427353E+03 0.  0.
         23    2    4    4    0    0 -0.49493075878E+02 -0.34940960286E+03  0.10111895679E+04  0.10748138268E+04  0.90464275169E+02 0.  0.
         23    2    4    4    0    0 -0.76818392738E+02  0.24395692752E+03 -0.31411089572E+02  0.27346073765E+03  0.91531800714E+02 0.  0.
          3    1    3    3  502    0  0.10586319709E+03  0.64238665902E+02  0.22225505166E+03  0.25442274010E+03  0.00000000000E+00 0. -1.
         -4    1    3    3    0  502  0.20448271530E+02  0.41214009440E+02  0.20992763259E+02  0.50570964910E+02  0.00000000000E+00 0.  1.
         11    1    5    5    0    0 -0.20969185273E+02 -0.28655026829E+02  0.17910503307E+03  0.18259088193E+03  0.00000000000E+00 0.  1.
        -11    1    5    5    0    0 -0.28523890605E+02 -0.32075457603E+03  0.83208453479E+03  0.89222294491E+03  0.00000000000E+00 0. -1.
          2    1    6    6  503    0 -0.38506714538E+02  0.17080309976E+03 -0.61491489938E+02  0.18557389172E+03  0.00000000000E+00 0. -1.
         -2    1    6    6    0  503 -0.38311678200E+02  0.73153827757E+02  0.30080400366E+02  0.87886845934E+02  0.00000000000E+00 0.  1.
<mgrwt>
<rscale>  0 0.11124310E+04</rscale>
<asrwt>0</asrwt>
<pdfrwt beam="1">  1        1 0.22125342E+00 0.11124310E+04</pdfrwt>
<pdfrwt beam="2">  1       -2 0.33095538E-01 0.11124310E+04</pdfrwt>
<totfact> 0.53776201E+01</totfact>
</mgrwt>
</event>
<event>
12    4  0.4486176E-008  0.2522667E+04  0.7818608E-02  0.8394955E-01
          1   -1    0    0  501    0  0.00000000000E+00  0.00000000000E+00  0.14909170056E+04  0.14909170056E+04  0.00000000000E+00 0. -1.
         -2   -1    0    0    0  501 -0.00000000000E+00 -0.00000000000E+00 -0.10671029828E+04  0.10671029828E+04  0.00000000000E+00 0.  1.
        -24    2    1    2    0    0 -0.28833186059E+03 -0.25624978578E+03  0.12107373252E+04  0.12732196134E+04  0.80025612936E+02 0.  0.
        254    2    1    2    0    0  0.28833186059E+03  0.25624978578E+03 -0.78692330243E+03  0.12848003751E+04  0.93950226465E+03 0.  0.
         23    2    4    4    0    0  0.48574700492E+03 -0.14417767002E+03 -0.22737998844E+03  0.56322344885E+03  0.93710409620E+02 0.  0.
         23    2    4    4    0    0 -0.19741514434E+03  0.40042745580E+03 -0.55954331400E+03  0.72157692620E+03  0.90937635873E+02 0.  0.
          3    1    3    3  502    0 -0.26587692914E+03 -0.25357542341E+03  0.10864956782E+04  0.11469367443E+04  0.00000000000E+00 0. -1.
         -4    1    3    3    0  502 -0.22454931451E+02 -0.26743623739E+01  0.12424164700E+03  0.12628286903E+03  0.00000000000E+00 0.  1.
         11    1    5    5    0    0  0.40542912439E+03 -0.11413401649E+03 -0.22481557018E+03  0.47743207812E+03  0.00000000000E+00 0.  1.
        -11    1    5    5    0    0  0.80317880532E+02 -0.30043653531E+02 -0.25644182555E+01  0.85791370729E+02  0.00000000000E+00 0. -1.
          3    1    6    6  503    0 -0.91401996408E+02  0.27352938214E+03 -0.38640735179E+03  0.48216520962E+03  0.00000000000E+00 0. -1.
         -3    1    6    6    0  503 -0.10601314793E+03  0.12689807366E+03 -0.17313596220E+03  0.23941171659E+03  0.00000000000E+00 0.  1.
<mgrwt>
<rscale>  0 0.25226668E+04</rscale>
<asrwt>0</asrwt>
<pdfrwt beam="1">  1        1 0.22937185E+00 0.25226668E+04</pdfrwt>
<pdfrwt beam="2">  1       -2 0.16416969E+00 0.25226668E+04</pdfrwt>
<totfact> 0.12131611E+00</totfact>
</mgrwt>
</event>
<event>
12    4  0.4486176E-008  0.9607260E+03  0.7818608E-02  0.9352701E-01
         -2   -1    0    0    0  501 -0.00000000000E+00  0.00000000000E+00  0.57615099190E+03  0.57615099190E+03  0.00000000000E+00 0.  1.
          1   -1    0    0  501    0  0.00000000000E+00 -0.00000000000E+00 -0.40050027005E+03  0.40050027005E+03  0.00000000000E+00 0. -1.
        -24    2    1    2    0    0 -0.12467239887E+03  0.23500087952E+02  0.13667556049E+03  0.20436514628E+03  0.83602888728E+02 0.  0.
        254    2    1    2    0    0  0.12467239887E+03 -0.23500087952E+02  0.38975161357E+02  0.77228611567E+03  0.76079650373E+03 0.  0.
         23    2    4    4    0    0  0.26258174287E+03 -0.63206421339E+02  0.32869602251E+03  0.43596866301E+03  0.95306749629E+02 0.  0.
         23    2    4    4    0    0 -0.13790934400E+03  0.39706333388E+02 -0.28972086116E+03  0.33631745266E+03  0.92604921584E+02 0.  0.
          1    1    3    3  502    0 -0.12837582035E+03  0.39283080982E+01  0.10055681575E+03  0.16311792068E+03  0.00000000000E+00 0. -1.
         -2    1    3    3    0  502  0.37034214799E+01  0.19571779853E+02  0.36118744745E+02  0.41247225595E+02  0.00000000000E+00 0.  1.
         11    1    5    5    0    0  0.25575124517E+03 -0.78869628214E+02  0.31870108002E+03  0.41617243549E+03  0.00000000000E+00 0.  1.
        -11    1    5    5    0    0  0.68304976973E+01  0.15663206875E+02  0.99949424975E+01  0.19796227517E+02  0.00000000000E+00 0. -1.
          2    1    6    6  503    0 -0.20366653444E+02  0.37134722747E+02 -0.32121610611E+02  0.53156242100E+02  0.00000000000E+00 0. -1.
         -2    1    6    6    0  503 -0.11754269055E+03  0.25716106406E+01 -0.25759925055E+03  0.28316121056E+03  0.00000000000E+00 0.  1.
<mgrwt>
<rscale>  0 0.96072603E+03</rscale>
<asrwt>0</asrwt>
<pdfrwt beam="1">  1        1 0.61615426E-01 0.96072603E+03</pdfrwt>
<pdfrwt beam="2">  1       -2 0.88638615E-01 0.96072603E+03</pdfrwt>
<totfact> 0.57590989E+01</totfact>
</mgrwt>
</event>
<event>
12    4  0.4486176E-008  0.1421515E+04  0.7818608E-02  0.8938391E-01
         -2   -1    0    0    0  501 -0.00000000000E+00  0.00000000000E+00  0.21433144450E+04  0.21433144450E+04  0.00000000000E+00 0.  1.
          1   -1    0    0  501    0  0.00000000000E+00 -0.00000000000E+00 -0.23569844100E+03  0.23569844100E+03  0.00000000000E+00 0. -1.
        -24    2    1    2    0    0  0.66700378354E+02  0.41517093643E+03  0.46518223037E+03  0.63222665095E+03  0.80623717293E+02 0.  0.
        254    2    1    2    0    0 -0.66700378354E+02 -0.41517093643E+03  0.14424337736E+04  0.17467862350E+04  0.89097200444E+03 0.  0.
         23    2    4    4    0    0 -0.95999192340E+02  0.15391178099E+03  0.10760156582E+02  0.20331383861E+03  0.91192405076E+02 0.  0.
         23    2    4    4    0    0  0.29298813986E+02 -0.56908271742E+03  0.14316736170E+04  0.15434723964E+04  0.88905191238E+02 0.  0.
          1    1    3    3  502    0  0.14334401034E+02  0.36526103092E+02  0.15898028573E+02  0.42336492210E+02  0.00000000000E+00 0. -1.
         -4    1    3    3    0  502  0.52365977319E+02  0.37864483334E+03  0.44928420180E+03  0.58989015874E+03  0.00000000000E+00 0.  1.
         11    1    5    5    0    0 -0.39522141623E+02  0.34773762598E+02 -0.35604828832E+02  0.63552482877E+02  0.00000000000E+00 0. -1.
        -11    1    5    5    0    0 -0.56477050717E+02  0.11913801839E+03  0.46364985414E+02  0.13976135573E+03  0.00000000000E+00 0.  1.
          3    1    6    6  503    0 -0.29154126060E+02 -0.10768743588E+03  0.28745143881E+03  0.30834214209E+03  0.00000000000E+00 0. -1.
         -3    1    6    6    0  503  0.58452940046E+02 -0.46139528154E+03  0.11442221782E+04  0.12351302543E+04  0.00000000000E+00 0.  1.
<mgrwt>
<rscale>  0 0.14215145E+04</rscale>
<asrwt>0</asrwt>
<pdfrwt beam="1">  1        1 0.36261300E-01 0.14215145E+04</pdfrwt>
<pdfrwt beam="2">  1       -2 0.32974067E+00 0.14215145E+04</pdfrwt>
<totfact> 0.21400074E+00</totfact>
</mgrwt>
</event>
<event>
12    4  0.4486176E-008  0.1839631E+04  0.7818608E-02  0.8685504E-01
          1   -1    0    0  501    0  0.00000000000E+00  0.00000000000E+00  0.60862847283E+03  0.60862847283E+03  0.00000000000E+00 0. -1.
         -2   -1    0    0    0  501 -0.00000000000E+00 -0.00000000000E+00 -0.13901096224E+04  0.13901096224E+04  0.00000000000E+00 0.  1.
        -24    2    1    2    0    0  0.14066190834E+03  0.58858976391E+03 -0.67264726148E+03  0.90829020986E+03  0.79454920012E+02 0.  0.
        254    2    1    2    0    0 -0.14066190834E+03 -0.58858976391E+03 -0.10883388805E+03  0.10904478853E+04  0.90055987741E+03 0.  0.
         23    2    4    4    0    0 -0.92425978232E+02 -0.55375905321E+03  0.31783013216E+03  0.65175275643E+03  0.92595961791E+02 0.  0.
         23    2    4    4    0    0 -0.48235930112E+02 -0.34830710701E+02 -0.42666402021E+03  0.43869512890E+03  0.82893586110E+02 0.  0.
          1    1    3    3  502    0  0.48882691065E+02  0.20107836055E+03 -0.17568247928E+03  0.27145231275E+03  0.00000000000E+00 0. -1.
         -2    1    3    3    0  502  0.91779217279E+02  0.38751140336E+03 -0.49696478220E+03  0.63683789712E+03  0.00000000000E+00 0.  1.
         11    1    5    5    0    0  0.12212390850E+02 -0.12323185883E+03  0.93287952380E+02  0.15504152857E+03  0.00000000000E+00 0. -1.
        -11    1    5    5    0    0 -0.10463836908E+03 -0.43052719438E+03  0.22454217978E+03  0.49671122786E+03  0.00000000000E+00 0.  1.
          3    1    6    6  503    0 -0.41164906206E+02 -0.69137186171E+01 -0.74832460547E+02  0.85686907749E+02  0.00000000000E+00 0. -1.
         -3    1    6    6    0  503 -0.70710239059E+01 -0.27916992084E+02 -0.35183155966E+03  0.35300822115E+03  0.00000000000E+00 0.  1.
<mgrwt>
<rscale>  0 0.18396307E+04</rscale>
<asrwt>0</asrwt>
<pdfrwt beam="1">  1        1 0.93635152E-01 0.18396307E+04</pdfrwt>
<pdfrwt beam="2">  1       -2 0.21386301E+00 0.18396307E+04</pdfrwt>
<totfact> 0.29849592E+00</totfact>
</mgrwt>
</event>
<event>
12    4  0.4486176E-008  0.2458199E+04  0.7818608E-02  0.8418031E-01
         -2   -1    0    0    0  501 -0.00000000000E+00  0.00000000000E+00  0.60101113910E+03  0.60101113910E+03  0.00000000000E+00 0.  1.
          1   -1    0    0  501    0  0.00000000000E+00 -0.00000000000E+00 -0.25135732855E+04  0.25135732855E+04  0.00000000000E+00 0. -1.
        -24    2    1    2    0    0  0.19025974177E+03  0.95446644866E+03 -0.27693047414E+03  0.10150249365E+04  0.79875924580E+02 0.  0.
        254    2    1    2    0    0 -0.19025974177E+03 -0.95446644866E+03 -0.16356316723E+04  0.20995594881E+04  0.88637131369E+03 0.  0.
         23    2    4    4    0    0 -0.35429651055E+03 -0.10433544394E+04 -0.13307870813E+04  0.17301442543E+04  0.91051530320E+02 0.  0.
         23    2    4    4    0    0  0.16403676879E+03  0.88887990762E+02 -0.30484459101E+03  0.36941523385E+03  0.93425124654E+02 0.  0.
          1    1    3    3  502    0  0.19043266962E+02  0.15349807256E+03 -0.72562943836E+02  0.17084989059E+03  0.00000000000E+00 0. -1.
         -2    1    3    3    0  502  0.17121647480E+03  0.80096837609E+03 -0.20436753031E+03  0.84417504594E+03  0.00000000000E+00 0.  1.
         11    1    5    5    0    0 -0.13008330160E+03 -0.52462175093E+03 -0.65125753688E+03  0.84633682789E+03  0.00000000000E+00 0. -1.
        -11    1    5    5    0    0 -0.22421320895E+03 -0.51873268849E+03 -0.67952954441E+03  0.88380742637E+03  0.00000000000E+00 0.  1.
          4    1    6    6  503    0  0.71002336940E+01  0.38858712001E+02 -0.32592504074E+02  0.51212148351E+02  0.00000000000E+00 0. -1.
         -4    1    6    6    0  503  0.15693653509E+03  0.50029278761E+02 -0.27225208693E+03  0.31820308550E+03  0.00000000000E+00 0.  1.
<mgrwt>
<rscale>  0 0.24581990E+04</rscale>
<asrwt>0</asrwt>
<pdfrwt beam="1">  1        1 0.38670358E+00 0.24581990E+04</pdfrwt>
<pdfrwt beam="2">  1       -2 0.92463253E-01 0.24581990E+04</pdfrwt>
<totfact> 0.10312981E+00</totfact>
</mgrwt>
</event>
<event>
12    4  0.4486176E-008  0.1135891E+04  0.7818608E-02  0.9170900E-01
         -4   -1    0    0    0  501 -0.00000000000E+00  0.00000000000E+00  0.27316158527E+04  0.27316158527E+04  0.00000000000E+00 0.  1.
          3   -1    0    0  501    0  0.00000000000E+00 -0.00000000000E+00 -0.11808465041E+03  0.11808465041E+03  0.00000000000E+00 0. -1.
        -24    2    1    2    0    0 -0.13411475099E+03  0.58603199555E+02  0.15829957718E+03  0.23000083818E+03  0.80128197250E+02 0.  0.
        254    2    1    2    0    0  0.13411475099E+03 -0.58603199555E+02  0.24552316251E+04  0.26196996650E+04  0.90179981155E+03 0.  0.
         23    2    4    4    0    0 -0.35181703538E+03 -0.17169787950E+03  0.99890866474E+03  0.10774332032E+04  0.98936336676E+02 0.  0.
         23    2    4    4    0    0  0.48593178637E+03  0.11309467994E+03  0.14563229604E+04  0.15422664617E+04  0.93750554089E+02 0.  0.
          1    1    3    3  502    0 -0.14115981092E+03  0.50005525990E+02  0.12556598738E+03  0.19543147657E+03  0.00000000000E+00 0. -1.
         -2    1    3    3    0  502  0.70450599328E+01  0.85976735646E+01  0.32733589806E+02  0.34569361605E+02  0.00000000000E+00 0.  1.
         11    1    5    5    0    0 -0.24412223038E+03 -0.10408123818E+03  0.78426729479E+03  0.82795154278E+03  0.00000000000E+00 0. -1.
        -11    1    5    5    0    0 -0.10769480500E+03 -0.67616641317E+02  0.21464136995E+03  0.24948166045E+03  0.00000000000E+00 0.  1.
          4    1    6    6  503    0  0.24532593392E+03  0.66150276416E+02  0.88062370075E+03  0.91654720296E+03  0.00000000000E+00 0. -1.
         -4    1    6    6    0  503  0.24060585244E+03  0.46944403525E+02  0.57569925965E+03  0.62571925879E+03  0.00000000000E+00 0.  1.
<mgrwt>
<rscale>  0 0.11358907E+04</rscale>
<asrwt>0</asrwt>
<pdfrwt beam="1">  1        3 0.18166871E-01 0.11358907E+04</pdfrwt>
<pdfrwt beam="2">  1       -4 0.42024855E+00 0.11358907E+04</pdfrwt>
<totfact> 0.31315974E-01</totfact>
</mgrwt>
</event>
<event>
12    4  0.4486176E-008  0.1526922E+04  0.7818608E-02  0.8866745E-01
         -2   -1    0    0    0  501 -0.00000000000E+00  0.00000000000E+00  0.44758377986E+03  0.44758377986E+03  0.00000000000E+00 0.  1.
          1   -1    0    0  501    0  0.00000000000E+00 -0.00000000000E+00 -0.13022654599E+04  0.13022654599E+04  0.00000000000E+00 0. -1.
        -24    2    1    2    0    0 -0.22522874213E+03  0.19398877643E+03 -0.74402149622E+03  0.80505568222E+03  0.78657694917E+02 0.  0.
        254    2    1    2    0    0  0.22522874213E+03 -0.19398877643E+03 -0.11066018377E+03  0.94479355749E+03  0.88996042516E+03 0.  0.
         23    2    4    4    0    0 -0.11705511921E+03  0.19759872778E+03 -0.29583032858E+03  0.38552312790E+03  0.91462236402E+02 0.  0.
         23    2    4    4    0    0  0.34228386134E+03 -0.39158750420E+03  0.18517014481E+03  0.55927042959E+03  0.89422680018E+02 0.  0.
          1    1    3    3  502    0 -0.20710527287E+03  0.20027635656E+03 -0.70416526013E+03  0.76082319011E+03  0.00000000000E+00 0. -1.
         -2    1    3    3    0  502 -0.18123469269E+02 -0.62875801298E+01 -0.39856236094E+02  0.44232492105E+02  0.00000000000E+00 0.  1.
         11    1    5    5    0    0 -0.51032451234E+02  0.14874589940E+03 -0.14561471501E+03  0.21432055173E+03  0.00000000000E+00 0.  1.
        -11    1    5    5    0    0 -0.66022667975E+02  0.48852828376E+02 -0.15021561357E+03  0.17120257617E+03  0.00000000000E+00 0. -1.
          1    1    6    6  503    0  0.22074266114E+03 -0.19435864416E+03  0.12730112008E+03  0.32048116977E+03  0.00000000000E+00 0. -1.
         -1    1    6    6    0  503  0.12154120021E+03 -0.19722886004E+03  0.57869024734E+02  0.23878925982E+03  0.00000000000E+00 0.  1.
<mgrwt>
<rscale>  0 0.15269223E+04</rscale>
<asrwt>0</asrwt>
<pdfrwt beam="1">  1        1 0.20034853E+00 0.15269223E+04</pdfrwt>
<pdfrwt beam="2">  1       -2 0.68859044E-01 0.15269223E+04</pdfrwt>
<totfact> 0.14702644E+01</totfact>
</mgrwt>
</event>
<event>
12    4  0.4486176E-008  0.2369042E+04  0.7818608E-02  0.8451185E-01
          1   -1    0    0  501    0  0.00000000000E+00  0.00000000000E+00  0.18892439166E+04  0.18892439166E+04  0.00000000000E+00 0. -1.
         -2   -1    0    0    0  501 -0.00000000000E+00 -0.00000000000E+00 -0.74267288687E+03  0.74267288687E+03  0.00000000000E+00 0.  1.
        -24    2    1    2    0    0 -0.79010007876E+03 -0.31651305507E+03  0.10682640063E+04  0.13682255944E+04  0.80091458135E+02 0.  0.
        254    2    1    2    0    0  0.79010007876E+03  0.31651305507E+03  0.78307023444E+02  0.12636912090E+04  0.93077646799E+03 0.  0.
         23    2    4    4    0    0  0.79370379722E+02  0.23337905982E+03  0.39585041293E+03  0.47540795681E+03  0.92464767589E+02 0.  0.
         23    2    4    4    0    0  0.71072969904E+03  0.83133995251E+02 -0.31754338949E+03  0.78828325221E+03  0.92242697556E+02 0.  0.
          3    1    3    3  502    0 -0.44684521241E+03 -0.17580914222E+03  0.53868035957E+03  0.72163427588E+03  0.00000000000E+00 0. -1.
         -4    1    3    3    0  502 -0.34325486635E+03 -0.14070391285E+03  0.52958364671E+03  0.64659131855E+03  0.00000000000E+00 0.  1.
         11    1    5    5    0    0  0.39114155512E+02  0.16398361534E+02  0.70497043079E+02  0.82271845156E+02  0.00000000000E+00 0. -1.
        -11    1    5    5    0    0  0.40256224210E+02  0.21698069829E+03  0.32535336985E+03  0.39313611166E+03  0.00000000000E+00 0.  1.
          2    1    6    6  503    0  0.24283321805E+03  0.67901631227E+02 -0.89604203957E+02  0.26759580841E+03  0.00000000000E+00 0. -1.
         -2    1    6    6    0  503  0.46789648099E+03  0.15232364025E+02 -0.22793918553E+03  0.52068744381E+03  0.00000000000E+00 0.  1.
<mgrwt>
<rscale>  0 0.23690422E+04</rscale>
<asrwt>0</asrwt>
<pdfrwt beam="1">  1        1 0.29065291E+00 0.23690422E+04</pdfrwt>
<pdfrwt beam="2">  1       -2 0.11425737E+00 0.23690422E+04</pdfrwt>
<totfact> 0.16754232E+00</totfact>
</mgrwt>
</event>
<event>
12    4  0.4707385E-008  0.1948617E+04  0.7818608E-02  0.8631028E-01
         -2   -1    0    0    0  501 -0.00000000000E+00  0.00000000000E+00  0.62299554267E+03  0.62299554267E+03  0.00000000000E+00 0.  1.
          1   -1    0    0  501    0  0.00000000000E+00 -0.00000000000E+00 -0.15237306371E+04  0.15237306371E+04  0.00000000000E+00 0. -1.
        -24    2    1    2    0    0 -0.46474985582E+03 -0.48932142215E+03 -0.75600412052E+03  0.10164957165E+04  0.79331133869E+02 0.  0.
        254    2    1    2    0    0  0.46474985582E+03  0.48932142215E+03 -0.14473097387E+03  0.11302304632E+04  0.89501171082E+03 0.  0.
         23    2    4    4    0    0 -0.10715416577E+03 -0.18443353824E+03 -0.43777695046E+02  0.23605314935E+03  0.91141963243E+02 0.  0.
         23    2    4    4    0    0  0.57190402159E+03  0.67375496039E+03 -0.10095327882E+03  0.89417731387E+03  0.91332073007E+02 0.  0.
          3    1    3    3  502    0 -0.45463552188E+03 -0.49070660988E+03 -0.74027631178E+03  0.99774518416E+03  0.00000000000E+00 0. -1.
         -4    1    3    3    0  502 -0.10114333938E+02  0.13851877227E+01 -0.15727808748E+02  0.18750532367E+02  0.00000000000E+00 0.  1.
         11    1    5    5    0    0 -0.42320100845E+02 -0.14782697271E+03 -0.94206380632E+01  0.15405373484E+03  0.00000000000E+00 0.  1.
        -11    1    5    5    0    0 -0.64834064929E+02 -0.36606565522E+02 -0.34357056982E+02  0.81999414504E+02  0.00000000000E+00 0. -1.
          4    1    6    6  503    0  0.49947624090E+03  0.62928746625E+03 -0.94187991575E+02  0.80891940770E+03  0.00000000000E+00 0.  1.
         -4    1    6    6    0  503  0.72427780697E+02  0.44467494142E+02 -0.67652872473E+01  0.85257906165E+02  0.00000000000E+00 0. -1.
<mgrwt>
<rscale>  0 0.19486174E+04</rscale>
<asrwt>0</asrwt>
<pdfrwt beam="1">  1        1 0.23442010E+00 0.19486174E+04</pdfrwt>
<pdfrwt beam="2">  1       -2 0.95845467E-01 0.19486174E+04</pdfrwt>
<totfact> 0.47022122E+00</totfact>
</mgrwt>
</event>
<event>
12    4  0.4486176E-008  0.3113328E+04  0.7818608E-02  0.8212090E-01
         -2   -1    0    0    0  501 -0.00000000000E+00  0.00000000000E+00  0.16065395258E+04  0.16065395258E+04  0.00000000000E+00 0.  1.
          1   -1    0    0  501    0  0.00000000000E+00 -0.00000000000E+00 -0.15083369208E+04  0.15083369208E+04  0.00000000000E+00 0. -1.
        -24    2    1    2    0    0 -0.78224030489E+03 -0.49223791045E+03  0.11274062772E+04  0.14601412116E+04  0.82276294735E+02 0.  0.
        254    2    1    2    0    0  0.78224030489E+03  0.49223791045E+03 -0.10292036723E+04  0.16547352350E+04  0.90812468521E+03 0.  0.
         23    2    4    4    0    0  0.42929510781E+02  0.45945284150E+03 -0.69020609222E+03  0.83556613702E+03  0.94055638495E+02 0.  0.
         23    2    4    4    0    0  0.73931079411E+03  0.32785068949E+02 -0.33899758011E+03  0.81916909803E+03  0.91996417416E+02 0.  0.
          3    1    3    3  502    0 -0.47750305222E+03 -0.28626140997E+03  0.73854619526E+03  0.92488120440E+03  0.00000000000E+00 0. -1.
         -4    1    3    3    0  502 -0.30473725267E+03 -0.20597650048E+03  0.38886008197E+03  0.53526000716E+03  0.00000000000E+00 0.  1.
         11    1    5    5    0    0 -0.16653895177E+01  0.34381246818E+02 -0.17623086340E+02  0.38670619689E+02  0.00000000000E+00 0. -1.
        -11    1    5    5    0    0  0.44594900298E+02  0.42507159469E+03 -0.67258300588E+03  0.79689551733E+03  0.00000000000E+00 0.  1.
          1    1    6    6  503    0  0.25653045274E+02 -0.12529188051E+02 -0.25852730791E+02  0.38515230421E+02  0.00000000000E+00 0. -1.
         -1    1    6    6    0  503  0.71365774883E+03  0.45314257000E+02 -0.31314484931E+03  0.78065386761E+03  0.00000000000E+00 0.  1.
<mgrwt>
<rscale>  0 0.31133280E+04</rscale>
<asrwt>0</asrwt>
<pdfrwt beam="1">  1        1 0.23205183E+00 0.31133280E+04</pdfrwt>
<pdfrwt beam="2">  1       -2 0.24715993E+00 0.31133280E+04</pdfrwt>
<totfact> 0.31972396E-01</totfact>
</mgrwt>
</event>
<event>
12    4  0.4486176E-008  0.2774915E+04  0.7818608E-02  0.8311099E-01
         -4   -1    0    0    0  501 -0.00000000000E+00  0.00000000000E+00  0.14711354481E+04  0.14711354481E+04  0.00000000000E+00 0.  1.
          3   -1    0    0  501    0  0.00000000000E+00 -0.00000000000E+00 -0.13085390157E+04  0.13085390157E+04  0.00000000000E+00 0. -1.
        -24    2    1    2    0    0 -0.33405668359E+03  0.20033582449E+03 -0.11073761292E+04  0.11765892874E+04  0.79700371750E+02 0.  0.
        254    2    1    2    0    0  0.33405668359E+03 -0.20033582449E+03  0.12699725617E+04  0.16030851764E+04  0.89739816423E+03 0.  0.
         23    2    4    4    0    0 -0.10847777844E+03 -0.44068110702E+03  0.66283884401E+03  0.80856273874E+03  0.91929880061E+02 0.  0.
         23    2    4    4    0    0  0.44253446203E+03  0.24034528254E+03  0.60713371765E+03  0.79452243771E+03  0.95141725854E+02 0.  0.
          1    1    3    3  502    0 -0.16767698803E+03  0.10911496839E+03 -0.68363215007E+03  0.71230229906E+03  0.00000000000E+00 0. -1.
         -2    1    3    3    0  502 -0.16637969556E+03  0.91220856095E+02 -0.42374397915E+03  0.46428698834E+03  0.00000000000E+00 0.  1.
         11    1    5    5    0    0 -0.11168254404E+03 -0.26892257029E+03  0.42383140457E+03  0.51422310232E+03  0.00000000000E+00 0. -1.
        -11    1    5    5    0    0  0.32047656031E+01 -0.17175853673E+03  0.23900743944E+03  0.29433963642E+03  0.00000000000E+00 0.  1.
          1    1    6    6  503    0  0.11911913992E+03  0.48897865173E+02  0.22036086142E+03  0.25522397998E+03  0.00000000000E+00 0. -1.
         -1    1    6    6    0  503  0.32341532210E+03  0.19144741736E+03  0.38677285623E+03  0.53929845773E+03  0.00000000000E+00 0.  1.
<mgrwt>
<rscale>  0 0.27749149E+04</rscale>
<asrwt>0</asrwt>
<pdfrwt beam="1">  1        3 0.20131369E+00 0.27749149E+04</pdfrwt>
<pdfrwt beam="2">  1       -4 0.22632853E+00 0.27749149E+04</pdfrwt>
<totfact> 0.25475821E-02</totfact>
</mgrwt>
</event>
<event>
12    4  0.4486176E-008  0.1399479E+04  0.7818608E-02  0.8954196E-01
          1   -1    0    0  501    0  0.00000000000E+00  0.00000000000E+00  0.43929153610E+04  0.43929153610E+04  0.00000000000E+00 0. -1.
         -2   -1    0    0    0  501 -0.00000000000E+00 -0.00000000000E+00 -0.11146019333E+03  0.11146019333E+03  0.00000000000E+00 0.  1.
        -24    2    1    2    0    0 -0.35011775190E+03  0.89881645422E+02  0.67604075711E+03  0.77084840861E+03  0.80715632984E+02 0.  0.
        254    2    1    2    0    0  0.35011775190E+03 -0.89881645422E+02  0.36054144105E+04  0.37335271457E+04  0.89975036849E+03 0.  0.
         23    2    4    4    0    0  0.33854029551E+03  0.40511960255E+02  0.35446796772E+04  0.35621901142E+04  0.90518753339E+02 0.  0.
         23    2    4    4    0    0  0.11577456398E+02 -0.13039360568E+03  0.60734733281E+02  0.17133703151E+03  0.92364174011E+02 0.  0.
          1    1    3    3  502    0 -0.54897005416E+02  0.45966485595E+02  0.14347120302E+03  0.16034520603E+03  0.00000000000E+00 0. -1.
         -2    1    3    3    0  502 -0.29522074649E+03  0.43915159827E+02  0.53256955409E+03  0.61050320258E+03  0.00000000000E+00 0.  1.
         11    1    5    5    0    0  0.23981617498E+03  0.49334133236E+02  0.21259056151E+04  0.21399580227E+04  0.00000000000E+00 0. -1.
        -11    1    5    5    0    0  0.98724120526E+02 -0.88221729819E+01  0.14187740621E+04  0.14222320915E+04  0.00000000000E+00 0.  1.
          3    1    6    6  503    0 -0.32267879514E+02 -0.10378998174E+03  0.45570965766E+02  0.11785707140E+03  0.00000000000E+00 0. -1.
         -3    1    6    6    0  503  0.43845335912E+02 -0.26603623935E+02  0.15163767515E+02  0.53479960106E+02  0.00000000000E+00 0.  1.
<mgrwt>
<rscale>  0 0.13994788E+04</rscale>
<asrwt>0</asrwt>
<pdfrwt beam="1">  1        1 0.67583300E+00 0.13994788E+04</pdfrwt>
<pdfrwt beam="2">  1       -2 0.17147725E-01 0.13994788E+04</pdfrwt>
<totfact> 0.10209761E+00</totfact>
</mgrwt>
</event>
<event>
12    4  0.4486176E-008  0.1700010E+04  0.7818608E-02  0.8761359E-01
          1   -1    0    0  501    0  0.00000000000E+00  0.00000000000E+00  0.20353773604E+04  0.20353773604E+04  0.00000000000E+00 0. -1.
         -2   -1    0    0    0  501 -0.00000000000E+00 -0.00000000000E+00 -0.35497526618E+03  0.35497526618E+03  0.00000000000E+00 0.  1.
        -24    2    1    2    0    0  0.28381052949E+03  0.46291962226E+03  0.24436447981E+03  0.60097213481E+03  0.81305070556E+02 0.  0.
        254    2    1    2    0    0 -0.28381052949E+03 -0.46291962226E+03  0.14360376144E+04  0.17893804917E+04  0.91914934642E+03 0.  0.
         23    2    4    4    0    0  0.22870220236E+03 -0.36459761289E+03  0.10347592415E+04  0.11244958530E+04  0.92347814310E+02 0.  0.
         23    2    4    4    0    0 -0.51251273185E+03 -0.98322009369E+02  0.40127837288E+03  0.66488463878E+03  0.93331305069E+02 0.  0.
          1    1    3    3  502    0  0.53633165774E+02  0.95460138969E+02  0.86462355240E+02  0.13951664229E+03  0.00000000000E+00 0. -1.
         -2    1    3    3    0  502  0.23017736371E+03  0.36745948329E+03  0.15790212457E+03  0.46145549251E+03  0.00000000000E+00 0.  1.
         11    1    5    5    0    0  0.63186061088E+02 -0.16307151546E+03  0.33865432201E+03  0.38114504757E+03  0.00000000000E+00 0. -1.
        -11    1    5    5    0    0  0.16551614127E+03 -0.20152609743E+03  0.69610491947E+03  0.74335080539E+03  0.00000000000E+00 0.  1.
          3    1    6    6  503    0 -0.38017159333E+03 -0.37178314661E+02  0.31774791699E+03  0.49686658793E+03  0.00000000000E+00 0. -1.
         -3    1    6    6    0  503 -0.13234113852E+03 -0.61143694709E+02  0.83530455897E+02  0.16801805085E+03  0.00000000000E+00 0.  1.
<mgrwt>
<rscale>  0 0.17000101E+04</rscale>
<asrwt>0</asrwt>
<pdfrwt beam="1">  1        1 0.31313497E+00 0.17000101E+04</pdfrwt>
<pdfrwt beam="2">  1       -2 0.54611581E-01 0.17000101E+04</pdfrwt>
<totfact> 0.74355874E+00</totfact>
</mgrwt>
</event>
<event>
12    4  0.4486176E-008  0.1771421E+04  0.7818608E-02  0.8721647E-01
         -2   -1    0    0    0  501 -0.00000000000E+00  0.00000000000E+00  0.47908115843E+03  0.47908115843E+03  0.00000000000E+00 0.  1.
          1   -1    0    0  501    0  0.00000000000E+00 -0.00000000000E+00 -0.16374749147E+04  0.16374749147E+04  0.00000000000E+00 0. -1.
        -24    2    1    2    0    0  0.39810999826E+03 -0.32588210450E+03 -0.89955012945E+03  0.10394700538E+04  0.81343964315E+02 0.  0.
        254    2    1    2    0    0 -0.39810999826E+03  0.32588210450E+03 -0.25884362679E+03  0.10770860193E+04  0.91017775910E+03 0.  0.
         23    2    4    4    0    0 -0.38973759937E+03  0.44826820370E+03 -0.50656422544E+03  0.78565741262E+03  0.88376901365E+02 0.  0.
         23    2    4    4    0    0 -0.83723988893E+01 -0.12238609919E+03  0.24772059865E+03  0.29142860671E+03  0.92285879073E+02 0.  0.
          3    1    3    3  502    0  0.39054234430E+03 -0.32737955239E+03 -0.89641029739E+03  0.10311411714E+04  0.00000000000E+00 0. -1.
         -4    1    3    3    0  502  0.75676539632E+01  0.14974478856E+01 -0.31398320554E+01  0.83288823988E+01  0.00000000000E+00 0.  1.
         11    1    5    5    0    0 -0.31061940127E+03  0.37574518885E+03 -0.37030541969E+03  0.61220500099E+03  0.00000000000E+00 0. -1.
        -11    1    5    5    0    0 -0.79118198098E+02  0.72523014850E+02 -0.13625880576E+03  0.17345241163E+03  0.00000000000E+00 0.  1.
          3    1    6    6  503    0 -0.32059788812E+02 -0.12552794377E+03  0.21196988580E+03  0.24842771023E+03  0.00000000000E+00 0. -1.
         -3    1    6    6    0  503  0.23687389923E+02  0.31418445779E+01  0.35750712852E+02  0.43000896481E+02  0.00000000000E+00 0.  1.
<mgrwt>
<rscale>  0 0.17714213E+04</rscale>
<asrwt>0</asrwt>
<pdfrwt beam="1">  1        1 0.25191922E+00 0.17714213E+04</pdfrwt>
<pdfrwt beam="2">  1       -2 0.73704794E-01 0.17714213E+04</pdfrwt>
<totfact> 0.72465077E+00</totfact>
</mgrwt>
</event>
<event>
12    4  0.4486176E-008  0.1442302E+04  0.7818608E-02  0.8923755E-01
          1   -1    0    0  501    0  0.00000000000E+00  0.00000000000E+00  0.13930025891E+04  0.13930025891E+04  0.00000000000E+00 0. -1.
         -2   -1    0    0    0  501 -0.00000000000E+00 -0.00000000000E+00 -0.37333648407E+03  0.37333648407E+03  0.00000000000E+00 0.  1.
        -24    2    1    2    0    0  0.60073137167E+02 -0.25031952470E+02  0.83064301976E+03  0.83693764364E+03  0.79129088325E+02 0.  0.
        254    2    1    2    0    0 -0.60073137167E+02  0.25031952470E+02  0.18902308523E+03  0.92940142950E+03  0.90764635732E+03 0.  0.
         23    2    4    4    0    0  0.49203265276E+01  0.44966945876E+03  0.21024830632E+02  0.45977101657E+03  0.93383683933E+02 0.  0.
         23    2    4    4    0    0 -0.64993463695E+02 -0.42463750629E+03  0.16799825460E+03  0.46963041293E+03  0.88250490806E+02 0.  0.
          1    1    3    3  502    0  0.13838738735E+02  0.22808650015E+02  0.42838034728E+03  0.42921028312E+03  0.00000000000E+00 0. -1.
         -2    1    3    3    0  502  0.46234398433E+02 -0.47840602485E+02  0.40226267248E+03  0.40772736052E+03  0.00000000000E+00 0.  1.
         11    1    5    5    0    0  0.98788104787E+01  0.12033312862E+02 -0.13690507795E+02  0.20732137338E+02  0.00000000000E+00 0.  1.
        -11    1    5    5    0    0 -0.49584839511E+01  0.43763614590E+03  0.34715338428E+02  0.43903887923E+03  0.00000000000E+00 0. -1.
          2    1    6    6  503    0 -0.38289968763E+02 -0.38747653323E+03  0.16750935844E+03  0.42386739751E+03  0.00000000000E+00 0. -1.
         -2    1    6    6    0  503 -0.26703494932E+02 -0.37160973058E+02  0.48889616406E+00  0.45763015412E+02  0.00000000000E+00 0.  1.
<mgrwt>
<rscale>  0 0.14423019E+04</rscale>
<asrwt>0</asrwt>
<pdfrwt beam="1">  1        1 0.21430809E+00 0.14423019E+04</pdfrwt>
<pdfrwt beam="2">  1       -2 0.57436383E-01 0.14423019E+04</pdfrwt>
<totfact> 0.18812378E+01</totfact>
</mgrwt>
</event>
<event>
12    4  0.4486176E-008  0.2307171E+04  0.7818608E-02  0.8475099E-01
         -2   -1    0    0    0  501 -0.00000000000E+00  0.00000000000E+00  0.65843709764E+03  0.65843709764E+03  0.00000000000E+00 0.  1.
          1   -1    0    0  501    0  0.00000000000E+00 -0.00000000000E+00 -0.20210887604E+04  0.20210887604E+04  0.00000000000E+00 0. -1.
        -24    2    1    2    0    0 -0.38891063925E+03  0.62504252041E+03  0.16184968427E+03  0.75789463548E+03  0.79242163999E+02 0.  0.
        254    2    1    2    0    0  0.38891063925E+03 -0.62504252041E+03 -0.15245013470E+04  0.19216312225E+04  0.90919335717E+03 0.  0.
         23    2    4    4    0    0 -0.26192429057E+02 -0.37784023545E+03 -0.13415621512E+04  0.13969662806E+04  0.90975253470E+02 0.  0.
         23    2    4    4    0    0  0.41510306830E+03 -0.24720228497E+03 -0.18293919583E+03  0.52466494196E+03  0.91580701768E+02 0.  0.
          1    1    3    3  502    0 -0.15571830382E+02  0.37529541302E+02  0.27191533417E+02  0.48890979345E+02  0.00000000000E+00 0. -1.
         -2    1    3    3    0  502 -0.37333880887E+03  0.58751297911E+03  0.13465815085E+03  0.70900365614E+03  0.00000000000E+00 0.  1.
         11    1    5    5    0    0 -0.23220428841E+02 -0.17645241743E+02 -0.90751542087E+02  0.95322532818E+02  0.00000000000E+00 0. -1.
        -11    1    5    5    0    0 -0.29720002161E+01 -0.36019499370E+03 -0.12508106091E+04  0.13016437477E+04  0.00000000000E+00 0.  1.
          4    1    6    6  503    0  0.51961009052E+01 -0.23965752629E+02 -0.14262447112E+02  0.28368541755E+02  0.00000000000E+00 0. -1.
         -4    1    6    6    0  503  0.40990696740E+03 -0.22323653234E+03 -0.16867674872E+03  0.49629640020E+03  0.00000000000E+00 0.  1.
<mgrwt>
<rscale>  0 0.23071713E+04</rscale>
<asrwt>0</asrwt>
<pdfrwt beam="1">  1        1 0.31093673E+00 0.23071713E+04</pdfrwt>
<pdfrwt beam="2">  1       -2 0.10129802E+00 0.23071713E+04</pdfrwt>
<totfact> 0.18329207E+00</totfact>
</mgrwt>
</event>
<event>
12    4  0.4486176E-008  0.1746848E+04  0.7818608E-02  0.8735087E-01
         -2   -1    0    0    0  501 -0.00000000000E+00  0.00000000000E+00  0.22443773833E+04  0.22443773833E+04  0.00000000000E+00 0.  1.
          1   -1    0    0  501    0  0.00000000000E+00 -0.00000000000E+00 -0.33990269326E+03  0.33990269326E+03  0.00000000000E+00 0. -1.
        -24    2    1    2    0    0  0.16107110323E+03  0.26723690254E+03 -0.12313288528E+03  0.34478714225E+03  0.79730819943E+02 0.  0.
        254    2    1    2    0    0 -0.16107110323E+03 -0.26723690254E+03  0.20276075753E+04  0.22394929343E+04  0.89820747103E+03 0.  0.
         23    2    4    4    0    0  0.25895541711E+03 -0.33034945766E+03  0.54159553326E+03  0.69131524196E+03  0.91664441778E+02 0.  0.
         23    2    4    4    0    0 -0.42002652034E+03  0.63112555117E+02  0.14860120421E+04  0.15481776924E+04  0.90647148815E+02 0.  0.
          1    1    3    3  502    0  0.13274331946E+03  0.23001460523E+03 -0.13295327074E+03  0.29699171651E+03  0.00000000000E+00 0. -1.
         -2    1    3    3    0  502  0.28327783768E+02  0.37222297312E+02  0.98203854592E+01  0.47795425733E+02  0.00000000000E+00 0.  1.
         11    1    5    5    0    0 -0.27609913603E+01 -0.13338674687E+02  0.42990109931E+02  0.45096483982E+02  0.00000000000E+00 0.  1.
        -11    1    5    5    0    0  0.26171640847E+03 -0.31701078297E+03  0.49860542333E+03  0.64621875797E+03  0.00000000000E+00 0. -1.
          3    1    6    6  503    0 -0.34181485549E+03  0.70425121891E+02  0.13049202750E+04  0.13507827424E+04  0.00000000000E+00 0. -1.
         -3    1    6    6    0  503 -0.78211664848E+02 -0.73125667745E+01  0.18109176711E+03  0.19739494995E+03  0.00000000000E+00 0.  1.
<mgrwt>
<rscale>  0 0.17468485E+04</rscale>
<asrwt>0</asrwt>
<pdfrwt beam="1">  1        1 0.52292723E-01 0.17468485E+04</pdfrwt>
<pdfrwt beam="2">  1       -2 0.34528882E+00 0.17468485E+04</pdfrwt>
<totfact> 0.10314898E+00</totfact>
</mgrwt>
</event>
<event>
12    4  0.4486176E-008  0.1758731E+04  0.7818608E-02  0.8728559E-01
         -2   -1    0    0    0  501 -0.00000000000E+00  0.00000000000E+00  0.38765144502E+03  0.38765144502E+03  0.00000000000E+00 0.  1.
          1   -1    0    0  501    0  0.00000000000E+00 -0.00000000000E+00 -0.19947904849E+04  0.19947904849E+04  0.00000000000E+00 0. -1.
        -24    2    1    2    0    0  0.13817992621E+02 -0.33557740857E+02  0.27582671155E+03  0.28985993636E+03  0.81371672028E+02 0.  0.
        254    2    1    2    0    0 -0.13817992621E+02  0.33557740857E+02 -0.18829657514E+04  0.20925819936E+04  0.91215257487E+03 0.  0.
         23    2    4    4    0    0 -0.44397660722E+03 -0.71717273862E+02 -0.87124420376E+03  0.98448154581E+03  0.88762921942E+02 0.  0.
         23    2    4    4    0    0  0.43015861460E+03  0.10527501472E+03 -0.10117215477E+04  0.11081004478E+04  0.90481212804E+02 0.  0.
          3    1    3    3  502    0  0.90542364684E+01 -0.12946688341E+01 -0.26165811158E+01  0.95132466672E+01  0.00000000000E+00 0. -1.
         -4    1    3    3    0  502  0.47637561524E+01 -0.32263072023E+02  0.27844329267E+03  0.28034668969E+03  0.00000000000E+00 0.  1.
         11    1    5    5    0    0 -0.10798787377E+03  0.86564609233E+01 -0.15297813132E+03  0.18745299106E+03  0.00000000000E+00 0.  1.
        -11    1    5    5    0    0 -0.33598873345E+03 -0.80373734785E+02 -0.71826607245E+03  0.79702855474E+03  0.00000000000E+00 0. -1.
          2    1    6    6  503    0  0.42430244582E+03  0.11343592902E+03 -0.96406460728E+03  0.10593964520E+04  0.00000000000E+00 0. -1.
         -2    1    6    6    0  503  0.58561687826E+01 -0.81609142983E+01 -0.47656940382E+02  0.48703995745E+02  0.00000000000E+00 0.  1.
<mgrwt>
<rscale>  0 0.17587307E+04</rscale>
<asrwt>0</asrwt>
<pdfrwt beam="1">  1        1 0.30689085E+00 0.17587307E+04</pdfrwt>
<pdfrwt beam="2">  1       -2 0.59638683E-01 0.17587307E+04</pdfrwt>
<totfact> 0.65537660E+00</totfact>
</mgrwt>
</event>
<event>
12    4  0.4486176E-008  0.2956321E+04  0.7818608E-02  0.8256315E-01
         -4   -1    0    0    0  501 -0.00000000000E+00  0.00000000000E+00  0.12126970147E+04  0.12126970147E+04  0.00000000000E+00 0.  1.
          3   -1    0    0  501    0  0.00000000000E+00 -0.00000000000E+00 -0.18017347006E+04  0.18017347006E+04  0.00000000000E+00 0. -1.
        -24    2    1    2    0    0 -0.12570935833E+04 -0.79364410671E+02 -0.73201221917E+03  0.14590461557E+04  0.79942533333E+02 0.  0.
        254    2    1    2    0    0  0.12570935833E+04  0.79364410671E+02  0.14297453325E+03  0.15553855596E+04  0.90122113549E+03 0.  0.
         23    2    4    4    0    0  0.10537603752E+04 -0.93065670692E+01 -0.25738384849E+03  0.10886791054E+04  0.92077187419E+02 0.  0.
         23    2    4    4    0    0  0.20333320807E+03  0.88670977740E+02  0.40035838174E+03  0.46670645423E+03  0.91220309096E+02 0.  0.
          1    1    3    3  502    0 -0.12560740710E+04 -0.76783080990E+02 -0.72701550087E+03  0.14533304001E+04  0.00000000000E+00 0. -1.
         -2    1    3    3    0  502 -0.10195122758E+01 -0.25813296811E+01 -0.49967182933E+01  0.57157555849E+01  0.00000000000E+00 0.  1.
         11    1    5    5    0    0  0.94155416335E+03 -0.75991532288E+01 -0.25860951723E+03  0.97645321037E+03  0.00000000000E+00 0. -1.
        -11    1    5    5    0    0  0.11220621190E+03 -0.17074138404E+01  0.12256687422E+01  0.11222589503E+03  0.00000000000E+00 0.  1.
          2    1    6    6  503    0  0.13677134596E+02  0.23370387862E+01  0.10107938474E+03  0.10202728940E+03  0.00000000000E+00 0.  1.
         -2    1    6    6    0  503  0.18965607347E+03  0.86333938954E+02  0.29927899700E+03  0.36467916483E+03  0.00000000000E+00 0. -1.
<mgrwt>
<rscale>  0 0.29563209E+04</rscale>
<asrwt>0</asrwt>
<pdfrwt beam="1">  1        3 0.27718995E+00 0.29563209E+04</pdfrwt>
<pdfrwt beam="2">  1       -4 0.18656877E+00 0.29563209E+04</pdfrwt>
<totfact> 0.16391514E-02</totfact>
</mgrwt>
</event>
<event>
12    4  0.4486176E-008  0.1527965E+04  0.7818608E-02  0.8866067E-01
          1   -1    0    0  501    0  0.00000000000E+00  0.00000000000E+00  0.28742578885E+04  0.28742578885E+04  0.00000000000E+00 0. -1.
         -2   -1    0    0    0  501 -0.00000000000E+00 -0.00000000000E+00 -0.20306779908E+03  0.20306779908E+03  0.00000000000E+00 0.  1.
        -24    2    1    2    0    0 -0.17665812453E+03 -0.24921906232E+03  0.16579483653E+04  0.16878879601E+04  0.82793417172E+02 0.  0.
        254    2    1    2    0    0  0.17665812453E+03  0.24921906232E+03  0.10132417242E+04  0.13894377275E+04  0.90031115345E+03 0.  0.
         23    2    4    4    0    0 -0.18849807220E+03  0.44258043223E+03  0.34636910314E+03  0.59965636671E+03  0.90593820440E+02 0.  0.
         23    2    4    4    0    0  0.36515619673E+03 -0.19336136991E+03  0.66687262101E+03  0.78978136078E+03  0.91147341151E+02 0.  0.
          1    1    3    3  502    0 -0.14715856543E+03 -0.14262171322E+03  0.11381898106E+04  0.11564915224E+04  0.00000000000E+00 0. -1.
         -2    1    3    3    0  502 -0.29499559101E+02 -0.10659734910E+03  0.51975855472E+03  0.53139643772E+03  0.00000000000E+00 0.  1.
         11    1    5    5    0    0 -0.15325859715E+00  0.59083410960E+02  0.66227529084E+02  0.88752231225E+02  0.00000000000E+00 0. -1.
        -11    1    5    5    0    0 -0.18834481361E+03  0.38349702127E+03  0.28014157406E+03  0.51090413548E+03  0.00000000000E+00 0.  1.
          1    1    6    6  503    0  0.60122362025E+02 -0.74543422843E+02  0.15126661164E+03  0.17903353904E+03  0.00000000000E+00 0. -1.
         -1    1    6    6    0  503  0.30503383471E+03 -0.11881794707E+03  0.51560600937E+03  0.61074782174E+03  0.00000000000E+00 0.  1.
<mgrwt>
<rscale>  0 0.15279650E+04</rscale>
<asrwt>0</asrwt>
<pdfrwt beam="1">  1        1 0.44219349E+00 0.15279650E+04</pdfrwt>
<pdfrwt beam="2">  1       -2 0.31241202E-01 0.15279650E+04</pdfrwt>
<totfact> 0.59679486E+00</totfact>
</mgrwt>
</event>
<event>
12    4  0.4486176E-008  0.1240620E+04  0.7818608E-02  0.9078027E-01
         -2   -1    0    0    0  501 -0.00000000000E+00  0.00000000000E+00  0.44888142226E+03  0.44888142226E+03  0.00000000000E+00 0.  1.
          1   -1    0    0  501    0  0.00000000000E+00 -0.00000000000E+00 -0.85720734426E+03  0.85720734426E+03  0.00000000000E+00 0. -1.
        -24    2    1    2    0    0 -0.16227431520E+02  0.15230629197E+03 -0.36843793139E+03  0.41302435532E+03  0.10668679718E+03 0.  0.
        254    2    1    2    0    0  0.16227431520E+02 -0.15230629197E+03 -0.39887990610E+02  0.89306441120E+03  0.87892687673E+03 0.  0.
         23    2    4    4    0    0  0.38344742014E+03  0.63449088841E+02  0.13913493177E+03  0.42222739596E+03  0.88655139606E+02 0.  0.
         23    2    4    4    0    0 -0.36721998862E+03 -0.21575538081E+03 -0.17902292238E+03  0.47083701524E+03  0.90760034123E+02 0.  0.
          3    1    3    3  502    0 -0.40980302938E+02  0.14713154129E+03 -0.34955132831E+03  0.38146193361E+03  0.00000000000E+00 0. -1.
         -4    1    3    3    0  502  0.24752871418E+02  0.51747506756E+01 -0.18886603075E+02  0.31562421702E+02  0.00000000000E+00 0.  1.
         11    1    5    5    0    0  0.28224164110E+03  0.71316480705E+02  0.13430949055E+03  0.32060165883E+03  0.00000000000E+00 0.  1.
        -11    1    5    5    0    0  0.10120577903E+03 -0.78673918641E+01  0.48254412148E+01  0.10162573713E+03  0.00000000000E+00 0. -1.
          2    1    6    6  503    0 -0.26619803175E+03 -0.10983057139E+03 -0.10247844154E+03  0.30565663333E+03  0.00000000000E+00 0. -1.
         -2    1    6    6    0  503 -0.10102195687E+03 -0.10592480942E+03 -0.76544480840E+02  0.16518038191E+03  0.00000000000E+00 0.  1.
<mgrwt>
<rscale>  0 0.12406199E+04</rscale>
<asrwt>0</asrwt>
<pdfrwt beam="1">  1        1 0.13187805E+00 0.12406199E+04</pdfrwt>
<pdfrwt beam="2">  1       -2 0.69058681E-01 0.12406199E+04</pdfrwt>
<totfact> 0.32706248E+01</totfact>
</mgrwt>
</event>
<event>
12    4  0.4486176E-008  0.2249371E+04  0.7818608E-02  0.8498155E-01
          1   -1    0    0  501    0  0.00000000000E+00  0.00000000000E+00  0.19634761317E+04  0.19634761317E+04  0.00000000000E+00 0. -1.
         -2   -1    0    0    0  501 -0.00000000000E+00 -0.00000000000E+00 -0.64422368054E+03  0.64422368054E+03  0.00000000000E+00 0.  1.
        -24    2    1    2    0    0  0.38420207438E+03 -0.47760918496E+03  0.13609616505E+04  0.14948659259E+04  0.81766464219E+02 0.  0.
        254    2    1    2    0    0 -0.38420207438E+03  0.47760918496E+03 -0.41709199367E+02  0.11128338863E+04  0.92786735785E+03 0.  0.
         23    2    4    4    0    0  0.77968851424E+02 -0.55190500615E+01  0.32333243616E+03  0.34552554585E+03  0.93458209148E+02 0.  0.
         23    2    4    4    0    0 -0.46217092580E+03  0.48312823502E+03 -0.36504163553E+03  0.76730834049E+03  0.92151167075E+02 0.  0.
          3    1    3    3  502    0  0.18417008313E+03 -0.28759783226E+03  0.71064731121E+03  0.78844830748E+03  0.00000000000E+00 0. -1.
         -4    1    3    3    0  502  0.20003199124E+03 -0.19001135269E+03  0.65031433931E+03  0.70641761840E+03  0.00000000000E+00 0.  1.
         11    1    5    5    0    0  0.28060420496E+02  0.16019508088E+02  0.21437613757E+02  0.38776063769E+02  0.00000000000E+00 0. -1.
        -11    1    5    5    0    0  0.49908430929E+02 -0.21538558150E+02  0.30189482240E+03  0.30674948208E+03  0.00000000000E+00 0.  1.
          2    1    6    6  503    0 -0.35035554529E+03  0.30474632206E+03 -0.25474305232E+03  0.52963511178E+03  0.00000000000E+00 0. -1.
         -2    1    6    6    0  503 -0.11181538051E+03  0.17838191295E+03 -0.11029858321E+03  0.23767322871E+03  0.00000000000E+00 0.  1.
<mgrwt>
<rscale>  0 0.22493713E+04</rscale>
<asrwt>0</asrwt>
<pdfrwt beam="1">  1        1 0.30207325E+00 0.22493713E+04</pdfrwt>
<pdfrwt beam="2">  1       -2 0.99111337E-01 0.22493713E+04</pdfrwt>
<totfact> 0.21226236E+00</totfact>
</mgrwt>
</event>
<event>
12    4  0.4486176E-008  0.1404742E+04  0.7818608E-02  0.8950394E-01
         -2   -1    0    0    0  501 -0.00000000000E+00  0.00000000000E+00  0.10511236211E+04  0.10511236211E+04  0.00000000000E+00 0.  1.
          1   -1    0    0  501    0  0.00000000000E+00 -0.00000000000E+00 -0.46933082346E+03  0.46933082346E+03  0.00000000000E+00 0. -1.
        -24    2    1    2    0    0  0.38568063321E+03 -0.81848368817E+02  0.23673414924E+02  0.40282961686E+03  0.79136359117E+02 0.  0.
        254    2    1    2    0    0 -0.38568063321E+03  0.81848368817E+02  0.55811938267E+03  0.11176248277E+04  0.88438639957E+03 0.  0.
         23    2    4    4    0    0 -0.64840784808E+03  0.35419626337E+02  0.51195480936E+03  0.83202600789E+03  0.92099205186E+02 0.  0.
         23    2    4    4    0    0  0.26272721487E+03  0.46428742480E+02  0.46164573310E+02  0.28559881976E+03  0.90853180766E+02 0.  0.
          3    1    3    3  502    0  0.25141678964E+03 -0.71699779818E+02 -0.17506881903E+02  0.26202624191E+03  0.00000000000E+00 0. -1.
         -4    1    3    3    0  502  0.13426384358E+03 -0.10148588999E+02  0.41180296827E+02  0.14080337495E+03  0.00000000000E+00 0.  1.
         11    1    5    5    0    0 -0.40284576601E+03 -0.13278424327E+02  0.35039668635E+03  0.53407758383E+03  0.00000000000E+00 0.  1.
        -11    1    5    5    0    0 -0.24556208207E+03  0.48698050664E+02  0.16155812301E+03  0.29794842406E+03  0.00000000000E+00 0. -1.
          2    1    6    6  503    0  0.10686388739E+03 -0.14040124467E+02  0.48988294167E+02  0.11839285658E+03  0.00000000000E+00 0. -1.
         -2    1    6    6    0  503  0.15586332748E+03  0.60468866947E+02 -0.28237208569E+01  0.16720596318E+03  0.00000000000E+00 0.  1.
<mgrwt>
<rscale>  0 0.14047416E+04</rscale>
<asrwt>0</asrwt>
<pdfrwt beam="1">  1        1 0.72204743E-01 0.14047416E+04</pdfrwt>
<pdfrwt beam="2">  1       -2 0.16171133E+00 0.14047416E+04</pdfrwt>
<totfact> 0.10072405E+01</totfact>
</mgrwt>
</event>
<event>
12    4  0.4486176E-008  0.2081465E+04  0.7818608E-02  0.8569452E-01
          1   -1    0    0  501    0  0.00000000000E+00  0.00000000000E+00  0.85733663257E+03  0.85733663257E+03  0.00000000000E+00 0. -1.
         -2   -1    0    0    0  501 -0.00000000000E+00 -0.00000000000E+00 -0.12633594345E+04  0.12633594345E+04  0.00000000000E+00 0.  1.
        -24    2    1    2    0    0  0.91996146004E+02  0.60818850886E+03 -0.75742885172E+03  0.97913086891E+03  0.81499937688E+02 0.  0.
        254    2    1    2    0    0 -0.91996146004E+02 -0.60818850886E+03  0.35140604980E+03  0.11415651981E+04  0.89516944574E+03 0.  0.
         23    2    4    4    0    0  0.10954448577E+03 -0.17079418110E+03  0.56503125721E+03  0.60704665139E+03  0.89859160223E+02 0.  0.
         23    2    4    4    0    0 -0.20154063178E+03 -0.43739432776E+03 -0.21362520741E+03  0.53451854675E+03  0.90232606988E+02 0.  0.
          3    1    3    3  502    0  0.50051477030E+02  0.14266171941E+03 -0.15349922213E+03  0.21545191513E+03  0.00000000000E+00 0. -1.
         -4    1    3    3    0  502  0.41944668973E+02  0.46552678945E+03 -0.60392962959E+03  0.76367895378E+03  0.00000000000E+00 0.  1.
         11    1    5    5    0    0  0.73380831225E+02 -0.13814429063E+03  0.30807841866E+03  0.34551541713E+03  0.00000000000E+00 0. -1.
        -11    1    5    5    0    0  0.36163654548E+02 -0.32649890470E+02  0.25695283855E+03  0.26153123426E+03  0.00000000000E+00 0.  1.
          3    1    6    6  503    0  0.49745634744E+01 -0.43234264785E+02 -0.76964089795E+01  0.44194825991E+02  0.00000000000E+00 0. -1.
         -3    1    6    6    0  503 -0.20651519525E+03 -0.39416006298E+03 -0.20592879843E+03  0.49032372076E+03  0.00000000000E+00 0.  1.
<mgrwt>
<rscale>  0 0.20814652E+04</rscale>
<asrwt>0</asrwt>
<pdfrwt beam="1">  1        1 0.13189794E+00 0.20814652E+04</pdfrwt>
<pdfrwt beam="2">  1       -2 0.19436299E+00 0.20814652E+04</pdfrwt>
<totfact> 0.23091989E+00</totfact>
</mgrwt>
</event>
<event>
12    4  0.4486176E-008  0.2967218E+04  0.7818608E-02  0.8253154E-01
         -2   -1    0    0    0  501 -0.00000000000E+00  0.00000000000E+00  0.12339958329E+04  0.12339958329E+04  0.00000000000E+00 0.  1.
          1   -1    0    0  501    0  0.00000000000E+00 -0.00000000000E+00 -0.17837141955E+04  0.17837141955E+04  0.00000000000E+00 0. -1.
        -24    2    1    2    0    0  0.63814198073E+03 -0.92515918592E+03 -0.95606095249E+03  0.14776849413E+04  0.79721602604E+02 0.  0.
        254    2    1    2    0    0 -0.63814198073E+03  0.92515918592E+03  0.40634258991E+03  0.15400250871E+04  0.97129720570E+03 0.  0.
         23    2    4    4    0    0  0.18995539225E+03  0.33156131929E+03 -0.88078987029E+02  0.40383489903E+03  0.96481906220E+02 0.  0.
         23    2    4    4    0    0 -0.82809737298E+03  0.59359786663E+03  0.49442157693E+03  0.11361901881E+04  0.91497330189E+02 0.  0.
          1    1    3    3  502    0  0.35595769073E+03 -0.56340342653E+03 -0.60337939981E+03  0.89899721842E+03  0.00000000000E+00 0. -1.
         -2    1    3    3    0  502  0.28218429001E+03 -0.36175575939E+03 -0.35268155267E+03  0.57868772285E+03  0.00000000000E+00 0.  1.
         11    1    5    5    0    0  0.71718963520E+01  0.10334245458E+02  0.15541228350E+02  0.19994061745E+02  0.00000000000E+00 0. -1.
        -11    1    5    5    0    0  0.18278349589E+03  0.32122707383E+03 -0.10362021538E+03  0.38384083728E+03  0.00000000000E+00 0.  1.
          4    1    6    6  503    0 -0.24251663935E+03  0.12605896610E+03  0.11963809947E+03  0.29835961211E+03  0.00000000000E+00 0. -1.
         -4    1    6    6    0  503 -0.58558073363E+03  0.46753890053E+03  0.37478347746E+03  0.83783057600E+03  0.00000000000E+00 0.  1.
<mgrwt>
<rscale>  0 0.29672181E+04</rscale>
<asrwt>0</asrwt>
<pdfrwt beam="1">  1        1 0.27441757E+00 0.29672181E+04</pdfrwt>
<pdfrwt beam="2">  1       -2 0.18984551E+00 0.29672181E+04</pdfrwt>
<totfact> 0.48702690E-01</totfact>
</mgrwt>
</event>
<event>
12    4  0.4486176E-008  0.1484634E+04  0.7818608E-02  0.8894736E-01
          1   -1    0    0  501    0  0.00000000000E+00  0.00000000000E+00  0.39471592268E+03  0.39471592268E+03  0.00000000000E+00 0. -1.
         -2   -1    0    0    0  501 -0.00000000000E+00 -0.00000000000E+00 -0.13960273924E+04  0.13960273924E+04  0.00000000000E+00 0.  1.
        -24    2    1    2    0    0 -0.14838202656E+03 -0.59450975534E+02 -0.83317631839E+03  0.85227431259E+03  0.81468288833E+02 0.  0.
        254    2    1    2    0    0  0.14838202656E+03  0.59450975534E+02 -0.16813515136E+03  0.93846900251E+03  0.90934206724E+03 0.  0.
         23    2    4    4    0    0  0.51619508876E+03  0.28281106530E+02 -0.11184698959E+02  0.52693454844E+03  0.10137914086E+03 0.  0.
         23    2    4    4    0    0 -0.36781306220E+03  0.31169869004E+02 -0.15695045240E+03  0.41153445408E+03  0.92028000769E+02 0.  0.
          3    1    3    3  502    0 -0.17108647094E+00 -0.26862249606E+02 -0.15671304461E+03  0.15899870464E+03  0.00000000000E+00 0. -1.
         -4    1    3    3    0  502 -0.14821094009E+03 -0.32588725928E+02 -0.67646327377E+03  0.69327560795E+03  0.00000000000E+00 0.  1.
         11    1    5    5    0    0  0.34927602634E+02  0.60766684789E+01  0.25636085850E+02  0.43750111122E+02  0.00000000000E+00 0. -1.
        -11    1    5    5    0    0  0.48126748613E+03  0.22204438051E+02 -0.36820784809E+02  0.48318443732E+03  0.00000000000E+00 0.  1.
          1    1    6    6  503    0 -0.21790759556E+02  0.13185144256E+02 -0.36901455658E+02  0.44837513989E+02  0.00000000000E+00 0. -1.
         -1    1    6    6    0  503 -0.34602230264E+03  0.17984724748E+02 -0.12004899675E+03  0.36669694009E+03  0.00000000000E+00 0.  1.
<mgrwt>
<rscale>  0 0.14846336E+04</rscale>
<asrwt>0</asrwt>
<pdfrwt beam="1">  1        1 0.60725527E-01 0.14846336E+04</pdfrwt>
<pdfrwt beam="2">  1       -2 0.21477344E+00 0.14846336E+04</pdfrwt>
<totfact> 0.55126031E+00</totfact>
</mgrwt>
</event>
<event>
12    4  0.4486176E-008  0.1359750E+04  0.7818608E-02  0.8983480E-01
         -2   -1    0    0    0  501 -0.00000000000E+00  0.00000000000E+00  0.19198730950E+03  0.19198730950E+03  0.00000000000E+00 0.  1.
          1   -1    0    0  501    0  0.00000000000E+00 -0.00000000000E+00 -0.24076081021E+04  0.24076081021E+04  0.00000000000E+00 0. -1.
        -24    2    1    2    0    0 -0.69683583947E+02 -0.25809854804E+03 -0.12238637717E+03  0.30466632677E+03  0.79827833358E+02 0.  0.
        254    2    1    2    0    0  0.69683583947E+02  0.25809854804E+03 -0.20932344154E+04  0.22949290848E+04  0.90199696458E+03 0.  0.
         23    2    4    4    0    0 -0.23635209660E+03  0.29304132556E+02 -0.11609601316E+03  0.27915302559E+03  0.87903820568E+02 0.  0.
         23    2    4    4    0    0  0.30603568055E+03  0.22879441548E+03 -0.19771384023E+04  0.20157760592E+04  0.90951289042E+02 0.  0.
          3    1    3    3  502    0  0.12898875392E+02 -0.98001437506E+02 -0.44910754778E+02  0.10857089221E+03  0.00000000000E+00 0. -1.
         -4    1    3    3    0  502 -0.82582459339E+02 -0.16009711053E+03 -0.77475622389E+02  0.19609543456E+03  0.00000000000E+00 0.  1.
         11    1    5    5    0    0 -0.12682471558E+02  0.10721517489E+02 -0.38073772422E+02  0.41538032795E+02  0.00000000000E+00 0.  1.
        -11    1    5    5    0    0 -0.22366962505E+03  0.18582615067E+02 -0.78022240739E+02  0.23761499279E+03  0.00000000000E+00 0. -1.
          1    1    6    6  503    0  0.29029312053E+03  0.22733731550E+03 -0.17678859543E+04  0.18059272129E+04  0.00000000000E+00 0. -1.
         -1    1    6    6    0  503  0.15742560016E+02  0.14570999836E+01 -0.20925244792E+03  0.20984884631E+03  0.00000000000E+00 0.  1.
<mgrwt>
<rscale>  0 0.13597503E+04</rscale>
<asrwt>0</asrwt>
<pdfrwt beam="1">  1        1 0.37040127E+00 0.13597503E+04</pdfrwt>
<pdfrwt beam="2">  1       -2 0.29536507E-01 0.13597503E+04</pdfrwt>
<totfact> 0.14276431E+01</totfact>
</mgrwt>
</event>
<event>
12    4  0.4486176E-008  0.2651376E+04  0.7818608E-02  0.8350957E-01
          1   -1    0    0  501    0  0.00000000000E+00  0.00000000000E+00  0.16527264562E+04  0.16527264562E+04  0.00000000000E+00 0. -1.
         -2   -1    0    0    0  501 -0.00000000000E+00 -0.00000000000E+00 -0.10633630346E+04  0.10633630346E+04  0.00000000000E+00 0.  1.
        -24    2    1    2    0    0  0.26844482204E+03  0.11400209557E+04  0.25072472389E+03  0.12004068092E+04  0.80020113941E+02 0.  0.
        254    2    1    2    0    0 -0.26844482204E+03 -0.11400209557E+04  0.33863869773E+03  0.15156826816E+04  0.90050398212E+03 0.  0.
         23    2    4    4    0    0  0.19623323244E+03  0.26601504640E+02  0.57061507408E+02  0.22553876877E+03  0.91632958197E+02 0.  0.
         23    2    4    4    0    0 -0.46467805448E+03 -0.11666224603E+04  0.28157719032E+03  0.12901439128E+04  0.90840202825E+02 0.  0.
          1    1    3    3  502    0  0.87346730923E+02  0.40396806509E+03  0.12696942518E+03  0.43236660826E+03  0.00000000000E+00 0. -1.
         -2    1    3    3    0  502  0.18109809112E+03  0.73605289059E+03  0.12375529871E+03  0.76804020097E+03  0.00000000000E+00 0.  1.
         11    1    5    5    0    0  0.13944615340E+03 -0.19957343016E+02  0.17002679442E+02  0.14188945115E+03  0.00000000000E+00 0.  1.
        -11    1    5    5    0    0  0.56787079039E+02  0.46558847656E+02  0.40058827966E+02  0.83649317623E+02  0.00000000000E+00 0. -1.
          4    1    6    6  503    0 -0.42213835502E+03 -0.10688735455E+04  0.28293817202E+03  0.11835309274E+04  0.00000000000E+00 0. -1.
         -4    1    6    6    0  503 -0.42539699460E+02 -0.97748914838E+02 -0.13609817010E+01  0.10661298539E+03  0.00000000000E+00 0.  1.
<mgrwt>
<rscale>  0 0.26513757E+04</rscale>
<asrwt>0</asrwt>
<pdfrwt beam="1">  1        1 0.25426561E+00 0.26513757E+04</pdfrwt>
<pdfrwt beam="2">  1       -2 0.16359431E+00 0.26513757E+04</pdfrwt>
<totfact> 0.93740476E-01</totfact>
</mgrwt>
</event>
<event>
12    4  0.4486176E-008  0.1328951E+04  0.7818608E-02  0.9006917E-01
          1   -1    0    0  501    0  0.00000000000E+00  0.00000000000E+00  0.29192532625E+04  0.29192532625E+04  0.00000000000E+00 0. -1.
         -2   -1    0    0    0  501 -0.00000000000E+00 -0.00000000000E+00 -0.15124667974E+03  0.15124667974E+03  0.00000000000E+00 0.  1.
        -24    2    1    2    0    0 -0.19414854686E+03  0.25616184260E+03  0.10699283857E+04  0.11200792449E+04  0.80735472342E+02 0.  0.
        254    2    1    2    0    0  0.19414854686E+03 -0.25616184260E+03  0.16980781971E+04  0.19504206974E+04  0.90407897080E+03 0.  0.
         23    2    4    4    0    0 -0.23090118388E+03 -0.16946041073E+03  0.13600977820E+04  0.13929493126E+04  0.91703999417E+02 0.  0.
         23    2    4    4    0    0  0.42504973074E+03 -0.86701431869E+02  0.33798041514E+03  0.55747138476E+03  0.91428507126E+02 0.  0.
          1    1    3    3  502    0 -0.11110963131E+03  0.17423187696E+03  0.79518035434E+03  0.82159229125E+03  0.00000000000E+00 0. -1.
         -2    1    3    3    0  502 -0.83038915555E+02  0.81929965633E+02  0.27474803136E+03  0.29848695366E+03  0.00000000000E+00 0.  1.
         11    1    5    5    0    0 -0.58086437931E+02 -0.15087130178E+01  0.21099681853E+03  0.21885147456E+03  0.00000000000E+00 0. -1.
        -11    1    5    5    0    0 -0.17281474595E+03 -0.16795169771E+03  0.11491009634E+04  0.11740978381E+04  0.00000000000E+00 0.  1.
          4    1    6    6  503    0  0.32363445632E+02  0.17664798531E+02  0.24293372366E+02  0.44154339099E+02  0.00000000000E+00 0. -1.
         -4    1    6    6    0  503  0.39268628511E+03 -0.10436623040E+03  0.31368704278E+03  0.51331704566E+03  0.00000000000E+00 0.  1.
<mgrwt>
<rscale>  0 0.13289505E+04</rscale>
<asrwt>0</asrwt>
<pdfrwt beam="1">  1        1 0.44911584E+00 0.13289505E+04</pdfrwt>
<pdfrwt beam="2">  1       -2 0.23268722E-01 0.13289505E+04</pdfrwt>
<totfact> 0.97008787E+00</totfact>
</mgrwt>
</event>
<event>
12    4  0.4486176E-008  0.1310017E+04  0.7818608E-02  0.9021659E-01
         -2   -1    0    0    0  501 -0.00000000000E+00  0.00000000000E+00  0.79977880602E+03  0.79977880602E+03  0.00000000000E+00 0.  1.
          1   -1    0    0  501    0  0.00000000000E+00 -0.00000000000E+00 -0.53644356539E+03  0.53644356539E+03  0.00000000000E+00 0. -1.
        -24    2    1    2    0    0  0.14301816493E+03 -0.65259341522E+02 -0.24035486328E+03  0.29800436952E+03  0.79518342543E+02 0.  0.
        254    2    1    2    0    0 -0.14301816493E+03  0.65259341522E+02  0.50369010390E+03  0.10382180019E+04  0.89413641102E+03 0.  0.
         23    2    4    4    0    0  0.17461688637E+03 -0.24097452472E+03 -0.57998406980E+02  0.31715073681E+03  0.93064472672E+02 0.  0.
         23    2    4    4    0    0 -0.31763505130E+03  0.30623386624E+03  0.56168851088E+03  0.72106726508E+03  0.98857528142E+02 0.  0.
          1    1    3    3  502    0  0.81968670128E+02 -0.78666791370E+02 -0.15143526725E+03  0.18931446620E+03  0.00000000000E+00 0. -1.
         -2    1    3    3    0  502  0.61049494798E+02  0.13407449848E+02 -0.88919596029E+02  0.10868990332E+03  0.00000000000E+00 0.  1.
         11    1    5    5    0    0  0.56822811839E+02 -0.95671617913E+02  0.22477997974E+02  0.11352158743E+03  0.00000000000E+00 0.  1.
        -11    1    5    5    0    0  0.11779407453E+03 -0.14530290681E+03 -0.80476404953E+02  0.20362914938E+03  0.00000000000E+00 0. -1.
          1    1    6    6  503    0 -0.78426381890E+02  0.28654131766E+02  0.78093705369E+02  0.11432577777E+03  0.00000000000E+00 0. -1.
         -1    1    6    6    0  503 -0.23920866941E+03  0.27757973448E+03  0.48359480551E+03  0.60674148731E+03  0.00000000000E+00 0.  1.
<mgrwt>
<rscale>  0 0.13100171E+04</rscale>
<asrwt>0</asrwt>
<pdfrwt beam="1">  1        1 0.82529779E-01 0.13100171E+04</pdfrwt>
<pdfrwt beam="2">  1       -2 0.12304289E+00 0.13100171E+04</pdfrwt>
<totfact> 0.17207135E+01</totfact>
</mgrwt>
</event>
<event>
12    4  0.4486176E-008  0.1463378E+04  0.7818608E-02  0.8909178E-01
         -2   -1    0    0    0  501 -0.00000000000E+00  0.00000000000E+00  0.45151214384E+03  0.45151214384E+03  0.00000000000E+00 0.  1.
          1   -1    0    0  501    0  0.00000000000E+00 -0.00000000000E+00 -0.11857238677E+04  0.11857238677E+04  0.00000000000E+00 0. -1.
        -24    2    1    2    0    0 -0.24861616505E+03 -0.36154306202E+03 -0.12567600297E+03  0.46341938467E+03  0.80247648850E+02 0.  0.
        254    2    1    2    0    0  0.24861616505E+03  0.36154306202E+03 -0.60853572093E+03  0.11738166269E+04  0.90277703047E+03 0.  0.
         23    2    4    4    0    0  0.33952165830E+03  0.16598521989E+03  0.12150663916E+03  0.40707696071E+03  0.90120690799E+02 0.  0.
         23    2    4    4    0    0 -0.90905493243E+02  0.19555784214E+03 -0.73004236010E+03  0.76673966620E+03  0.91767041260E+02 0.  0.
          3    1    3    3  502    0 -0.21876006146E+03 -0.26232013820E+03 -0.10851895637E+03  0.35839110380E+03  0.00000000000E+00 0. -1.
         -4    1    3    3    0  502 -0.29856103591E+02 -0.99222923826E+02 -0.17157046600E+02  0.10502828087E+03  0.00000000000E+00 0.  1.
         11    1    5    5    0    0  0.39889028698E+02 -0.44933532406E+01 -0.36923317318E+01  0.40310769621E+02  0.00000000000E+00 0. -1.
        -11    1    5    5    0    0  0.29963262960E+03  0.17047857313E+03  0.12519897090E+03  0.36676619109E+03  0.00000000000E+00 0.  1.
          1    1    6    6  503    0 -0.16253910108E+01  0.88696890037E+02 -0.20153319521E+03  0.22019402574E+03  0.00000000000E+00 0. -1.
         -1    1    6    6    0  503 -0.89280102232E+02  0.10686095210E+03 -0.52850916489E+03  0.54654564046E+03  0.00000000000E+00 0.  1.
<mgrwt>
<rscale>  0 0.14633779E+04</rscale>
<asrwt>0</asrwt>
<pdfrwt beam="1">  1        1 0.18241906E+00 0.14633779E+04</pdfrwt>
<pdfrwt beam="2">  1       -2 0.69463407E-01 0.14633779E+04</pdfrwt>
<totfact> 0.17608299E+01</totfact>
</mgrwt>
</event>
<event>
12    4  0.4486176E-008  0.2131839E+04  0.7818608E-02  0.8547346E-01
         -2   -1    0    0    0  501 -0.00000000000E+00  0.00000000000E+00  0.15769540619E+04  0.15769540619E+04  0.00000000000E+00 0.  1.
          1   -1    0    0  501    0  0.00000000000E+00 -0.00000000000E+00 -0.72049313078E+03  0.72049313078E+03  0.00000000000E+00 0. -1.
        -24    2    1    2    0    0 -0.61588075311E+03 -0.56506032353E+03  0.50941127906E+02  0.84438642970E+03  0.10858716712E+03 0.  0.
        254    2    1    2    0    0  0.61588075311E+03  0.56506032353E+03  0.80551980323E+03  0.14530607630E+04  0.87402583274E+03 0.  0.
         23    2    4    4    0    0  0.50885566172E+03 -0.14821731929E+02  0.96356164328E+02  0.52623605248E+03  0.92120053867E+02 0.  0.
         23    2    4    4    0    0  0.10702509139E+03  0.57988205546E+03  0.70916363890E+03  0.92682471053E+03  0.91506332374E+02 0.  0.
          3    1    3    3  502    0 -0.32502537416E+03 -0.32447634035E+03 -0.22617654939E+02  0.45982382236E+03  0.00000000000E+00 0. -1.
         -4    1    3    3    0  502 -0.29085537895E+03 -0.24058398318E+03  0.73558782845E+02  0.38456260733E+03  0.00000000000E+00 0.  1.
         11    1    5    5    0    0  0.45910190089E+03 -0.41291442011E+02  0.84165739507E+02  0.46857593866E+03  0.00000000000E+00 0. -1.
        -11    1    5    5    0    0  0.49753760831E+02  0.26469710082E+02  0.12190424821E+02  0.57660113822E+02  0.00000000000E+00 0.  1.
          1    1    6    6  503    0  0.87486581912E+02  0.27049806175E+03  0.29755088188E+03  0.41153326808E+03  0.00000000000E+00 0. -1.
         -1    1    6    6    0  503  0.19538509478E+02  0.30938399371E+03  0.41161275703E+03  0.51529144245E+03  0.00000000000E+00 0.  1.
<mgrwt>
<rscale>  0 0.21318392E+04</rscale>
<asrwt>0</asrwt>
<pdfrwt beam="1">  1        1 0.11084510E+00 0.21318392E+04</pdfrwt>
<pdfrwt beam="2">  1       -2 0.24260832E+00 0.21318392E+04</pdfrwt>
<totfact> 0.14945906E+00</totfact>
</mgrwt>
</event>
<event>
12    4  0.4486176E-008  0.1621903E+04  0.7818608E-02  0.8807204E-01
         -2   -1    0    0    0  501 -0.00000000000E+00  0.00000000000E+00  0.55003291289E+03  0.55003291289E+03  0.00000000000E+00 0.  1.
          1   -1    0    0  501    0  0.00000000000E+00 -0.00000000000E+00 -0.11956421763E+04  0.11956421763E+04  0.00000000000E+00 0. -1.
        -24    2    1    2    0    0  0.45483778603E+03 -0.19916759526E+03  0.29694618565E+01  0.50186253243E+03  0.72883750944E+02 0.  0.
        254    2    1    2    0    0 -0.45483778603E+03  0.19916759526E+03 -0.64857872530E+03  0.12438125568E+04  0.93801395029E+03 0.  0.
         23    2    4    4    0    0  0.19779813585E+03  0.14946768933E+03  0.63955818671E+02  0.27185131235E+03  0.91367918777E+02 0.  0.
         23    2    4    4    0    0 -0.65263592188E+03  0.49699905926E+02 -0.71253454397E+03  0.97196124445E+03  0.92733258250E+02 0.  0.
          1    1    3    3  502    0  0.34065881488E+02  0.17067830172E+01  0.10013564455E+02  0.35548120385E+02  0.00000000000E+00 0. -1.
         -2    1    3    3    0  502  0.42077190454E+03 -0.20087437828E+03 -0.70441025980E+01  0.46631441205E+03  0.00000000000E+00 0.  1.
         11    1    5    5    0    0  0.13259964793E+03  0.84126637631E+02  0.82972359793E+02  0.17760734861E+03  0.00000000000E+00 0. -1.
        -11    1    5    5    0    0  0.65198487924E+02  0.65341051701E+02 -0.19016541122E+02  0.94243963739E+02  0.00000000000E+00 0.  1.
          1    1    6    6  503    0 -0.60663123713E+03  0.67677747018E+02 -0.67398314207E+03  0.90930468551E+03  0.00000000000E+00 0. -1.
         -1    1    6    6    0  503 -0.46004684753E+02 -0.17977841092E+02 -0.38551401900E+02  0.62656558938E+02  0.00000000000E+00 0.  1.
<mgrwt>
<rscale>  0 0.16219033E+04</rscale>
<asrwt>0</asrwt>
<pdfrwt beam="1">  1        1 0.18394495E+00 0.16219033E+04</pdfrwt>
<pdfrwt beam="2">  1       -2 0.84620448E-01 0.16219033E+04</pdfrwt>
<totfact> 0.11007678E+01</totfact>
</mgrwt>
</event>
<event>
12    4  0.4486176E-008  0.2968347E+04  0.7818608E-02  0.8252828E-01
          1   -1    0    0  501    0  0.00000000000E+00  0.00000000000E+00  0.14540685353E+04  0.14540685353E+04  0.00000000000E+00 0. -1.
         -2   -1    0    0    0  501 -0.00000000000E+00 -0.00000000000E+00 -0.15149013263E+04  0.15149013263E+04  0.00000000000E+00 0.  1.
        -24    2    1    2    0    0 -0.55113238597E+03 -0.37583299077E+03  0.11425820594E+04  0.13254963060E+04  0.80307850130E+02 0.  0.
        254    2    1    2    0    0  0.55113238597E+03  0.37583299077E+03 -0.12034148504E+04  0.16434735557E+04  0.89877732623E+03 0.  0.
         23    2    4    4    0    0 -0.22798376938E+02  0.41627657712E+03 -0.17431515503E+03  0.46103893363E+03  0.91461305440E+02 0.  0.
         23    2    4    4    0    0  0.57393076291E+03 -0.40443586353E+02 -0.10290996954E+04  0.11824346220E+04  0.89851255176E+02 0.  0.
          1    1    3    3  502    0 -0.36606118811E+03 -0.21965584984E+03  0.66930477231E+03  0.79386293782E+03  0.00000000000E+00 0. -1.
         -4    1    3    3    0  502 -0.18507119786E+03 -0.15617714093E+03  0.47327728710E+03  0.53163336813E+03  0.00000000000E+00 0.  1.
         11    1    5    5    0    0 -0.30400213824E+02  0.41223238306E+03 -0.15786515981E+03  0.44247160285E+03  0.00000000000E+00 0. -1.
        -11    1    5    5    0    0  0.76018368851E+01  0.40441940674E+01 -0.16449995218E+02  0.18567330782E+02  0.00000000000E+00 0.  1.
          3    1    6    6  503    0  0.29951298999E+03 -0.66057079512E+02 -0.53930664955E+03  0.62042181713E+03  0.00000000000E+00 0. -1.
         -3    1    6    6    0  503  0.27441777292E+03  0.25613493159E+02 -0.48979304583E+03  0.56201280490E+03  0.00000000000E+00 0.  1.
<mgrwt>
<rscale>  0 0.29683466E+04</rscale>
<asrwt>0</asrwt>
<pdfrwt beam="1">  1        1 0.22370285E+00 0.29683466E+04</pdfrwt>
<pdfrwt beam="2">  1       -2 0.23306174E+00 0.29683466E+04</pdfrwt>
<totfact> 0.43171120E-01</totfact>
</mgrwt>
</event>
<event>
12    4  0.4486176E-008  0.1412473E+04  0.7818608E-02  0.8944839E-01
          1   -1    0    0  501    0  0.00000000000E+00  0.00000000000E+00  0.12134716287E+04  0.12134716287E+04  0.00000000000E+00 0. -1.
         -2   -1    0    0    0  501 -0.00000000000E+00 -0.00000000000E+00 -0.41102718874E+03  0.41102718874E+03  0.00000000000E+00 0.  1.
        -24    2    1    2    0    0 -0.37329135788E+03 -0.53672584379E+01  0.27931615944E+02  0.38547598602E+03  0.91849416405E+02 0.  0.
        254    2    1    2    0    0  0.37329135788E+03  0.53672584379E+01  0.77451282400E+03  0.12390228314E+04  0.89215033312E+03 0.  0.
         23    2    4    4    0    0  0.92902007988E+02  0.32628054062E+03 -0.31590328447E+00  0.35001708376E+03  0.86151522608E+02 0.  0.
         23    2    4    4    0    0  0.28038934989E+03 -0.32091328219E+03  0.77482872729E+03  0.88900574766E+03  0.91477541052E+02 0.  0.
          1    1    3    3  502    0 -0.51082758678E+02 -0.22266234548E+01  0.37016712379E+02  0.63124029351E+02  0.00000000000E+00 0. -1.
         -2    1    3    3    0  502 -0.32220859920E+03 -0.31406349831E+01 -0.90850964348E+01  0.32235195667E+03  0.00000000000E+00 0.  1.
         11    1    5    5    0    0  0.52681047911E+02  0.15060592710E+03 -0.42103816831E+02  0.16501566435E+03  0.00000000000E+00 0.  1.
        -11    1    5    5    0    0  0.40220960078E+02  0.17567461352E+03  0.41787913546E+02  0.18500141941E+03  0.00000000000E+00 0. -1.
          1    1    6    6  503    0  0.10592507792E+03 -0.16856336351E+03  0.29086742825E+03  0.35247353158E+03  0.00000000000E+00 0. -1.
         -1    1    6    6    0  503  0.17446427197E+03 -0.15234991867E+03  0.48396129904E+03  0.53653221607E+03  0.00000000000E+00 0.  1.
<mgrwt>
<rscale>  0 0.14124728E+04</rscale>
<asrwt>0</asrwt>
<pdfrwt beam="1">  1        1 0.18668794E+00 0.14124728E+04</pdfrwt>
<pdfrwt beam="2">  1       -2 0.63234953E-01 0.14124728E+04</pdfrwt>
<totfact> 0.20669850E+01</totfact>
</mgrwt>
</event>
<event>
12    4  0.4486176E-008  0.1659543E+04  0.7818608E-02  0.8784781E-01
          1   -1    0    0  501    0  0.00000000000E+00  0.00000000000E+00  0.46017854670E+03  0.46017854670E+03  0.00000000000E+00 0. -1.
         -2   -1    0    0    0  501 -0.00000000000E+00 -0.00000000000E+00 -0.14962039616E+04  0.14962039616E+04  0.00000000000E+00 0.  1.
        -24    2    1    2    0    0  0.26940926253E+03 -0.87703661231E+02  0.23425244765E+03  0.37578512888E+03  0.77890762792E+02 0.  0.
        254    2    1    2    0    0 -0.26940926253E+03  0.87703661231E+02 -0.12702778626E+04  0.15805973795E+04  0.89688847960E+03 0.  0.
         23    2    4    4    0    0 -0.56422176539E+03 -0.99121466091E+02 -0.81441739855E+03  0.99987743154E+03  0.91147756176E+02 0.  0.
         23    2    4    4    0    0  0.29481250286E+03  0.18682512732E+03 -0.45586046404E+03  0.58071994792E+03  0.87228752117E+02 0.  0.
          3    1    3    3  502    0  0.16778259783E+03 -0.14137454567E+02  0.13376309999E+03  0.21504286706E+03  0.00000000000E+00 0. -1.
         -4    1    3    3    0  502  0.10162666470E+03 -0.73566206664E+02  0.10048934766E+03  0.16074226182E+03  0.00000000000E+00 0.  1.
         11    1    5    5    0    0 -0.10288950208E+03 -0.48205073316E+02 -0.19766508982E+03  0.22799444394E+03  0.00000000000E+00 0. -1.
        -11    1    5    5    0    0 -0.46133226332E+03 -0.50916392775E+02 -0.61675230873E+03  0.77188298760E+03  0.00000000000E+00 0.  1.
          2    1    6    6  503    0  0.18226839433E+03  0.14418554046E+03 -0.24335454264E+03  0.33650062566E+03  0.00000000000E+00 0. -1.
         -2    1    6    6    0  503  0.11254410853E+03  0.42639586865E+02 -0.21250592141E+03  0.24421932226E+03  0.00000000000E+00 0.  1.
<mgrwt>
<rscale>  0 0.16595433E+04</rscale>
<asrwt>0</asrwt>
<pdfrwt beam="1">  1        1 0.70796699E-01 0.16595433E+04</pdfrwt>
<pdfrwt beam="2">  1       -2 0.23018523E+00 0.16595433E+04</pdfrwt>
<totfact> 0.35355992E+00</totfact>
</mgrwt>
</event>
<event>
12    4  0.4486176E-008  0.1612336E+04  0.7818608E-02  0.8813005E-01
         -2   -1    0    0    0  501 -0.00000000000E+00  0.00000000000E+00  0.49741964938E+03  0.49741964938E+03  0.00000000000E+00 0.  1.
          1   -1    0    0  501    0  0.00000000000E+00 -0.00000000000E+00 -0.13065557966E+04  0.13065557966E+04  0.00000000000E+00 0. -1.
        -24    2    1    2    0    0  0.69804537682E+02 -0.17718757834E+03  0.26289311349E+03  0.33492066040E+03  0.82407209888E+02 0.  0.
        254    2    1    2    0    0 -0.69804537682E+02  0.17718757834E+03 -0.10720292607E+04  0.14690547856E+04  0.98620845456E+03 0.  0.
         23    2    4    4    0    0 -0.76831157674E+02 -0.40044158102E+03 -0.42474741214E+03  0.59667871475E+03  0.96740053320E+02 0.  0.
         23    2    4    4    0    0  0.70266199918E+01  0.57762915936E+03 -0.64728184858E+03  0.87237607084E+03  0.91440682151E+02 0.  0.
          3    1    3    3  502    0  0.41087794636E+02 -0.17401104620E+02  0.47127427676E+02  0.64899921028E+02  0.00000000000E+00 0. -1.
         -4    1    3    3    0  502  0.28716743046E+02 -0.15978647372E+03  0.21576568581E+03  0.27002073937E+03  0.00000000000E+00 0.  1.
         11    1    5    5    0    0 -0.92027278456E+02 -0.33772154872E+03 -0.32360922293E+03  0.47670514326E+03  0.00000000000E+00 0.  1.
        -11    1    5    5    0    0  0.15196120782E+02 -0.62720032308E+02 -0.10113818921E+03  0.11997357149E+03  0.00000000000E+00 0. -1.
          3    1    6    6  503    0 -0.38852702970E+02  0.15699056984E+03 -0.18046770194E+03  0.24233068932E+03  0.00000000000E+00 0. -1.
         -3    1    6    6    0  503  0.45879322961E+02  0.42063858952E+03 -0.46681414664E+03  0.63004538152E+03  0.00000000000E+00 0.  1.
<mgrwt>
<rscale>  0 0.16123356E+04</rscale>
<asrwt>0</asrwt>
<pdfrwt beam="1">  1        1 0.20100859E+00 0.16123356E+04</pdfrwt>
<pdfrwt beam="2">  1       -2 0.76526099E-01 0.16123356E+04</pdfrwt>
<totfact> 0.11488959E+01</totfact>
</mgrwt>
</event>
<event>
12    4  0.4486176E-008  0.2166196E+04  0.7818608E-02  0.8532631E-01
          1   -1    0    0  501    0  0.00000000000E+00  0.00000000000E+00  0.30257085187E+04  0.30257085187E+04  0.00000000000E+00 0. -1.
         -2   -1    0    0    0  501 -0.00000000000E+00 -0.00000000000E+00 -0.38771128705E+03  0.38771128705E+03  0.00000000000E+00 0.  1.
        -24    2    1    2    0    0  0.73367044849E+03  0.24781779012E+03  0.16492717990E+04  0.18238540244E+04  0.81609137211E+02 0.  0.
        254    2    1    2    0    0 -0.73367044849E+03 -0.24781779012E+03  0.98872543256E+03  0.15895657813E+04  0.97440002456E+03 0.  0.
         23    2    4    4    0    0 -0.82844591948E+03 -0.31888815931E+03  0.10907103706E+04  0.14092396978E+04  0.91077513786E+02 0.  0.
         23    2    4    4    0    0  0.94775470993E+02  0.71070369188E+02 -0.10198493807E+03  0.18032608349E+03  0.89906515420E+02 0.  0.
          1    1    3    3  502    0  0.59164402277E+03  0.20454609870E+03  0.14023812889E+04  0.15357587817E+04  0.00000000000E+00 0. -1.
         -2    1    3    3    0  502  0.14202642572E+03  0.43271691423E+02  0.24689051013E+03  0.28809524271E+03  0.00000000000E+00 0.  1.
         11    1    5    5    0    0 -0.39499336390E+03 -0.18813849184E+03  0.48769199206E+03  0.65517885250E+03  0.00000000000E+00 0. -1.
        -11    1    5    5    0    0 -0.43345255558E+03 -0.13074966747E+03  0.60301837857E+03  0.75406084527E+03  0.00000000000E+00 0.  1.
          1    1    6    6  503    0  0.26570623517E+02  0.65262803483E+02 -0.19450931946E+02  0.73099728495E+02  0.00000000000E+00 0. -1.
         -1    1    6    6    0  503  0.68204847476E+02  0.58075657058E+01 -0.82534006121E+02  0.10722635499E+03  0.00000000000E+00 0.  1.
<mgrwt>
<rscale>  0 0.21661961E+04</rscale>
<asrwt>0</asrwt>
<pdfrwt beam="1">  1        1 0.46549360E+00 0.21661961E+04</pdfrwt>
<pdfrwt beam="2">  1       -2 0.59647892E-01 0.21661961E+04</pdfrwt>
<totfact> 0.12076141E+00</totfact>
</mgrwt>
</event>
<event>
12    4  0.4486176E-008  0.1364840E+04  0.7818608E-02  0.8979670E-01
         -2   -1    0    0    0  501 -0.00000000000E+00  0.00000000000E+00  0.18918984864E+03  0.18918984864E+03  0.00000000000E+00 0.  1.
          1   -1    0    0  501    0  0.00000000000E+00 -0.00000000000E+00 -0.24615345711E+04  0.24615345711E+04  0.00000000000E+00 0. -1.
        -24    2    1    2    0    0  0.24717699740E+03  0.75545928683E+02 -0.11134943505E+04  0.11462431197E+04  0.84852610096E+02 0.  0.
        254    2    1    2    0    0 -0.24717699740E+03 -0.75545928683E+02 -0.11588503720E+04  0.15044813001E+04  0.92397302030E+03 0.  0.
         23    2    4    4    0    0 -0.36048001483E+03 -0.12016593012E+03 -0.60371365980E+02  0.39506559599E+03  0.89701903310E+02 0.  0.
         23    2    4    4    0    0  0.11330301742E+03  0.44620001432E+02 -0.10984790060E+04  0.11094157041E+04  0.96532686440E+02 0.  0.
          3    1    3    3  502    0  0.24493858282E+03  0.54936574082E+02 -0.10136948756E+04  0.10443132850E+04  0.00000000000E+00 0. -1.
         -4    1    3    3    0  502  0.22384145832E+01  0.20609354601E+02 -0.99799474918E+02  0.10192983465E+03  0.00000000000E+00 0.  1.
         11    1    5    5    0    0 -0.17550363693E+03 -0.10570997361E+03 -0.32619960425E+02  0.20746129016E+03  0.00000000000E+00 0.  1.
        -11    1    5    5    0    0 -0.18497637789E+03 -0.14455956509E+02 -0.27751405555E+02  0.18760430583E+03  0.00000000000E+00 0. -1.
          4    1    6    6  503    0  0.99184148513E+01 -0.24990327324E+02 -0.30800570712E+03  0.30917698334E+03  0.00000000000E+00 0.  1.
         -4    1    6    6    0  503  0.10338460257E+03  0.69610328756E+02 -0.79047329889E+03  0.80023872074E+03  0.00000000000E+00 0. -1.
<mgrwt>
<rscale>  0 0.13648404E+04</rscale>
<asrwt>0</asrwt>
<pdfrwt beam="1">  1        1 0.37869760E+00 0.13648404E+04</pdfrwt>
<pdfrwt beam="2">  1       -2 0.29106132E-01 0.13648404E+04</pdfrwt>
<totfact> 0.13464750E+01</totfact>
</mgrwt>
</event>
<event>
12    4  0.4486176E-008  0.1224847E+04  0.7818608E-02  0.9091382E-01
         -2   -1    0    0    0  501 -0.00000000000E+00  0.00000000000E+00  0.40995262163E+03  0.40995262163E+03  0.00000000000E+00 0.  1.
          1   -1    0    0  501    0  0.00000000000E+00 -0.00000000000E+00 -0.91489220666E+03  0.91489220666E+03  0.00000000000E+00 0. -1.
        -24    2    1    2    0    0 -0.74681514218E+02  0.21756859482E+03  0.45502740426E+02  0.24793722910E+03  0.80554007788E+02 0.  0.
        254    2    1    2    0    0  0.74681514218E+02 -0.21756859482E+03 -0.55044232547E+03  0.10769075992E+04  0.89656555896E+03 0.  0.
         23    2    4    4    0    0 -0.30359687501E+03  0.16178998644E+03 -0.34225595266E+03  0.49394539977E+03  0.92172981908E+02 0.  0.
         23    2    4    4    0    0  0.37827838923E+03 -0.37935858126E+03 -0.20818637280E+03  0.58296219942E+03  0.97446842923E+02 0.  0.
          3    1    3    3  502    0  0.11659359856E+02  0.18646890160E+02 -0.99040225704E+01  0.24119221546E+02  0.00000000000E+00 0. -1.
         -4    1    3    3    0  502 -0.86340874074E+02  0.19892170466E+03  0.55406762996E+02  0.22381800756E+03  0.00000000000E+00 0.  1.
         11    1    5    5    0    0 -0.20926435595E+03  0.15540317957E+03 -0.23482302083E+03  0.35083268091E+03  0.00000000000E+00 0. -1.
        -11    1    5    5    0    0 -0.94332519065E+02  0.63868068725E+01 -0.10743293184E+03  0.14311271885E+03  0.00000000000E+00 0.  1.
          3    1    6    6  503    0  0.33264659833E+03 -0.28072808739E+03 -0.15575534363E+03  0.46230049264E+03  0.00000000000E+00 0. -1.
         -3    1    6    6    0  503  0.45631790902E+02 -0.98630493866E+02 -0.52431029174E+02  0.12066170677E+03  0.00000000000E+00 0.  1.
<mgrwt>
<rscale>  0 0.12248469E+04</rscale>
<asrwt>0</asrwt>
<pdfrwt beam="1">  1        1 0.14075265E+00 0.12248469E+04</pdfrwt>
<pdfrwt beam="2">  1       -2 0.63069635E-01 0.12248469E+04</pdfrwt>
<totfact> 0.35687162E+01</totfact>
</mgrwt>
</event>
<event>
12    4  0.4486176E-008  0.2635197E+04  0.7818608E-02  0.8356343E-01
          1   -1    0    0  501    0  0.00000000000E+00  0.00000000000E+00  0.12343305221E+04  0.12343305221E+04  0.00000000000E+00 0. -1.
         -2   -1    0    0    0  501 -0.00000000000E+00 -0.00000000000E+00 -0.14064834374E+04  0.14064834374E+04  0.00000000000E+00 0.  1.
        -24    2    1    2    0    0  0.64150361661E+03  0.48310870663E+03  0.76168717342E+03  0.11096984658E+04  0.79639326647E+02 0.  0.
        254    2    1    2    0    0 -0.64150361661E+03 -0.48310870663E+03 -0.93384008876E+03  0.15311154937E+04  0.90958035990E+03 0.  0.
         23    2    4    4    0    0 -0.11949234029E+03 -0.47921889502E+03 -0.55873422233E+02  0.50517913545E+03  0.90304766477E+02 0.  0.
         23    2    4    4    0    0 -0.52201127631E+03 -0.38898116051E+01 -0.87796666653E+03  0.10259363582E+04  0.95963745215E+02 0.  0.
          3    1    3    3  502    0  0.19774758527E+03  0.15736586897E+03  0.19095065788E+03  0.31674955081E+03  0.00000000000E+00 0. -1.
         -4    1    3    3    0  502  0.44375603133E+03  0.32574283766E+03  0.57073651555E+03  0.79294891501E+03  0.00000000000E+00 0.  1.
         11    1    5    5    0    0  0.13597113410E+02 -0.82894993938E+02 -0.10058951328E+02  0.84602860559E+02  0.00000000000E+00 0.  1.
        -11    1    5    5    0    0 -0.13308945370E+03 -0.39632390109E+03 -0.45814470906E+02  0.42057627489E+03  0.00000000000E+00 0. -1.
          2    1    6    6  503    0 -0.51204257598E+03 -0.61385661825E+01 -0.87714860254E+03  0.10156844749E+04  0.00000000000E+00 0. -1.
         -2    1    6    6    0  503 -0.99687003286E+01  0.22487545774E+01 -0.81806399007E+00  0.10251883343E+02  0.00000000000E+00 0.  1.
<mgrwt>
<rscale>  0 0.26351967E+04</rscale>
<asrwt>0</asrwt>
<pdfrwt beam="1">  1        1 0.18989700E+00 0.26351967E+04</pdfrwt>
<pdfrwt beam="2">  1       -2 0.21638207E+00 0.26351967E+04</pdfrwt>
<totfact> 0.81003267E-01</totfact>
</mgrwt>
</event>
<event>
12    4  0.4486176E-008  0.1633726E+04  0.7818608E-02  0.8800093E-01
          1   -1    0    0  501    0  0.00000000000E+00  0.00000000000E+00  0.11740172867E+04  0.11740172867E+04  0.00000000000E+00 0. -1.
         -2   -1    0    0    0  501 -0.00000000000E+00 -0.00000000000E+00 -0.56836030114E+03  0.56836030114E+03  0.00000000000E+00 0.  1.
        -24    2    1    2    0    0 -0.41135955954E+03  0.33946483067E+03  0.24514902600E+02  0.53959500737E+03  0.78158384336E+02 0.  0.
        254    2    1    2    0    0  0.41135955954E+03 -0.33946483067E+03  0.58114208293E+03  0.12027825805E+04  0.90802354419E+03 0.  0.
         23    2    4    4    0    0 -0.15433156064E+03 -0.42349039788E+03  0.16226173511E+03  0.48802055666E+03  0.93128112504E+02 0.  0.
         23    2    4    4    0    0  0.56569112018E+03  0.84025567209E+02  0.41888034783E+03  0.71476202380E+03  0.91418080627E+02 0.  0.
          1    1    3    3  502    0 -0.14007641615E+03  0.11404692069E+03  0.45438991431E+02  0.18626004516E+03  0.00000000000E+00 0. -1.
         -2    1    3    3    0  502 -0.27128314338E+03  0.22541790997E+03 -0.20924088831E+02  0.35333496220E+03  0.00000000000E+00 0.  1.
         11    1    5    5    0    0 -0.37404280853E+02 -0.12225219096E+03  0.32681513693E+01  0.12788807307E+03  0.00000000000E+00 0.  1.
        -11    1    5    5    0    0 -0.11692727979E+03 -0.30123820691E+03  0.15899358374E+03  0.36013248358E+03  0.00000000000E+00 0. -1.
          1    1    6    6  503    0 -0.43179082840E+00 -0.55800333033E+01  0.69403547136E+01  0.89158139581E+01  0.00000000000E+00 0. -1.
         -1    1    6    6    0  503  0.56612291101E+03  0.89605600512E+02  0.41193999312E+03  0.70584620984E+03  0.00000000000E+00 0.  1.
<mgrwt>
<rscale>  0 0.16337256E+04</rscale>
<asrwt>0</asrwt>
<pdfrwt beam="1">  1        1 0.18061804E+00 0.16337256E+04</pdfrwt>
<pdfrwt beam="2">  1       -2 0.87440046E-01 0.16337256E+04</pdfrwt>
<totfact> 0.10583236E+01</totfact>
</mgrwt>
</event>
<event>
12    4  0.4486176E-008  0.1452503E+04  0.7818608E-02  0.8916667E-01
          1   -1    0    0  501    0  0.00000000000E+00  0.00000000000E+00  0.13160930904E+04  0.13160930904E+04  0.00000000000E+00 0. -1.
         -2   -1    0    0    0  501 -0.00000000000E+00 -0.00000000000E+00 -0.40076299589E+03  0.40076299589E+03  0.00000000000E+00 0.  1.
        -24    2    1    2    0    0  0.59412325792E+02  0.14562645915E+02  0.80287020494E+03  0.80883278704E+03  0.76602978374E+02 0.  0.
        254    2    1    2    0    0 -0.59412325792E+02 -0.14562645915E+02  0.11245988960E+03  0.90802329928E+03  0.89895338598E+03 0.  0.
         23    2    4    4    0    0 -0.18447366991E+03 -0.47674787683E+01 -0.35722824865E+03  0.41275614888E+03  0.93286403382E+02 0.  0.
         23    2    4    4    0    0  0.12506134411E+03 -0.97951671471E+01  0.46968813825E+03  0.49526715040E+03  0.94584977473E+02 0.  0.
          1    1    3    3  502    0  0.15697387231E+02  0.27906092127E+02  0.60103221072E+03  0.60188443763E+03  0.00000000000E+00 0. -1.
         -2    1    3    3    0  502  0.43714938561E+02 -0.13343446212E+02  0.20183799422E+03  0.20694834941E+03  0.00000000000E+00 0.  1.
         11    1    5    5    0    0  0.15548171518E+01 -0.11450802614E+02 -0.66803174259E+02  0.67795297978E+02  0.00000000000E+00 0. -1.
        -11    1    5    5    0    0 -0.18602848706E+03  0.66833238455E+01 -0.29042507440E+03  0.34496085090E+03  0.00000000000E+00 0.  1.
          3    1    6    6  503    0 -0.12912207549E+02  0.84138425100E+01  0.80065201627E+02  0.81534988570E+02  0.00000000000E+00 0. -1.
         -3    1    6    6    0  503  0.13797355166E+03 -0.18209009657E+02  0.38962293663E+03  0.41373216183E+03  0.00000000000E+00 0.  1.
<mgrwt>
<rscale>  0 0.14525032E+04</rscale>
<asrwt>0</asrwt>
<pdfrwt beam="1">  1        1 0.20247586E+00 0.14525032E+04</pdfrwt>
<pdfrwt beam="2">  1       -2 0.61655846E-01 0.14525032E+04</pdfrwt>
<totfact> 0.18342773E+01</totfact>
</mgrwt>
</event>
<event>
12    4  0.4486176E-008  0.1521927E+04  0.7818608E-02  0.8870001E-01
          1   -1    0    0  501    0  0.00000000000E+00  0.00000000000E+00  0.22461561299E+04  0.22461561299E+04  0.00000000000E+00 0. -1.
         -2   -1    0    0    0  501 -0.00000000000E+00 -0.00000000000E+00 -0.25780276978E+03  0.25780276978E+03  0.00000000000E+00 0.  1.
        -24    2    1    2    0    0 -0.61290839688E+01  0.20687680329E+03  0.12032738109E+04  0.12234516233E+04  0.78297081749E+02 0.  0.
        254    2    1    2    0    0  0.61290839688E+01 -0.20687680329E+03  0.78507954920E+03  0.12805072764E+04  0.99020877040E+03 0.  0.
         23    2    4    4    0    0 -0.62578714560E+02  0.24964824643E+03  0.76196512508E+03  0.80949224869E+03  0.91904876792E+02 0.  0.
         23    2    4    4    0    0  0.68707798529E+02 -0.45652504972E+03  0.23114424121E+02  0.47101502773E+03  0.90470974031E+02 0.  0.
          1    1    3    3  502    0  0.38476514604E+01  0.20421048382E+03  0.11848996801E+04  0.12023743086E+04  0.00000000000E+00 0. -1.
         -2    1    3    3    0  502 -0.99767354291E+01  0.26663194651E+01  0.18374130836E+02  0.21077314660E+02  0.00000000000E+00 0.  1.
         11    1    5    5    0    0 -0.92261834928E+01  0.45953041827E+02  0.57237307614E+02  0.73979145020E+02  0.00000000000E+00 0. -1.
        -11    1    5    5    0    0 -0.53352531067E+02  0.20369520461E+03  0.70472781747E+03  0.73551310367E+03  0.00000000000E+00 0.  1.
          1    1    6    6  503    0  0.68443265875E+02 -0.17321120019E+03  0.23346301602E+02  0.18770095981E+03  0.00000000000E+00 0. -1.
         -1    1    6    6    0  503  0.26453265398E+00 -0.28331384953E+03 -0.23187748192E+00  0.28331406792E+03  0.00000000000E+00 0.  1.
<mgrwt>
<rscale>  0 0.15219268E+04</rscale>
<asrwt>0</asrwt>
<pdfrwt beam="1">  1        1 0.34556247E+00 0.15219268E+04</pdfrwt>
<pdfrwt beam="2">  1       -2 0.39661966E-01 0.15219268E+04</pdfrwt>
<totfact> 0.10343216E+01</totfact>
</mgrwt>
</event>
<event>
12    4  0.4486176E-008  0.2143805E+04  0.7818608E-02  0.8542189E-01
          1   -1    0    0  501    0  0.00000000000E+00  0.00000000000E+00  0.41618304539E+03  0.41618304539E+03  0.00000000000E+00 0. -1.
         -2   -1    0    0    0  501 -0.00000000000E+00 -0.00000000000E+00 -0.27607434890E+04  0.27607434890E+04  0.00000000000E+00 0.  1.
        -24    2    1    2    0    0 -0.65164640306E+03 -0.57847873809E+03 -0.88635505460E+03  0.12455387804E+04  0.80379633794E+02 0.  0.
        254    2    1    2    0    0  0.65164640306E+03  0.57847873809E+03 -0.14582053890E+04  0.19313877540E+04  0.91902938736E+03 0.  0.
         23    2    4    4    0    0  0.28785668383E+03  0.56487267443E+03 -0.14154153609E+04  0.15539259102E+04  0.96656513117E+02 0.  0.
         23    2    4    4    0    0  0.36378971923E+03  0.13606063657E+02 -0.42790028059E+02  0.37746184386E+03  0.90102010436E+02 0.  0.
          3    1    3    3  502    0 -0.85681333128E+02 -0.95628038484E+02 -0.97533283521E+02  0.16124129119E+03  0.00000000000E+00 0. -1.
         -4    1    3    3    0  502 -0.56596506993E+03 -0.48285069960E+03 -0.78882177108E+03  0.10842974892E+04  0.00000000000E+00 0.  1.
         11    1    5    5    0    0  0.19372263092E+03  0.46580706596E+03 -0.10987109613E+04  0.12089956398E+04  0.00000000000E+00 0. -1.
        -11    1    5    5    0    0  0.94134052907E+02  0.99065608467E+02 -0.31670439960E+03  0.34493027038E+03  0.00000000000E+00 0.  1.
          1    1    6    6  503    0  0.30247331724E+03  0.24688545580E+02 -0.66698953600E+02  0.31072235571E+03  0.00000000000E+00 0. -1.
         -1    1    6    6    0  503  0.61316401991E+02 -0.11082481923E+02  0.23908925541E+02  0.66739488155E+02  0.00000000000E+00 0.  1.
<mgrwt>
<rscale>  0 0.21438047E+04</rscale>
<asrwt>0</asrwt>
<pdfrwt beam="1">  1        1 0.64028162E-01 0.21438047E+04</pdfrwt>
<pdfrwt beam="2">  1       -2 0.42472976E+00 0.21438047E+04</pdfrwt>
<totfact> 0.23315496E-01</totfact>
</mgrwt>
</event>
<event>
12    4  0.4486176E-008  0.1489104E+04  0.7818608E-02  0.8891731E-01
          1   -1    0    0  501    0  0.00000000000E+00  0.00000000000E+00  0.17961310111E+04  0.17961310111E+04  0.00000000000E+00 0. -1.
         -2   -1    0    0    0  501 -0.00000000000E+00 -0.00000000000E+00 -0.30863969865E+03  0.30863969865E+03  0.00000000000E+00 0.  1.
        -24    2    1    2    0    0  0.37455199306E+03 -0.32294038928E+02  0.78913244295E+02  0.39170539185E+03  0.76640155438E+02 0.  0.
        254    2    1    2    0    0 -0.37455199306E+03  0.32294038928E+02  0.14085780681E+04  0.17130653179E+04  0.89953794183E+03 0.  0.
         23    2    4    4    0    0  0.64797554827E+02 -0.35418302783E+03  0.41958055216E+03  0.56027921595E+03  0.90667633482E+02 0.  0.
         23    2    4    4    0    0 -0.43934954789E+03  0.38647706676E+03  0.98899751596E+03  0.11527861019E+04  0.91690576419E+02 0.  0.
          1    1    3    3  502    0  0.21378432942E+02  0.56033240556E+01  0.23409891806E+02  0.32194062649E+02  0.00000000000E+00 0. -1.
         -2    1    3    3    0  502  0.35317356012E+03 -0.37897362984E+02  0.55503352489E+02  0.35951132920E+03  0.00000000000E+00 0.  1.
         11    1    5    5    0    0  0.74862943830E+02 -0.31814601702E+03  0.33617557846E+03  0.46886604490E+03  0.00000000000E+00 0. -1.
        -11    1    5    5    0    0 -0.10065389003E+02 -0.36037010809E+02  0.83404973706E+02  0.91413171057E+02  0.00000000000E+00 0.  1.
          4    1    6    6  503    0 -0.39322139292E+03  0.36933334948E+03  0.93693689635E+03  0.10811479707E+04  0.00000000000E+00 0. -1.
         -4    1    6    6    0  503 -0.46128154963E+02  0.17143717283E+02  0.52060619613E+02  0.71638131166E+02  0.00000000000E+00 0.  1.
<mgrwt>
<rscale>  0 0.14891035E+04</rscale>
<asrwt>0</asrwt>
<pdfrwt beam="1">  1        1 0.27632784E+00 0.14891035E+04</pdfrwt>
<pdfrwt beam="2">  1       -2 0.47483032E-01 0.14891035E+04</pdfrwt>
<totfact> 0.14644665E+01</totfact>
</mgrwt>
</event>
<event>
12    4  0.4486176E-008  0.1100113E+04  0.7818608E-02  0.9205082E-01
          1   -1    0    0  501    0  0.00000000000E+00  0.00000000000E+00  0.13335882281E+04  0.13335882281E+04  0.00000000000E+00 0. -1.
         -2   -1    0    0    0  501 -0.00000000000E+00 -0.00000000000E+00 -0.22687809864E+03  0.22687809864E+03  0.00000000000E+00 0.  1.
        -24    2    1    2    0    0 -0.10545839697E+03 -0.12986979137E+03  0.20076822397E+03  0.27425625172E+03  0.83192401384E+02 0.  0.
        254    2    1    2    0    0  0.10545839697E+03  0.12986979137E+03  0.90594190549E+03  0.12862100750E+04  0.89756224561E+03 0.  0.
         23    2    4    4    0    0 -0.27630721969E+03  0.25436630733E+03  0.75377518764E+03  0.84729634667E+03  0.93199611697E+02 0.  0.
         23    2    4    4    0    0  0.38176561667E+03 -0.12449651596E+03  0.15216671785E+03  0.43891372834E+03  0.90808492728E+02 0.  0.
          1    1    3    3  502    0 -0.10398997374E+03 -0.78133818939E+02  0.11269720298E+03  0.17210307336E+03  0.00000000000E+00 0. -1.
         -2    1    3    3    0  502 -0.14684232301E+01 -0.51735972435E+02  0.88071020991E+02  0.10215317836E+03  0.00000000000E+00 0.  1.
         11    1    5    5    0    0 -0.16089735722E+03  0.11311880868E+03  0.47547074135E+03  0.51454470196E+03  0.00000000000E+00 0.  1.
        -11    1    5    5    0    0 -0.11540986247E+03  0.14124749865E+03  0.27830444629E+03  0.33275164471E+03  0.00000000000E+00 0. -1.
          2    1    6    6  503    0  0.84063693598E+02 -0.27728662819E+02  0.76186796069E+02  0.11679045859E+03  0.00000000000E+00 0. -1.
         -2    1    6    6    0  503  0.29770192307E+03 -0.96767853138E+02  0.75979921776E+02  0.32212326975E+03  0.00000000000E+00 0.  1.
<mgrwt>
<rscale>  0 0.11001127E+04</rscale>
<asrwt>0</asrwt>
<pdfrwt beam="1">  1        1 0.20516741E+00 0.11001127E+04</pdfrwt>
<pdfrwt beam="2">  1       -2 0.34904324E-01 0.11001127E+04</pdfrwt>
<totfact> 0.57603477E+01</totfact>
</mgrwt>
</event>
<event>
12    4  0.4486176E-008  0.1127416E+04  0.7818608E-02  0.9178875E-01
         -2   -1    0    0    0  501 -0.00000000000E+00  0.00000000000E+00  0.14923587441E+03  0.14923587441E+03  0.00000000000E+00 0.  1.
          1   -1    0    0  501    0  0.00000000000E+00 -0.00000000000E+00 -0.21292917707E+04  0.21292917707E+04  0.00000000000E+00 0. -1.
        -24    2    1    2    0    0 -0.13817234684E+02 -0.89849999527E+02 -0.11677680370E+02  0.12106126370E+03  0.79091864054E+02 0.  0.
        254    2    1    2    0    0  0.13817234684E+02  0.89849999527E+02 -0.19683782159E+04  0.21574663814E+04  0.87856954627E+03 0.  0.
         23    2    4    4    0    0  0.16182869290E+03 -0.86234355515E+02 -0.18853488160E+04  0.18965040328E+04  0.92533770111E+02 0.  0.
         23    2    4    4    0    0 -0.14801145822E+03  0.17608435504E+03 -0.83029399864E+02  0.26096234854E+03  0.91073455288E+02 0.  0.
          1    1    3    3  502    0 -0.25254041041E+02 -0.72965839986E+01 -0.25450862295E+02  0.36588975368E+02  0.00000000000E+00 0. -1.
         -2    1    3    3    0  502  0.11436806356E+02 -0.82553415528E+02  0.13773181925E+02  0.84472288328E+02  0.00000000000E+00 0.  1.
         11    1    5    5    0    0  0.11379139318E+03 -0.93278013674E+02 -0.11210292553E+04  0.11306440024E+04  0.00000000000E+00 0. -1.
        -11    1    5    5    0    0  0.48037299724E+02  0.70436581593E+01 -0.76431956071E+03  0.76586003040E+03  0.00000000000E+00 0.  1.
          1    1    6    6  503    0 -0.12085129504E+03  0.74091102379E+02 -0.51232765045E+02  0.15072930432E+03  0.00000000000E+00 0. -1.
         -1    1    6    6    0  503 -0.27160163173E+02  0.10199325266E+03 -0.31796634818E+02  0.11023304422E+03  0.00000000000E+00 0.  1.
<mgrwt>
<rscale>  0 0.11274160E+04</rscale>
<asrwt>0</asrwt>
<pdfrwt beam="1">  1        1 0.32758331E+00 0.11274160E+04</pdfrwt>
<pdfrwt beam="2">  1       -2 0.22959368E-01 0.11274160E+04</pdfrwt>
<totfact> 0.35691612E+01</totfact>
</mgrwt>
</event>
<event>
12    4  0.4486176E-008  0.1210285E+04  0.7818608E-02  0.9103901E-01
         -2   -1    0    0    0  501 -0.00000000000E+00  0.00000000000E+00  0.13313474684E+04  0.13313474684E+04  0.00000000000E+00 0.  1.
          1   -1    0    0  501    0  0.00000000000E+00 -0.00000000000E+00 -0.27505789280E+03  0.27505789280E+03  0.00000000000E+00 0. -1.
        -24    2    1    2    0    0 -0.24192157675E+03  0.11345356779E+03  0.13700670034E+03  0.31148866519E+03  0.82804536487E+02 0.  0.
        254    2    1    2    0    0  0.24192157675E+03 -0.11345356779E+03  0.91928287525E+03  0.12949166960E+04  0.87196931340E+03 0.  0.
         23    2    4    4    0    0 -0.96779515286E+02 -0.41016948571E+03  0.57829833394E+03  0.72229998273E+03  0.98402339503E+02 0.  0.
         23    2    4    4    0    0  0.33870109203E+03  0.29671591793E+03  0.34098454131E+03  0.57261671328E+03  0.94131170266E+02 0.  0.
          3    1    3    3  502    0 -0.78738860658E+02  0.78080659877E+01  0.11146361741E+02  0.79906291693E+02  0.00000000000E+00 0. -1.
         -2    1    3    3    0  502 -0.16318271609E+03  0.10564550180E+03  0.12586033860E+03  0.23158237350E+03  0.00000000000E+00 0.  1.
         11    1    5    5    0    0 -0.50684864229E+02 -0.33361391289E+03  0.40365582420E+03  0.52612282096E+03  0.00000000000E+00 0. -1.
        -11    1    5    5    0    0 -0.46094651057E+02 -0.76555572827E+02  0.17464250974E+03  0.19617716176E+03  0.00000000000E+00 0.  1.
          4    1    6    6  503    0  0.16534036394E+03  0.14403506183E+03  0.10767543766E+03  0.24428985828E+03  0.00000000000E+00 0.  1.
         -4    1    6    6    0  503  0.17336072809E+03  0.15268085609E+03  0.23330910366E+03  0.32832685499E+03  0.00000000000E+00 0. -1.
<mgrwt>
<rscale>  0 0.12102853E+04</rscale>
<asrwt>0</asrwt>
<pdfrwt beam="1">  1        1 0.42316600E-01 0.12102853E+04</pdfrwt>
<pdfrwt beam="2">  1       -2 0.20482268E+00 0.12102853E+04</pdfrwt>
<totfact> 0.10475824E+01</totfact>
</mgrwt>
</event>
<event>
12    4  0.4486176E-008  0.1276648E+04  0.7818608E-02  0.9048291E-01
         -2   -1    0    0    0  501 -0.00000000000E+00  0.00000000000E+00  0.72523387259E+03  0.72523387259E+03  0.00000000000E+00 0.  1.
          1   -1    0    0  501    0  0.00000000000E+00 -0.00000000000E+00 -0.56182948271E+03  0.56182948271E+03  0.00000000000E+00 0. -1.
        -24    2    1    2    0    0 -0.53317775540E+02 -0.32034614569E+02 -0.26751208974E+03  0.28560929305E+03  0.78364203564E+02 0.  0.
        254    2    1    2    0    0  0.53317775540E+02  0.32034614569E+02  0.43091647962E+03  0.10014540623E+04  0.90186042417E+03 0.  0.
         23    2    4    4    0    0 -0.20001683744E+03 -0.78836636355E+01 -0.21084166561E+03  0.30462967964E+03  0.90973327669E+02 0.  0.
         23    2    4    4    0    0  0.25333461298E+03  0.39918278205E+02  0.64175814522E+03  0.69682438261E+03  0.89099989744E+02 0.  0.
          3    1    3    3  502    0  0.18713035701E+02 -0.10242385557E+01 -0.83601234197E+02  0.85676094268E+02  0.00000000000E+00 0. -1.
         -4    1    3    3    0  502 -0.72030811241E+02 -0.31010376014E+02 -0.18391085554E+03  0.19993319878E+03  0.00000000000E+00 0.  1.
         11    1    5    5    0    0 -0.59074487443E+02 -0.34410611621E+02 -0.32278054161E+02  0.75602632489E+02  0.00000000000E+00 0.  1.
        -11    1    5    5    0    0 -0.14094235000E+03  0.26526947986E+02 -0.17856361145E+03  0.22902704715E+03  0.00000000000E+00 0. -1.
          3    1    6    6  503    0  0.14935951915E+03 -0.18640018997E+02  0.39559134865E+03  0.42325905944E+03  0.00000000000E+00 0. -1.
         -3    1    6    6    0  503  0.10397509383E+03  0.58558297202E+02  0.24616679657E+03  0.27356532318E+03  0.00000000000E+00 0.  1.
<mgrwt>
<rscale>  0 0.12766484E+04</rscale>
<asrwt>0</asrwt>
<pdfrwt beam="1">  1        1 0.86435304E-01 0.12766484E+04</pdfrwt>
<pdfrwt beam="2">  1       -2 0.11157444E+00 0.12766484E+04</pdfrwt>
<totfact> 0.20569255E+01</totfact>
</mgrwt>
</event>
<event>
12    4  0.4486176E-008  0.2536632E+04  0.7818608E-02  0.8390050E-01
          1   -1    0    0  501    0  0.00000000000E+00  0.00000000000E+00  0.89215804576E+03  0.89215804576E+03  0.00000000000E+00 0. -1.
         -2   -1    0    0    0  501 -0.00000000000E+00 -0.00000000000E+00 -0.18030720359E+04  0.18030720359E+04  0.00000000000E+00 0.  1.
        -24    2    1    2    0    0 -0.68818400967E+03 -0.82640210781E+03 -0.67901276851E+03  0.12741990075E+04  0.77376327105E+02 0.  0.
        254    2    1    2    0    0  0.68818400967E+03  0.82640210781E+03 -0.23190122159E+03  0.14210310741E+04  0.89945175637E+03 0.  0.
         23    2    4    4    0    0  0.32034843480E+03  0.27228951540E+03  0.33271555763E+03  0.54379330408E+03  0.90811978265E+02 0.  0.
         23    2    4    4    0    0  0.36783557488E+03  0.55411259241E+03 -0.56461677923E+03  0.87723777002E+03  0.91707265612E+02 0.  0.
          3    1    3    3  502    0 -0.27533502188E+02 -0.13413526301E+02 -0.19881584269E+02  0.36514296154E+02  0.00000000000E+00 0. -1.
         -4    1    3    3    0  502 -0.66065050748E+03 -0.81298858151E+03 -0.65913118424E+03  0.12376847114E+04  0.00000000000E+00 0.  1.
         11    1    5    5    0    0  0.32332593812E+03  0.27409911424E+03  0.33442080427E+03  0.53991412374E+03  0.00000000000E+00 0.  1.
        -11    1    5    5    0    0 -0.29775033240E+01 -0.18095988334E+01 -0.17052466403E+01  0.38791803370E+01  0.00000000000E+00 0. -1.
          4    1    6    6  503    0  0.19581487307E+03  0.24626915767E+03 -0.31478447187E+03  0.44506317109E+03  0.00000000000E+00 0. -1.
         -4    1    6    6    0  503  0.17202070180E+03  0.30784343474E+03 -0.24983230736E+03  0.43217459893E+03  0.00000000000E+00 0.  1.
<mgrwt>
<rscale>  0 0.25366318E+04</rscale>
<asrwt>0</asrwt>
<pdfrwt beam="1">  1        1 0.13725508E+00 0.25366318E+04</pdfrwt>
<pdfrwt beam="2">  1       -2 0.27739570E+00 0.25366318E+04</pdfrwt>
<totfact> 0.62655085E-01</totfact>
</mgrwt>
</event>
<event>
12    4  0.4486176E-008  0.1260911E+04  0.7818608E-02  0.9061150E-01
         -2   -1    0    0    0  501 -0.00000000000E+00  0.00000000000E+00  0.62729219760E+03  0.62729219760E+03  0.00000000000E+00 0.  1.
          1   -1    0    0  501    0  0.00000000000E+00 -0.00000000000E+00 -0.63363511525E+03  0.63363511525E+03  0.00000000000E+00 0. -1.
        -24    2    1    2    0    0 -0.24202614371E+03  0.18311484829E+03  0.25876080006E+01  0.31429706862E+03  0.81659351713E+02 0.  0.
        254    2    1    2    0    0  0.24202614371E+03 -0.18311484829E+03 -0.89305256466E+01  0.94663024424E+03  0.89661661992E+03 0.  0.
         23    2    4    4    0    0  0.41825183562E+03 -0.12393620044E+03 -0.33756990440E+03  0.55892916112E+03  0.90297214871E+02 0.  0.
         23    2    4    4    0    0 -0.17622569191E+03 -0.59178647853E+02  0.32863937876E+03  0.38770108312E+03  0.88037956185E+02 0.  0.
          1    1    3    3  502    0 -0.10491601554E+03  0.88259588540E+02 -0.38851197559E+02  0.14250102048E+03  0.00000000000E+00 0. -1.
         -2    1    3    3    0  502 -0.13711012817E+03  0.94855259751E+02  0.41438805560E+02  0.17179604814E+03  0.00000000000E+00 0.  1.
         11    1    5    5    0    0  0.14900089691E+03 -0.89624644726E+02 -0.12434460345E+03  0.21376488166E+03  0.00000000000E+00 0.  1.
        -11    1    5    5    0    0  0.26925093871E+03 -0.34311555711E+02 -0.21322530095E+03  0.34516427946E+03  0.00000000000E+00 0. -1.
          2    1    6    6  503    0 -0.11366737326E+03 -0.66675265511E+02  0.15765386917E+03  0.20547653209E+03  0.00000000000E+00 0. -1.
         -2    1    6    6    0  503 -0.62558318645E+02  0.74966176577E+01  0.17098550958E+03  0.18222455102E+03  0.00000000000E+00 0.  1.
<mgrwt>
<rscale>  0 0.12609114E+04</rscale>
<asrwt>0</asrwt>
<pdfrwt beam="1">  1        1 0.97482325E-01 0.12609114E+04</pdfrwt>
<pdfrwt beam="2">  1       -2 0.96506492E-01 0.12609114E+04</pdfrwt>
<totfact> 0.24507202E+01</totfact>
</mgrwt>
</event>
<event>
12    4  0.4486176E-008  0.1570685E+04  0.7818608E-02  0.8838762E-01
          1   -1    0    0  501    0  0.00000000000E+00  0.00000000000E+00  0.11425761490E+04  0.11425761490E+04  0.00000000000E+00 0. -1.
         -2   -1    0    0    0  501 -0.00000000000E+00 -0.00000000000E+00 -0.53980028425E+03  0.53980028425E+03  0.00000000000E+00 0.  1.
        -24    2    1    2    0    0  0.39300900053E+03  0.70123759181E+02  0.49519461213E+03  0.64100700926E+03  0.79365395097E+02 0.  0.
        254    2    1    2    0    0 -0.39300900053E+03 -0.70123759181E+02  0.10758125258E+03  0.10413694239E+04  0.95577357942E+03 0.  0.
         23    2    4    4    0    0 -0.56856336908E+03  0.19276369647E+03 -0.14808079101E+03  0.62451241048E+03  0.87553885344E+02 0.  0.
         23    2    4    4    0    0  0.17555436855E+03 -0.26288745565E+03  0.25566204359E+03  0.41685701346E+03  0.92073549314E+02 0.  0.
          3    1    3    3  502    0  0.35318533574E+03  0.38840082786E+02  0.41702675039E+03  0.54786836371E+03  0.00000000000E+00 0. -1.
         -4    1    3    3    0  502  0.39823664792E+02  0.31283676395E+02  0.78167861742E+02  0.93138645554E+02  0.00000000000E+00 0.  1.
         11    1    5    5    0    0 -0.39147549979E+03  0.89041406519E+02 -0.97575428792E+02  0.41316147366E+03  0.00000000000E+00 0.  1.
        -11    1    5    5    0    0 -0.17708786929E+03  0.10372228995E+03 -0.50505362218E+02  0.21135093682E+03  0.00000000000E+00 0. -1.
          3    1    6    6  503    0  0.38464898344E+02 -0.88806985056E+01  0.20123774319E+02  0.44310060973E+02  0.00000000000E+00 0. -1.
         -3    1    6    6    0  503  0.13708947020E+03 -0.25400675715E+03  0.23553826927E+03  0.37254695249E+03  0.00000000000E+00 0.  1.
<mgrwt>
<rscale>  0 0.15706851E+04</rscale>
<asrwt>0</asrwt>
<pdfrwt beam="1">  1        1 0.17578095E+00 0.15706851E+04</pdfrwt>
<pdfrwt beam="2">  1       -2 0.83046198E-01 0.15706851E+04</pdfrwt>
<totfact> 0.12623843E+01</totfact>
</mgrwt>
</event>
<event>
12    4  0.4486176E-008  0.1652954E+04  0.7818608E-02  0.8788661E-01
          1   -1    0    0  501    0  0.00000000000E+00  0.00000000000E+00  0.11972022606E+04  0.11972022606E+04  0.00000000000E+00 0. -1.
         -2   -1    0    0    0  501 -0.00000000000E+00 -0.00000000000E+00 -0.57055057098E+03  0.57055057098E+03  0.00000000000E+00 0.  1.
        -24    2    1    2    0    0  0.16978047004E+03 -0.50679016007E+03 -0.94651685194E+02  0.54854987793E+03  0.79286522905E+02 0.  0.
        254    2    1    2    0    0 -0.16978047004E+03  0.50679016007E+03  0.72130337479E+03  0.12192029536E+04  0.82493369995E+03 0.  0.
         23    2    4    4    0    0  0.26591783823E+03  0.39156585698E+03  0.53866245647E+03  0.72438888735E+03  0.10269323765E+03 0.  0.
         23    2    4    4    0    0 -0.43569830827E+03  0.11522430309E+03  0.18264091832E+03  0.49481406628E+03  0.91507372910E+02 0.  0.
          3    1    3    3  502    0  0.77819612641E+01 -0.97255612423E+02  0.22995739011E+01  0.97593550550E+02  0.00000000000E+00 0. -1.
         -4    1    3    3    0  502  0.16199850878E+03 -0.40953454764E+03 -0.96951259095E+02  0.45095632738E+03  0.00000000000E+00 0.  1.
         11    1    5    5    0    0  0.78473579859E+02  0.45420149022E+02  0.10383453612E+03  0.13785029403E+03  0.00000000000E+00 0. -1.
        -11    1    5    5    0    0  0.18744425837E+03  0.34614570795E+03  0.43482792035E+03  0.58653859332E+03  0.00000000000E+00 0.  1.
          2    1    6    6  503    0 -0.16490126584E+03  0.88152109666E+02  0.88238562764E+02  0.20675895597E+03  0.00000000000E+00 0. -1.
         -2    1    6    6    0  503 -0.27079704243E+03  0.27072193424E+02  0.94402355553E+02  0.28805511031E+03  0.00000000000E+00 0.  1.
<mgrwt>
<rscale>  0 0.16529542E+04</rscale>
<asrwt>0</asrwt>
<pdfrwt beam="1">  1        1 0.18418496E+00 0.16529542E+04</pdfrwt>
<pdfrwt beam="2">  1       -2 0.87777011E-01 0.16529542E+04</pdfrwt>
<totfact> 0.10070973E+01</totfact>
</mgrwt>
</event>
<event>
12    4  0.4486176E-008  0.2463479E+04  0.7818608E-02  0.8416113E-01
          1   -1    0    0  501    0  0.00000000000E+00  0.00000000000E+00  0.14620707620E+04  0.14620707620E+04  0.00000000000E+00 0. -1.
         -2   -1    0    0    0  501 -0.00000000000E+00 -0.00000000000E+00 -0.10376937576E+04  0.10376937576E+04  0.00000000000E+00 0.  1.
        -24    2    1    2    0    0 -0.86514015073E+03  0.64944265153E+03  0.31788002424E+03  0.11300833605E+04  0.76141013242E+02 0.  0.
        254    2    1    2    0    0  0.86514015073E+03 -0.64944265153E+03  0.10649698013E+03  0.13696811590E+04  0.83333164621E+03 0.  0.
         23    2    4    4    0    0  0.35340269859E+03 -0.18865092708E+03  0.43709236396E+03  0.60058740378E+03  0.95775024385E+02 0.  0.
         23    2    4    4    0    0  0.51173745214E+03 -0.46079172445E+03 -0.33059538383E+03  0.76909375524E+03  0.89485548003E+02 0.  0.
          3    1    3    3  502    0 -0.17098153783E+03  0.13537527175E+03  0.95860785295E+02  0.23822350983E+03  0.00000000000E+00 0. -1.
         -4    1    3    3    0  502 -0.69415861290E+03  0.51406737977E+03  0.22201923895E+03  0.89185985069E+03  0.00000000000E+00 0.  1.
         11    1    5    5    0    0  0.30623864026E+03 -0.18746256099E+03  0.41414262873E+03  0.54812264457E+03  0.00000000000E+00 0. -1.
        -11    1    5    5    0    0  0.47164058330E+02 -0.11883660878E+01  0.22949735226E+02  0.52464759210E+02  0.00000000000E+00 0.  1.
          1    1    6    6  503    0  0.10458488829E+03 -0.10194545195E+03 -0.11180642542E+03  0.18393354995E+03  0.00000000000E+00 0. -1.
         -1    1    6    6    0  503  0.40715256385E+03 -0.35884627249E+03 -0.21878895840E+03  0.58516020529E+03  0.00000000000E+00 0.  1.
<mgrwt>
<rscale>  0 0.24634786E+04</rscale>
<asrwt>0</asrwt>
<pdfrwt beam="1">  1        1 0.22493396E+00 0.24634786E+04</pdfrwt>
<pdfrwt beam="2">  1       -2 0.15964519E+00 0.24634786E+04</pdfrwt>
<totfact> 0.13784662E+00</totfact>
</mgrwt>
</event>
<event>
12    4  0.4486176E-008  0.2087846E+04  0.7818608E-02  0.8566616E-01
         -2   -1    0    0    0  501 -0.00000000000E+00  0.00000000000E+00  0.17147632081E+04  0.17147632081E+04  0.00000000000E+00 0.  1.
          1   -1    0    0  501    0  0.00000000000E+00 -0.00000000000E+00 -0.63552517726E+03  0.63552517726E+03  0.00000000000E+00 0. -1.
        -24    2    1    2    0    0 -0.81730195050E+03 -0.20550129909E+03  0.40580695534E+03  0.93876661448E+03  0.79938784291E+02 0.  0.
        254    2    1    2    0    0  0.81730195050E+03  0.20550129909E+03  0.67343107555E+03  0.14115217709E+04  0.91031370091E+03 0.  0.
         23    2    4    4    0    0  0.12236265839E+03 -0.26818590423E+03 -0.31773079197E+02  0.31011969400E+03  0.90930724452E+02 0.  0.
         23    2    4    4    0    0  0.69493929211E+03  0.47368720332E+03  0.70520415475E+03  0.11014020769E+04  0.91942639060E+02 0.  0.
          1    1    3    3  502    0 -0.52967835513E+03 -0.14344106175E+03  0.22284693060E+03  0.59227970805E+03  0.00000000000E+00 0. -1.
         -2    1    3    3    0  502 -0.28762359537E+03 -0.62060237340E+02  0.18296002474E+03  0.34648690643E+03  0.00000000000E+00 0.  1.
         11    1    5    5    0    0  0.31626576876E+02 -0.11389643270E+02  0.88280308710E+01  0.34754833732E+02  0.00000000000E+00 0. -1.
        -11    1    5    5    0    0  0.90736081513E+02 -0.25679626096E+03 -0.40601110068E+02  0.27536486027E+03  0.00000000000E+00 0.  1.
          4    1    6    6  503    0  0.26731302280E+03  0.19533359400E+03  0.33510719510E+03  0.47107143546E+03  0.00000000000E+00 0. -1.
         -4    1    6    6    0  503  0.42762626931E+03  0.27835360932E+03  0.37009695965E+03  0.63033064146E+03  0.00000000000E+00 0.  1.
<mgrwt>
<rscale>  0 0.20878460E+04</rscale>
<asrwt>0</asrwt>
<pdfrwt beam="1">  1        1 0.97773105E-01 0.20878460E+04</pdfrwt>
<pdfrwt beam="2">  1       -2 0.26380972E+00 0.20878460E+04</pdfrwt>
<totfact> 0.13427273E+00</totfact>
</mgrwt>
</event>
<event>
12    4  0.4486176E-008  0.1395105E+04  0.7818608E-02  0.8957370E-01
          1   -1    0    0  501    0  0.00000000000E+00  0.00000000000E+00  0.16084422584E+04  0.16084422584E+04  0.00000000000E+00 0. -1.
         -2   -1    0    0    0  501 -0.00000000000E+00 -0.00000000000E+00 -0.30251580082E+03  0.30251580082E+03  0.00000000000E+00 0.  1.
        -24    2    1    2    0    0  0.30222887357E+03 -0.10063562995E+03  0.48043827842E+02  0.33231467112E+03  0.81578239818E+02 0.  0.
        254    2    1    2    0    0 -0.30222887357E+03  0.10063562995E+03  0.12578826297E+04  0.15786433881E+04  0.89909755565E+03 0.  0.
         23    2    4    4    0    0 -0.27212425461E+03  0.56194733960E+02 -0.21954632603E+02  0.29438639664E+03  0.94720043079E+02 0.  0.
         23    2    4    4    0    0 -0.30104618960E+02  0.44440895987E+02  0.12798372623E+04  0.12842569915E+04  0.91931065095E+02 0.  0.
          3    1    3    3  502    0  0.10022535557E+03 -0.11012894764E+02  0.47178998931E+02  0.11132054478E+03  0.00000000000E+00 0. -1.
         -4    1    3    3    0  502  0.20200351800E+03 -0.89622735183E+02  0.86482891086E+00  0.22099412634E+03  0.00000000000E+00 0.  1.
         11    1    5    5    0    0 -0.12372397134E+02  0.18906086489E+02 -0.22619013863E+02  0.31970863380E+02  0.00000000000E+00 0.  1.
        -11    1    5    5    0    0 -0.25975185747E+03  0.37288647471E+02  0.66438126006E+00  0.26241553326E+03  0.00000000000E+00 0. -1.
          2    1    6    6  503    0 -0.47174296075E+02  0.36584188954E+02  0.12217143669E+04  0.12231720285E+04  0.00000000000E+00 0. -1.
         -2    1    6    6    0  503  0.17069677115E+02  0.78567070330E+01  0.58122895464E+02  0.61084962956E+02  0.00000000000E+00 0.  1.
<mgrwt>
<rscale>  0 0.13951046E+04</rscale>
<asrwt>0</asrwt>
<pdfrwt beam="1">  1        1 0.24745265E+00 0.13951046E+04</pdfrwt>
<pdfrwt beam="2">  1       -2 0.46540894E-01 0.13951046E+04</pdfrwt>
<totfact> 0.20630417E+01</totfact>
</mgrwt>
</event>
<event>
12    4  0.4486176E-008  0.2678814E+04  0.7818608E-02  0.8341912E-01
         -2   -1    0    0    0  501 -0.00000000000E+00  0.00000000000E+00  0.15913724848E+04  0.15913724848E+04  0.00000000000E+00 0.  1.
          1   -1    0    0  501    0  0.00000000000E+00 -0.00000000000E+00 -0.11273355419E+04  0.11273355419E+04  0.00000000000E+00 0. -1.
        -24    2    1    2    0    0 -0.10861385607E+04 -0.40822837996E+03  0.32616111594E+03  0.12079201163E+04  0.79640132398E+02 0.  0.
        254    2    1    2    0    0  0.10861385607E+04  0.40822837996E+03  0.13787582693E+03  0.15107879104E+04  0.95766538181E+03 0.  0.
         23    2    4    4    0    0  0.71124363575E+03 -0.52157693491E+02 -0.28799160688E+03  0.77456934743E+03  0.91818156987E+02 0.  0.
         23    2    4    4    0    0  0.37489492490E+03  0.46038607345E+03  0.42586743381E+03  0.73621856300E+03  0.90294850304E+02 0.  0.
          1    1    3    3  502    0 -0.43318408945E+03 -0.15244153195E+03  0.16839000519E+03  0.48912377765E+03  0.00000000000E+00 0. -1.
         -2    1    3    3    0  502 -0.65295447121E+03 -0.25578684801E+03  0.15777111074E+03  0.71879633866E+03  0.00000000000E+00 0.  1.
         11    1    5    5    0    0  0.45614014788E+03 -0.73583029583E+02 -0.16562507152E+03  0.49082579502E+03  0.00000000000E+00 0. -1.
        -11    1    5    5    0    0  0.25510348788E+03  0.21425336093E+02 -0.12236653536E+03  0.28374355240E+03  0.00000000000E+00 0.  1.
          1    1    6    6  503    0  0.25563437268E+03  0.33761645046E+03  0.25477735648E+03  0.49421179821E+03  0.00000000000E+00 0. -1.
         -1    1    6    6    0  503  0.11926055222E+03  0.12276962299E+03  0.17109007733E+03  0.24200676479E+03  0.00000000000E+00 0.  1.
<mgrwt>
<rscale>  0 0.26788137E+04</rscale>
<asrwt>0</asrwt>
<pdfrwt beam="1">  1        1 0.17343624E+00 0.26788137E+04</pdfrwt>
<pdfrwt beam="2">  1       -2 0.24482654E+00 0.26788137E+04</pdfrwt>
<totfact> 0.64190489E-01</totfact>
</mgrwt>
</event>
<event>
12    4  0.4486176E-008  0.1756662E+04  0.7818608E-02  0.8729692E-01
         -2   -1    0    0    0  501 -0.00000000000E+00  0.00000000000E+00  0.42537903909E+03  0.42537903909E+03  0.00000000000E+00 0.  1.
          1   -1    0    0  501    0  0.00000000000E+00 -0.00000000000E+00 -0.18135945944E+04  0.18135945944E+04  0.00000000000E+00 0. -1.
        -24    2    1    2    0    0 -0.14140322418E+03  0.47204188591E+03 -0.10457264122E+04  0.11593981139E+04  0.88554182813E+02 0.  0.
        254    2    1    2    0    0  0.14140322418E+03 -0.47204188591E+03 -0.34248914303E+03  0.10795755196E+04  0.89742190498E+03 0.  0.
         23    2    4    4    0    0  0.14558730541E+02 -0.71179418173E+03 -0.14634230411E+03  0.73253329005E+03  0.91247121990E+02 0.  0.
         23    2    4    4    0    0  0.12684449364E+03  0.23975229582E+03 -0.19614683891E+03  0.34704222954E+03  0.91618981397E+02 0.  0.
          1    1    3    3  502    0 -0.40965162317E+02  0.14309667311E+03 -0.41665950599E+03  0.44244767635E+03  0.00000000000E+00 0. -1.
         -2    1    3    3    0  502 -0.10043806187E+03  0.32894521281E+03 -0.62906690625E+03  0.71695043750E+03  0.00000000000E+00 0.  1.
         11    1    5    5    0    0  0.50661087638E+02 -0.36613662596E+03 -0.60406230392E+02  0.37452835319E+03  0.00000000000E+00 0.  1.
        -11    1    5    5    0    0 -0.36102357097E+02 -0.34565755577E+03 -0.85936073720E+02  0.35800493686E+03  0.00000000000E+00 0. -1.
          4    1    6    6  503    0  0.75901691838E+02  0.16939629112E+03 -0.80302248883E+02  0.20224890963E+03  0.00000000000E+00 0. -1.
         -4    1    6    6    0  503  0.50942801804E+02  0.70356004696E+02 -0.11584459003E+03  0.14479331991E+03  0.00000000000E+00 0.  1.
<mgrwt>
<rscale>  0 0.17566617E+04</rscale>
<asrwt>0</asrwt>
<pdfrwt beam="1">  1        1 0.27901455E+00 0.17566617E+04</pdfrwt>
<pdfrwt beam="2">  1       -2 0.65442930E-01 0.17566617E+04</pdfrwt>
<totfact> 0.71342724E+00</totfact>
</mgrwt>
</event>
<event>
12    4  0.4486176E-008  0.2923161E+04  0.7818608E-02  0.8266020E-01
         -2   -1    0    0    0  501 -0.00000000000E+00  0.00000000000E+00  0.11894185168E+04  0.11894185168E+04  0.00000000000E+00 0.  1.
          1   -1    0    0  501    0  0.00000000000E+00 -0.00000000000E+00 -0.17960184188E+04  0.17960184188E+04  0.00000000000E+00 0. -1.
        -24    2    1    2    0    0  0.69491089785E+03 -0.41065663819E+02 -0.14171793857E+04  0.15822625051E+04  0.10280894389E+03 0.  0.
        254    2    1    2    0    0 -0.69491089785E+03  0.41065663819E+02  0.81057948366E+03  0.14031744305E+04  0.90954485229E+03 0.  0.
         23    2    4    4    0    0  0.11526513744E+03  0.95331753862E+02 -0.81318555127E+02  0.19375326518E+03  0.92484729309E+02 0.  0.
         23    2    4    4    0    0 -0.81017603530E+03 -0.54266090043E+02  0.89189803879E+03  0.12094211653E+04  0.88811186275E+02 0.  0.
          3    1    3    3  502    0  0.45995205584E+03 -0.72289136533E+01 -0.10308314895E+04  0.11288142941E+04  0.00000000000E+00 0. -1.
         -4    1    3    3    0  502  0.23495884202E+03 -0.33836750165E+02 -0.38634789624E+03  0.45344821097E+03  0.00000000000E+00 0.  1.
         11    1    5    5    0    0 -0.29857608395E+01  0.37412807538E+02  0.25834147163E+01  0.37620565748E+02  0.00000000000E+00 0. -1.
        -11    1    5    5    0    0  0.11825089828E+03  0.57918946324E+02 -0.83901969844E+02  0.15613269943E+03  0.00000000000E+00 0.  1.
          2    1    6    6  503    0 -0.89681096795E+02  0.15133639318E+02  0.74195912100E+02  0.11737444157E+03  0.00000000000E+00 0. -1.
         -2    1    6    6    0  503 -0.72049493850E+03 -0.69399729361E+02  0.81770212669E+03  0.10920467237E+04  0.00000000000E+00 0.  1.
<mgrwt>
<rscale>  0 0.29231610E+04</rscale>
<asrwt>0</asrwt>
<pdfrwt beam="1">  1        1 0.27631053E+00 0.29231610E+04</pdfrwt>
<pdfrwt beam="2">  1       -2 0.18298746E+00 0.29231610E+04</pdfrwt>
<totfact> 0.53375991E-01</totfact>
</mgrwt>
</event>
<event>
12    4  0.4486176E-008  0.2492322E+04  0.7818608E-02  0.8405726E-01
         -2   -1    0    0    0  501 -0.00000000000E+00  0.00000000000E+00  0.84132947606E+03  0.84132947606E+03  0.00000000000E+00 0.  1.
          1   -1    0    0  501    0  0.00000000000E+00 -0.00000000000E+00 -0.18457902109E+04  0.18457902109E+04  0.00000000000E+00 0. -1.
        -24    2    1    2    0    0 -0.20381811202E+03  0.46086894918E+03  0.59580337440E+03  0.78431117576E+03  0.78869185109E+02 0.  0.
        254    2    1    2    0    0  0.20381811202E+03 -0.46086894918E+03 -0.16002641093E+04  0.19028085112E+04  0.89771543368E+03 0.  0.
         23    2    4    4    0    0 -0.22323736279E+03 -0.74803450834E+01 -0.78233672252E+02  0.25509984586E+03  0.95207920773E+02 0.  0.
         23    2    4    4    0    0  0.42705547480E+03 -0.45338860410E+03 -0.15220304370E+04  0.16477086654E+04  0.10212536329E+03 0.  0.
          3    1    3    3  502    0 -0.69773058356E+01  0.46468015767E+02  0.29448100707E+02  0.55454034310E+02  0.00000000000E+00 0. -1.
         -4    1    3    3    0  502 -0.19684080618E+03  0.41440093342E+03  0.56635527370E+03  0.72885714145E+03  0.00000000000E+00 0.  1.
         11    1    5    5    0    0 -0.11907938398E+03  0.16471383184E+02  0.39511058265E+01  0.12027808358E+03  0.00000000000E+00 0.  1.
        -11    1    5    5    0    0 -0.10415797881E+03 -0.23951728268E+02 -0.82184778078E+02  0.13482176228E+03  0.00000000000E+00 0. -1.
          1    1    6    6  503    0  0.27628586489E+03 -0.21949998404E+03 -0.84357197960E+03  0.91440024436E+03  0.00000000000E+00 0. -1.
         -1    1    6    6    0  503  0.15076960992E+03 -0.23388862006E+03 -0.67845845741E+03  0.73330842100E+03  0.00000000000E+00 0.  1.
<mgrwt>
<rscale>  0 0.24923224E+04</rscale>
<asrwt>0</asrwt>
<pdfrwt beam="1">  1        1 0.28396773E+00 0.24923224E+04</pdfrwt>
<pdfrwt beam="2">  1       -2 0.12943530E+00 0.24923224E+04</pdfrwt>
<totfact> 0.13006679E+00</totfact>
</mgrwt>
</event>
<event>
12    4  0.4486176E-008  0.1205526E+04  0.7818608E-02  0.9108034E-01
         -2   -1    0    0    0  501 -0.00000000000E+00  0.00000000000E+00  0.57435183718E+03  0.57435183718E+03  0.00000000000E+00 0.  1.
          1   -1    0    0  501    0  0.00000000000E+00 -0.00000000000E+00 -0.63257932373E+03  0.63257932373E+03  0.00000000000E+00 0. -1.
        -24    2    1    2    0    0 -0.17622346198E+03  0.13822079484E+03 -0.19361106586E+03  0.30933504298E+03  0.89684041579E+02 0.  0.
        254    2    1    2    0    0  0.17622346198E+03 -0.13822079484E+03  0.13538357931E+03  0.89759611793E+03  0.85859791561E+03 0.  0.
         23    2    4    4    0    0  0.11517660354E+03 -0.47634619666E+03 -0.42645843463E+02  0.49991196277E+03  0.89005356456E+02 0.  0.
         23    2    4    4    0    0  0.61046858444E+02  0.33812540183E+03  0.17802942277E+03  0.39768415516E+03  0.91666272987E+02 0.  0.
          1    1    3    3  502    0 -0.20345745493E+02  0.16239334348E+01 -0.58417029336E+02  0.61880011602E+02  0.00000000000E+00 0. -1.
         -2    1    3    3    0  502 -0.15587771649E+03  0.13659686140E+03 -0.13519403653E+03  0.24745503138E+03  0.00000000000E+00 0.  1.
         11    1    5    5    0    0  0.12031732948E+01  0.40793937443E+01 -0.11818626730E+01  0.44142812186E+01  0.00000000000E+00 0.  1.
        -11    1    5    5    0    0  0.11397343025E+03 -0.48042559041E+03 -0.41463980790E+02  0.49549768155E+03  0.00000000000E+00 0. -1.
          4    1    6    6  503    0  0.25515064129E+02  0.28452550438E+03  0.17114028446E+03  0.33300867572E+03  0.00000000000E+00 0. -1.
         -4    1    6    6    0  503  0.35531794314E+02  0.53599897445E+02  0.68891383116E+01  0.64675479433E+02  0.00000000000E+00 0.  1.
<mgrwt>
<rscale>  0 0.12055258E+04</rscale>
<asrwt>0</asrwt>
<pdfrwt beam="1">  1        1 0.97319895E-01 0.12055258E+04</pdfrwt>
<pdfrwt beam="2">  1       -2 0.88361822E-01 0.12055258E+04</pdfrwt>
<totfact> 0.30278916E+01</totfact>
</mgrwt>
</event>
<event>
12    4  0.4486176E-008  0.1800971E+04  0.7818608E-02  0.8705783E-01
          1   -1    0    0  501    0  0.00000000000E+00  0.00000000000E+00  0.15806834152E+04  0.15806834152E+04  0.00000000000E+00 0. -1.
         -2   -1    0    0    0  501 -0.00000000000E+00 -0.00000000000E+00 -0.51298951636E+03  0.51298951636E+03  0.00000000000E+00 0.  1.
        -24    2    1    2    0    0  0.38923707147E+03  0.43669063438E+03  0.78336637223E+03  0.98098352658E+03  0.80384067573E+02 0.  0.
        254    2    1    2    0    0 -0.38923707147E+03 -0.43669063438E+03  0.28432752660E+03  0.11126894050E+04  0.90279087369E+03 0.  0.
         23    2    4    4    0    0 -0.32914610210E+03  0.17908012103E+03 -0.73018637641E+02  0.39257134709E+03  0.91507894967E+02 0.  0.
         23    2    4    4    0    0 -0.60090969371E+02 -0.61577075541E+03  0.35734616424E+03  0.72011805789E+03  0.89939915405E+02 0.  0.
          3    1    3    3  502    0  0.23616085852E+03  0.28963742578E+03  0.43982663384E+03  0.57715618107E+03  0.00000000000E+00 0. -1.
         -4    1    3    3    0  502  0.15307621295E+03  0.14705320860E+03  0.34353973839E+03  0.40382734551E+03  0.00000000000E+00 0.  1.
         11    1    5    5    0    0 -0.19316153229E+03  0.86265925510E+02  0.22042100181E+01  0.21156097467E+03  0.00000000000E+00 0.  1.
        -11    1    5    5    0    0 -0.13598456981E+03  0.92814195518E+02 -0.75222847659E+02  0.18101037243E+03  0.00000000000E+00 0. -1.
          1    1    6    6  503    0 -0.64424912524E+01 -0.45223413111E+03  0.24228469181E+03  0.51308779651E+03  0.00000000000E+00 0. -1.
         -1    1    6    6    0  503 -0.53648478119E+02 -0.16353662429E+03  0.11506147243E+03  0.20703026138E+03  0.00000000000E+00 0.  1.
<mgrwt>
<rscale>  0 0.18009709E+04</rscale>
<asrwt>0</asrwt>
<pdfrwt beam="1">  1        1 0.24318206E+00 0.18009709E+04</pdfrwt>
<pdfrwt beam="2">  1       -2 0.78921465E-01 0.18009709E+04</pdfrwt>
<totfact> 0.67899009E+00</totfact>
</mgrwt>
</event>
<event>
12    4  0.4486176E-008  0.1413825E+04  0.7818608E-02  0.8943871E-01
         -2   -1    0    0    0  501 -0.00000000000E+00  0.00000000000E+00  0.95756005070E+03  0.95756005070E+03  0.00000000000E+00 0.  1.
          1   -1    0    0  501    0  0.00000000000E+00 -0.00000000000E+00 -0.52187389748E+03  0.52187389748E+03  0.00000000000E+00 0. -1.
        -24    2    1    2    0    0  0.34493056482E+03 -0.47998570909E+01  0.36803133941E+03  0.51078609626E+03  0.80344484390E+02 0.  0.
        254    2    1    2    0    0 -0.34493056482E+03  0.47998570909E+01  0.67654813815E+02  0.96864785192E+03  0.90260808440E+03 0.  0.
         23    2    4    4    0    0 -0.27736670050E+03  0.41580537916E+03  0.15954593211E+03  0.53219031112E+03  0.89135979891E+02 0.  0.
         23    2    4    4    0    0 -0.67563864320E+02 -0.41100552207E+03 -0.91891118298E+02  0.43645754080E+03  0.92524550049E+02 0.  0.
          3    1    3    3  502    0  0.83769789733E+02 -0.21474942900E+02  0.13530200542E+03  0.16057765571E+03  0.00000000000E+00 0. -1.
         -4    1    3    3    0  502  0.26116077509E+03  0.16675085810E+02  0.23272933399E+03  0.35020844055E+03  0.00000000000E+00 0.  1.
         11    1    5    5    0    0 -0.18847288983E+03  0.22157003109E+03  0.62290594736E+02  0.29748180965E+03  0.00000000000E+00 0.  1.
        -11    1    5    5    0    0 -0.88893810670E+02  0.19423534807E+03  0.97255337377E+02  0.23470850148E+03  0.00000000000E+00 0. -1.
          3    1    6    6  503    0 -0.78764944835E+02 -0.32735595513E+03 -0.44390165956E+02  0.33961202089E+03  0.00000000000E+00 0. -1.
         -3    1    6    6    0  503  0.11201080516E+02 -0.83649566939E+02 -0.47500952342E+02  0.96845519913E+02  0.00000000000E+00 0.  1.
<mgrwt>
<rscale>  0 0.14138254E+04</rscale>
<asrwt>0</asrwt>
<pdfrwt beam="1">  1        1 0.80288292E-01 0.14138254E+04</pdfrwt>
<pdfrwt beam="2">  1       -2 0.14731693E+00 0.14138254E+04</pdfrwt>
<totfact> 0.11172487E+01</totfact>
</mgrwt>
</event>
<event>
12    4  0.4486176E-008  0.2374270E+04  0.7818608E-02  0.8449200E-01
         -2   -1    0    0    0  501 -0.00000000000E+00  0.00000000000E+00  0.80487578260E+03  0.80487578260E+03  0.00000000000E+00 0.  1.
          1   -1    0    0  501    0  0.00000000000E+00 -0.00000000000E+00 -0.17509407793E+04  0.17509407793E+04  0.00000000000E+00 0. -1.
        -24    2    1    2    0    0 -0.76916313776E+01 -0.92038123271E+03  0.56433541445E+02  0.92532956120E+03  0.76741628252E+02 0.  0.
        254    2    1    2    0    0  0.76916313776E+01  0.92038123271E+03 -0.10024985381E+04  0.16304870007E+04  0.89795532502E+03 0.  0.
         23    2    4    4    0    0  0.16659906786E+03  0.10368243757E+04 -0.72902227028E+03  0.12814864007E+04  0.89296635571E+02 0.  0.
         23    2    4    4    0    0 -0.15890743648E+03 -0.11644314295E+03 -0.27347626785E+03  0.34900060003E+03  0.90562524442E+02 0.  0.
          3    1    3    3  502    0 -0.34393786723E+02 -0.64030749461E+03  0.19054407785E+02  0.64151359353E+03  0.00000000000E+00 0. -1.
         -4    1    3    3    0  502  0.26702155346E+02 -0.28007373810E+03  0.37379133660E+02  0.28381596767E+03  0.00000000000E+00 0.  1.
         11    1    5    5    0    0  0.59379727485E+02  0.62838796578E+03 -0.45511069529E+03  0.77815366897E+03  0.00000000000E+00 0. -1.
        -11    1    5    5    0    0  0.10721934037E+03  0.40843640989E+03 -0.27391157499E+03  0.50333273168E+03  0.00000000000E+00 0.  1.
          1    1    6    6  503    0 -0.16264076796E+03 -0.12286966108E+03 -0.24079868455E+03  0.31548847760E+03  0.00000000000E+00 0. -1.
         -1    1    6    6    0  503  0.37333314819E+01  0.64265181304E+01 -0.32677583300E+02  0.33512122427E+02  0.00000000000E+00 0.  1.
<mgrwt>
<rscale>  0 0.23742703E+04</rscale>
<asrwt>0</asrwt>
<pdfrwt beam="1">  1        1 0.26937550E+00 0.23742703E+04</pdfrwt>
<pdfrwt beam="2">  1       -2 0.12382704E+00 0.23742703E+04</pdfrwt>
<totfact> 0.17040133E+00</totfact>
</mgrwt>
</event>
<event>
12    4  0.4486176E-008  0.1691335E+04  0.7818608E-02  0.8766322E-01
          1   -1    0    0  501    0  0.00000000000E+00  0.00000000000E+00  0.55616835151E+03  0.55616835151E+03  0.00000000000E+00 0. -1.
         -2   -1    0    0    0  501 -0.00000000000E+00 -0.00000000000E+00 -0.12858575450E+04  0.12858575450E+04  0.00000000000E+00 0.  1.
        -24    2    1    2    0    0  0.37175659854E+01  0.50558321715E+03 -0.61458190103E+03  0.79978483157E+03  0.79477380249E+02 0.  0.
        254    2    1    2    0    0 -0.37175659854E+01 -0.50558321715E+03 -0.11510729245E+03  0.10422410649E+04  0.90409542578E+03 0.  0.
         23    2    4    4    0    0 -0.13869593743E+03 -0.51360415413E+03  0.28557205215E+03  0.61072481001E+03  0.91693000774E+02 0.  0.
         23    2    4    4    0    0  0.13497837144E+03  0.80209369811E+01 -0.40067934460E+03  0.43151625493E+03  0.85900203114E+02 0.  0.
          3    1    3    3  502    0 -0.17118305206E+02  0.22649377499E+02 -0.36166154286E+02  0.45978488340E+02  0.00000000000E+00 0. -1.
         -4    1    3    3    0  502  0.20835871191E+02  0.48293383965E+03 -0.57841574675E+03  0.75380634323E+03  0.00000000000E+00 0.  1.
         11    1    5    5    0    0 -0.14733097719E+03 -0.42502118930E+03  0.22415621437E+03  0.50258873508E+03  0.00000000000E+00 0.  1.
        -11    1    5    5    0    0  0.86350397587E+01 -0.88582964836E+02  0.61415837778E+02  0.10813607493E+03  0.00000000000E+00 0. -1.
          4    1    6    6  503    0  0.21097639531E+02 -0.13632840980E+02 -0.18464552622E+03  0.18634627740E+03  0.00000000000E+00 0. -1.
         -4    1    6    6    0  503  0.11388073191E+03  0.21653777961E+02 -0.21603381837E+03  0.24516997753E+03  0.00000000000E+00 0.  1.
<mgrwt>
<rscale>  0 0.16913347E+04</rscale>
<asrwt>0</asrwt>
<pdfrwt beam="1">  1        1 0.85564362E-01 0.16913347E+04</pdfrwt>
<pdfrwt beam="2">  1       -2 0.19782424E+00 0.16913347E+04</pdfrwt>
<totfact> 0.43702548E+00</totfact>
</mgrwt>
</event>
<event>
12    4  0.4486176E-008  0.1282167E+04  0.7818608E-02  0.9043827E-01
         -2   -1    0    0    0  501 -0.00000000000E+00  0.00000000000E+00  0.17641502511E+03  0.17641502511E+03  0.00000000000E+00 0.  1.
          1   -1    0    0  501    0  0.00000000000E+00 -0.00000000000E+00 -0.23296665230E+04  0.23296665230E+04  0.00000000000E+00 0. -1.
        -24    2    1    2    0    0  0.14929590852E+02  0.10725125237E+03 -0.11697141685E+04  0.11770531881E+04  0.74143427853E+02 0.  0.
        254    2    1    2    0    0 -0.14929590852E+02 -0.10725125237E+03 -0.98353732937E+03  0.13290283600E+04  0.88726826806E+03 0.  0.
         23    2    4    4    0    0 -0.27017036418E+03 -0.39740055467E+03 -0.45274397679E+03  0.66652788215E+03  0.91449891360E+02 0.  0.
         23    2    4    4    0    0  0.25524077333E+03  0.29014930230E+03 -0.53079335258E+03  0.66250047781E+03  0.88491976840E+02 0.  0.
          1    1    3    3  502    0  0.26416363958E+02  0.11439133211E+03 -0.10220117548E+04  0.10287328264E+04  0.00000000000E+00 0. -1.
         -2    1    3    3    0  502 -0.11486773105E+02 -0.71400797423E+01 -0.14770241370E+03  0.14832036174E+03  0.00000000000E+00 0.  1.
         11    1    5    5    0    0 -0.14392410294E+03 -0.28483175441E+03 -0.31479672316E+03  0.44826359727E+03  0.00000000000E+00 0.  1.
        -11    1    5    5    0    0 -0.12624626124E+03 -0.11256880026E+03 -0.13794725364E+03  0.21826428488E+03  0.00000000000E+00 0. -1.
          4    1    6    6  503    0  0.25246152485E+02  0.64954192709E+02 -0.58710335523E+02  0.91122548598E+02  0.00000000000E+00 0. -1.
         -4    1    6    6    0  503  0.22999462084E+03  0.22519510959E+03 -0.47208301706E+03  0.57137792921E+03  0.00000000000E+00 0.  1.
<mgrwt>
<rscale>  0 0.12821672E+04</rscale>
<asrwt>0</asrwt>
<pdfrwt beam="1">  1        1 0.35841024E+00 0.12821672E+04</pdfrwt>
<pdfrwt beam="2">  1       -2 0.27140773E-01 0.12821672E+04</pdfrwt>
<totfact> 0.19005124E+01</totfact>
</mgrwt>
</event>
<event>
12    4  0.4486176E-008  0.2685258E+04  0.7818608E-02  0.8339804E-01
         -2   -1    0    0    0  501 -0.00000000000E+00  0.00000000000E+00  0.16408577342E+04  0.16408577342E+04  0.00000000000E+00 0.  1.
          1   -1    0    0  501    0  0.00000000000E+00 -0.00000000000E+00 -0.10986040968E+04  0.10986040968E+04  0.00000000000E+00 0. -1.
        -24    2    1    2    0    0  0.60054903255E+03  0.44010507284E+03  0.11836372350E+04  0.14000072684E+04  0.68349337954E+02 0.  0.
        254    2    1    2    0    0 -0.60054903255E+03 -0.44010507284E+03 -0.64138359755E+03  0.13394545627E+04  0.91017250597E+03 0.  0.
         23    2    4    4    0    0  0.11084618012E+03 -0.38278507201E+03 -0.42127167159E+03  0.58699083421E+03  0.90978740142E+02 0.  0.
         23    2    4    4    0    0 -0.71139521267E+03 -0.57320000823E+02 -0.22011192597E+03  0.75246372847E+03  0.91562391839E+02 0.  0.
          3    1    3    3  502    0  0.32014250802E+03  0.27160084070E+03  0.63493961352E+03  0.76118759509E+03  0.00000000000E+00 0. -1.
         -4    1    3    3    0  502  0.28040652453E+03  0.16850423214E+03  0.54869762144E+03  0.63881967332E+03  0.00000000000E+00 0.  1.
         11    1    5    5    0    0  0.10356593844E+02 -0.19834131182E+03 -0.21158228131E+03  0.29019579042E+03  0.00000000000E+00 0.  1.
        -11    1    5    5    0    0  0.10048958628E+03 -0.18444376019E+03 -0.20968939027E+03  0.29679504379E+03  0.00000000000E+00 0. -1.
          2    1    6    6  503    0 -0.17564426966E+03  0.23559472111E+02 -0.42102844121E+02  0.18214995930E+03  0.00000000000E+00 0.  1.
         -2    1    6    6    0  503 -0.53575094301E+03 -0.80879472934E+02 -0.17800908185E+03  0.57031376916E+03  0.00000000000E+00 0. -1.
<mgrwt>
<rscale>  0 0.26852583E+04</rscale>
<asrwt>0</asrwt>
<pdfrwt beam="1">  1        1 0.16901602E+00 0.26852583E+04</pdfrwt>
<pdfrwt beam="2">  1       -2 0.25243965E+00 0.26852583E+04</pdfrwt>
<totfact> 0.60519369E-01</totfact>
</mgrwt>
</event>
<event>
12    4  0.4486176E-008  0.1411500E+04  0.7818608E-02  0.8945536E-01
          1   -1    0    0  501    0  0.00000000000E+00  0.00000000000E+00  0.19056082511E+04  0.19056082511E+04  0.00000000000E+00 0. -1.
         -2   -1    0    0    0  501 -0.00000000000E+00 -0.00000000000E+00 -0.26137733769E+03  0.26137733769E+03  0.00000000000E+00 0.  1.
        -24    2    1    2    0    0 -0.21333107293E+03  0.27357105834E+03  0.14471318581E+03  0.38420350417E+03  0.79493118159E+02 0.  0.
        254    2    1    2    0    0  0.21333107293E+03 -0.27357105834E+03  0.14995177276E+04  0.17827820846E+04  0.89967064820E+03 0.  0.
         23    2    4    4    0    0  0.70511384976E+02 -0.13168465313E+03 -0.74385660228E+02  0.19333325330E+03  0.97631025297E+02 0.  0.
         23    2    4    4    0    0  0.14281968796E+03 -0.14188640520E+03  0.15739033878E+04  0.15894488313E+04  0.92986547115E+02 0.  0.
          1    1    3    3  502    0 -0.15219842522E+02  0.67868111396E+02  0.18533149502E+02  0.71980565303E+02  0.00000000000E+00 0. -1.
         -2    1    3    3    0  502 -0.19811123041E+03  0.20570294694E+03  0.12618003631E+03  0.31222293887E+03  0.00000000000E+00 0.  1.
         11    1    5    5    0    0  0.28673236863E+02 -0.34357349216E+02  0.22217865546E+02  0.49962140734E+02  0.00000000000E+00 0.  1.
        -11    1    5    5    0    0  0.41838148112E+02 -0.97327303917E+02 -0.96603525774E+02  0.14337111256E+03  0.00000000000E+00 0. -1.
          3    1    6    6  503    0  0.11959808221E+03 -0.11098422405E+03  0.14616097507E+04  0.14706883636E+04  0.00000000000E+00 0. -1.
         -3    1    6    6    0  503  0.23221605748E+02 -0.30902181158E+02  0.11229363708E+03  0.11876046776E+03  0.00000000000E+00 0.  1.
<mgrwt>
<rscale>  0 0.14114996E+04</rscale>
<asrwt>0</asrwt>
<pdfrwt beam="1">  1        1 0.29317049E+00 0.14114996E+04</pdfrwt>
<pdfrwt beam="2">  1       -2 0.40211899E-01 0.14114996E+04</pdfrwt>
<totfact> 0.17297680E+01</totfact>
</mgrwt>
</event>
<event>
12    4  0.4486176E-008  0.2594032E+04  0.7818608E-02  0.8370231E-01
         -2   -1    0    0    0  501 -0.00000000000E+00  0.00000000000E+00  0.76096126617E+03  0.76096126617E+03  0.00000000000E+00 0.  1.
          1   -1    0    0  501    0  0.00000000000E+00 -0.00000000000E+00 -0.22106910825E+04  0.22106910825E+04  0.00000000000E+00 0. -1.
        -24    2    1    2    0    0  0.65000202180E+03 -0.13907165987E+03 -0.16996988122E+04  0.18268272030E+04  0.80486164604E+02 0.  0.
        254    2    1    2    0    0 -0.65000202180E+03  0.13907165987E+03  0.24996899585E+03  0.11448251456E+04  0.89794017632E+03 0.  0.
         23    2    4    4    0    0 -0.80957070277E+03  0.88557046462E+02 -0.13664152387E+02  0.81939082909E+03  0.89261125265E+02 0.  0.
         23    2    4    4    0    0  0.15956868096E+03  0.50514613405E+02  0.26363314824E+03  0.32543431654E+03  0.91603315543E+02 0.  0.
          3    1    3    3  502    0  0.60063897116E+03 -0.10586948843E+03 -0.15362084962E+04  0.16528496804E+04  0.00000000000E+00 0. -1.
         -4    1    3    3    0  502  0.49363050640E+02 -0.33202171432E+02 -0.16349031599E+03  0.17397752262E+03  0.00000000000E+00 0.  1.
         11    1    5    5    0    0 -0.76468932492E+03  0.99527027709E+02 -0.25974534469E+02  0.77157635353E+03  0.00000000000E+00 0. -1.
        -11    1    5    5    0    0 -0.44881377850E+02 -0.10969981247E+02  0.12310382081E+02  0.47814475561E+02  0.00000000000E+00 0.  1.
          1    1    6    6  503    0  0.14196930288E+03  0.58758205522E+02  0.16725729397E+03  0.22711849784E+03  0.00000000000E+00 0. -1.
         -1    1    6    6    0  503  0.17599378086E+02 -0.82435921169E+01  0.96375854266E+02  0.98315818694E+02  0.00000000000E+00 0.  1.
<mgrwt>
<rscale>  0 0.25940318E+04</rscale>
<asrwt>0</asrwt>
<pdfrwt beam="1">  1        1 0.34010631E+00 0.25940318E+04</pdfrwt>
<pdfrwt beam="2">  1       -2 0.11707097E+00 0.25940318E+04</pdfrwt>
<totfact> 0.93651599E-01</totfact>
</mgrwt>
</event>
<event>
12    4  0.4486176E-008  0.2401459E+04  0.7818608E-02  0.8438958E-01
          1   -1    0    0  501    0  0.00000000000E+00  0.00000000000E+00  0.76353778215E+03  0.76353778215E+03  0.00000000000E+00 0. -1.
         -2   -1    0    0    0  501 -0.00000000000E+00 -0.00000000000E+00 -0.18882509441E+04  0.18882509441E+04  0.00000000000E+00 0.  1.
        -24    2    1    2    0    0  0.83905696416E+03  0.50546182016E+03 -0.85493551787E+03  0.13023325398E+04  0.75146947875E+02 0.  0.
        254    2    1    2    0    0 -0.83905696416E+03 -0.50546182016E+03 -0.26977764406E+03  0.13494561864E+04  0.88811248223E+03 0.  0.
         23    2    4    4    0    0 -0.83969804082E+03 -0.42727905223E+02 -0.22216454960E+03  0.87456257854E+03  0.92650650542E+02 0.  0.
         23    2    4    4    0    0  0.64107665317E+00 -0.46273391494E+03 -0.47613094460E+02  0.47489360789E+03  0.95571151673E+02 0.  0.
          3    1    3    3  502    0  0.18803169719E+03  0.99365919822E+02 -0.14879435492E+03  0.25955590001E+03  0.00000000000E+00 0. -1.
         -4    1    3    3    0  502  0.65102526697E+03  0.40609590034E+03 -0.70614116295E+03  0.10427766398E+04  0.00000000000E+00 0.  1.
         11    1    5    5    0    0 -0.79102883537E+03 -0.45638801220E+02 -0.18606798054E+03  0.81389852681E+03  0.00000000000E+00 0.  1.
        -11    1    5    5    0    0 -0.48669205446E+02  0.29108959970E+01 -0.36096569055E+02  0.60664051726E+02  0.00000000000E+00 0. -1.
          3    1    6    6  503    0  0.51059438627E+01 -0.25629731755E+02  0.19550392240E+02  0.32636967526E+02  0.00000000000E+00 0. -1.
         -3    1    6    6    0  503 -0.44648672095E+01 -0.43710418319E+03 -0.67163486699E+02  0.44225664036E+03  0.00000000000E+00 0.  1.
<mgrwt>
<rscale>  0 0.24014587E+04</rscale>
<asrwt>0</asrwt>
<pdfrwt beam="1">  1        1 0.11746735E+00 0.24014587E+04</pdfrwt>
<pdfrwt beam="2">  1       -2 0.29050014E+00 0.24014587E+04</pdfrwt>
<totfact> 0.67972065E-01</totfact>
</mgrwt>
</event>
<event>
12    4  0.4486176E-008  0.1431697E+04  0.7818608E-02  0.8931189E-01
         -2   -1    0    0    0  501 -0.00000000000E+00  0.00000000000E+00  0.38776860860E+03  0.38776860860E+03  0.00000000000E+00 0.  1.
          1   -1    0    0  501    0  0.00000000000E+00 -0.00000000000E+00 -0.13215070603E+04  0.13215070603E+04  0.00000000000E+00 0. -1.
        -24    2    1    2    0    0  0.20154745109E+03  0.12601364365E+03  0.14042746584E+03  0.28631670084E+03  0.75872040937E+02 0.  0.
        254    2    1    2    0    0 -0.20154745109E+03 -0.12601364365E+03 -0.10741659176E+04  0.14229589681E+04  0.90248489902E+03 0.  0.
         23    2    4    4    0    0 -0.10462418969E+02  0.15660253831E+01 -0.11575665271E+04  0.11611968378E+04  0.91136802957E+02 0.  0.
         23    2    4    4    0    0 -0.19108503212E+03 -0.12757966903E+03  0.83400609553E+02  0.26176213025E+03  0.93667975891E+02 0.  0.
          3    1    3    3  502    0  0.92493871345E+02  0.14755514545E+02  0.49716369091E+02  0.10604036402E+03  0.00000000000E+00 0. -1.
         -4    1    3    3    0  502  0.10905357974E+03  0.11125812910E+03  0.90711096747E+02  0.18027633682E+03  0.00000000000E+00 0.  1.
         11    1    5    5    0    0 -0.25330687800E+02  0.46506723019E+01 -0.11246694021E+04  0.11249642379E+04  0.00000000000E+00 0. -1.
        -11    1    5    5    0    0  0.14868268831E+02 -0.30846469188E+01 -0.32897124973E+02  0.36232599909E+02  0.00000000000E+00 0.  1.
          4    1    6    6  503    0 -0.30047726032E+02 -0.66875055041E+02  0.42962930588E+02  0.84976186259E+02  0.00000000000E+00 0. -1.
         -4    1    6    6    0  503 -0.16103730609E+03 -0.60704613989E+02  0.40437678965E+02  0.17678594399E+03  0.00000000000E+00 0.  1.
<mgrwt>
<rscale>  0 0.14316968E+04</rscale>
<asrwt>0</asrwt>
<pdfrwt beam="1">  1        1 0.20330878E+00 0.14316968E+04</pdfrwt>
<pdfrwt beam="2">  1       -2 0.59656709E-01 0.14316968E+04</pdfrwt>
<totfact> 0.19529616E+01</totfact>
</mgrwt>
</event>
<event>
12    4  0.4486176E-008  0.1242106E+04  0.7818608E-02  0.9076779E-01
         -2   -1    0    0    0  501 -0.00000000000E+00  0.00000000000E+00  0.26828456372E+03  0.26828456372E+03  0.00000000000E+00 0.  1.
          1   -1    0    0  501    0  0.00000000000E+00 -0.00000000000E+00 -0.14376777505E+04  0.14376777505E+04  0.00000000000E+00 0. -1.
        -24    2    1    2    0    0  0.18838942503E+03 -0.21085400127E+03 -0.11883414002E+03  0.31687918789E+03  0.79629652592E+02 0.  0.
        254    2    1    2    0    0 -0.18838942503E+03  0.21085400127E+03 -0.10505590467E+04  0.13890831263E+04  0.86367102288E+03 0.  0.
         23    2    4    4    0    0  0.76179242783E+02 -0.19499531192E+02  0.11915228701E+03  0.16454563140E+03  0.81819854342E+02 0.  0.
         23    2    4    4    0    0 -0.26456866781E+03  0.23035353246E+03 -0.11697113337E+04  0.12245374949E+04  0.90598798005E+02 0.  0.
          1    1    3    3  502    0  0.14389441565E+03 -0.11272284918E+03 -0.97034048737E+02  0.20694842400E+03  0.00000000000E+00 0. -1.
         -2    1    3    3    0  502  0.44495009381E+02 -0.98131152088E+02 -0.21800091280E+02  0.10993076389E+03  0.00000000000E+00 0.  1.
         11    1    5    5    0    0  0.73011755600E+02  0.97658163280E+01  0.11233120619E+03  0.13432939927E+03  0.00000000000E+00 0. -1.
        -11    1    5    5    0    0  0.31674871833E+01 -0.29265347520E+02  0.68210808246E+01  0.30216232130E+02  0.00000000000E+00 0.  1.
          1    1    6    6  503    0 -0.22800901648E+03  0.18930103598E+03 -0.85108932787E+03  0.90120809907E+03  0.00000000000E+00 0. -1.
         -1    1    6    6    0  503 -0.36559651328E+02  0.41052496481E+02 -0.31862200588E+03  0.32332939583E+03  0.00000000000E+00 0.  1.
<mgrwt>
<rscale>  0 0.12421059E+04</rscale>
<asrwt>0</asrwt>
<pdfrwt beam="1">  1        1 0.22118120E+00 0.12421059E+04</pdfrwt>
<pdfrwt beam="2">  1       -2 0.41274548E-01 0.12421059E+04</pdfrwt>
<totfact> 0.34796852E+01</totfact>
</mgrwt>
</event>
<event>
12    4  0.4486176E-008  0.1306180E+04  0.7818608E-02  0.9024679E-01
          1   -1    0    0  501    0  0.00000000000E+00  0.00000000000E+00  0.27877976210E+03  0.27877976210E+03  0.00000000000E+00 0. -1.
         -2   -1    0    0    0  501 -0.00000000000E+00 -0.00000000000E+00 -0.15299767381E+04  0.15299767381E+04  0.00000000000E+00 0.  1.
        -24    2    1    2    0    0 -0.17090281455E+03  0.13178293789E+03 -0.66618875559E+03  0.70492599514E+03  0.80862140753E+02 0.  0.
        254    2    1    2    0    0  0.17090281455E+03 -0.13178293789E+03 -0.58500822041E+03  0.11038305051E+04  0.91084172677E+03 0.  0.
         23    2    4    4    0    0 -0.12861645759E+02  0.35064334195E+03 -0.41773880633E+03  0.55328801704E+03  0.92226592161E+02 0.  0.
         23    2    4    4    0    0  0.18376446031E+03 -0.48242627984E+03 -0.16726941408E+03  0.55054248802E+03  0.92808845896E+02 0.  0.
          1    1    3    3  502    0 -0.62949276597E+02  0.47537552234E+02 -0.37417647011E+03  0.38240091668E+03  0.00000000000E+00 0. -1.
         -2    1    3    3    0  502 -0.10795353796E+03  0.84245385653E+02 -0.29201228548E+03  0.32252507845E+03  0.00000000000E+00 0.  1.
         11    1    5    5    0    0  0.28207178568E+01  0.34484284867E+03 -0.38746728114E+03  0.51870554333E+03  0.00000000000E+00 0.  1.
        -11    1    5    5    0    0 -0.15682363616E+02  0.58004932873E+01 -0.30271525186E+02  0.34582473712E+02  0.00000000000E+00 0. -1.
          4    1    6    6  503    0 -0.12075673181E+01 -0.65273280165E+02 -0.23342701213E+01  0.65326167340E+02  0.00000000000E+00 0. -1.
         -4    1    6    6    0  503  0.18497202763E+03 -0.41715299968E+03 -0.16493514396E+03  0.48521632068E+03  0.00000000000E+00 0.  1.
<mgrwt>
<rscale>  0 0.13061800E+04</rscale>
<asrwt>0</asrwt>
<pdfrwt beam="1">  1        1 0.42889194E-01 0.13061800E+04</pdfrwt>
<pdfrwt beam="2">  1       -2 0.23538104E+00 0.13061800E+04</pdfrwt>
<totfact> 0.65489529E+00</totfact>
</mgrwt>
</event>
<event>
12    4  0.4486176E-008  0.1393971E+04  0.7818608E-02  0.8958194E-01
         -2   -1    0    0    0  501 -0.00000000000E+00  0.00000000000E+00  0.19771628157E+04  0.19771628157E+04  0.00000000000E+00 0.  1.
          1   -1    0    0  501    0  0.00000000000E+00 -0.00000000000E+00 -0.24569982413E+03  0.24569982413E+03  0.00000000000E+00 0. -1.
        -24    2    1    2    0    0 -0.46884208179E+02 -0.13684223780E+03 -0.63811983477E+02  0.17790168847E+03  0.81566626161E+02 0.  0.
        254    2    1    2    0    0  0.46884208179E+02  0.13684223780E+03  0.17952749750E+04  0.20449609513E+04  0.96846741273E+03 0.  0.
         23    2    4    4    0    0 -0.36389919895E+03 -0.47194018276E+02  0.13629934839E+04  0.14147045519E+04  0.94804164587E+02 0.  0.
         23    2    4    4    0    0  0.41078340713E+03  0.18403625607E+03  0.43228149113E+03  0.63025639945E+03  0.87997104290E+02 0.  0.
          1    1    3    3  502    0 -0.56549065951E+02 -0.11943924183E+03 -0.25300838798E+02  0.13454984873E+03  0.00000000000E+00 0. -1.
         -2    1    3    3    0  502  0.96648577728E+01 -0.17402995965E+02 -0.38511144679E+02  0.43351839739E+02  0.00000000000E+00 0.  1.
         11    1    5    5    0    0 -0.35684956219E+03 -0.27594347539E+02  0.12990159055E+04  0.13474217531E+04  0.00000000000E+00 0.  1.
        -11    1    5    5    0    0 -0.70496367540E+01 -0.19599670736E+02  0.63977578373E+02  0.67282798737E+02  0.00000000000E+00 0. -1.
          1    1    6    6  503    0  0.88567572895E+02  0.81562426535E+02  0.12005438022E+03  0.17002852290E+03  0.00000000000E+00 0. -1.
         -1    1    6    6    0  503  0.32221583423E+03  0.10247382954E+03  0.31222711091E+03  0.46022787655E+03  0.00000000000E+00 0.  1.
<mgrwt>
<rscale>  0 0.13939707E+04</rscale>
<asrwt>0</asrwt>
<pdfrwt beam="1">  1        1 0.37799974E-01 0.13939707E+04</pdfrwt>
<pdfrwt beam="2">  1       -2 0.30417888E+00 0.13939707E+04</pdfrwt>
<totfact> 0.29166110E+00</totfact>
</mgrwt>
</event>
<event>
12    4  0.4486176E-008  0.1953547E+04  0.7818608E-02  0.8628652E-01
         -2   -1    0    0    0  501 -0.00000000000E+00  0.00000000000E+00  0.10805991575E+04  0.10805991575E+04  0.00000000000E+00 0.  1.
          1   -1    0    0  501    0  0.00000000000E+00 -0.00000000000E+00 -0.88292381542E+03  0.88292381542E+03  0.00000000000E+00 0. -1.
        -24    2    1    2    0    0  0.24652236937E+02  0.51084651133E+03  0.61021556833E+03  0.80163668492E+03  0.93201093623E+02 0.  0.
        254    2    1    2    0    0 -0.24652236937E+02 -0.51084651133E+03 -0.41254022621E+03  0.11618862880E+04  0.95823714037E+03 0.  0.
         23    2    4    4    0    0 -0.43239412297E+03 -0.24597335394E+02 -0.20446594255E+03  0.48803817045E+03  0.93836174585E+02 0.  0.
         23    2    4    4    0    0  0.40774188603E+03 -0.48624917594E+03 -0.20807428365E+03  0.67384811759E+03  0.89914800454E+02 0.  0.
          3    1    3    3  502    0  0.42539540720E+02  0.17592869111E+03  0.17095027548E+03  0.24896689251E+03  0.00000000000E+00 0. -1.
         -4    1    3    3    0  502 -0.17887303783E+02  0.33491782022E+03  0.43926529285E+03  0.55266979241E+03  0.00000000000E+00 0.  1.
         11    1    5    5    0    0 -0.34271948079E+03  0.18754102990E+02 -0.15082279592E+03  0.37490782155E+03  0.00000000000E+00 0. -1.
        -11    1    5    5    0    0 -0.89674642179E+02 -0.43351438384E+02 -0.53643146638E+02  0.11313034889E+03  0.00000000000E+00 0.  1.
          4    1    6    6  503    0  0.35777274968E+03 -0.37346417830E+03 -0.15879815593E+03  0.54101172558E+03  0.00000000000E+00 0. -1.
         -4    1    6    6    0  503  0.49969136352E+02 -0.11278499764E+03 -0.49276127723E+02  0.13283639201E+03  0.00000000000E+00 0.  1.
<mgrwt>
<rscale>  0 0.19535473E+04</rscale>
<asrwt>0</asrwt>
<pdfrwt beam="1">  1        1 0.13583443E+00 0.19535473E+04</pdfrwt>
<pdfrwt beam="2">  1       -2 0.16624602E+00 0.19535473E+04</pdfrwt>
<totfact> 0.34778016E+00</totfact>
</mgrwt>
</event>
<event>
12    4  0.4486176E-008  0.1339828E+04  0.7818608E-02  0.8998564E-01
          1   -1    0    0  501    0  0.00000000000E+00  0.00000000000E+00  0.31111836003E+03  0.31111836003E+03  0.00000000000E+00 0. -1.
         -2   -1    0    0    0  501 -0.00000000000E+00 -0.00000000000E+00 -0.14424894211E+04  0.14424894211E+04  0.00000000000E+00 0.  1.
        -24    2    1    2    0    0  0.81402945492E+02  0.37811163095E+02  0.13981497824E+03  0.18540532285E+03  0.82284761712E+02 0.  0.
        254    2    1    2    0    0 -0.81402945492E+02 -0.37811163095E+02 -0.12711860393E+04  0.15682024583E+04  0.91394139859E+03 0.  0.
         23    2    4    4    0    0 -0.33779468325E+03  0.15960690952E+03 -0.17654125969E+03  0.42298457890E+03  0.90385419312E+02 0.  0.
         23    2    4    4    0    0  0.25639173775E+03 -0.19741807261E+03 -0.10946447797E+04  0.11452178794E+04  0.92553655293E+02 0.  0.
          1    1    3    3  502    0  0.98042050684E+02  0.28574377514E+02  0.11057584863E+03  0.15051829475E+03  0.00000000000E+00 0. -1.
         -2    1    3    3    0  502 -0.16639105191E+02  0.92367855807E+01  0.29239129607E+02  0.34887028099E+02  0.00000000000E+00 0.  1.
         11    1    5    5    0    0 -0.27911699720E+03  0.16679908127E+03 -0.14576549606E+03  0.35633665470E+03  0.00000000000E+00 0.  1.
        -11    1    5    5    0    0 -0.58677686047E+02 -0.71921717558E+01 -0.30775763622E+02  0.66647924206E+02  0.00000000000E+00 0. -1.
          3    1    6    6  503    0  0.12037038610E+03 -0.52296401325E+02 -0.54845837561E+03  0.56394195908E+03  0.00000000000E+00 0. -1.
         -3    1    6    6    0  503  0.13602135165E+03 -0.14512167129E+03 -0.54618640405E+03  0.58127592033E+03  0.00000000000E+00 0.  1.
<mgrwt>
<rscale>  0 0.13398283E+04</rscale>
<asrwt>0</asrwt>
<pdfrwt beam="1">  1        1 0.47864362E-01 0.13398283E+04</pdfrwt>
<pdfrwt beam="2">  1       -2 0.22192146E+00 0.13398283E+04</pdfrwt>
<totfact> 0.68706996E+00</totfact>
</mgrwt>
</event>
<event>
12    4  0.4486176E-008  0.1563456E+04  0.7818608E-02  0.8843318E-01
          1   -1    0    0  501    0  0.00000000000E+00  0.00000000000E+00  0.12872780770E+04  0.12872780770E+04  0.00000000000E+00 0. -1.
         -2   -1    0    0    0  501 -0.00000000000E+00 -0.00000000000E+00 -0.47472177063E+03  0.47472177063E+03  0.00000000000E+00 0.  1.
        -24    2    1    2    0    0  0.13055461211E+03  0.18004286495E+03 -0.25530307331E+03  0.34805227901E+03  0.80627474949E+02 0.  0.
        254    2    1    2    0    0 -0.13055461211E+03 -0.18004286495E+03  0.10678593797E+04  0.14139475687E+04  0.89970224636E+03 0.  0.
         23    2    4    4    0    0 -0.43468779862E+03 -0.22492240688E+03  0.94523977582E+03  0.10677642042E+04  0.84253134016E+02 0.  0.
         23    2    4    4    0    0  0.30413318651E+03  0.44879541928E+02  0.12261960391E+03  0.34618336447E+03  0.10147012442E+03 0.  0.
          3    1    3    3  502    0  0.90039941082E+02  0.94715470613E+02 -0.19904197313E+03  0.23810904735E+03  0.00000000000E+00 0. -1.
         -4    1    3    3    0  502  0.40514671032E+02  0.85327394341E+02 -0.56261100184E+02  0.10994323166E+03  0.00000000000E+00 0.  1.
         11    1    5    5    0    0 -0.13628917522E+02 -0.29368235962E+02  0.61573931625E+02  0.69567159869E+02  0.00000000000E+00 0.  1.
        -11    1    5    5    0    0 -0.42105888110E+03 -0.19555417092E+03  0.88366584419E+03  0.99819704433E+03  0.00000000000E+00 0. -1.
          4    1    6    6  503    0  0.24021386867E+03 -0.83468369090E+01  0.96401600549E+02  0.25897034768E+03  0.00000000000E+00 0. -1.
         -4    1    6    6    0  503  0.63919317839E+02  0.53226378837E+02  0.26218003359E+02  0.87213016787E+02  0.00000000000E+00 0.  1.
<mgrwt>
<rscale>  0 0.15634563E+04</rscale>
<asrwt>0</asrwt>
<pdfrwt beam="1">  1        1 0.19804278E+00 0.15634563E+04</pdfrwt>
<pdfrwt beam="2">  1       -2 0.73034119E-01 0.15634563E+04</pdfrwt>
<totfact> 0.13206562E+01</totfact>
</mgrwt>
</event>
<event>
12    4  0.4486176E-008  0.1500498E+04  0.7818608E-02  0.8884122E-01
          1   -1    0    0  501    0  0.00000000000E+00  0.00000000000E+00  0.11053173936E+04  0.11053173936E+04  0.00000000000E+00 0. -1.
         -2   -1    0    0    0  501 -0.00000000000E+00 -0.00000000000E+00 -0.50924134052E+03  0.50924134052E+03  0.00000000000E+00 0.  1.
        -24    2    1    2    0    0 -0.30802770208E+03  0.22927800133E+02 -0.21877388179E+03  0.38657298712E+03  0.78548798520E+02 0.  0.
        254    2    1    2    0    0  0.30802770208E+03 -0.22927800133E+02  0.81484993485E+03  0.12279857470E+04  0.86519467705E+03 0.  0.
         23    2    4    4    0    0 -0.24550682183E+03  0.17948362873E+03  0.22164027258E+03  0.38645505879E+03  0.87949584936E+02 0.  0.
         23    2    4    4    0    0  0.55353452391E+03 -0.20241142886E+03  0.59320966227E+03  0.84153068819E+03  0.94368109334E+02 0.  0.
          1    1    3    3  502    0 -0.21686092967E+02 -0.16439247395E+02 -0.65440466294E+01  0.27988569620E+02  0.00000000000E+00 0. -1.
         -2    1    3    3    0  502 -0.28634160911E+03  0.39367047529E+02 -0.21222983516E+03  0.35858441750E+03  0.00000000000E+00 0.  1.
         11    1    5    5    0    0 -0.17335289195E+03  0.12418830106E+03  0.20141064833E+03  0.29332611293E+03  0.00000000000E+00 0.  1.
        -11    1    5    5    0    0 -0.72153929883E+02  0.55295327668E+02  0.20229624244E+02  0.93128945857E+02  0.00000000000E+00 0. -1.
          3    1    6    6  503    0  0.27428655524E+03 -0.50292365868E+02  0.27251945931E+03  0.38990933837E+03  0.00000000000E+00 0. -1.
         -3    1    6    6    0  503  0.27924796867E+03 -0.15211906299E+03  0.32069020296E+03  0.45162134981E+03  0.00000000000E+00 0.  1.
<mgrwt>
<rscale>  0 0.15004977E+04</rscale>
<asrwt>0</asrwt>
<pdfrwt beam="1">  1        1 0.17004883E+00 0.15004977E+04</pdfrwt>
<pdfrwt beam="2">  1       -2 0.78344822E-01 0.15004977E+04</pdfrwt>
<totfact> 0.15437929E+01</totfact>
</mgrwt>
</event>
<event>
12    4  0.4486176E-008  0.2206354E+04  0.7818608E-02  0.8515788E-01
         -2   -1    0    0    0  501 -0.00000000000E+00  0.00000000000E+00  0.15023634991E+04  0.15023634991E+04  0.00000000000E+00 0.  1.
          1   -1    0    0  501    0  0.00000000000E+00 -0.00000000000E+00 -0.81005643151E+03  0.81005643151E+03  0.00000000000E+00 0. -1.
        -24    2    1    2    0    0 -0.83466359371E+03 -0.31965847690E+03  0.52990024036E+03  0.10445550753E+04  0.10703356563E+03 0.  0.
        254    2    1    2    0    0  0.83466359371E+03  0.31965847690E+03  0.16240682722E+03  0.12678648553E+04  0.88445489268E+03 0.  0.
         23    2    4    4    0    0  0.87271844003E+03 -0.30225095945E+02  0.22000883563E+02  0.87827900552E+03  0.91317800436E+02 0.  0.
         23    2    4    4    0    0 -0.38054846318E+02  0.34988357284E+03  0.14040594366E+03  0.38958584975E+03  0.90535183402E+02 0.  0.
          1    1    3    3  502    0 -0.80241086091E+02 -0.57668146941E+02  0.85183241084E+02  0.13046237630E+03  0.00000000000E+00 0. -1.
         -2    1    3    3    0  502 -0.75442250762E+03 -0.26199032996E+03  0.44471699928E+03  0.91409269904E+03  0.00000000000E+00 0.  1.
         11    1    5    5    0    0  0.23740039216E+03  0.32246191601E+02  0.22266176017E+01  0.23959073624E+03  0.00000000000E+00 0.  1.
        -11    1    5    5    0    0  0.63531804787E+03 -0.62471287547E+02  0.19774265961E+02  0.63868826928E+03  0.00000000000E+00 0. -1.
          2    1    6    6  503    0  0.22550640950E+02  0.55898480204E+02  0.55937088918E+01  0.60534792273E+02  0.00000000000E+00 0. -1.
         -2    1    6    6    0  503 -0.60605487268E+02  0.29398509264E+03  0.13481223477E+03  0.32905105747E+03  0.00000000000E+00 0.  1.
<mgrwt>
<rscale>  0 0.22063537E+04</rscale>
<asrwt>0</asrwt>
<pdfrwt beam="1">  1        1 0.12462407E+00 0.22063537E+04</pdfrwt>
<pdfrwt beam="2">  1       -2 0.23113285E+00 0.22063537E+04</pdfrwt>
<totfact> 0.14551684E+00</totfact>
</mgrwt>
</event>
<event>
12    4  0.4486176E-008  0.1201878E+04  0.7818608E-02  0.9111214E-01
          1   -1    0    0  501    0  0.00000000000E+00  0.00000000000E+00  0.30009232585E+03  0.30009232585E+03  0.00000000000E+00 0. -1.
         -2   -1    0    0    0  501 -0.00000000000E+00 -0.00000000000E+00 -0.12033890959E+04  0.12033890959E+04  0.00000000000E+00 0.  1.
        -24    2    1    2    0    0  0.20042165975E+03 -0.98511031011E+02 -0.43688470691E+02  0.24096208497E+03  0.79251365884E+02 0.  0.
        254    2    1    2    0    0 -0.20042165975E+03  0.98511031011E+02 -0.85960829937E+03  0.12625193368E+04  0.89730450936E+03 0.  0.
         23    2    4    4    0    0 -0.53500403876E+03  0.45203822590E+02 -0.66906643525E+03  0.86259486082E+03  0.90262351326E+02 0.  0.
         23    2    4    4    0    0  0.33458237901E+03  0.53307208420E+02 -0.19054186412E+03  0.39992447598E+03  0.94055077958E+02 0.  0.
          1    1    3    3  502    0  0.12230705025E+03 -0.50004603262E+02  0.13271661567E+02  0.13279914114E+03  0.00000000000E+00 0. -1.
         -2    1    3    3    0  502  0.78114609503E+02 -0.48506427749E+02 -0.56960132258E+02  0.10816294383E+03  0.00000000000E+00 0.  1.
         11    1    5    5    0    0 -0.25994050828E+03  0.22322079638E+02 -0.39684756688E+03  0.47492666216E+03  0.00000000000E+00 0. -1.
        -11    1    5    5    0    0 -0.27506353048E+03  0.22881742952E+02 -0.27221886837E+03  0.38766819866E+03  0.00000000000E+00 0.  1.
          1    1    6    6  503    0  0.22017913837E+03  0.79746487898E+02 -0.12485083700E+03  0.26537913785E+03  0.00000000000E+00 0. -1.
         -1    1    6    6    0  503  0.11440324064E+03 -0.26439279477E+02 -0.65691027120E+02  0.13454533813E+03  0.00000000000E+00 0.  1.
<mgrwt>
<rscale>  0 0.12018783E+04</rscale>
<asrwt>0</asrwt>
<pdfrwt beam="1">  1        1 0.46168051E-01 0.12018783E+04</pdfrwt>
<pdfrwt beam="2">  1       -2 0.18513678E+00 0.12018783E+04</pdfrwt>
<totfact> 0.12642370E+01</totfact>
</mgrwt>
</event>
<event>
12    4  0.4486176E-008  0.2498635E+04  0.7818608E-02  0.8403472E-01
         -4   -1    0    0    0  501 -0.00000000000E+00  0.00000000000E+00  0.69078115432E+03  0.69078115432E+03  0.00000000000E+00 0.  1.
          1   -1    0    0  501    0  0.00000000000E+00 -0.00000000000E+00 -0.22594628664E+04  0.22594628664E+04  0.00000000000E+00 0. -1.
        -24    2    1    2    0    0  0.32873769623E+03  0.83409132678E+03 -0.14153132111E+04  0.16772963986E+04  0.80217884784E+02 0.  0.
        254    2    1    2    0    0 -0.32873769623E+03 -0.83409132678E+03 -0.15336850102E+03  0.12729476221E+04  0.89055990095E+03 0.  0.
         23    2    4    4    0    0 -0.25471326445E+03  0.11955861462E+03 -0.95472318487E+02  0.31036299086E+03  0.89649947445E+02 0.  0.
         23    2    4    4    0    0 -0.74024431777E+02 -0.95364994141E+03 -0.57896182531E+02  0.96258463125E+03  0.91046016477E+02 0.  0.
          1    1    3    3  502    0  0.17168916625E+03  0.52022566512E+03 -0.90664420864E+03  0.10592995957E+04  0.00000000000E+00 0. -1.
         -2    1    3    3    0  502  0.15704852998E+03  0.31386566166E+03 -0.50866900242E+03  0.61799680287E+03  0.00000000000E+00 0.  1.
         11    1    5    5    0    0 -0.26827078708E+02 -0.13880572414E+02 -0.21615096860E+01  0.30282578600E+02  0.00000000000E+00 0. -1.
        -11    1    5    5    0    0 -0.22788618575E+03  0.13343918704E+03 -0.93310808801E+02  0.28008041226E+03  0.00000000000E+00 0.  1.
          3    1    6    6  503    0  0.17772761929E+02 -0.27762376701E+03 -0.38767958873E+01  0.27821908026E+03  0.00000000000E+00 0. -1.
         -3    1    6    6    0  503 -0.91797193707E+02 -0.67602617439E+03 -0.54019386644E+02  0.68436555098E+03  0.00000000000E+00 0.  1.
<mgrwt>
<rscale>  0 0.24986351E+04</rscale>
<asrwt>0</asrwt>
<pdfrwt beam="1">  1        1 0.34760967E+00 0.24986351E+04</pdfrwt>
<pdfrwt beam="2">  1       -4 0.10627403E+00 0.24986351E+04</pdfrwt>
<totfact> 0.61892945E-01</totfact>
</mgrwt>
</event>
<event>
12    4  0.4486176E-008  0.1145488E+04  0.7818608E-02  0.9161956E-01
          1   -1    0    0  501    0  0.00000000000E+00  0.00000000000E+00  0.94620989513E+03  0.94620989513E+03  0.00000000000E+00 0. -1.
         -2   -1    0    0    0  501 -0.00000000000E+00 -0.00000000000E+00 -0.34668389566E+03  0.34668389566E+03  0.00000000000E+00 0.  1.
        -24    2    1    2    0    0  0.12027092285E+03 -0.22081931909E+02 -0.65937313835E+02  0.16050594490E+03  0.80384839320E+02 0.  0.
        254    2    1    2    0    0 -0.12027092285E+03  0.22081931909E+02  0.66546331331E+03  0.11323878459E+04  0.90802428688E+03 0.  0.
         23    2    4    4    0    0  0.23562517525E+03  0.30238791241E+03  0.51105480200E+03  0.64544956297E+03  0.92035074306E+02 0.  0.
         23    2    4    4    0    0 -0.35589609810E+03 -0.28030598050E+03  0.15440851131E+03  0.48693828292E+03  0.89629390618E+02 0.  0.
          3    1    3    3  502    0  0.66519815085E+02 -0.46143281336E+02 -0.61081662027E+02  0.10141527325E+03  0.00000000000E+00 0. -1.
         -4    1    3    3    0  502  0.53751107765E+02  0.24061349427E+02 -0.48556518083E+01  0.59090671656E+02  0.00000000000E+00 0.  1.
         11    1    5    5    0    0  0.31045014721E+02  0.54637544804E+02  0.14711778039E+03  0.15997717196E+03  0.00000000000E+00 0. -1.
        -11    1    5    5    0    0  0.20458016053E+03  0.24775036761E+03  0.36393702161E+03  0.48547239101E+03  0.00000000000E+00 0.  1.
          3    1    6    6  503    0 -0.13347161013E+03 -0.79385714868E+02  0.92882764534E+02  0.18095295075E+03  0.00000000000E+00 0. -1.
         -3    1    6    6    0  503 -0.22242448797E+03 -0.20092026563E+03  0.61525746772E+02  0.30598533218E+03  0.00000000000E+00 0.  1.
<mgrwt>
<rscale>  0 0.11454881E+04</rscale>
<asrwt>0</asrwt>
<pdfrwt beam="1">  1        1 0.14557075E+00 0.11454881E+04</pdfrwt>
<pdfrwt beam="2">  1       -2 0.53335985E-01 0.11454881E+04</pdfrwt>
<totfact> 0.48163679E+01</totfact>
</mgrwt>
</event>
<event>
12    4  0.4486176E-008  0.1951345E+04  0.7818608E-02  0.8629712E-01
          1   -1    0    0  501    0  0.00000000000E+00  0.00000000000E+00  0.39794039191E+04  0.39794039191E+04  0.00000000000E+00 0. -1.
         -2   -1    0    0    0  501 -0.00000000000E+00 -0.00000000000E+00 -0.23921599241E+03  0.23921599241E+03  0.00000000000E+00 0.  1.
        -24    2    1    2    0    0  0.61915314096E+03 -0.45104306852E+03  0.14700717659E+04  0.16596251658E+04  0.80338239347E+02 0.  0.
        254    2    1    2    0    0 -0.61915314096E+03  0.45104306852E+03  0.22701161608E+04  0.25589947456E+04  0.89901961217E+03 0.  0.
         23    2    4    4    0    0 -0.52188160251E+03  0.57373935462E+03  0.96535600208E+03  0.12417221860E+04  0.91785197390E+02 0.  0.
         23    2    4    4    0    0 -0.97271538445E+02 -0.12269628610E+03  0.13047601587E+04  0.13172725596E+04  0.91059286654E+02 0.  0.
          1    1    3    3  502    0  0.58668607166E+03 -0.44630630877E+03  0.13981894798E+04  0.15806086452E+04  0.00000000000E+00 0. -1.
         -2    1    3    3    0  502  0.32467069303E+02 -0.47367597564E+01  0.71882286112E+02  0.79016520670E+02  0.00000000000E+00 0.  1.
         11    1    5    5    0    0 -0.40028018659E+03  0.40405838682E+03  0.65217627665E+03  0.86534461549E+03  0.00000000000E+00 0.  1.
        -11    1    5    5    0    0 -0.12160141593E+03  0.16968096780E+03  0.31317972543E+03  0.37637757055E+03  0.00000000000E+00 0. -1.
          2    1    6    6  503    0 -0.90335580557E+02 -0.10354258477E+03  0.77271719195E+03  0.78483975607E+03  0.00000000000E+00 0. -1.
         -2    1    6    6    0  503 -0.69359578877E+01 -0.19153701323E+02  0.53204296676E+03  0.53243280352E+03  0.00000000000E+00 0.  1.
<mgrwt>
<rscale>  0 0.19513452E+04</rscale>
<asrwt>0</asrwt>
<pdfrwt beam="1">  1        1 0.61221594E+00 0.19513452E+04</pdfrwt>
<pdfrwt beam="2">  1       -2 0.36802463E-01 0.19513452E+04</pdfrwt>
<totfact> 0.57444186E-01</totfact>
</mgrwt>
</event>
<event>
12    4  0.4486176E-008  0.1841830E+04  0.7818608E-02  0.8684366E-01
         -2   -1    0    0    0  501 -0.00000000000E+00  0.00000000000E+00  0.69378528712E+03  0.69378528712E+03  0.00000000000E+00 0.  1.
          1   -1    0    0  501    0  0.00000000000E+00 -0.00000000000E+00 -0.12224022400E+04  0.12224022400E+04  0.00000000000E+00 0. -1.
        -24    2    1    2    0    0 -0.34792819148E+03  0.35826521975E+02  0.42213740171E+03  0.55451472016E+03  0.83360799258E+02 0.  0.
        254    2    1    2    0    0  0.34792819148E+03 -0.35826521975E+02 -0.95075435457E+03  0.13616728069E+04  0.90987989554E+03 0.  0.
         23    2    4    4    0    0  0.39722531093E+03  0.13343110329E+02 -0.11000943779E+04  0.11731457452E+04  0.89985069991E+02 0.  0.
         23    2    4    4    0    0 -0.49297119455E+02 -0.49169632304E+02  0.14934002334E+03  0.18852706178E+03  0.91608688035E+02 0.  0.
          1    1    3    3  502    0 -0.99210054551E+02  0.17960175721E+02  0.18345630081E+03  0.20933565664E+03  0.00000000000E+00 0. -1.
         -2    1    3    3    0  502 -0.24871813693E+03  0.17866346254E+02  0.23868110090E+03  0.34517906352E+03  0.00000000000E+00 0.  1.
         11    1    5    5    0    0  0.34374190711E+03 -0.17849123018E+02 -0.96467624139E+03  0.10242447660E+04  0.00000000000E+00 0. -1.
        -11    1    5    5    0    0  0.53483403822E+02  0.31192233347E+02 -0.13541813652E+03  0.14890097919E+03  0.00000000000E+00 0.  1.
          4    1    6    6  503    0 -0.72990876297E+02 -0.31870552027E+02  0.78391971770E+02  0.11175285834E+03  0.00000000000E+00 0. -1.
         -4    1    6    6    0  503  0.23693756842E+02 -0.17299080277E+02  0.70948051574E+02  0.76774203440E+02  0.00000000000E+00 0.  1.
<mgrwt>
<rscale>  0 0.18418303E+04</rscale>
<asrwt>0</asrwt>
<pdfrwt beam="1">  1        1 0.18806188E+00 0.18418303E+04</pdfrwt>
<pdfrwt beam="2">  1       -2 0.10673620E+00 0.18418303E+04</pdfrwt>
<totfact> 0.59977005E+00</totfact>
</mgrwt>
</event>
<event>
12    4  0.4486176E-008  0.1677489E+04  0.7818608E-02  0.8774308E-01
          1   -1    0    0  501    0  0.00000000000E+00  0.00000000000E+00  0.82200969802E+03  0.82200969802E+03  0.00000000000E+00 0. -1.
         -2   -1    0    0    0  501 -0.00000000000E+00 -0.00000000000E+00 -0.85582003923E+03  0.85582003923E+03  0.00000000000E+00 0.  1.
        -24    2    1    2    0    0 -0.35235293155E+03 -0.39808245089E+01 -0.48646099680E+03  0.60603073029E+03  0.80377293507E+02 0.  0.
        254    2    1    2    0    0  0.35235293155E+03  0.39808245089E+01  0.45265065560E+03  0.10717990070E+04  0.90536846641E+03 0.  0.
         23    2    4    4    0    0  0.41708674730E+03  0.37957933508E+03  0.33627948668E+03  0.66245647717E+03  0.87879830433E+02 0.  0.
         23    2    4    4    0    0 -0.64733815750E+02 -0.37559851057E+03  0.11637116892E+03  0.40934252979E+03  0.93564681864E+02 0.  0.
          3    1    3    3  502    0 -0.16911251888E+03  0.25274245332E+02 -0.28311496154E+03  0.33074448290E+03  0.00000000000E+00 0. -1.
         -4    1    3    3    0  502 -0.18324041267E+03 -0.29255069841E+02 -0.20334603526E+03  0.27528624739E+03  0.00000000000E+00 0.  1.
         11    1    5    5    0    0  0.33253276335E+03  0.26601448573E+03  0.28237414178E+03  0.51095684873E+03  0.00000000000E+00 0. -1.
        -11    1    5    5    0    0  0.84553983951E+02  0.11356484935E+03  0.53905344897E+02  0.15149962844E+03  0.00000000000E+00 0.  1.
          1    1    6    6  503    0 -0.67425215502E+02 -0.15416202360E+03  0.26443586227E+02  0.17032719236E+03  0.00000000000E+00 0. -1.
         -1    1    6    6    0  503  0.26913997517E+01 -0.22143648697E+03  0.89927582698E+02  0.23901533742E+03  0.00000000000E+00 0.  1.
<mgrwt>
<rscale>  0 0.16774890E+04</rscale>
<asrwt>0</asrwt>
<pdfrwt beam="1">  1        1 0.12646303E+00 0.16774890E+04</pdfrwt>
<pdfrwt beam="2">  1       -2 0.13166462E+00 0.16774890E+04</pdfrwt>
<totfact> 0.74298867E+00</totfact>
</mgrwt>
</event>
<event>
12    4  0.4486176E-008  0.1173565E+04  0.7818608E-02  0.9136315E-01
         -2   -1    0    0    0  501 -0.00000000000E+00  0.00000000000E+00  0.85794759875E+03  0.85794759875E+03  0.00000000000E+00 0.  1.
          1   -1    0    0  501    0  0.00000000000E+00 -0.00000000000E+00 -0.40132280252E+03  0.40132280252E+03  0.00000000000E+00 0. -1.
        -24    2    1    2    0    0  0.32128457798E+02 -0.60990304080E+02  0.35135032845E+03  0.36682377761E+03  0.79753216379E+02 0.  0.
        254    2    1    2    0    0 -0.32128457798E+02  0.60990304080E+02  0.10527446777E+03  0.89244662366E+03  0.88353053571E+03 0.  0.
         23    2    4    4    0    0  0.40768413562E+03 -0.14380168667E+02 -0.22934582807E+02  0.41853873099E+03  0.90749824058E+02 0.  0.
         23    2    4    4    0    0 -0.43981259342E+03  0.75370472747E+02  0.12820905057E+03  0.47390789267E+03  0.95054219216E+02 0.  0.
          3    1    3    3  502    0  0.91708245143E+00  0.67432613228E+01  0.17776991102E+03  0.17790012332E+03  0.00000000000E+00 0. -1.
         -4    1    3    3    0  502  0.31211375346E+02 -0.67733565403E+02  0.17358041743E+03  0.18892365429E+03  0.00000000000E+00 0.  1.
         11    1    5    5    0    0 -0.12156472270E+01  0.81128671405E+01 -0.22136993251E+01  0.84968744913E+01  0.00000000000E+00 0.  1.
        -11    1    5    5    0    0  0.40889978285E+03 -0.22493035807E+02 -0.20720883482E+02  0.41004185650E+03  0.00000000000E+00 0. -1.
          4    1    6    6  503    0 -0.19603495864E+03  0.75552794773E+02  0.83439862362E+02  0.22605340174E+03  0.00000000000E+00 0. -1.
         -4    1    6    6    0  503 -0.24377763478E+03 -0.18232202647E+00  0.44769188211E+02  0.24785449092E+03  0.00000000000E+00 0.  1.
<mgrwt>
<rscale>  0 0.11735654E+04</rscale>
<asrwt>0</asrwt>
<pdfrwt beam="1">  1        1 0.61741970E-01 0.11735654E+04</pdfrwt>
<pdfrwt beam="2">  1       -2 0.13199194E+00 0.11735654E+04</pdfrwt>
<totfact> 0.21607592E+01</totfact>
</mgrwt>
</event>
<event>
12    4  0.4486176E-008  0.2293908E+04  0.7818608E-02  0.8480327E-01
         -2   -1    0    0    0  501 -0.00000000000E+00  0.00000000000E+00  0.93595820096E+03  0.93595820096E+03  0.00000000000E+00 0.  1.
          1   -1    0    0  501    0  0.00000000000E+00 -0.00000000000E+00 -0.14055152552E+04  0.14055152552E+04  0.00000000000E+00 0. -1.
        -24    2    1    2    0    0  0.83915661289E+03 -0.24695289234E+03 -0.60966925794E+03  0.10689286966E+04  0.75778640208E+02 0.  0.
        254    2    1    2    0    0 -0.83915661289E+03  0.24695289234E+03  0.14011220371E+03  0.12725447596E+04  0.91354758141E+03 0.  0.
         23    2    4    4    0    0 -0.90048673941E+03  0.42609042542E+03  0.25643595623E+03  0.10325733743E+04  0.89548618964E+02 0.  0.
         23    2    4    4    0    0  0.61330126529E+02 -0.17913753308E+03 -0.11632375252E+03  0.23997138528E+03  0.90572678960E+02 0.  0.
          3    1    3    3  502    0  0.69652505764E+03 -0.21932405931E+03 -0.47733100064E+03  0.87240763585E+03  0.00000000000E+00 0. -1.
         -4    1    3    3    0  502  0.14263155525E+03 -0.27628833025E+02 -0.13233825730E+03  0.19652106073E+03  0.00000000000E+00 0.  1.
         11    1    5    5    0    0 -0.37262490552E+03  0.19960420658E+03  0.68646154820E+02  0.42825629484E+03  0.00000000000E+00 0. -1.
        -11    1    5    5    0    0 -0.52786183389E+03  0.22648621884E+03  0.18778980141E+03  0.60431707945E+03  0.00000000000E+00 0.  1.
          3    1    6    6  503    0  0.84202218732E+02 -0.15000380113E+03 -0.87239778731E+02  0.19287802618E+03  0.00000000000E+00 0. -1.
         -3    1    6    6    0  503 -0.22872092204E+02 -0.29133731953E+02 -0.29083973793E+02  0.47093359095E+02  0.00000000000E+00 0.  1.
<mgrwt>
<rscale>  0 0.22939080E+04</rscale>
<asrwt>0</asrwt>
<pdfrwt beam="1">  1        1 0.21623312E+00 0.22939080E+04</pdfrwt>
<pdfrwt beam="2">  1       -2 0.14399357E+00 0.22939080E+04</pdfrwt>
<totfact> 0.20173295E+00</totfact>
</mgrwt>
</event>
<event>
12    4  0.4486176E-008  0.1844690E+04  0.7818608E-02  0.8682889E-01
          1   -1    0    0  501    0  0.00000000000E+00  0.00000000000E+00  0.17620941423E+04  0.17620941423E+04  0.00000000000E+00 0. -1.
         -2   -1    0    0    0  501 -0.00000000000E+00 -0.00000000000E+00 -0.48278912073E+03  0.48278912073E+03  0.00000000000E+00 0.  1.
        -24    2    1    2    0    0  0.13099543823E+03  0.47714379228E+03  0.10916212821E+04  0.12012244250E+04  0.80480384598E+02 0.  0.
        254    2    1    2    0    0 -0.13099543823E+03 -0.47714379228E+03  0.18768373938E+03  0.10436588380E+04  0.89954020515E+03 0.  0.
         23    2    4    4    0    0 -0.80722289735E+02  0.11917463183E+03 -0.24565163703E+03  0.29925562764E+03  0.92144033820E+02 0.  0.
         23    2    4    4    0    0 -0.50273148497E+02 -0.59631842411E+03  0.43333537641E+03  0.74440321032E+03  0.90738848829E+02 0.  0.
          1    1    3    3  502    0  0.11413839431E+03  0.46756662402E+03  0.10365319776E+04  0.11428231103E+04  0.00000000000E+00 0. -1.
         -2    1    3    3    0  502  0.16857043918E+02  0.95771682662E+01  0.55089304557E+02  0.58401314696E+02  0.00000000000E+00 0.  1.
         11    1    5    5    0    0 -0.54830499590E+01  0.11074853582E+02  0.70962480665E+01  0.14250366849E+02  0.00000000000E+00 0. -1.
        -11    1    5    5    0    0 -0.75239239776E+02  0.10809977825E+03 -0.25274788510E+03  0.28500526079E+03  0.00000000000E+00 0.  1.
          4    1    6    6  503    0 -0.23498881159E+02 -0.32933521732E+02  0.39068973342E+02  0.56242323453E+02  0.00000000000E+00 0. -1.
         -4    1    6    6    0  503 -0.26774267338E+02 -0.56338490238E+03  0.39426640307E+03  0.68816088687E+03  0.00000000000E+00 0.  1.
<mgrwt>
<rscale>  0 0.18446895E+04</rscale>
<asrwt>0</asrwt>
<pdfrwt beam="1">  1        1 0.27109140E+00 0.18446895E+04</pdfrwt>
<pdfrwt beam="2">  1       -2 0.74275250E-01 0.18446895E+04</pdfrwt>
<totfact> 0.58208444E+00</totfact>
</mgrwt>
</event>
<event>
12    4  0.4486176E-008  0.1294137E+04  0.7818608E-02  0.9034227E-01
          1   -1    0    0  501    0  0.00000000000E+00  0.00000000000E+00  0.15773789037E+04  0.15773789037E+04  0.00000000000E+00 0. -1.
         -2   -1    0    0    0  501 -0.00000000000E+00 -0.00000000000E+00 -0.26543901156E+03  0.26543901156E+03  0.00000000000E+00 0.  1.
        -24    2    1    2    0    0  0.13854723149E+03  0.14794639090E+03 -0.25478267080E+02  0.21883791479E+03  0.78469235503E+02 0.  0.
        254    2    1    2    0    0 -0.13854723149E+03 -0.14794639090E+03  0.13374181592E+04  0.16239800005E+04  0.89863242732E+03 0.  0.
         23    2    4    4    0    0 -0.29327927973E+03 -0.38794145441E+03  0.38976893708E+03  0.62983188001E+03  0.90868392712E+02 0.  0.
         23    2    4    4    0    0  0.15473204824E+03  0.23999506351E+03  0.94764922215E+03  0.99414812048E+03  0.93551055319E+02 0.  0.
          1    1    3    3  502    0  0.54369404243E+01 -0.10371807513E+01  0.14119417243E+02  0.15165553349E+02  0.00000000000E+00 0. -1.
         -2    1    3    3    0  502  0.13311029106E+03  0.14898357165E+03 -0.39597684323E+02  0.20367236144E+03  0.00000000000E+00 0.  1.
         11    1    5    5    0    0 -0.13230337883E+03 -0.24330579211E+03  0.19532991943E+03  0.33890362929E+03  0.00000000000E+00 0.  1.
        -11    1    5    5    0    0 -0.16097590090E+03 -0.14463566230E+03  0.19443901765E+03  0.29092825072E+03  0.00000000000E+00 0. -1.
          1    1    6    6  503    0  0.15970346014E+03  0.19468025063E+03  0.74390598202E+03  0.78536724228E+03  0.00000000000E+00 0. -1.
         -1    1    6    6    0  503 -0.49714118945E+01  0.45314812878E+02  0.20374324013E+03  0.20878087819E+03  0.00000000000E+00 0.  1.
<mgrwt>
<rscale>  0 0.12941374E+04</rscale>
<asrwt>0</asrwt>
<pdfrwt beam="1">  1        1 0.24267367E+00 0.12941374E+04</pdfrwt>
<pdfrwt beam="2">  1       -2 0.40836772E-01 0.12941374E+04</pdfrwt>
<totfact> 0.28330556E+01</totfact>
</mgrwt>
</event>
<event>
12    4  0.4959670E-008  0.2034697E+04  0.7818608E-02  0.8590568E-01
         -2   -1    0    0    0  501 -0.00000000000E+00  0.00000000000E+00  0.59985817279E+03  0.59985817279E+03  0.00000000000E+00 0.  1.
          1   -1    0    0  501    0  0.00000000000E+00 -0.00000000000E+00 -0.17254049559E+04  0.17254049559E+04  0.00000000000E+00 0. -1.
        -24    2    1    2    0    0 -0.10091372484E+03  0.28926241478E+03  0.41256153094E+03  0.51993385591E+03  0.79169901120E+02 0.  0.
        254    2    1    2    0    0  0.10091372484E+03 -0.28926241478E+03 -0.15381083141E+04  0.18053292728E+04  0.89419252566E+03 0.  0.
         23    2    4    4    0    0  0.14532912505E+03 -0.26141944621E+03 -0.54885031719E+02  0.31765395745E+03  0.91820414561E+02 0.  0.
         23    2    4    4    0    0 -0.44415400206E+02 -0.27842968568E+02 -0.14832232824E+04  0.14876753154E+04  0.10236493499E+03 0.  0.
          1    1    3    3  502    0 -0.10971760316E+02  0.99555082192E+01  0.15072122623E+01  0.14891721094E+02  0.00000000000E+00 0. -1.
         -2    1    3    3    0  502 -0.89941964525E+02  0.27930690656E+03  0.41105431868E+03  0.50504213482E+03  0.00000000000E+00 0.  1.
         11    1    5    5    0    0  0.15111933005E+03 -0.24093690044E+03 -0.31681889637E+02  0.28616670673E+03  0.00000000000E+00 0.  1.
        -11    1    5    5    0    0 -0.57902050061E+01 -0.20482545774E+02 -0.23203142081E+02  0.31487250719E+02  0.00000000000E+00 0. -1.
          1    1    6    6  503    0 -0.16938244711E+02  0.15593307926E+02 -0.73635061050E+02  0.77150357108E+02  0.00000000000E+00 0. -1.
         -1    1    6    6    0  503 -0.27477155495E+02 -0.43436276494E+02 -0.14095882213E+04  0.14105249583E+04  0.00000000000E+00 0.  1.
<mgrwt>
<rscale>  0 0.20346973E+04</rscale>
<asrwt>0</asrwt>
<pdfrwt beam="1">  1        1 0.26544692E+00 0.20346973E+04</pdfrwt>
<pdfrwt beam="2">  1       -2 0.92285872E-01 0.20346973E+04</pdfrwt>
<totfact> 0.37081858E+00</totfact>
</mgrwt>
</event>
<event>
12    4  0.4486176E-008  0.2071745E+04  0.7818608E-02  0.8573793E-01
          1   -1    0    0  501    0  0.00000000000E+00  0.00000000000E+00  0.20621441333E+04  0.20621441333E+04  0.00000000000E+00 0. -1.
         -2   -1    0    0    0  501 -0.00000000000E+00 -0.00000000000E+00 -0.52034768208E+03  0.52034768208E+03  0.00000000000E+00 0.  1.
        -24    2    1    2    0    0  0.79790256693E+03  0.24476296807E+03  0.69015561065E+03  0.10859485607E+04  0.80075544164E+02 0.  0.
        254    2    1    2    0    0 -0.79790256693E+03 -0.24476296807E+03  0.85164084053E+03  0.14965432546E+04  0.90431862461E+03 0.  0.
         23    2    4    4    0    0 -0.17507355304E+02  0.22373559673E+03 -0.80832959579E+01  0.24115244679E+03  0.87892196367E+02 0.  0.
         23    2    4    4    0    0 -0.78039521163E+03 -0.46849856480E+03  0.85972413649E+03  0.12553908078E+04  0.91503540720E+02 0.  0.
          3    1    3    3  502    0  0.76807550163E+03  0.23660161109E+03  0.68176016277E+03  0.10539056970E+04  0.00000000000E+00 0. -1.
         -4    1    3    3    0  502  0.29827065301E+02  0.81613569855E+01  0.83954478825E+01  0.32042863753E+02  0.00000000000E+00 0.  1.
         11    1    5    5    0    0  0.32796795166E+02  0.99546180100E+02  0.12638130987E+02  0.10556890688E+03  0.00000000000E+00 0. -1.
        -11    1    5    5    0    0 -0.50304150469E+02  0.12418941663E+03 -0.20721426944E+02  0.13558353990E+03  0.00000000000E+00 0.  1.
          1    1    6    6  503    0 -0.67857072146E+03 -0.44109591068E+03  0.76379507770E+03  0.11128372510E+04  0.00000000000E+00 0. -1.
         -1    1    6    6    0  503 -0.10182449017E+03 -0.27402654121E+02  0.95929058790E+02  0.14255355685E+03  0.00000000000E+00 0.  1.
<mgrwt>
<rscale>  0 0.20717451E+04</rscale>
<asrwt>0</asrwt>
<pdfrwt beam="1">  1        1 0.31725294E+00 0.20717451E+04</pdfrwt>
<pdfrwt beam="2">  1       -2 0.80053491E-01 0.20717451E+04</pdfrwt>
<totfact> 0.30220865E+00</totfact>
</mgrwt>
</event>
<event>
12    4  0.4486176E-008  0.2042627E+04  0.7818608E-02  0.8586947E-01
         -2   -1    0    0    0  501 -0.00000000000E+00  0.00000000000E+00  0.89875298857E+03  0.89875298857E+03  0.00000000000E+00 0.  1.
          1   -1    0    0  501    0  0.00000000000E+00 -0.00000000000E+00 -0.11605867307E+04  0.11605867307E+04  0.00000000000E+00 0. -1.
        -24    2    1    2    0    0  0.58714026060E+03  0.10801469208E+03 -0.67348739026E+03  0.90370483048E+03  0.81830901682E+02 0.  0.
        254    2    1    2    0    0 -0.58714026060E+03 -0.10801469208E+03  0.41165364811E+03  0.11556348888E+04  0.89979576069E+03 0.  0.
         23    2    4    4    0    0 -0.57275352410E+02  0.35123606079E+03  0.19837107416E+03  0.41739390112E+03  0.90660626707E+02 0.  0.
         23    2    4    4    0    0 -0.52986490819E+03 -0.45925075286E+03  0.21328257394E+03  0.73824098771E+03  0.88556336050E+02 0.  0.
          1    1    3    3  502    0  0.43688830241E+03  0.75577090358E+02 -0.55048384860E+03  0.70683502527E+03  0.00000000000E+00 0. -1.
         -2    1    3    3    0  502  0.15025195818E+03  0.32437601718E+02 -0.12300354166E+03  0.19686980521E+03  0.00000000000E+00 0.  1.
         11    1    5    5    0    0 -0.39804917131E+02  0.18188044106E+03  0.53163524235E+02  0.19362666805E+03  0.00000000000E+00 0. -1.
        -11    1    5    5    0    0 -0.17470435279E+02  0.16935561972E+03  0.14520754993E+03  0.22376723307E+03  0.00000000000E+00 0.  1.
          1    1    6    6  503    0 -0.12508258046E+03 -0.15591481063E+03  0.78637475158E+02  0.21479975001E+03  0.00000000000E+00 0. -1.
         -1    1    6    6    0  503 -0.40478232773E+03 -0.30333594224E+03  0.13464509879E+03  0.52344123770E+03  0.00000000000E+00 0.  1.
<mgrwt>
<rscale>  0 0.20426265E+04</rscale>
<asrwt>0</asrwt>
<pdfrwt beam="1">  1        1 0.17855180E+00 0.20426265E+04</pdfrwt>
<pdfrwt beam="2">  1       -2 0.13826969E+00 0.20426265E+04</pdfrwt>
<totfact> 0.34353598E+00</totfact>
</mgrwt>
</event>
<event>
12    4  0.4486176E-008  0.1235791E+04  0.7818608E-02  0.9082093E-01
          1   -1    0    0  501    0  0.00000000000E+00  0.00000000000E+00  0.48568313307E+03  0.48568313307E+03  0.00000000000E+00 0. -1.
         -2   -1    0    0    0  501 -0.00000000000E+00 -0.00000000000E+00 -0.78609801571E+03  0.78609801571E+03  0.00000000000E+00 0.  1.
        -24    2    1    2    0    0  0.54911331439E+02  0.11315335855E+03  0.18885998003E+03  0.24006405090E+03  0.78381883159E+02 0.  0.
        254    2    1    2    0    0 -0.54911331439E+02 -0.11315335855E+03 -0.48927486266E+03  0.10317170979E+04  0.89957286640E+03 0.  0.
         23    2    4    4    0    0  0.18343447137E+03 -0.11290463540E+03 -0.67643033751E+03  0.71559834882E+03  0.90151724042E+02 0.  0.
         23    2    4    4    0    0 -0.23834580281E+03 -0.24872314647E+00  0.18715547485E+03  0.31611874907E+03  0.89972819038E+02 0.  0.
          1    1    3    3  502    0  0.62783801551E+02  0.10139141774E+03  0.19156663066E+03  0.22565415864E+03  0.00000000000E+00 0. -1.
         -2    1    3    3    0  502 -0.78724701126E+01  0.11761940808E+02 -0.27066506357E+01  0.14409892259E+02  0.00000000000E+00 0.  1.
         11    1    5    5    0    0  0.48609809000E+02 -0.74251836712E+02 -0.19688138556E+03  0.21595955354E+03  0.00000000000E+00 0.  1.
        -11    1    5    5    0    0  0.13482466237E+03 -0.38652798687E+02 -0.47954895195E+03  0.49963879528E+03  0.00000000000E+00 0. -1.
          1    1    6    6  503    0 -0.11224866019E+03 -0.44354789512E+02  0.98534501266E+02  0.15580807748E+03  0.00000000000E+00 0. -1.
         -1    1    6    6    0  503 -0.12609714262E+03  0.44106066365E+02  0.88620973580E+02  0.16031067159E+03  0.00000000000E+00 0.  1.
<mgrwt>
<rscale>  0 0.12357905E+04</rscale>
<asrwt>0</asrwt>
<pdfrwt beam="1">  1        1 0.74720482E-01 0.12357905E+04</pdfrwt>
<pdfrwt beam="2">  1       -2 0.12093816E+00 0.12357905E+04</pdfrwt>
<totfact> 0.20732022E+01</totfact>
</mgrwt>
</event>
<event>
12    4  0.4486176E-008  0.2522019E+04  0.7818608E-02  0.8395183E-01
          1   -1    0    0  501    0  0.00000000000E+00  0.00000000000E+00  0.19628850879E+04  0.19628850879E+04  0.00000000000E+00 0. -1.
         -2   -1    0    0    0  501 -0.00000000000E+00 -0.00000000000E+00 -0.81010611646E+03  0.81010611646E+03  0.00000000000E+00 0.  1.
        -24    2    1    2    0    0 -0.25395853506E+02  0.99407105393E+03  0.10193225751E+04  0.14260484597E+04  0.75983469684E+02 0.  0.
        254    2    1    2    0    0  0.25395853506E+02 -0.99407105393E+03  0.13345639636E+03  0.13469427447E+04  0.89867788336E+03 0.  0.
         23    2    4    4    0    0  0.30826192850E+03 -0.70524833033E+03 -0.21626392532E+03  0.80458527193E+03  0.90480663209E+02 0.  0.
         23    2    4    4    0    0 -0.28286607499E+03 -0.28882272360E+03  0.34972032168E+03  0.54235747274E+03  0.91736267570E+02 0.  0.
          1    1    3    3  502    0  0.78619879980E+00  0.47944213433E+03  0.54237887693E+03  0.72390622626E+03  0.00000000000E+00 0. -1.
         -2    1    3    3    0  502 -0.26182052306E+02  0.51462891960E+03  0.47694369812E+03  0.70214223341E+03  0.00000000000E+00 0.  1.
         11    1    5    5    0    0  0.30616774704E+03 -0.65012393558E+03 -0.18898325790E+03  0.74304407185E+03  0.00000000000E+00 0. -1.
        -11    1    5    5    0    0  0.20941814591E+01 -0.55124394751E+02 -0.27280667420E+02  0.61541200082E+02  0.00000000000E+00 0.  1.
          2    1    6    6  503    0 -0.28683069577E+03 -0.26542313657E+03  0.33079064500E+03  0.51199974636E+03  0.00000000000E+00 0. -1.
         -2    1    6    6    0  503  0.39646207748E+01 -0.23399587031E+02  0.18929676686E+02  0.30357726373E+02  0.00000000000E+00 0.  1.
<mgrwt>
<rscale>  0 0.25220192E+04</rscale>
<asrwt>0</asrwt>
<pdfrwt beam="1">  1        1 0.30198232E+00 0.25220192E+04</pdfrwt>
<pdfrwt beam="2">  1       -2 0.12463171E+00 0.25220192E+04</pdfrwt>
<totfact> 0.11885840E+00</totfact>
</mgrwt>
</event>
<event>
12    4  0.4486176E-008  0.1248732E+04  0.7818608E-02  0.9071239E-01
          1   -1    0    0  501    0  0.00000000000E+00  0.00000000000E+00  0.99014162371E+03  0.99014162371E+03  0.00000000000E+00 0. -1.
         -2   -1    0    0    0  501 -0.00000000000E+00 -0.00000000000E+00 -0.39371442946E+03  0.39371442946E+03  0.00000000000E+00 0.  1.
        -24    2    1    2    0    0 -0.12382172412E+03  0.20106685759E+03 -0.22562135119E+02  0.25343655933E+03  0.89226336236E+02 0.  0.
        254    2    1    2    0    0  0.12382172412E+03 -0.20106685759E+03  0.61898932936E+03  0.11304194938E+04  0.91593708387E+03 0.  0.
         23    2    4    4    0    0 -0.23104604767E+03  0.13793739406E+03 -0.56180975568E+02  0.29073789886E+03  0.94674299532E+02 0.  0.
         23    2    4    4    0    0  0.35486777180E+03 -0.33900425164E+03  0.67517030493E+03  0.83968159498E+03  0.91406904560E+02 0.  0.
          3    1    3    3  502    0 -0.78457617000E+01 -0.91137340689E+01 -0.39651657391E+01  0.12662490461E+02  0.00000000000E+00 0. -1.
         -4    1    3    3    0  502 -0.11597596242E+03  0.21018059165E+03 -0.18596969380E+02  0.24077406887E+03  0.00000000000E+00 0.  1.
         11    1    5    5    0    0 -0.17633270398E+03  0.12491712235E+03 -0.78944355503E+02  0.23006460226E+03  0.00000000000E+00 0. -1.
        -11    1    5    5    0    0 -0.54713343695E+02  0.13020271706E+02  0.22763379935E+02  0.60673296595E+02  0.00000000000E+00 0.  1.
          4    1    6    6  503    0  0.14649458732E+03 -0.15967776976E+03  0.37129431786E+03  0.42990362262E+03  0.00000000000E+00 0. -1.
         -4    1    6    6    0  503  0.20837318448E+03 -0.17932648188E+03  0.30387598707E+03  0.40977797236E+03  0.00000000000E+00 0.  1.
<mgrwt>
<rscale>  0 0.12487322E+04</rscale>
<asrwt>0</asrwt>
<pdfrwt beam="1">  1        1 0.15232948E+00 0.12487322E+04</pdfrwt>
<pdfrwt beam="2">  1       -2 0.60571451E-01 0.12487322E+04</pdfrwt>
<totfact> 0.33806883E+01</totfact>
</mgrwt>
</event>
<event>
12    4  0.4486176E-008  0.1376475E+04  0.7818608E-02  0.8971025E-01
         -2   -1    0    0    0  501 -0.00000000000E+00  0.00000000000E+00  0.58302516698E+03  0.58302516698E+03  0.00000000000E+00 0.  1.
          1   -1    0    0  501    0  0.00000000000E+00 -0.00000000000E+00 -0.81243683341E+03  0.81243683341E+03  0.00000000000E+00 0. -1.
        -24    2    1    2    0    0  0.10182652229E+03 -0.26784572461E+03  0.20476553604E+03  0.36071416021E+03  0.77947468148E+02 0.  0.
        254    2    1    2    0    0 -0.10182652229E+03  0.26784572461E+03 -0.43417720247E+03  0.10347478402E+04  0.89447374292E+03 0.  0.
         23    2    4    4    0    0 -0.34309359602E+03  0.71910908553E+02 -0.57670329873E+03  0.68063410016E+03  0.88270545114E+02 0.  0.
         23    2    4    4    0    0  0.24126707373E+03  0.19593481606E+03  0.14252609626E+03  0.35411374002E+03  0.92101030097E+02 0.  0.
          1    1    3    3  502    0  0.51904049978E+02 -0.19490115893E+03  0.10487683635E+03  0.22733157053E+03  0.00000000000E+00 0. -1.
         -2    1    3    3    0  502  0.49922472309E+02 -0.72944565681E+02  0.99888699681E+02  0.13338258967E+03  0.00000000000E+00 0.  1.
         11    1    5    5    0    0 -0.29775189618E+03  0.43250555249E+02 -0.43322585897E+03  0.52745753108E+03  0.00000000000E+00 0. -1.
        -11    1    5    5    0    0 -0.45341699838E+02  0.28660353305E+02 -0.14347743976E+03  0.15317656908E+03  0.00000000000E+00 0.  1.
          3    1    6    6  503    0  0.13405004628E+03  0.51019260772E+02  0.72622042577E+02  0.16076797239E+03  0.00000000000E+00 0. -1.
         -3    1    6    6    0  503  0.10721702745E+03  0.14491555529E+03  0.69904053682E+02  0.19334576763E+03  0.00000000000E+00 0.  1.
<mgrwt>
<rscale>  0 0.13764754E+04</rscale>
<asrwt>0</asrwt>
<pdfrwt beam="1">  1        1 0.12499028E+00 0.13764754E+04</pdfrwt>
<pdfrwt beam="2">  1       -2 0.89696180E-01 0.13764754E+04</pdfrwt>
<totfact> 0.19659842E+01</totfact>
</mgrwt>
</event>
<event>
12    4  0.4486176E-008  0.1895754E+04  0.7818608E-02  0.8656973E-01
          3   -1    0    0  501    0  0.00000000000E+00  0.00000000000E+00  0.76560353352E+03  0.76560353352E+03  0.00000000000E+00 0. -1.
         -4   -1    0    0    0  501 -0.00000000000E+00 -0.00000000000E+00 -0.11735459751E+04  0.11735459751E+04  0.00000000000E+00 0.  1.
        -24    2    1    2    0    0  0.16977882221E+03 -0.39875395475E+03 -0.75635095789E+03  0.87538391177E+03  0.80004103546E+02 0.  0.
        254    2    1    2    0    0 -0.16977882221E+03  0.39875395475E+03  0.34840851636E+03  0.10637655968E+04  0.90685124788E+03 0.  0.
         23    2    4    4    0    0 -0.20906078973E+02  0.20367316016E+03  0.63675816534E+03  0.67540289561E+03  0.93745879780E+02 0.  0.
         23    2    4    4    0    0 -0.14887274324E+03  0.19508079459E+03 -0.28834964898E+03  0.38836270119E+03  0.86373940012E+02 0.  0.
          3    1    3    3  502    0  0.89025514576E+02 -0.12644813530E+03 -0.22741194482E+03  0.27501066491E+03  0.00000000000E+00 0. -1.
         -4    1    3    3    0  502  0.80753307639E+02 -0.27230581945E+03 -0.52893901307E+03  0.60037324686E+03  0.00000000000E+00 0.  1.
         11    1    5    5    0    0  0.28756509917E+02  0.49003715511E+02  0.10502680440E+03  0.11941076434E+03  0.00000000000E+00 0.  1.
        -11    1    5    5    0    0 -0.49662588889E+02  0.15466944465E+03  0.53173136093E+03  0.55599213128E+03  0.00000000000E+00 0. -1.
          3    1    6    6  503    0 -0.10127174110E+03  0.18554558095E+03 -0.22806477854E+03  0.31096088398E+03  0.00000000000E+00 0. -1.
         -3    1    6    6    0  503 -0.47601002140E+02  0.95352136398E+01 -0.60284870434E+02  0.77401817208E+02  0.00000000000E+00 0.  1.
<mgrwt>
<rscale>  0 0.18957541E+04</rscale>
<asrwt>0</asrwt>
<pdfrwt beam="1">  1        3 0.11778516E+00 0.18957541E+04</pdfrwt>
<pdfrwt beam="2">  1       -4 0.18054553E+00 0.18957541E+04</pdfrwt>
<totfact> 0.22626882E-01</totfact>
</mgrwt>
</event>
<event>
12    4  0.4486176E-008  0.1035729E+04  0.7818608E-02  0.9270204E-01
         -2   -1    0    0    0  501 -0.00000000000E+00  0.00000000000E+00  0.14442327005E+03  0.14442327005E+03  0.00000000000E+00 0.  1.
          1   -1    0    0  501    0  0.00000000000E+00 -0.00000000000E+00 -0.18569268070E+04  0.18569268070E+04  0.00000000000E+00 0. -1.
        -24    2    1    2    0    0 -0.10643141299E+02  0.82486018037E+02 -0.40578120151E+03  0.42154984349E+03  0.78285805955E+02 0.  0.
        254    2    1    2    0    0  0.10643141299E+02 -0.82486018037E+02 -0.13067223355E+04  0.15798002336E+04  0.88392776651E+03 0.  0.
         23    2    4    4    0    0  0.22271216072E+03  0.38523773959E+02  0.33077575553E+01  0.24410845156E+03  0.92158597904E+02 0.  0.
         23    2    4    4    0    0 -0.21206901942E+03 -0.12100979200E+03 -0.13100300930E+04  0.13356917820E+04  0.90978311745E+02 0.  0.
          3    1    3    3  502    0  0.30624599413E+02  0.24221128334E+02 -0.95783086091E+02  0.10343562601E+03  0.00000000000E+00 0. -1.
         -4    1    3    3    0  502 -0.41267740712E+02  0.58264889703E+02 -0.30999811542E+03  0.31811421748E+03  0.00000000000E+00 0.  1.
         11    1    5    5    0    0  0.17291898072E+03  0.57827860382E+02  0.29372712174E+02  0.18468294873E+03  0.00000000000E+00 0. -1.
        -11    1    5    5    0    0  0.49793179996E+02 -0.19304086423E+02 -0.26064954618E+02  0.59425502825E+02  0.00000000000E+00 0.  1.
          2    1    6    6  503    0 -0.13853145974E+03 -0.26987833666E+02 -0.69500138014E+03  0.70918701828E+03  0.00000000000E+00 0.  1.
         -2    1    6    6    0  503 -0.73537559683E+02 -0.94021958330E+02 -0.61502871287E+03  0.62650476374E+03  0.00000000000E+00 0. -1.
<mgrwt>
<rscale>  0 0.10357286E+04</rscale>
<asrwt>0</asrwt>
<pdfrwt beam="1">  1        1 0.28568106E+00 0.10357286E+04</pdfrwt>
<pdfrwt beam="2">  1       -2 0.22218964E-01 0.10357286E+04</pdfrwt>
<totfact> 0.58203958E+01</totfact>
</mgrwt>
</event>
<event>
12    4  0.4486176E-008  0.1496859E+04  0.7818608E-02  0.8886544E-01
         -2   -1    0    0    0  501 -0.00000000000E+00  0.00000000000E+00  0.39706702474E+03  0.39706702474E+03  0.00000000000E+00 0.  1.
          1   -1    0    0  501    0  0.00000000000E+00 -0.00000000000E+00 -0.14107107634E+04  0.14107107634E+04  0.00000000000E+00 0. -1.
        -24    2    1    2    0    0  0.42961846853E+03 -0.20487871539E+03 -0.32057651638E+03  0.57871845349E+03  0.74822650546E+02 0.  0.
        254    2    1    2    0    0 -0.42961846853E+03  0.20487871539E+03 -0.69306722227E+03  0.12290593346E+04  0.89649169375E+03 0.  0.
         23    2    4    4    0    0 -0.69673869575E+03  0.21077383132E+03 -0.49674537094E+03  0.88604528086E+03  0.91923109525E+02 0.  0.
         23    2    4    4    0    0  0.26712022722E+03 -0.58951159291E+01 -0.19632185133E+03  0.34301405378E+03  0.87911339403E+02 0.  0.
          3    1    3    3  502    0  0.42796277096E+03 -0.19313143661E+03 -0.31622042329E+03  0.56608059607E+03  0.00000000000E+00 0. -1.
         -4    1    3    3    0  502  0.16556975654E+01 -0.11747278785E+02 -0.43560930907E+01  0.12637857425E+02  0.00000000000E+00 0.  1.
         11    1    5    5    0    0 -0.20240410886E+03  0.98634730571E+02 -0.18063689676E+03  0.28866229720E+03  0.00000000000E+00 0. -1.
        -11    1    5    5    0    0 -0.49433458690E+03  0.11213910075E+03 -0.31610847418E+03  0.59738298366E+03  0.00000000000E+00 0.  1.
          3    1    6    6  503    0  0.12231423703E+01 -0.71085309711E+01 -0.26609779907E+02  0.27570050354E+02  0.00000000000E+00 0. -1.
         -3    1    6    6    0  503  0.26589708485E+03  0.12134150420E+01 -0.16971207142E+03  0.31544400342E+03  0.00000000000E+00 0.  1.
<mgrwt>
<rscale>  0 0.14968590E+04</rscale>
<asrwt>0</asrwt>
<pdfrwt beam="1">  1        1 0.21703242E+00 0.14968590E+04</pdfrwt>
<pdfrwt beam="2">  1       -2 0.61087236E-01 0.14968590E+04</pdfrwt>
<totfact> 0.15980953E+01</totfact>
</mgrwt>
</event>
<event>
12    4  0.4486176E-008  0.1070792E+04  0.7818608E-02  0.9234137E-01
         -2   -1    0    0    0  501 -0.00000000000E+00  0.00000000000E+00  0.15453474265E+03  0.15453474265E+03  0.00000000000E+00 0.  1.
          1   -1    0    0  501    0  0.00000000000E+00 -0.00000000000E+00 -0.18549138128E+04  0.18549138128E+04  0.00000000000E+00 0. -1.
        -24    2    1    2    0    0 -0.16249243603E+03  0.32501792266E+02 -0.81457208572E+03  0.83522759742E+03  0.81346778599E+02 0.  0.
        254    2    1    2    0    0  0.16249243603E+03 -0.32501792266E+02 -0.88580698447E+03  0.11742209581E+04  0.75278196469E+03 0.  0.
         23    2    4    4    0    0 -0.28478356455E+03  0.58472667186E+02 -0.32667792685E+03  0.44664433991E+03  0.90840338170E+02 0.  0.
         23    2    4    4    0    0  0.44727600058E+03 -0.90974459452E+02 -0.55912905762E+03  0.72757661815E+03  0.91707465542E+02 0.  0.
          3    1    3    3  502    0 -0.12384713757E+03  0.30465917887E+02 -0.74296503980E+03  0.75383243231E+03  0.00000000000E+00 0. -1.
         -4    1    3    3    0  502 -0.38645298464E+02  0.20358743786E+01 -0.71607045920E+02  0.81395165109E+02  0.00000000000E+00 0.  1.
         11    1    5    5    0    0 -0.70537675562E+02  0.55501055193E+02 -0.10909723500E+03  0.14127327237E+03  0.00000000000E+00 0.  1.
        -11    1    5    5    0    0 -0.21424588899E+03  0.29716119928E+01 -0.21758069185E+03  0.30537106754E+03  0.00000000000E+00 0. -1.
          2    1    6    6  503    0  0.30657524419E+03 -0.76466627915E+02 -0.31973295358E+03  0.44951605882E+03  0.00000000000E+00 0.  1.
         -2    1    6    6    0  503  0.14070075640E+03 -0.14507831538E+02 -0.23939610403E+03  0.27806055933E+03  0.00000000000E+00 0. -1.
<mgrwt>
<rscale>  0 0.10707915E+04</rscale>
<asrwt>0</asrwt>
<pdfrwt beam="1">  1        1 0.28537136E+00 0.10707915E+04</pdfrwt>
<pdfrwt beam="2">  1       -2 0.23774576E-01 0.10707915E+04</pdfrwt>
<totfact> 0.51578011E+01</totfact>
</mgrwt>
</event>
<event>
12    4  0.4486176E-008  0.1624607E+04  0.7818608E-02  0.8805572E-01
         -2   -1    0    0    0  501 -0.00000000000E+00  0.00000000000E+00  0.22406453574E+03  0.22406453574E+03  0.00000000000E+00 0.  1.
          1   -1    0    0  501    0  0.00000000000E+00 -0.00000000000E+00 -0.29448511713E+04  0.29448511713E+04  0.00000000000E+00 0. -1.
        -24    2    1    2    0    0 -0.14413440913E+03 -0.12901913994E+03  0.73125009869E+02  0.22476121422E+03  0.88032209907E+02 0.  0.
        254    2    1    2    0    0  0.14413440913E+03  0.12901913994E+03 -0.27939116455E+04  0.29441544929E+04  0.90812043741E+03 0.  0.
         23    2    4    4    0    0  0.19278029839E+03 -0.19782147445E+03 -0.24160147385E+04  0.24337850654E+04  0.99423080616E+02 0.  0.
         23    2    4    4    0    0 -0.48645889257E+02  0.32684061439E+03 -0.37789690700E+03  0.51036942745E+03  0.92085125826E+02 0.  0.
          1    1    3    3  502    0 -0.32338062273E+02  0.50876608683E+01 -0.56479466037E+01  0.33219480211E+02  0.00000000000E+00 0. -1.
         -2    1    3    3    0  502 -0.11179634686E+03 -0.13410680081E+03  0.78772956473E+02  0.19154173401E+03  0.00000000000E+00 0.  1.
         11    1    5    5    0    0  0.18248457892E+03 -0.20667358544E+03 -0.21776576819E+04  0.21950415877E+04  0.00000000000E+00 0. -1.
        -11    1    5    5    0    0  0.10295719465E+02  0.88521109860E+01 -0.23835705660E+03  0.23874347769E+03  0.00000000000E+00 0.  1.
          4    1    6    6  503    0 -0.60216117465E+02  0.23057675324E+03 -0.31423855668E+03  0.39438241650E+03  0.00000000000E+00 0. -1.
         -4    1    6    6    0  503  0.11570228208E+02  0.96263861149E+02 -0.63658350318E+02  0.11598701095E+03  0.00000000000E+00 0.  1.
<mgrwt>
<rscale>  0 0.16246067E+04</rscale>
<asrwt>0</asrwt>
<pdfrwt beam="1">  1        1 0.45305403E+00 0.16246067E+04</pdfrwt>
<pdfrwt beam="2">  1       -2 0.34471467E-01 0.16246067E+04</pdfrwt>
<totfact> 0.43676390E+00</totfact>
</mgrwt>
</event>
<event>
12    4  0.4486176E-008  0.3123487E+04  0.7818608E-02  0.8209321E-01
          1   -1    0    0  501    0  0.00000000000E+00  0.00000000000E+00  0.36407922253E+04  0.36407922253E+04  0.00000000000E+00 0. -1.
         -2   -1    0    0    0  501 -0.00000000000E+00 -0.00000000000E+00 -0.66992104205E+03  0.66992104205E+03  0.00000000000E+00 0.  1.
        -24    2    1    2    0    0 -0.77520949652E+03  0.10525915424E+04  0.20550085255E+04  0.24368319000E+04  0.78682594464E+02 0.  0.
        254    2    1    2    0    0  0.77520949652E+03 -0.10525915424E+04  0.91586265778E+03  0.18738813673E+04  0.98169661925E+03 0.  0.
         23    2    4    4    0    0  0.33209562864E+03 -0.77494144478E+03  0.10263389723E+04  0.13313119521E+04  0.90543239934E+02 0.  0.
         23    2    4    4    0    0  0.44311386788E+03 -0.27765009762E+03 -0.11047631453E+03  0.54256941523E+03  0.93472336340E+02 0.  0.
          3    1    3    3  502    0 -0.74013722151E+03  0.97577858023E+03  0.19061374443E+04  0.22656802292E+04  0.00000000000E+00 0. -1.
         -4    1    3    3    0  502 -0.35072275001E+02  0.76812962170E+02  0.14887108117E+03  0.17115167086E+03  0.00000000000E+00 0.  1.
         11    1    5    5    0    0  0.44528425587E+02 -0.11984979548E+03  0.20981185127E+03  0.24569852888E+03  0.00000000000E+00 0. -1.
        -11    1    5    5    0    0  0.28756720305E+03 -0.65509164930E+03  0.81652712104E+03  0.10856134232E+04  0.00000000000E+00 0.  1.
          4    1    6    6  503    0  0.19839660388E+03 -0.81640042430E+02 -0.73880620324E+02  0.22690230280E+03  0.00000000000E+00 0. -1.
         -4    1    6    6    0  503  0.24471726400E+03 -0.19601005519E+03 -0.36595694202E+02  0.31566711243E+03  0.00000000000E+00 0.  1.
<mgrwt>
<rscale>  0 0.31234874E+04</rscale>
<asrwt>0</asrwt>
<pdfrwt beam="1">  1        1 0.56012187E+00 0.31234874E+04</pdfrwt>
<pdfrwt beam="2">  1       -2 0.10306478E+00 0.31234874E+04</pdfrwt>
<totfact> 0.10976358E-01</totfact>
</mgrwt>
</event>
<event>
12    4  0.4486176E-008  0.1519884E+04  0.7818608E-02  0.8871337E-01
          1   -1    0    0  501    0  0.00000000000E+00  0.00000000000E+00  0.43389993338E+03  0.43389993338E+03  0.00000000000E+00 0. -1.
         -2   -1    0    0    0  501 -0.00000000000E+00 -0.00000000000E+00 -0.13309791720E+04  0.13309791720E+04  0.00000000000E+00 0.  1.
        -24    2    1    2    0    0 -0.97073421655E+02  0.15250825443E+03  0.23656148166E+03  0.30792799813E+03  0.78589443073E+02 0.  0.
        254    2    1    2    0    0  0.97073421655E+02 -0.15250825443E+03 -0.11336407202E+04  0.14569511072E+04  0.89715284616E+03 0.  0.
         23    2    4    4    0    0  0.31579786627E+03  0.17441942157E+03 -0.16447243792E+03  0.40698367984E+03  0.91837388137E+02 0.  0.
         23    2    4    4    0    0 -0.21872444461E+03 -0.32692767600E+03 -0.96916828232E+03  0.10499674274E+04  0.91773368095E+02 0.  0.
          3    1    3    3  502    0 -0.73357381357E+02  0.13431957682E+03  0.14207124805E+03  0.20882359455E+03  0.00000000000E+00 0. -1.
         -4    1    3    3    0  502 -0.23716040297E+02  0.18188677609E+02  0.94490233614E+02  0.99104403580E+02  0.00000000000E+00 0.  1.
         11    1    5    5    0    0  0.74852185098E+02  0.42631659098E+02  0.13885708585E+01  0.86152400433E+02  0.00000000000E+00 0. -1.
        -11    1    5    5    0    0  0.24094568117E+03  0.13178776248E+03 -0.16586100878E+03  0.32083127941E+03  0.00000000000E+00 0.  1.
          2    1    6    6  503    0 -0.84427221721E+02 -0.14819490082E+03 -0.53642044154E+03  0.56288238070E+03  0.00000000000E+00 0. -1.
         -2    1    6    6    0  503 -0.13429722289E+03 -0.17873277518E+03 -0.43274784078E+03  0.48708504668E+03  0.00000000000E+00 0.  1.
<mgrwt>
<rscale>  0 0.15198839E+04</rscale>
<asrwt>0</asrwt>
<pdfrwt beam="1">  1        1 0.66753837E-01 0.15198839E+04</pdfrwt>
<pdfrwt beam="2">  1       -2 0.20476602E+00 0.15198839E+04</pdfrwt>
<totfact> 0.56177339E+00</totfact>
</mgrwt>
</event>
<event>
12    4  0.4486176E-008  0.1176440E+04  0.7818608E-02  0.9133732E-01
         -2   -1    0    0    0  501 -0.00000000000E+00  0.00000000000E+00  0.24071335936E+03  0.24071335936E+03  0.00000000000E+00 0.  1.
          1   -1    0    0  501    0  0.00000000000E+00 -0.00000000000E+00 -0.14374064224E+04  0.14374064224E+04  0.00000000000E+00 0. -1.
        -24    2    1    2    0    0  0.17542652054E+03  0.30191806174E+02 -0.43416263689E+02  0.19986905684E+03  0.79853983362E+02 0.  0.
        254    2    1    2    0    0 -0.17542652054E+03 -0.30191806174E+02 -0.11532767993E+04  0.14782507249E+04  0.90746450096E+03 0.  0.
         23    2    4    4    0    0 -0.11351985026E+03 -0.45902348367E+03 -0.59138654412E+03  0.76280776618E+03  0.92457171783E+02 0.  0.
         23    2    4    4    0    0 -0.61906670286E+02  0.42883167749E+03 -0.56189025519E+03  0.71544295870E+03  0.91700189909E+02 0.  0.
          3    1    3    3  502    0 -0.75823790448E+01 -0.16897973414E+01 -0.72299060609E+01  0.10612230147E+02  0.00000000000E+00 0. -1.
         -4    1    3    3    0  502  0.18300889959E+03  0.31881603516E+02 -0.36186357628E+02  0.18925682669E+03  0.00000000000E+00 0.  1.
         11    1    5    5    0    0 -0.93090635605E+02 -0.34087040195E+03 -0.49898826616E+03  0.61143093406E+03  0.00000000000E+00 0.  1.
        -11    1    5    5    0    0 -0.20429214651E+02 -0.11815308172E+03 -0.92398277954E+02  0.15137683211E+03  0.00000000000E+00 0. -1.
          3    1    6    6  503    0  0.24234179977E+02  0.87024910790E+02 -0.11057835990E+03  0.14278726924E+03  0.00000000000E+00 0. -1.
         -3    1    6    6    0  503 -0.86140850263E+02  0.34180676670E+03 -0.45131189529E+03  0.57265568946E+03  0.00000000000E+00 0.  1.
<mgrwt>
<rscale>  0 0.11764403E+04</rscale>
<asrwt>0</asrwt>
<pdfrwt beam="1">  1        1 0.22113945E+00 0.11764403E+04</pdfrwt>
<pdfrwt beam="2">  1       -2 0.37032824E-01 0.11764403E+04</pdfrwt>
<totfact> 0.43222144E+01</totfact>
</mgrwt>
</event>
<event>
12    4  0.4486176E-008  0.1811093E+04  0.7818608E-02  0.8700423E-01
         -2   -1    0    0    0  501 -0.00000000000E+00  0.00000000000E+00  0.40448651677E+03  0.40448651677E+03  0.00000000000E+00 0.  1.
          1   -1    0    0  501    0  0.00000000000E+00 -0.00000000000E+00 -0.20272973709E+04  0.20272973709E+04  0.00000000000E+00 0. -1.
        -24    2    1    2    0    0  0.46839294027E+03  0.27308953597E+03 -0.63393897881E+02  0.55226358711E+03  0.83704493293E+02 0.  0.
        254    2    1    2    0    0 -0.46839294027E+03 -0.27308953597E+03 -0.15594169563E+04  0.18795203006E+04  0.89824577689E+03 0.  0.
         23    2    4    4    0    0 -0.20904879186E+03  0.12602594473E+03 -0.18550813045E+02  0.26427917265E+03  0.99576163360E+02 0.  0.
         23    2    4    4    0    0 -0.25934414842E+03 -0.39911548070E+03 -0.15408661432E+04  0.16152411280E+04  0.90459249417E+02 0.  0.
          3    1    3    3  502    0  0.62028779807E+02  0.11547746218E+02  0.85886722875E+01  0.63676410535E+02  0.00000000000E+00 0. -1.
         -2    1    3    3    0  502  0.40636416047E+03  0.26154178975E+03 -0.71982570169E+02  0.48858717657E+03  0.00000000000E+00 0.  1.
         11    1    5    5    0    0 -0.19261953805E+03  0.84020870573E+02 -0.40665750558E+02  0.21404554749E+03  0.00000000000E+00 0.  1.
        -11    1    5    5    0    0 -0.16429253805E+02  0.42005074158E+02  0.22114937513E+02  0.50233625161E+02  0.00000000000E+00 0. -1.
          2    1    6    6  503    0 -0.17853214363E+03 -0.20974612343E+03 -0.97149200240E+03  0.10097840726E+04  0.00000000000E+00 0. -1.
         -2    1    6    6    0  503 -0.80812004783E+02 -0.18936935727E+03 -0.56937414085E+03  0.60545705534E+03  0.00000000000E+00 0.  1.
<mgrwt>
<rscale>  0 0.18110930E+04</rscale>
<asrwt>0</asrwt>
<pdfrwt beam="1">  1        1 0.31189191E+00 0.18110930E+04</pdfrwt>
<pdfrwt beam="2">  1       -2 0.62228694E-01 0.18110930E+04</pdfrwt>
<totfact> 0.56661882E+00</totfact>
</mgrwt>
</event>
<event>
12    4  0.4486176E-008  0.2172803E+04  0.7818608E-02  0.8529834E-01
          1   -1    0    0  501    0  0.00000000000E+00  0.00000000000E+00  0.61608789751E+03  0.61608789751E+03  0.00000000000E+00 0. -1.
         -2   -1    0    0    0  501 -0.00000000000E+00 -0.00000000000E+00 -0.19157456032E+04  0.19157456032E+04  0.00000000000E+00 0.  1.
        -24    2    1    2    0    0 -0.15617253887E+03 -0.72863920897E+03  0.42764560338E+02  0.75045779698E+03  0.77801919494E+02 0.  0.
        254    2    1    2    0    0  0.15617253887E+03  0.72863920897E+03 -0.13424222660E+04  0.17813757037E+04  0.90327011394E+03 0.  0.
         23    2    4    4    0    0  0.51183730182E+03  0.50197178026E+03 -0.97371214714E+03  0.12127259612E+04  0.92929112048E+02 0.  0.
         23    2    4    4    0    0 -0.35566476294E+03  0.22666742870E+03 -0.36871011884E+03  0.56864974245E+03  0.97672058512E+02 0.  0.
          1    1    3    3  502    0 -0.40793493461E+02 -0.19181167765E+03 -0.23004652049E+02  0.19744630360E+03  0.00000000000E+00 0. -1.
         -2    1    3    3    0  502 -0.11537904541E+03 -0.53682753132E+03  0.65769212387E+02  0.55301149337E+03  0.00000000000E+00 0.  1.
         11    1    5    5    0    0  0.41805387880E+03  0.38292992093E+03 -0.81975306888E+03  0.99669426799E+03  0.00000000000E+00 0. -1.
        -11    1    5    5    0    0  0.93783423020E+02  0.11904185933E+03 -0.15395907826E+03  0.21603169324E+03  0.00000000000E+00 0.  1.
          2    1    6    6  503    0 -0.28956418229E+03  0.16519108960E+03 -0.33409917652E+03  0.47197221476E+03  0.00000000000E+00 0. -1.
         -2    1    6    6    0  503 -0.66100580647E+02  0.61476339108E+02 -0.34610942323E+02  0.96677527691E+02  0.00000000000E+00 0.  1.
<mgrwt>
<rscale>  0 0.21728025E+04</rscale>
<asrwt>0</asrwt>
<pdfrwt beam="1">  1        1 0.94782755E-01 0.21728025E+04</pdfrwt>
<pdfrwt beam="2">  1       -2 0.29473009E+00 0.21728025E+04</pdfrwt>
<totfact> 0.90362681E-01</totfact>
</mgrwt>
</event>
<event>
12    4  0.4486176E-008  0.2075905E+04  0.7818608E-02  0.8571932E-01
          1   -1    0    0  501    0  0.00000000000E+00  0.00000000000E+00  0.24766306181E+04  0.24766306181E+04  0.00000000000E+00 0. -1.
         -2   -1    0    0    0  501 -0.00000000000E+00 -0.00000000000E+00 -0.43500456079E+03  0.43500456079E+03  0.00000000000E+00 0.  1.
        -24    2    1    2    0    0 -0.61920262173E+03  0.13361933380E+03  0.16043211161E+04  0.17267658392E+04  0.81289647168E+02 0.  0.
        254    2    1    2    0    0  0.61920262173E+03 -0.13361933380E+03  0.43730494121E+03  0.11848693397E+04  0.90078506172E+03 0.  0.
         23    2    4    4    0    0  0.39483115286E+03  0.20938648899E+03 -0.13434791925E+03  0.47566163837E+03  0.92034177206E+02 0.  0.
         23    2    4    4    0    0  0.22437146887E+03 -0.34300582279E+03  0.57165286046E+03  0.70920770132E+03  0.90515303828E+02 0.  0.
          1    1    3    3  502    0 -0.60865525433E+03  0.13802062534E+03  0.15439156070E+04  0.16652886577E+04  0.00000000000E+00 0. -1.
         -2    1    3    3    0  502 -0.10547367397E+02 -0.44012915387E+01  0.60405509028E+02  0.61477181516E+02  0.00000000000E+00 0.  1.
         11    1    5    5    0    0  0.37541347899E+03  0.20335970367E+03 -0.10451763653E+03  0.43956158343E+03  0.00000000000E+00 0. -1.
        -11    1    5    5    0    0  0.19417673869E+02  0.60267853185E+01 -0.29830282715E+02  0.36100054939E+02  0.00000000000E+00 0.  1.
          1    1    6    6  503    0  0.67081901800E+02 -0.17825418884E+03  0.23056466538E+03  0.29905618588E+03  0.00000000000E+00 0. -1.
         -1    1    6    6    0  503  0.15728956707E+03 -0.16475163395E+03  0.34108819508E+03  0.41015151544E+03  0.00000000000E+00 0.  1.
<mgrwt>
<rscale>  0 0.20759052E+04</rscale>
<asrwt>0</asrwt>
<pdfrwt beam="1">  1        1 0.38102009E+00 0.20759052E+04</pdfrwt>
<pdfrwt beam="2">  1       -2 0.66923780E-01 0.20759052E+04</pdfrwt>
<totfact> 0.23347223E+00</totfact>
</mgrwt>
</event>
<event>
12    4  0.4486176E-008  0.1683419E+04  0.7818608E-02  0.8770878E-01
          1   -1    0    0  501    0  0.00000000000E+00  0.00000000000E+00  0.74861749979E+03  0.74861749979E+03  0.00000000000E+00 0. -1.
         -2   -1    0    0    0  501 -0.00000000000E+00 -0.00000000000E+00 -0.94637798205E+03  0.94637798205E+03  0.00000000000E+00 0.  1.
        -24    2    1    2    0    0  0.21288465957E+03 -0.38695360120E+03 -0.49058409928E+03  0.66402556903E+03  0.72140349999E+02 0.  0.
        254    2    1    2    0    0 -0.21288465957E+03  0.38695360120E+03  0.29282361702E+03  0.10309699128E+04  0.88436436082E+03 0.  0.
         23    2    4    4    0    0 -0.23939193246E+03 -0.19499050478E+03  0.30291387239E+03  0.44163256004E+03  0.89177966562E+02 0.  0.
         23    2    4    4    0    0  0.26507272886E+02  0.58194410598E+03 -0.10090255374E+02  0.58933735278E+03  0.88629138125E+02 0.  0.
          3    1    3    3  502    0  0.38849440034E+02 -0.82144988673E+02 -0.61751707044E+02  0.10986515133E+03  0.00000000000E+00 0. -1.
         -4    1    3    3    0  502  0.17403521954E+03 -0.30480861253E+03 -0.42883239223E+03  0.55416041770E+03  0.00000000000E+00 0.  1.
         11    1    5    5    0    0 -0.18111196434E+03 -0.19058308168E+03  0.24952155244E+03  0.36246994329E+03  0.00000000000E+00 0.  1.
        -11    1    5    5    0    0 -0.58279968112E+02 -0.44074230939E+01  0.53392319946E+02  0.79162616750E+02  0.00000000000E+00 0. -1.
          4    1    6    6  503    0  0.29975915937E+01  0.28308581545E+03 -0.48089596565E+02  0.28715705418E+03  0.00000000000E+00 0. -1.
         -4    1    6    6    0  503  0.23509681292E+02  0.29885829053E+03  0.37999341192E+02  0.30218029860E+03  0.00000000000E+00 0.  1.
<mgrwt>
<rscale>  0 0.16834193E+04</rscale>
<asrwt>0</asrwt>
<pdfrwt beam="1">  1        1 0.11517192E+00 0.16834193E+04</pdfrwt>
<pdfrwt beam="2">  1       -2 0.14559661E+00 0.16834193E+04</pdfrwt>
<totfact> 0.66425120E+00</totfact>
</mgrwt>
</event>
<event>
12    4  0.4486176E-008  0.1346435E+04  0.7818608E-02  0.8993531E-01
         -2   -1    0    0    0  501 -0.00000000000E+00  0.00000000000E+00  0.69834487651E+03  0.69834487651E+03  0.00000000000E+00 0.  1.
          1   -1    0    0  501    0  0.00000000000E+00 -0.00000000000E+00 -0.64899410306E+03  0.64899410306E+03  0.00000000000E+00 0. -1.
        -24    2    1    2    0    0  0.20503407751E+03 -0.24711486835E+03 -0.17052804956E+03  0.37215120167E+03  0.79447908184E+02 0.  0.
        254    2    1    2    0    0 -0.20503407751E+03  0.24711486835E+03  0.21987882301E+03  0.97518777790E+03  0.89416987997E+03 0.  0.
         23    2    4    4    0    0  0.42183082424E+02 -0.83816387477E+02 -0.28683329743E+03  0.31503422903E+03  0.90380449706E+02 0.  0.
         23    2    4    4    0    0 -0.24721715994E+03  0.33093125583E+03  0.50671212045E+03  0.66015354887E+03  0.91726303920E+02 0.  0.
          1    1    3    3  502    0  0.92550023450E+02 -0.17262274138E+03 -0.10130303421E+03  0.22051399598E+03  0.00000000000E+00 0. -1.
         -2    1    3    3    0  502  0.11248405406E+03 -0.74492126970E+02 -0.69225015350E+02  0.15163720569E+03  0.00000000000E+00 0.  1.
         11    1    5    5    0    0  0.59352068835E+02 -0.90747663391E+02 -0.26548486618E+03  0.28677520927E+03  0.00000000000E+00 0.  1.
        -11    1    5    5    0    0 -0.17168986411E+02  0.69312759140E+01 -0.21348431258E+02  0.28259019752E+02  0.00000000000E+00 0. -1.
          2    1    6    6  503    0 -0.16203201260E+03  0.27313694521E+03  0.41265976918E+03  0.52071705277E+03  0.00000000000E+00 0.  1.
         -2    1    6    6    0  503 -0.85185147336E+02  0.57794310619E+02  0.94052351262E+02  0.13943649610E+03  0.00000000000E+00 0. -1.
<mgrwt>
<rscale>  0 0.13464349E+04</rscale>
<asrwt>0</asrwt>
<pdfrwt beam="1">  1        1 0.99845246E-01 0.13464349E+04</pdfrwt>
<pdfrwt beam="2">  1       -2 0.10743767E+00 0.13464349E+04</pdfrwt>
<totfact> 0.18197939E+01</totfact>
</mgrwt>
</event>
<event>
12    4  0.4486176E-008  0.2429775E+04  0.7818608E-02  0.8428440E-01
          1   -1    0    0  501    0  0.00000000000E+00  0.00000000000E+00  0.40467440685E+04  0.40467440685E+04  0.00000000000E+00 0. -1.
         -2   -1    0    0    0  501 -0.00000000000E+00 -0.00000000000E+00 -0.36472580248E+03  0.36472580248E+03  0.00000000000E+00 0.  1.
        -24    2    1    2    0    0 -0.10160864859E+04  0.21949652082E+03  0.13795595368E+04  0.17291957770E+04  0.79517608039E+02 0.  0.
        254    2    1    2    0    0  0.10160864859E+04 -0.21949652082E+03  0.23024587292E+04  0.26822740940E+04  0.90148080732E+03 0.  0.
         23    2    4    4    0    0  0.11175381415E+04 -0.33196231133E+03  0.21552399339E+04  0.24519991945E+04  0.90279584702E+02 0.  0.
         23    2    4    4    0    0 -0.10145165559E+03  0.11246579051E+03  0.14721879536E+03  0.23027489949E+03  0.91717845426E+02 0.  0.
          1    1    3    3  502    0 -0.87042057874E+03  0.18542072384E+03  0.12244324588E+04  0.15136867823E+04  0.00000000000E+00 0. -1.
         -2    1    3    3    0  502 -0.14566590721E+03  0.34075796979E+02  0.15512707795E+03  0.21550899465E+03  0.00000000000E+00 0.  1.
         11    1    5    5    0    0  0.39752747463E+03 -0.74973293481E+02  0.77036278653E+03  0.87011948069E+03  0.00000000000E+00 0.  1.
        -11    1    5    5    0    0  0.72001066691E+03 -0.25698901785E+03  0.13848771474E+04  0.15818797138E+04  0.00000000000E+00 0. -1.
          1    1    6    6  503    0 -0.10084442365E+03  0.77496644311E+02  0.14819458374E+03  0.19528687183E+03  0.00000000000E+00 0. -1.
         -1    1    6    6    0  503 -0.60723194514E+00  0.34969146200E+02 -0.97578837481E+00  0.34988027660E+02  0.00000000000E+00 0.  1.
<mgrwt>
<rscale>  0 0.24297753E+04</rscale>
<asrwt>0</asrwt>
<pdfrwt beam="1">  1        1 0.62257598E+00 0.24297753E+04</pdfrwt>
<pdfrwt beam="2">  1       -2 0.56111665E-01 0.24297753E+04</pdfrwt>
<totfact> 0.20508946E-01</totfact>
</mgrwt>
</event>
<event>
12    4  0.4486176E-008  0.1721343E+04  0.7818608E-02  0.8749284E-01
         -2   -1    0    0    0  501 -0.00000000000E+00  0.00000000000E+00  0.14384783688E+04  0.14384783688E+04  0.00000000000E+00 0.  1.
          1   -1    0    0  501    0  0.00000000000E+00 -0.00000000000E+00 -0.51495761963E+03  0.51495761963E+03  0.00000000000E+00 0. -1.
        -24    2    1    2    0    0  0.13306926642E+03 -0.57286084759E+03  0.11864485862E+03  0.60536277769E+03  0.80687729985E+02 0.  0.
        254    2    1    2    0    0 -0.13306926642E+03  0.57286084759E+03  0.80487589055E+03  0.13480732108E+04  0.90752366471E+03 0.  0.
         23    2    4    4    0    0 -0.42255413850E+03  0.14976645867E+03  0.66996452835E+03  0.81121884806E+03  0.90783027586E+02 0.  0.
         23    2    4    4    0    0  0.28948487208E+03  0.42309438891E+03  0.13491136220E+03  0.53685436269E+03  0.84859754867E+02 0.  0.
          3    1    3    3  502    0  0.11023778951E+03 -0.43390046415E+03  0.55787675201E+02  0.45114770057E+03  0.00000000000E+00 0. -1.
         -4    1    3    3    0  502  0.22831476907E+02 -0.13896038344E+03  0.62857183423E+02  0.15421507712E+03  0.00000000000E+00 0.  1.
         11    1    5    5    0    0 -0.39142956122E+03  0.15090643977E+03  0.57851715448E+03  0.71461314918E+03  0.00000000000E+00 0. -1.
        -11    1    5    5    0    0 -0.31124577284E+02 -0.11399811003E+01  0.91447373873E+02  0.96605698881E+02  0.00000000000E+00 0.  1.
          1    1    6    6  503    0  0.11004176934E+03  0.99620566083E+02  0.55790780773E+02  0.15857509074E+03  0.00000000000E+00 0. -1.
         -1    1    6    6    0  503  0.17944310274E+03  0.32347382283E+03  0.79120581428E+02  0.37827927195E+03  0.00000000000E+00 0.  1.
<mgrwt>
<rscale>  0 0.17213430E+04</rscale>
<asrwt>0</asrwt>
<pdfrwt beam="1">  1        1 0.79224250E-01 0.17213430E+04</pdfrwt>
<pdfrwt beam="2">  1       -2 0.22130436E+00 0.17213430E+04</pdfrwt>
<totfact> 0.34269702E+00</totfact>
</mgrwt>
</event>
<event>
12    4  0.4486176E-008  0.2541081E+04  0.7818608E-02  0.8388494E-01
         -4   -1    0    0    0  501 -0.00000000000E+00  0.00000000000E+00  0.10281503811E+04  0.10281503811E+04  0.00000000000E+00 0.  1.
          3   -1    0    0  501    0  0.00000000000E+00 -0.00000000000E+00 -0.15700755631E+04  0.15700755631E+04  0.00000000000E+00 0. -1.
        -24    2    1    2    0    0 -0.10058784482E+04  0.73873025866E+02 -0.73088325646E+03  0.12481643813E+04  0.80469322021E+02 0.  0.
        254    2    1    2    0    0  0.10058784482E+04 -0.73873025866E+02  0.18895807450E+03  0.13500615628E+04  0.87733254411E+03 0.  0.
         23    2    4    4    0    0  0.73408689735E+03 -0.21898509357E+03 -0.24649017582E+03  0.80867350284E+03  0.79733201099E+02 0.  0.
         23    2    4    4    0    0  0.27179155085E+03  0.14511206770E+03  0.43544825032E+03  0.54138805997E+03  0.92507802153E+02 0.  0.
          3    1    3    3  502    0 -0.79265462748E+03  0.84526113819E+02 -0.60034905438E+03  0.99793036304E+03  0.00000000000E+00 0. -1.
         -2    1    3    3    0  502 -0.21322382072E+03 -0.10653087953E+02 -0.13053420208E+03  0.25023401830E+03  0.00000000000E+00 0.  1.
         11    1    5    5    0    0  0.64248375711E+03 -0.18507795310E+03 -0.18684907224E+03  0.69422748625E+03  0.00000000000E+00 0. -1.
        -11    1    5    5    0    0  0.91603140237E+02 -0.33907140472E+02 -0.59641103580E+02  0.11444601659E+03  0.00000000000E+00 0.  1.
          1    1    6    6  503    0  0.26340231391E+03  0.12767280186E+03  0.43184957971E+03  0.52170411423E+03  0.00000000000E+00 0. -1.
         -1    1    6    6    0  503  0.83892369420E+01  0.17439265846E+02  0.35986706128E+01  0.19683945740E+02  0.00000000000E+00 0.  1.
<mgrwt>
<rscale>  0 0.25410815E+04</rscale>
<asrwt>0</asrwt>
<pdfrwt beam="1">  1        3 0.24155008E+00 0.25410815E+04</pdfrwt>
<pdfrwt beam="2">  1       -4 0.15817698E+00 0.25410815E+04</pdfrwt>
<totfact> 0.43303194E-02</totfact>
</mgrwt>
</event>
<event>
12    4  0.4486176E-008  0.1774738E+04  0.7818608E-02  0.8719850E-01
         -2   -1    0    0    0  501 -0.00000000000E+00  0.00000000000E+00  0.13799795769E+04  0.13799795769E+04  0.00000000000E+00 0.  1.
          1   -1    0    0  501    0  0.00000000000E+00 -0.00000000000E+00 -0.57060528506E+03  0.57060528506E+03  0.00000000000E+00 0. -1.
        -24    2    1    2    0    0 -0.39008945770E+03  0.21202318001E+03  0.82333178775E+03  0.93864122998E+03  0.77772180288E+02 0.  0.
        254    2    1    2    0    0  0.39008945770E+03 -0.21202318001E+03 -0.13957495877E+02  0.10119436320E+04  0.90923676169E+03 0.  0.
         23    2    4    4    0    0  0.24583525938E+03  0.23725340251E+03  0.27872979781E+03  0.44962022800E+03  0.87999417543E+02 0.  0.
         23    2    4    4    0    0  0.14425419833E+03 -0.44927658252E+03 -0.29268729368E+03  0.56232340402E+03  0.88786471285E+02 0.  0.
          3    1    3    3  502    0 -0.65732756210E+02  0.70514080677E+02  0.19423176999E+03  0.21683867572E+03  0.00000000000E+00 0. -1.
         -4    1    3    3    0  502 -0.32435670149E+03  0.14150909934E+03  0.62910001776E+03  0.72180255426E+03  0.00000000000E+00 0.  1.
         11    1    5    5    0    0  0.12797759790E+03  0.63551768643E+02  0.11242959648E+03  0.18181723523E+03  0.00000000000E+00 0.  1.
        -11    1    5    5    0    0  0.11785766148E+03  0.17370163386E+03  0.16630020133E+03  0.26780299277E+03  0.00000000000E+00 0. -1.
          3    1    6    6  503    0  0.57378424381E+02 -0.31130707504E+03 -0.20587091973E+03  0.37760722205E+03  0.00000000000E+00 0. -1.
         -3    1    6    6    0  503  0.86875773946E+02 -0.13796950748E+03 -0.86816373953E+02  0.18471618197E+03  0.00000000000E+00 0.  1.
<mgrwt>
<rscale>  0 0.17747379E+04</rscale>
<asrwt>0</asrwt>
<pdfrwt beam="1">  1        1 0.87785429E-01 0.17747379E+04</pdfrwt>
<pdfrwt beam="2">  1       -2 0.21230455E+00 0.17747379E+04</pdfrwt>
<totfact> 0.33696271E+00</totfact>
</mgrwt>
</event>
<event>
12    4  0.4486176E-008  0.1255929E+04  0.7818608E-02  0.9065263E-01
         -2   -1    0    0    0  501 -0.00000000000E+00  0.00000000000E+00  0.60218125504E+03  0.60218125504E+03  0.00000000000E+00 0.  1.
          1   -1    0    0  501    0  0.00000000000E+00 -0.00000000000E+00 -0.65485120262E+03  0.65485120262E+03  0.00000000000E+00 0. -1.
        -24    2    1    2    0    0  0.29440187728E+03  0.18393550526E+02 -0.50790388576E+02  0.30926820768E+03  0.77822700183E+02 0.  0.
        254    2    1    2    0    0 -0.29440187728E+03 -0.18393550526E+02 -0.18795590013E+01  0.94776424998E+03  0.90069015358E+03 0.  0.
         23    2    4    4    0    0 -0.45884352609E+03 -0.32777679129E+03  0.77930070001E+02  0.57652853867E+03  0.91307468156E+02 0.  0.
         23    2    4    4    0    0  0.16444164881E+03  0.30938324077E+03 -0.79809629002E+02  0.37123571131E+03  0.93205852481E+02 0.  0.
          1    1    3    3  502    0  0.11256828982E+03  0.99367690827E+01  0.18472761961E+02  0.11450590459E+03  0.00000000000E+00 0. -1.
         -2    1    3    3    0  502  0.18183358746E+03  0.84567814429E+01 -0.69263150537E+02  0.19476230309E+03  0.00000000000E+00 0.  1.
         11    1    5    5    0    0 -0.43354188206E+03 -0.27926867223E+03  0.61224058873E+02  0.51932450373E+03  0.00000000000E+00 0. -1.
        -11    1    5    5    0    0 -0.25301644038E+02 -0.48508119060E+02  0.16706011128E+02  0.57204034942E+02  0.00000000000E+00 0.  1.
          2    1    6    6  503    0  0.16480820158E+03  0.31497000604E+03 -0.73876380218E+02  0.36307790840E+03  0.00000000000E+00 0. -1.
         -2    1    6    6    0  503 -0.36655276604E+00 -0.55867652742E+01 -0.59332487839E+01  0.81578029083E+01  0.00000000000E+00 0.  1.
<mgrwt>
<rscale>  0 0.12559285E+04</rscale>
<asrwt>0</asrwt>
<pdfrwt beam="1">  1        1 0.10074634E+00 0.12559285E+04</pdfrwt>
<pdfrwt beam="2">  1       -2 0.92643270E-01 0.12559285E+04</pdfrwt>
<totfact> 0.25692954E+01</totfact>
</mgrwt>
</event>
<event>
12    4  0.4486176E-008  0.1325762E+04  0.7818608E-02  0.9009381E-01
         -2   -1    0    0    0  501 -0.00000000000E+00  0.00000000000E+00  0.18635535229E+03  0.18635535229E+03  0.00000000000E+00 0.  1.
          1   -1    0    0  501    0  0.00000000000E+00 -0.00000000000E+00 -0.23579218890E+04  0.23579218890E+04  0.00000000000E+00 0. -1.
        -24    2    1    2    0    0  0.19209889494E+03  0.22838145063E+03 -0.92743920823E+03  0.97720067746E+03  0.75614857287E+02 0.  0.
        254    2    1    2    0    0 -0.19209889494E+03 -0.22838145063E+03 -0.12441273285E+04  0.15670765638E+04  0.90488456447E+03 0.  0.
         23    2    4    4    0    0 -0.45601958041E+02 -0.56006614648E+03 -0.85454696933E+03  0.10270772982E+04  0.94252992452E+02 0.  0.
         23    2    4    4    0    0 -0.14649693690E+03  0.33168469585E+03 -0.38958035914E+03  0.53999926567E+03  0.91379760985E+02 0.  0.
          1    1    3    3  502    0  0.14538102952E+03  0.20619886055E+03 -0.82048147620E+03  0.85839586824E+03  0.00000000000E+00 0. -1.
         -2    1    3    3    0  502  0.46717865414E+02  0.22182590074E+02 -0.10695773203E+03  0.11880480921E+03  0.00000000000E+00 0.  1.
         11    1    5    5    0    0 -0.10764836406E+02 -0.41622394769E+03 -0.56435721934E+03  0.70132540761E+03  0.00000000000E+00 0. -1.
        -11    1    5    5    0    0 -0.34837121635E+02 -0.14384219878E+03 -0.29018974999E+03  0.32575189055E+03  0.00000000000E+00 0.  1.
          4    1    6    6  503    0 -0.10401588322E+03  0.30825219642E+03 -0.33497552554E+03  0.46695537610E+03  0.00000000000E+00 0. -1.
         -4    1    6    6    0  503 -0.42481053675E+02  0.23432499428E+02 -0.54604833608E+02  0.73043889575E+02  0.00000000000E+00 0.  1.
<mgrwt>
<rscale>  0 0.13257622E+04</rscale>
<asrwt>0</asrwt>
<pdfrwt beam="1">  1        1 0.36275718E+00 0.13257622E+04</pdfrwt>
<pdfrwt beam="2">  1       -2 0.28670056E-01 0.13257622E+04</pdfrwt>
<totfact> 0.16367525E+01</totfact>
</mgrwt>
</event>
<event>
12    4  0.4486176E-008  0.1861197E+04  0.7818608E-02  0.8674416E-01
          1   -1    0    0  501    0  0.00000000000E+00  0.00000000000E+00  0.16218532604E+04  0.16218532604E+04  0.00000000000E+00 0. -1.
         -2   -1    0    0    0  501 -0.00000000000E+00 -0.00000000000E+00 -0.53396536605E+03  0.53396536605E+03  0.00000000000E+00 0.  1.
        -24    2    1    2    0    0  0.52628854658E+03 -0.43069541578E+03  0.65408321158E+03  0.94713183684E+03  0.82193024340E+02 0.  0.
        254    2    1    2    0    0 -0.52628854658E+03  0.43069541578E+03  0.43380468273E+03  0.12086867896E+04  0.90014392020E+03 0.  0.
         23    2    4    4    0    0  0.15600827569E+02  0.54866099234E+03  0.29788769030E+03  0.63108361725E+03  0.90869057400E+02 0.  0.
         23    2    4    4    0    0 -0.54188937415E+03 -0.11796557656E+03  0.13591699242E+03  0.57760317232E+03  0.87132225788E+02 0.  0.
          1    1    3    3  502    0  0.50306256194E+03 -0.38429574641E+03  0.60796174080E+03  0.87770874452E+03  0.00000000000E+00 0. -1.
         -2    1    3    3    0  502  0.23225984644E+02 -0.46399669371E+02  0.46121470780E+02  0.69423092320E+02  0.00000000000E+00 0.  1.
         11    1    5    5    0    0  0.34387867159E+02  0.77483836120E+02  0.43036199571E+02  0.95070419906E+02  0.00000000000E+00 0. -1.
        -11    1    5    5    0    0 -0.18787039590E+02  0.47117715622E+03  0.25485149073E+03  0.53601319734E+03  0.00000000000E+00 0.  1.
          3    1    6    6  503    0 -0.36314531036E+02 -0.29843587874E+00  0.31596827933E+02  0.48137238846E+02  0.00000000000E+00 0. -1.
         -3    1    6    6    0  503 -0.50557484311E+03 -0.11766714068E+03  0.10432016449E+03  0.52946593347E+03  0.00000000000E+00 0.  1.
<mgrwt>
<rscale>  0 0.18611969E+04</rscale>
<asrwt>0</asrwt>
<pdfrwt beam="1">  1        1 0.24951588E+00 0.18611969E+04</pdfrwt>
<pdfrwt beam="2">  1       -2 0.82148518E-01 0.18611969E+04</pdfrwt>
<totfact> 0.57829158E+00</totfact>
</mgrwt>
</event>
<event>
12    4  0.4486176E-008  0.2498130E+04  0.7818608E-02  0.8403652E-01
         -2   -1    0    0    0  501 -0.00000000000E+00  0.00000000000E+00  0.80989443107E+03  0.80989443107E+03  0.00000000000E+00 0.  1.
          1   -1    0    0  501    0  0.00000000000E+00 -0.00000000000E+00 -0.19263780127E+04  0.19263780127E+04  0.00000000000E+00 0. -1.
        -24    2    1    2    0    0 -0.38985292143E+03 -0.88843844861E+03  0.62082154743E+02  0.97572831049E+03  0.82966045124E+02 0.  0.
        254    2    1    2    0    0  0.38985292143E+03  0.88843844861E+03 -0.11785657364E+04  0.17605441333E+04  0.87703493261E+03 0.  0.
         23    2    4    4    0    0  0.41225919141E+03  0.89592842667E+01 -0.34722602409E+03  0.54679455490E+03  0.91544873106E+02 0.  0.
         23    2    4    4    0    0 -0.22406269976E+02  0.87947916434E+03 -0.83133971232E+03  0.12137495784E+04  0.89870353196E+02 0.  0.
          1    1    3    3  502    0 -0.15122125780E+03 -0.43702392718E+03  0.11086406306E+02  0.46258046883E+03  0.00000000000E+00 0. -1.
         -2    1    3    3    0  502 -0.23863166363E+03 -0.45141452143E+03  0.50995748437E+02  0.51314784166E+03  0.00000000000E+00 0.  1.
         11    1    5    5    0    0  0.84038004341E+02 -0.33513231275E+02 -0.90173950168E+02  0.12773748132E+03  0.00000000000E+00 0. -1.
        -11    1    5    5    0    0  0.32822118707E+03  0.42472515542E+02 -0.25705207392E+03  0.41905707358E+03  0.00000000000E+00 0.  1.
          4    1    6    6  503    0 -0.17448782204E+02  0.31880055076E+02 -0.27372179949E+02  0.45497627930E+02  0.00000000000E+00 0. -1.
         -4    1    6    6    0  503 -0.49574877720E+01  0.84759910927E+03 -0.80396753237E+03  0.11682519505E+04  0.00000000000E+00 0.  1.
<mgrwt>
<rscale>  0 0.24981296E+04</rscale>
<asrwt>0</asrwt>
<pdfrwt beam="1">  1        1 0.29636584E+00 0.24981296E+04</pdfrwt>
<pdfrwt beam="2">  1       -2 0.12459915E+00 0.24981296E+04</pdfrwt>
<totfact> 0.12617248E+00</totfact>
</mgrwt>
</event>
<event>
12    4  0.4486176E-008  0.1178967E+04  0.7818608E-02  0.9131469E-01
         -2   -1    0    0    0  501 -0.00000000000E+00  0.00000000000E+00  0.22172114170E+03  0.22172114170E+03  0.00000000000E+00 0.  1.
          1   -1    0    0  501    0  0.00000000000E+00 -0.00000000000E+00 -0.15672413901E+04  0.15672413901E+04  0.00000000000E+00 0. -1.
        -24    2    1    2    0    0 -0.16981001093E+03 -0.99431265167E+02 -0.75024532896E+02  0.22550289620E+03  0.80627906791E+02 0.  0.
        254    2    1    2    0    0  0.16981001093E+03  0.99431265167E+02 -0.12704957155E+04  0.15634596356E+04  0.88967671249E+03 0.  0.
         23    2    4    4    0    0  0.39084574938E+03  0.31252650011E+03 -0.10699619789E+04  0.11847581163E+04  0.91651212130E+02 0.  0.
         23    2    4    4    0    0 -0.22103573846E+03 -0.21309523495E+03 -0.20053373653E+03  0.37870151927E+03  0.94523459414E+02 0.  0.
          1    1    3    3  502    0 -0.85109694620E+02 -0.37721314551E+02 -0.76810510595E+02  0.12069139252E+03  0.00000000000E+00 0. -1.
         -2    1    3    3    0  502 -0.84700316309E+02 -0.61709950616E+02  0.17859776988E+01  0.10481150368E+03  0.00000000000E+00 0.  1.
         11    1    5    5    0    0  0.30753401506E+03  0.28934082006E+03 -0.89274056584E+03  0.98756316176E+03  0.00000000000E+00 0. -1.
        -11    1    5    5    0    0  0.83311734322E+02  0.23185680052E+02 -0.17722141311E+03  0.19719495455E+03  0.00000000000E+00 0.  1.
          2    1    6    6  503    0 -0.20278490369E+03 -0.22186657392E+03 -0.18290145054E+03  0.35185143796E+03  0.00000000000E+00 0. -1.
         -2    1    6    6    0  503 -0.18250834767E+02  0.87713389716E+01 -0.17632285991E+02  0.26850081309E+02  0.00000000000E+00 0.  1.
<mgrwt>
<rscale>  0 0.11789666E+04</rscale>
<asrwt>0</asrwt>
<pdfrwt beam="1">  1        1 0.24111406E+00 0.11789666E+04</pdfrwt>
<pdfrwt beam="2">  1       -2 0.34110944E-01 0.11789666E+04</pdfrwt>
<totfact> 0.41139932E+01</totfact>
</mgrwt>
</event>
<event>
12    4  0.4486176E-008  0.1186122E+04  0.7818608E-02  0.9125091E-01
         -2   -1    0    0    0  501 -0.00000000000E+00  0.00000000000E+00  0.29133795910E+03  0.29133795910E+03  0.00000000000E+00 0.  1.
          1   -1    0    0  501    0  0.00000000000E+00 -0.00000000000E+00 -0.12072629089E+04  0.12072629089E+04  0.00000000000E+00 0. -1.
        -24    2    1    2    0    0 -0.18003125386E+03 -0.13115512259E+03 -0.35003901341E+03  0.42243092840E+03  0.79420776934E+02 0.  0.
        254    2    1    2    0    0  0.18003125386E+03  0.13115512259E+03 -0.56588593638E+03  0.10761699396E+04  0.88786368737E+03 0.  0.
         23    2    4    4    0    0 -0.20716763767E+02  0.47001431676E+03 -0.44467852169E+03  0.65375988053E+03  0.91215960605E+02 0.  0.
         23    2    4    4    0    0  0.20074801762E+03 -0.33885919417E+03 -0.12120741469E+03  0.42241005907E+03  0.92810024129E+02 0.  0.
          3    1    3    3  502    0 -0.13799853033E+03 -0.12969530103E+03 -0.31565418859E+03  0.36810600682E+03  0.00000000000E+00 0. -1.
         -4    1    3    3    0  502 -0.42032723532E+02 -0.14598215607E+01 -0.34384824821E+02  0.54324921578E+02  0.00000000000E+00 0.  1.
         11    1    5    5    0    0 -0.46824226668E+02  0.25622637946E+03 -0.20449693467E+03  0.33115474030E+03  0.00000000000E+00 0.  1.
        -11    1    5    5    0    0  0.26107462901E+02  0.21378793730E+03 -0.24018158702E+03  0.32260514022E+03  0.00000000000E+00 0. -1.
          2    1    6    6  503    0  0.45194026318E+02 -0.12984338454E+03 -0.62392135915E+01  0.13762533310E+03  0.00000000000E+00 0. -1.
         -2    1    6    6    0  503  0.15555399131E+03 -0.20901580962E+03 -0.11496820110E+03  0.28478472598E+03  0.00000000000E+00 0.  1.
<mgrwt>
<rscale>  0 0.11861223E+04</rscale>
<asrwt>0</asrwt>
<pdfrwt beam="1">  1        1 0.18573275E+00 0.11861223E+04</pdfrwt>
<pdfrwt beam="2">  1       -2 0.44821225E-01 0.11861223E+04</pdfrwt>
<totfact> 0.43286376E+01</totfact>
</mgrwt>
</event>
<event>
12    4  0.4486176E-008  0.1538420E+04  0.7818608E-02  0.8859299E-01
          3   -1    0    0  501    0  0.00000000000E+00  0.00000000000E+00  0.67940128712E+03  0.67940128712E+03  0.00000000000E+00 0. -1.
         -4   -1    0    0    0  501 -0.00000000000E+00 -0.00000000000E+00 -0.87089019350E+03  0.87089019350E+03  0.00000000000E+00 0.  1.
        -24    2    1    2    0    0 -0.22962640854E+03 -0.61335949094E+02 -0.51135793651E+03  0.56981495955E+03  0.81925348610E+02 0.  0.
        254    2    1    2    0    0  0.22962640854E+03  0.61335949094E+02  0.31986903013E+03  0.98047652107E+03  0.89583906243E+03 0.  0.
         23    2    4    4    0    0 -0.17271142624E+03 -0.16932371711E+03  0.42402787476E+03  0.49650608623E+03  0.90658133470E+02 0.  0.
         23    2    4    4    0    0  0.40233783478E+03  0.23065966620E+03 -0.10415884463E+03  0.48397043484E+03  0.91097211637E+02 0.  0.
          1    1    3    3  502    0 -0.13055956658E+02  0.86844101648E+01 -0.84813994198E+01  0.17827257790E+02  0.00000000000E+00 0. -1.
         -2    1    3    3    0  502 -0.21657045189E+03 -0.70020359258E+02 -0.50287653709E+03  0.55198770176E+03  0.00000000000E+00 0.  1.
         11    1    5    5    0    0 -0.28381025814E+02 -0.20533123884E+02  0.15315986186E+02  0.38231809211E+02  0.00000000000E+00 0. -1.
        -11    1    5    5    0    0 -0.14433040043E+03 -0.14879059323E+03  0.40871188857E+03  0.45827427702E+03  0.00000000000E+00 0.  1.
          2    1    6    6  503    0  0.10481614518E+03  0.54643138741E+02  0.13116676266E+02  0.11892999663E+03  0.00000000000E+00 0. -1.
         -2    1    6    6    0  503  0.29752168960E+03  0.17601652746E+03 -0.11727552089E+03  0.36504043821E+03  0.00000000000E+00 0.  1.
<mgrwt>
<rscale>  0 0.15384199E+04</rscale>
<asrwt>0</asrwt>
<pdfrwt beam="1">  1        3 0.10452328E+00 0.15384199E+04</pdfrwt>
<pdfrwt beam="2">  1       -4 0.13398311E+00 0.15384199E+04</pdfrwt>
<totfact> 0.69620897E-01</totfact>
</mgrwt>
</event>
<event>
12    4  0.4486176E-008  0.1335619E+04  0.7818608E-02  0.9001786E-01
         -2   -1    0    0    0  501 -0.00000000000E+00  0.00000000000E+00  0.32109809521E+03  0.32109809521E+03  0.00000000000E+00 0.  1.
          1   -1    0    0  501    0  0.00000000000E+00 -0.00000000000E+00 -0.13888888461E+04  0.13888888461E+04  0.00000000000E+00 0. -1.
        -24    2    1    2    0    0 -0.98951706307E+02 -0.34092183735E+03 -0.23156899440E+03  0.43131086424E+03  0.79910719450E+02 0.  0.
        254    2    1    2    0    0  0.98951706307E+02  0.34092183735E+03 -0.83622175653E+03  0.12786760771E+04  0.89984806759E+03 0.  0.
         23    2    4    4    0    0  0.15560056084E+03  0.36444990507E+03  0.27759541699E+02  0.40772626208E+03  0.91841411102E+02 0.  0.
         23    2    4    4    0    0 -0.56648854537E+02 -0.23528067728E+02 -0.86398129823E+03  0.87094981504E+03  0.91253678974E+02 0.  0.
          1    1    3    3  502    0 -0.67798677985E+02 -0.99376298460E+02 -0.79072950882E+02  0.14396124823E+03  0.00000000000E+00 0. -1.
         -2    1    3    3    0  502 -0.31153028322E+02 -0.24154553889E+03 -0.15249604352E+03  0.28734961601E+03  0.00000000000E+00 0.  1.
         11    1    5    5    0    0  0.75548160975E+02  0.83565414482E+02  0.26169163495E+02  0.11565261883E+03  0.00000000000E+00 0. -1.
        -11    1    5    5    0    0  0.80052399869E+02  0.28088449059E+03  0.15903782043E+01  0.29207364325E+03  0.00000000000E+00 0.  1.
          3    1    6    6  503    0  0.19321451513E+02  0.31092312287E+01 -0.36426716364E+03  0.36479247843E+03  0.00000000000E+00 0. -1.
         -3    1    6    6    0  503 -0.75970306050E+02 -0.26637298957E+02 -0.49971413459E+03  0.50615733661E+03  0.00000000000E+00 0.  1.
<mgrwt>
<rscale>  0 0.13356191E+04</rscale>
<asrwt>0</asrwt>
<pdfrwt beam="1">  1        1 0.21367520E+00 0.13356191E+04</pdfrwt>
<pdfrwt beam="2">  1       -2 0.49399707E-01 0.13356191E+04</pdfrwt>
<totfact> 0.26081300E+01</totfact>
</mgrwt>
</event>
<event>
12    4  0.4486176E-008  0.2134837E+04  0.7818608E-02  0.8546051E-01
          1   -1    0    0  501    0  0.00000000000E+00  0.00000000000E+00  0.10921001960E+04  0.10921001960E+04  0.00000000000E+00 0. -1.
         -2   -1    0    0    0  501 -0.00000000000E+00 -0.00000000000E+00 -0.10432946321E+04  0.10432946321E+04  0.00000000000E+00 0.  1.
        -24    2    1    2    0    0  0.16586202289E+03 -0.79831367544E+03 -0.28638858794E+03  0.86777737805E+03  0.78766868147E+02 0.  0.
        254    2    1    2    0    0 -0.16586202289E+03  0.79831367544E+03  0.33519415184E+03  0.12676174500E+04  0.91086988369E+03 0.  0.
         23    2    4    4    0    0 -0.34668083567E+03  0.86773986014E+03  0.93557043412E+02  0.94324626731E+03  0.88320630273E+02 0.  0.
         23    2    4    4    0    0  0.18081881278E+03 -0.69426184700E+02  0.24163710843E+03  0.32437118266E+03  0.96502506667E+02 0.  0.
          3    1    3    3  502    0  0.11137323358E+03 -0.47052096884E+03 -0.20801714450E+03  0.52636974807E+03  0.00000000000E+00 0. -1.
         -4    1    3    3    0  502  0.54488789312E+02 -0.32779270660E+03 -0.78371443436E+02  0.34140762998E+03  0.00000000000E+00 0.  1.
         11    1    5    5    0    0 -0.24051252669E+03  0.69559398619E+03  0.83842737167E+02  0.74076100983E+03  0.00000000000E+00 0.  1.
        -11    1    5    5    0    0 -0.10616830898E+03  0.17214587395E+03  0.97143062449E+01  0.20248525748E+03  0.00000000000E+00 0. -1.
          2    1    6    6  503    0  0.61578569806E+02 -0.24039111239E+02  0.20750669486E+02  0.69284842589E+02  0.00000000000E+00 0. -1.
         -2    1    6    6    0  503  0.11924024298E+03 -0.45387073460E+02  0.22088643894E+03  0.25508634007E+03  0.00000000000E+00 0.  1.
<mgrwt>
<rscale>  0 0.21348370E+04</rscale>
<asrwt>0</asrwt>
<pdfrwt beam="1">  1        1 0.16801541E+00 0.21348370E+04</pdfrwt>
<pdfrwt beam="2">  1       -2 0.16050687E+00 0.21348370E+04</pdfrwt>
<totfact> 0.25810522E+00</totfact>
</mgrwt>
</event>
<event>
12    4  0.4486176E-008  0.1532483E+04  0.7818608E-02  0.8863135E-01
         -2   -1    0    0    0  501 -0.00000000000E+00  0.00000000000E+00  0.24491970776E+03  0.24491970776E+03  0.00000000000E+00 0.  1.
          1   -1    0    0  501    0  0.00000000000E+00 -0.00000000000E+00 -0.23972182330E+04  0.23972182330E+04  0.00000000000E+00 0. -1.
        -24    2    1    2    0    0 -0.46216819823E+03 -0.17399852817E+03 -0.82329035134E+03  0.96342474974E+03  0.80655530189E+02 0.  0.
        254    2    1    2    0    0  0.46216819823E+03  0.17399852817E+03 -0.13290081739E+04  0.16787131910E+04  0.89885500505E+03 0.  0.
         23    2    4    4    0    0  0.11400513039E+03 -0.31099329517E+03 -0.81931557402E+03  0.88856940617E+03  0.92539615119E+02 0.  0.
         23    2    4    4    0    0  0.34816306784E+03  0.48499182334E+03 -0.50969259988E+03  0.79014378483E+03  0.90033681557E+02 0.  0.
          1    1    3    3  502    0 -0.38561825242E+03 -0.15355090226E+03 -0.74006758105E+03  0.84851596373E+03  0.00000000000E+00 0. -1.
         -2    1    3    3    0  502 -0.76549945803E+02 -0.20447625917E+02 -0.83222770293E+02  0.11490878601E+03  0.00000000000E+00 0.  1.
         11    1    5    5    0    0  0.70361112605E+02 -0.26392645824E+03 -0.72250551190E+03  0.77241315127E+03  0.00000000000E+00 0.  1.
        -11    1    5    5    0    0  0.43644017780E+02 -0.47066836928E+02 -0.96810062114E+02  0.11615625490E+03  0.00000000000E+00 0. -1.
          2    1    6    6  503    0  0.72236228219E+02  0.47320300961E+02 -0.70309047127E+02  0.11135818631E+03  0.00000000000E+00 0. -1.
         -2    1    6    6    0  503  0.27592683962E+03  0.43767152238E+03 -0.43938355275E+03  0.67878559852E+03  0.00000000000E+00 0.  1.
<mgrwt>
<rscale>  0 0.15324829E+04</rscale>
<asrwt>0</asrwt>
<pdfrwt beam="1">  1        1 0.36880281E+00 0.15324829E+04</pdfrwt>
<pdfrwt beam="2">  1       -2 0.37679954E-01 0.15324829E+04</pdfrwt>
<totfact> 0.90003971E+00</totfact>
</mgrwt>
</event>
<event>
12    4  0.4486176E-008  0.1474524E+04  0.7818608E-02  0.8901573E-01
          1   -1    0    0  501    0  0.00000000000E+00  0.00000000000E+00  0.35793363673E+04  0.35793363673E+04  0.00000000000E+00 0. -1.
         -2   -1    0    0    0  501 -0.00000000000E+00 -0.00000000000E+00 -0.15185922091E+03  0.15185922091E+03  0.00000000000E+00 0.  1.
        -24    2    1    2    0    0  0.65469503516E+02 -0.17790073787E+03  0.23548683469E+02  0.20853886588E+03  0.83659964545E+02 0.  0.
        254    2    1    2    0    0 -0.65469503516E+02  0.17790073787E+03  0.34039284629E+04  0.35226567223E+04  0.88681817425E+03 0.  0.
         23    2    4    4    0    0  0.25270510446E+03 -0.24862553516E+03  0.13154837412E+04  0.13654763001E+04  0.91397627760E+02 0.  0.
         23    2    4    4    0    0 -0.31817460798E+03  0.42652627302E+03  0.20884447217E+04  0.21571804222E+04  0.93092831900E+02 0.  0.
          1    1    3    3  502    0 -0.25351365675E+01 -0.39048948204E+02  0.36336525672E+02  0.53400284374E+02  0.00000000000E+00 0. -1.
         -2    1    3    3    0  502  0.68004640083E+02 -0.13885178966E+03 -0.12787842204E+02  0.15513858151E+03  0.00000000000E+00 0.  1.
         11    1    5    5    0    0  0.77479721948E+02 -0.94022267276E+02  0.61780705721E+03  0.62970537079E+03  0.00000000000E+00 0. -1.
        -11    1    5    5    0    0  0.17522538251E+03 -0.15460326788E+03  0.69767668396E+03  0.73577092934E+03  0.00000000000E+00 0.  1.
          3    1    6    6  503    0 -0.30936435349E+03  0.42425827007E+03  0.20780803373E+04  0.21433896685E+04  0.00000000000E+00 0. -1.
         -3    1    6    6    0  503 -0.88102544886E+01  0.22680029568E+01  0.10364384489E+02  0.13790753692E+02  0.00000000000E+00 0.  1.
<mgrwt>
<rscale>  0 0.14745240E+04</rscale>
<asrwt>0</asrwt>
<pdfrwt beam="1">  1        1 0.55066707E+00 0.14745240E+04</pdfrwt>
<pdfrwt beam="2">  1       -2 0.23362960E-01 0.14745240E+04</pdfrwt>
<totfact> 0.30232457E+00</totfact>
</mgrwt>
</event>
<event>
12    4  0.4486176E-008  0.2429816E+04  0.7818608E-02  0.8428425E-01
         -2   -1    0    0    0  501 -0.00000000000E+00  0.00000000000E+00  0.12954251955E+04  0.12954251955E+04  0.00000000000E+00 0.  1.
          1   -1    0    0  501    0  0.00000000000E+00 -0.00000000000E+00 -0.11393952849E+04  0.11393952849E+04  0.00000000000E+00 0. -1.
        -24    2    1    2    0    0 -0.73748349662E+03  0.73934775767E+03  0.70458015901E+02  0.10499154494E+04  0.82710968290E+02 0.  0.
        254    2    1    2    0    0  0.73748349662E+03 -0.73934775767E+03  0.85571894736E+02  0.13849050311E+04  0.90560608508E+03 0.  0.
         23    2    4    4    0    0  0.33187656489E+03 -0.87416853883E+03  0.14613924748E+01  0.93958693262E+03  0.92243046752E+02 0.  0.
         23    2    4    4    0    0  0.40560693172E+03  0.13482078116E+03  0.84110502261E+02  0.44531809844E+03  0.92412153497E+02 0.  0.
          1    1    3    3  502    0 -0.12553548513E+03  0.13462336540E+03 -0.18482633987E+02  0.18499788187E+03  0.00000000000E+00 0. -1.
         -2    1    3    3    0  502 -0.61194801149E+03  0.60472439228E+03  0.88940649888E+02  0.86491756751E+03  0.00000000000E+00 0.  1.
         11    1    5    5    0    0  0.14849964747E+02 -0.14574071730E+02 -0.10522284905E+02  0.23316163909E+02  0.00000000000E+00 0. -1.
        -11    1    5    5    0    0  0.31702660015E+03 -0.85959446710E+03  0.11983677380E+02  0.91627076871E+03  0.00000000000E+00 0.  1.
          4    1    6    6  503    0  0.13382018909E+03  0.21342794616E+01  0.39896219259E+02  0.13965710317E+03  0.00000000000E+00 0. -1.
         -4    1    6    6    0  503  0.27178674264E+03  0.13268650170E+03  0.44214283002E+02  0.30566099527E+03  0.00000000000E+00 0.  1.
<mgrwt>
<rscale>  0 0.24298159E+04</rscale>
<asrwt>0</asrwt>
<pdfrwt beam="1">  1        1 0.17529158E+00 0.24298159E+04</pdfrwt>
<pdfrwt beam="2">  1       -2 0.19929618E+00 0.24298159E+04</pdfrwt>
<totfact> 0.12485028E+00</totfact>
</mgrwt>
</event>
<event>
12    4  0.4486176E-008  0.2067603E+04  0.7818608E-02  0.8575651E-01
         -2   -1    0    0    0  501 -0.00000000000E+00  0.00000000000E+00  0.59870628133E+03  0.59870628133E+03  0.00000000000E+00 0.  1.
          1   -1    0    0  501    0  0.00000000000E+00 -0.00000000000E+00 -0.17850908052E+04  0.17850908052E+04  0.00000000000E+00 0. -1.
        -24    2    1    2    0    0 -0.68981701401E+02  0.38026318554E+03  0.36823577316E+03  0.54097068937E+03  0.87710527979E+02 0.  0.
        254    2    1    2    0    0  0.68981701401E+02 -0.38026318554E+03 -0.15546202970E+04  0.18428263972E+04  0.91093704323E+03 0.  0.
         23    2    4    4    0    0 -0.26090558711E+03  0.34921354062E+02 -0.11101444167E+04  0.11449938746E+04  0.96431947891E+02 0.  0.
         23    2    4    4    0    0  0.32988728851E+03 -0.41518453960E+03 -0.44447588030E+03  0.69783252253E+03  0.90595785187E+02 0.  0.
          1    1    3    3  502    0  0.14180935553E+02  0.13091975434E+03  0.99385527573E+02  0.16498049612E+03  0.00000000000E+00 0. -1.
         -2    1    3    3    0  502 -0.83162636953E+02  0.24934343120E+03  0.26885024559E+03  0.37599019325E+03  0.00000000000E+00 0.  1.
         11    1    5    5    0    0 -0.23525922845E+03  0.31401798675E+02 -0.10775010422E+04  0.11033319869E+04  0.00000000000E+00 0. -1.
        -11    1    5    5    0    0 -0.25646358662E+02  0.35195553871E+01 -0.32643374569E+02  0.41661887691E+02  0.00000000000E+00 0.  1.
          3    1    6    6  503    0  0.29799989230E+03 -0.32224321856E+03 -0.37745299002E+03  0.57889151608E+03  0.00000000000E+00 0. -1.
         -3    1    6    6    0  503  0.31887396215E+02 -0.92941321045E+02 -0.67022890276E+02  0.11894100645E+03  0.00000000000E+00 0.  1.
<mgrwt>
<rscale>  0 0.20676026E+04</rscale>
<asrwt>0</asrwt>
<pdfrwt beam="1">  1        1 0.27462935E+00 0.20676026E+04</pdfrwt>
<pdfrwt beam="2">  1       -2 0.92108660E-01 0.20676026E+04</pdfrwt>
<totfact> 0.33826468E+00</totfact>
</mgrwt>
</event>
<event>
12    4  0.4486176E-008  0.1651344E+04  0.7818608E-02  0.8789612E-01
         -2   -1    0    0    0  501 -0.00000000000E+00  0.00000000000E+00  0.81187567442E+03  0.81187567442E+03  0.00000000000E+00 0.  1.
          1   -1    0    0  501    0  0.00000000000E+00 -0.00000000000E+00 -0.83970248480E+03  0.83970248480E+03  0.00000000000E+00 0. -1.
        -24    2    1    2    0    0 -0.46542872244E+03 -0.17056269095E+03  0.29301353449E+03  0.58149170877E+03  0.80994745189E+02 0.  0.
        254    2    1    2    0    0  0.46542872244E+03  0.17056269095E+03 -0.32084034487E+03  0.10700864504E+04  0.89242980526E+03 0.  0.
         23    2    4    4    0    0  0.46573313451E+03  0.14027629946E+03 -0.59603430647E+03  0.77479468859E+03  0.92006098748E+02 0.  0.
         23    2    4    4    0    0 -0.30441206885E+00  0.30286391487E+02  0.27519396160E+03  0.29529176185E+03  0.10270418658E+03 0.  0.
          3    1    3    3  502    0 -0.54816546585E+02 -0.20031823096E+02  0.68180682581E+02  0.89748165404E+02  0.00000000000E+00 0. -1.
         -4    1    3    3    0  502 -0.41061217586E+03 -0.15053086785E+03  0.22483285191E+03  0.49174354336E+03  0.00000000000E+00 0.  1.
         11    1    5    5    0    0  0.11041404422E+03  0.75680664329E+02 -0.15802581150E+03  0.20710137907E+03  0.00000000000E+00 0. -1.
        -11    1    5    5    0    0  0.35531909029E+03  0.64595635133E+02 -0.43800849498E+03  0.56769330952E+03  0.00000000000E+00 0.  1.
          2    1    6    6  503    0  0.29287341307E+01 -0.25235632980E+02  0.20083192715E+03  0.20243240259E+03  0.00000000000E+00 0.  1.
         -2    1    6    6    0  503 -0.32331461995E+01  0.55522024467E+02  0.74362034448E+02  0.92859359261E+02  0.00000000000E+00 0. -1.
<mgrwt>
<rscale>  0 0.16513437E+04</rscale>
<asrwt>0</asrwt>
<pdfrwt beam="1">  1        1 0.12918500E+00 0.16513437E+04</pdfrwt>
<pdfrwt beam="2">  1       -2 0.12490395E+00 0.16513437E+04</pdfrwt>
<totfact> 0.82166509E+00</totfact>
</mgrwt>
</event>
<event>
12    4  0.4486176E-008  0.1703569E+04  0.7818608E-02  0.8759332E-01
         -4   -1    0    0    0  501 -0.00000000000E+00  0.00000000000E+00  0.28153540441E+03  0.28153540441E+03  0.00000000000E+00 0.  1.
          3   -1    0    0  501    0  0.00000000000E+00 -0.00000000000E+00 -0.25770699381E+04  0.25770699381E+04  0.00000000000E+00 0. -1.
        -24    2    1    2    0    0  0.51599593905E+03 -0.19858696547E+03 -0.39869971375E+03  0.68741718481E+03  0.88838799267E+02 0.  0.
        254    2    1    2    0    0 -0.51599593905E+03  0.19858696547E+03 -0.18968348200E+04  0.21711881577E+04  0.90021502433E+03 0.  0.
         23    2    4    4    0    0 -0.65491773463E+03 -0.10196116701E+03 -0.15223972823E+04  0.16629537301E+04  0.91696807225E+02 0.  0.
         23    2    4    4    0    0  0.13892179558E+03  0.30054813248E+03 -0.37443753766E+03  0.50823442766E+03  0.92034333939E+02 0.  0.
          3    1    3    3  502    0  0.38564927534E+03 -0.14860667880E+03 -0.34311873128E+03  0.53715898234E+03  0.00000000000E+00 0. -1.
         -4    1    3    3    0  502  0.13034666371E+03 -0.49980286674E+02 -0.55580982462E+02  0.15025820246E+03  0.00000000000E+00 0.  1.
         11    1    5    5    0    0 -0.21219366839E+03 -0.75872918394E+02 -0.53577635987E+03  0.58123933147E+03  0.00000000000E+00 0. -1.
        -11    1    5    5    0    0 -0.44272406624E+03 -0.26088248619E+02 -0.98662092246E+03  0.10817143986E+04  0.00000000000E+00 0.  1.
          3    1    6    6  503    0 -0.41819427438E+01  0.77032365940E+02 -0.10204553238E+03  0.12792484014E+03  0.00000000000E+00 0. -1.
         -3    1    6    6    0  503  0.14310373832E+03  0.22351576654E+03 -0.27239200528E+03  0.38030958752E+03  0.00000000000E+00 0.  1.
<mgrwt>
<rscale>  0 0.17035685E+04</rscale>
<asrwt>0</asrwt>
<pdfrwt beam="1">  1        3 0.39647229E+00 0.17035685E+04</pdfrwt>
<pdfrwt beam="2">  1       -4 0.43313140E-01 0.17035685E+04</pdfrwt>
<totfact> 0.13243496E-01</totfact>
</mgrwt>
</event>
<event>
12    4  0.4486176E-008  0.1952510E+04  0.7818608E-02  0.8629151E-01
         -2   -1    0    0    0  501 -0.00000000000E+00  0.00000000000E+00  0.11983563903E+04  0.11983563903E+04  0.00000000000E+00 0.  1.
          1   -1    0    0  501    0  0.00000000000E+00 -0.00000000000E+00 -0.79531776685E+03  0.79531776685E+03  0.00000000000E+00 0. -1.
        -24    2    1    2    0    0 -0.23032237650E+03  0.61501641138E+03 -0.25457584585E+03  0.70884101229E+03  0.79706561977E+02 0.  0.
        254    2    1    2    0    0  0.23032237650E+03 -0.61501641138E+03  0.65761446931E+03  0.12848331449E+04  0.88715603844E+03 0.  0.
         23    2    4    4    0    0 -0.37248787783E+02  0.14836320093E+03  0.38763731822E+03  0.42692362303E+03  0.92746848137E+02 0.  0.
         23    2    4    4    0    0  0.26757116428E+03 -0.76337961231E+03  0.26997715109E+03  0.85790952185E+03  0.93692716468E+02 0.  0.
          3    1    3    3  502    0 -0.12123202395E+03  0.38371777329E+03 -0.12036376347E+03  0.42002853323E+03  0.00000000000E+00 0. -1.
         -4    1    3    3    0  502 -0.10909035255E+03  0.23129863809E+03 -0.13421208238E+03  0.28881247906E+03  0.00000000000E+00 0.  1.
         11    1    5    5    0    0 -0.44821751948E+02  0.15871314228E+03  0.37023878151E+03  0.40530927242E+03  0.00000000000E+00 0.  1.
        -11    1    5    5    0    0  0.75729641646E+01 -0.10349941352E+02  0.17398536712E+02  0.21614350601E+02  0.00000000000E+00 0. -1.
          1    1    6    6  503    0  0.95329567925E+02 -0.15477574016E+03  0.63673983803E+02  0.19260745696E+03  0.00000000000E+00 0. -1.
         -1    1    6    6    0  503  0.17224159636E+03 -0.60860387215E+03  0.20630316729E+03  0.66530206489E+03  0.00000000000E+00 0.  1.
<mgrwt>
<rscale>  0 0.19525103E+04</rscale>
<asrwt>0</asrwt>
<pdfrwt beam="1">  1        1 0.12235658E+00 0.19525103E+04</pdfrwt>
<pdfrwt beam="2">  1       -2 0.18436252E+00 0.19525103E+04</pdfrwt>
<totfact> 0.30808993E+00</totfact>
</mgrwt>
</event>
<event>
12    4  0.4486176E-008  0.1692096E+04  0.7818608E-02  0.8765885E-01
         -2   -1    0    0    0  501 -0.00000000000E+00  0.00000000000E+00  0.38451776353E+03  0.38451776353E+03  0.00000000000E+00 0.  1.
          1   -1    0    0  501    0  0.00000000000E+00 -0.00000000000E+00 -0.18615449501E+04  0.18615449501E+04  0.00000000000E+00 0. -1.
        -24    2    1    2    0    0  0.15411249907E+02  0.60134910031E+03 -0.53985774145E+03  0.81218311447E+03  0.79603915520E+02 0.  0.
        254    2    1    2    0    0 -0.15411249907E+02 -0.60134910031E+03 -0.93716944516E+03  0.14338795992E+04  0.90325294851E+03 0.  0.
         23    2    4    4    0    0  0.19398282134E+03 -0.67276227441E+03 -0.96077535758E+03  0.11922962304E+04  0.90788767886E+02 0.  0.
         23    2    4    4    0    0 -0.20939407125E+03  0.71413174103E+02  0.23605912419E+02  0.24158336883E+03  0.94125270179E+02 0.  0.
          3    1    3    3  502    0 -0.63338424971E+01  0.23291751502E+03 -0.25910546571E+03  0.34846280823E+03  0.00000000000E+00 0. -1.
         -4    1    3    3    0  502  0.21745092404E+02  0.36843158529E+03 -0.28075227574E+03  0.46372030624E+03  0.00000000000E+00 0.  1.
         11    1    5    5    0    0  0.33718987298E+02 -0.12132266844E+03 -0.23705137668E+03  0.26842040751E+03  0.00000000000E+00 0.  1.
        -11    1    5    5    0    0  0.16026383404E+03 -0.55143960597E+03 -0.72372398090E+03  0.92387582286E+03  0.00000000000E+00 0. -1.
          3    1    6    6  503    0 -0.73514899428E+02  0.72906928799E+02  0.21143965073E+02  0.10567368624E+03  0.00000000000E+00 0. -1.
         -3    1    6    6    0  503 -0.13587917182E+03 -0.14937546957E+01  0.24619473465E+01  0.13590968259E+03  0.00000000000E+00 0.  1.
<mgrwt>
<rscale>  0 0.16920959E+04</rscale>
<asrwt>0</asrwt>
<pdfrwt beam="1">  1        1 0.28639153E+00 0.16920959E+04</pdfrwt>
<pdfrwt beam="2">  1       -2 0.59156580E-01 0.16920959E+04</pdfrwt>
<totfact> 0.82551386E+00</totfact>
</mgrwt>
</event>
<event>
12    4  0.4486176E-008  0.1828689E+04  0.7818608E-02  0.8691190E-01
         -4   -1    0    0    0  501 -0.00000000000E+00  0.00000000000E+00  0.39056164829E+03  0.39056164829E+03  0.00000000000E+00 0.  1.
          3   -1    0    0  501    0  0.00000000000E+00 -0.00000000000E+00 -0.21405722596E+04  0.21405722596E+04  0.00000000000E+00 0. -1.
        -24    2    1    2    0    0  0.16346856550E+03 -0.58568400203E+03 -0.11266171839E+04  0.12827952094E+04  0.80929278286E+02 0.  0.
        254    2    1    2    0    0 -0.16346856550E+03  0.58568400203E+03 -0.62339342739E+03  0.12483386985E+04  0.89441736266E+03 0.  0.
         23    2    4    4    0    0  0.21969853080E+03 -0.59419862876E+02  0.32583801638E+02  0.24735050153E+03  0.91227199550E+02 0.  0.
         23    2    4    4    0    0 -0.38316709630E+03  0.64510386491E+03 -0.65597722903E+03  0.10009881969E+04  0.93248191436E+02 0.  0.
          3    1    3    3  502    0  0.13331156722E+02 -0.18466623849E+03 -0.34980001710E+03  0.39577694644E+03  0.00000000000E+00 0. -1.
         -4    1    3    3    0  502  0.15013740878E+03 -0.40101776355E+03 -0.77681716682E+03  0.88701826298E+03  0.00000000000E+00 0.  1.
         11    1    5    5    0    0  0.49596301370E+02  0.52603763998E+00 -0.28165451964E+02  0.57038254790E+02  0.00000000000E+00 0. -1.
        -11    1    5    5    0    0  0.17010222943E+03 -0.59945900516E+02  0.60749253602E+02  0.19031224673E+03  0.00000000000E+00 0.  1.
          3    1    6    6  503    0 -0.15278658074E+03  0.17858154760E+03 -0.18355394932E+03  0.29820657388E+03  0.00000000000E+00 0. -1.
         -3    1    6    6    0  503 -0.23038051556E+03  0.46652231731E+03 -0.47242327971E+03  0.70278162306E+03  0.00000000000E+00 0.  1.
<mgrwt>
<rscale>  0 0.18286885E+04</rscale>
<asrwt>0</asrwt>
<pdfrwt beam="1">  1        3 0.32931881E+00 0.18286885E+04</pdfrwt>
<pdfrwt beam="2">  1       -4 0.60086407E-01 0.18286885E+04</pdfrwt>
<totfact> 0.15127364E-01</totfact>
</mgrwt>
</event>
<event>
12    4  0.4486176E-008  0.2197522E+04  0.7818608E-02  0.8519460E-01
          1   -1    0    0  501    0  0.00000000000E+00  0.00000000000E+00  0.10139752127E+04  0.10139752127E+04  0.00000000000E+00 0. -1.
         -2   -1    0    0    0  501 -0.00000000000E+00 -0.00000000000E+00 -0.11906360220E+04  0.11906360220E+04  0.00000000000E+00 0.  1.
        -24    2    1    2    0    0  0.52129614002E+02  0.37226427508E+03  0.76256231614E+03  0.85409979571E+03  0.81774004819E+02 0.  0.
        254    2    1    2    0    0 -0.52129614002E+02 -0.37226427508E+03 -0.93922312545E+03  0.13505114390E+04  0.89467473438E+03 0.  0.
         23    2    4    4    0    0  0.31566718770E+02 -0.61198920767E+03 -0.37307616976E+03  0.72333916546E+03  0.92230536236E+02 0.  0.
         23    2    4    4    0    0 -0.83696332773E+02  0.23972493259E+03 -0.56614695569E+03  0.62717227354E+03  0.91375958736E+02 0.  0.
          3    1    3    3  502    0  0.21118768531E+02  0.16968334472E+03  0.25816166630E+03  0.30965446195E+03  0.00000000000E+00 0. -1.
         -4    1    3    3    0  502  0.31010845472E+02  0.20258093036E+03  0.50440064985E+03  0.54444533376E+03  0.00000000000E+00 0.  1.
         11    1    5    5    0    0  0.12411598723E+02 -0.22434843792E+02 -0.35234816729E+02  0.43575937267E+02  0.00000000000E+00 0. -1.
        -11    1    5    5    0    0  0.19155120048E+02 -0.58955436388E+03 -0.33784135303E+03  0.67976322820E+03  0.00000000000E+00 0.  1.
          2    1    6    6  503    0  0.17990175753E+02  0.63823971241E+02 -0.15380480269E+03  0.16749048647E+03  0.00000000000E+00 0. -1.
         -2    1    6    6    0  503 -0.10168650853E+03  0.17590096135E+03 -0.41234215300E+03  0.45968178706E+03  0.00000000000E+00 0.  1.
<mgrwt>
<rscale>  0 0.21975217E+04</rscale>
<asrwt>0</asrwt>
<pdfrwt beam="1">  1        1 0.15599619E+00 0.21975217E+04</pdfrwt>
<pdfrwt beam="2">  1       -2 0.18317477E+00 0.21975217E+04</pdfrwt>
<totfact> 0.20341496E+00</totfact>
</mgrwt>
</event>
<event>
12    4  0.4486176E-008  0.1592057E+04  0.7818608E-02  0.8825443E-01
         -2   -1    0    0    0  501 -0.00000000000E+00  0.00000000000E+00  0.45276352135E+03  0.45276352135E+03  0.00000000000E+00 0.  1.
          1   -1    0    0  501    0  0.00000000000E+00 -0.00000000000E+00 -0.13995416929E+04  0.13995416929E+04  0.00000000000E+00 0. -1.
        -24    2    1    2    0    0  0.25559586107E+03 -0.14874821840E+03 -0.84852281626E+03  0.90197836474E+03  0.78222273494E+02 0.  0.
        254    2    1    2    0    0 -0.25559586107E+03  0.14874821840E+03 -0.98255355280E+02  0.95032684949E+03  0.89778155993E+03 0.  0.
         23    2    4    4    0    0 -0.42004853591E+03  0.41096213030E+03  0.48045625545E+02  0.59582276708E+03  0.85823904478E+02 0.  0.
         23    2    4    4    0    0  0.16445267483E+03 -0.26221391190E+03 -0.14630098082E+03  0.35450408241E+03  0.92023636098E+02 0.  0.
          3    1    3    3  502    0  0.18089333907E+03 -0.65688979036E+02 -0.58189433614E+03  0.61289351483E+03  0.00000000000E+00 0. -1.
         -4    1    3    3    0  502  0.74702522004E+02 -0.83059239366E+02 -0.26662848012E+03  0.28908484991E+03  0.00000000000E+00 0.  1.
         11    1    5    5    0    0 -0.16047040096E+03  0.13148808096E+03 -0.19820627753E+02  0.20840518781E+03  0.00000000000E+00 0. -1.
        -11    1    5    5    0    0 -0.25957813495E+03  0.27947404934E+03  0.67866253298E+02  0.38741757928E+03  0.00000000000E+00 0.  1.
          1    1    6    6  503    0 -0.43238404575E+01 -0.53172638261E+02 -0.14712197341E+02  0.55339622392E+02  0.00000000000E+00 0. -1.
         -1    1    6    6    0  503  0.16877651529E+03 -0.20904127364E+03 -0.13158878348E+03  0.29916446002E+03  0.00000000000E+00 0.  1.
<mgrwt>
<rscale>  0 0.15920571E+04</rscale>
<asrwt>0</asrwt>
<pdfrwt beam="1">  1        1 0.21531410E+00 0.15920571E+04</pdfrwt>
<pdfrwt beam="2">  1       -2 0.69655929E-01 0.15920571E+04</pdfrwt>
<totfact> 0.12170141E+01</totfact>
</mgrwt>
</event>
<event>
12    4  0.4486176E-008  0.1479630E+04  0.7818608E-02  0.8898113E-01
         -2   -1    0    0    0  501 -0.00000000000E+00  0.00000000000E+00  0.37796442689E+03  0.37796442689E+03  0.00000000000E+00 0.  1.
          1   -1    0    0  501    0  0.00000000000E+00 -0.00000000000E+00 -0.14480894171E+04  0.14480894171E+04  0.00000000000E+00 0. -1.
        -24    2    1    2    0    0  0.42681001442E+03 -0.15145744150E+03 -0.31989743851E+03  0.56024444962E+03  0.80208024327E+02 0.  0.
        254    2    1    2    0    0 -0.42681001442E+03  0.15145744150E+03 -0.75022755172E+03  0.12658093944E+04  0.91341441776E+03 0.  0.
         23    2    4    4    0    0 -0.55925453443E+03 -0.13215114247E+03 -0.17822574890E+03  0.60823370294E+03  0.89186664280E+02 0.  0.
         23    2    4    4    0    0  0.13244452001E+03  0.28360858397E+03 -0.57200180282E+03  0.65757569144E+03  0.85113734317E+02 0.  0.
          1    1    3    3  502    0  0.13493945726E+02 -0.15784865318E+01 -0.31872855821E+02  0.34647613614E+02  0.00000000000E+00 0. -1.
         -2    1    3    3    0  502  0.41331606869E+03 -0.14987895497E+03 -0.28802458269E+03  0.52559683601E+03  0.00000000000E+00 0.  1.
         11    1    5    5    0    0 -0.10865613932E+03 -0.15558545675E+02  0.20825887937E+00  0.10976460417E+03  0.00000000000E+00 0.  1.
        -11    1    5    5    0    0 -0.45059839511E+03 -0.11659259679E+03 -0.17843400778E+03  0.49846909877E+03  0.00000000000E+00 0. -1.
          3    1    6    6  503    0  0.13869830699E+03  0.23151351727E+03 -0.50372291304E+03  0.57146522393E+03  0.00000000000E+00 0. -1.
         -3    1    6    6    0  503 -0.62537869785E+01  0.52095066701E+02 -0.68278889773E+02  0.86110467510E+02  0.00000000000E+00 0.  1.
<mgrwt>
<rscale>  0 0.14796301E+04</rscale>
<asrwt>0</asrwt>
<pdfrwt beam="1">  1        1 0.22278298E+00 0.14796301E+04</pdfrwt>
<pdfrwt beam="2">  1       -2 0.58148374E-01 0.14796301E+04</pdfrwt>
<totfact> 0.16723501E+01</totfact>
</mgrwt>
</event>
<event>
12    4  0.4486176E-008  0.1341626E+04  0.7818608E-02  0.8997191E-01
         -2   -1    0    0    0  501 -0.00000000000E+00  0.00000000000E+00  0.15109224981E+04  0.15109224981E+04  0.00000000000E+00 0.  1.
          1   -1    0    0  501    0  0.00000000000E+00 -0.00000000000E+00 -0.29782484090E+03  0.29782484090E+03  0.00000000000E+00 0. -1.
        -24    2    1    2    0    0 -0.32630641503E+03  0.13514010444E+03  0.28521719391E+03  0.46088028096E+03  0.79517679550E+02 0.  0.
        254    2    1    2    0    0  0.32630641503E+03 -0.13514010444E+03  0.92788046332E+03  0.13478670581E+04  0.91161654641E+03 0.  0.
         23    2    4    4    0    0  0.54192901142E+03 -0.30924284794E+03  0.82633675125E+03  0.10393172519E+04  0.89608766987E+02 0.  0.
         23    2    4    4    0    0 -0.21562259639E+03  0.17410274350E+03  0.10154371208E+03  0.30854980621E+03  0.89927682499E+02 0.  0.
          3    1    3    3  502    0 -0.24780266990E+03  0.12763081727E+03  0.19044105573E+03  0.33758492922E+03  0.00000000000E+00 0. -1.
         -4    1    3    3    0  502 -0.78503745124E+02  0.75092871642E+01  0.94776138186E+02  0.12329535174E+03  0.00000000000E+00 0.  1.
         11    1    5    5    0    0  0.23879183139E+03 -0.13943316598E+03  0.29387896400E+03  0.40351950633E+03  0.00000000000E+00 0.  1.
        -11    1    5    5    0    0  0.30313718003E+03 -0.16980968196E+03  0.53245778725E+03  0.63579774552E+03  0.00000000000E+00 0. -1.
          3    1    6    6  503    0 -0.19670836916E+03  0.11453580892E+03  0.67707359829E+02  0.23748035834E+03  0.00000000000E+00 0. -1.
         -3    1    6    6    0  503 -0.18914227236E+02  0.59566934580E+02  0.33836352248E+02  0.71069447870E+02  0.00000000000E+00 0.  1.
<mgrwt>
<rscale>  0 0.13416263E+04</rscale>
<asrwt>0</asrwt>
<pdfrwt beam="1">  1        1 0.45819207E-01 0.13416263E+04</pdfrwt>
<pdfrwt beam="2">  1       -2 0.23244961E+00 0.13416263E+04</pdfrwt>
<totfact> 0.62488503E+00</totfact>
</mgrwt>
</event>
<event>
12    4  0.4486176E-008  0.1277480E+04  0.7818608E-02  0.9047617E-01
          1   -1    0    0  501    0  0.00000000000E+00  0.00000000000E+00  0.19822286791E+04  0.19822286791E+04  0.00000000000E+00 0. -1.
         -2   -1    0    0    0  501 -0.00000000000E+00 -0.00000000000E+00 -0.20582316110E+03  0.20582316110E+03  0.00000000000E+00 0.  1.
        -24    2    1    2    0    0 -0.29578802715E+02  0.13439053232E+02  0.98319085673E+03  0.98684486291E+03  0.78377349916E+02 0.  0.
        254    2    1    2    0    0  0.29578802715E+02 -0.13439053232E+02  0.79321466127E+03  0.12012069773E+04  0.90147278921E+03 0.  0.
         23    2    4    4    0    0 -0.36207790731E+03 -0.22041293256E+03  0.27405491529E+03  0.51277380738E+03  0.90269646797E+02 0.  0.
         23    2    4    4    0    0  0.39165671003E+03  0.20697387933E+03  0.51915974597E+03  0.68843316990E+03  0.90444581609E+02 0.  0.
          3    1    3    3  502    0 -0.23594836151E+02 -0.24883453830E+02  0.71949402792E+03  0.72031073766E+03  0.00000000000E+00 0. -1.
         -4    1    3    3    0  502 -0.59839665643E+01  0.38322507062E+02  0.26369682881E+03  0.26653412526E+03  0.00000000000E+00 0.  1.
         11    1    5    5    0    0 -0.78186425003E+02 -0.15975569677E+02  0.26059559320E+02  0.83949011389E+02  0.00000000000E+00 0. -1.
        -11    1    5    5    0    0 -0.28389148231E+03 -0.20443736289E+03  0.24799535597E+03  0.42882479599E+03  0.00000000000E+00 0.  1.
          3    1    6    6  503    0  0.23832294251E+03  0.75140455489E+02  0.28993682209E+03  0.38276268598E+03  0.00000000000E+00 0. -1.
         -3    1    6    6    0  503  0.15333376752E+03  0.13183342384E+03  0.22922292389E+03  0.30567048392E+03  0.00000000000E+00 0.  1.
<mgrwt>
<rscale>  0 0.12774797E+04</rscale>
<asrwt>0</asrwt>
<pdfrwt beam="1">  1        1 0.30495825E+00 0.12774797E+04</pdfrwt>
<pdfrwt beam="2">  1       -2 0.31665103E-01 0.12774797E+04</pdfrwt>
<totfact> 0.24560163E+01</totfact>
</mgrwt>
</event>
<event>
12    4  0.4486176E-008  0.1041853E+04  0.7818608E-02  0.9263796E-01
          1   -1    0    0  501    0  0.00000000000E+00  0.00000000000E+00  0.20898353459E+04  0.20898353459E+04  0.00000000000E+00 0. -1.
         -2   -1    0    0    0  501 -0.00000000000E+00 -0.00000000000E+00 -0.12984967936E+03  0.12984967936E+03  0.00000000000E+00 0.  1.
        -24    2    1    2    0    0 -0.29829716330E+02 -0.83657748678E+02  0.63943945251E+02  0.13515099664E+03  0.79300270286E+02 0.  0.
        254    2    1    2    0    0  0.29829716330E+02  0.83657748678E+02  0.18960417213E+04  0.20845340286E+04  0.86163767137E+03 0.  0.
         23    2    4    4    0    0 -0.31499699559E+03  0.11964411893E+03  0.34010128097E+03  0.48769601065E+03  0.92955339021E+02 0.  0.
         23    2    4    4    0    0  0.34482671192E+03 -0.35986370255E+02  0.15559404403E+04  0.15968380180E+04  0.93490757543E+02 0.  0.
          3    1    3    3  502    0  0.14982603097E+02 -0.42504385838E+02  0.58810275982E+02  0.74092845620E+02  0.00000000000E+00 0. -1.
         -4    1    3    3    0  502 -0.44812319427E+02 -0.41153362840E+02  0.51336692697E+01  0.61058151017E+02  0.00000000000E+00 0.  1.
         11    1    5    5    0    0 -0.21997882336E+03  0.10119991911E+03  0.18439678215E+03  0.30435880080E+03  0.00000000000E+00 0.  1.
        -11    1    5    5    0    0 -0.95018172235E+02  0.18444199819E+02  0.15570449882E+03  0.18333720985E+03  0.00000000000E+00 0. -1.
          1    1    6    6  503    0  0.27343020992E+03 -0.34388528626E+01  0.10587078629E+04  0.10934524427E+04  0.00000000000E+00 0. -1.
         -1    1    6    6    0  503  0.71396502001E+02 -0.32547517393E+02  0.49723257745E+03  0.50338557534E+03  0.00000000000E+00 0.  1.
<mgrwt>
<rscale>  0 0.10418531E+04</rscale>
<asrwt>0</asrwt>
<pdfrwt beam="1">  1        1 0.32151311E+00 0.10418531E+04</pdfrwt>
<pdfrwt beam="2">  1       -2 0.19976875E-01 0.10418531E+04</pdfrwt>
<totfact> 0.48931006E+01</totfact>
</mgrwt>
</event>
<event>
12    4  0.4486176E-008  0.1214148E+04  0.7818608E-02  0.9100562E-01
          1   -1    0    0  501    0  0.00000000000E+00  0.00000000000E+00  0.69854375239E+03  0.69854375239E+03  0.00000000000E+00 0. -1.
         -2   -1    0    0    0  501 -0.00000000000E+00 -0.00000000000E+00 -0.52758170077E+03  0.52758170077E+03  0.00000000000E+00 0.  1.
        -24    2    1    2    0    0 -0.22345674146E+03 -0.12934009735E+03  0.89925589415E+02  0.28501352214E+03  0.80525276095E+02 0.  0.
        254    2    1    2    0    0  0.22345674146E+03  0.12934009735E+03  0.81036462209E+02  0.94111193101E+03  0.90136728496E+03 0.  0.
         23    2    4    4    0    0 -0.26596809945E+03  0.33264027431E+02  0.27804307818E+03  0.39700444449E+03  0.91973094829E+02 0.  0.
         23    2    4    4    0    0  0.48942484091E+03  0.96076069915E+02 -0.19700661598E+03  0.54410748652E+03  0.92054679615E+02 0.  0.
          1    1    3    3  502    0 -0.19150390535E+03 -0.13921501891E+03  0.82795344850E+02  0.25081793473E+03  0.00000000000E+00 0. -1.
         -2    1    3    3    0  502 -0.31952836105E+02  0.98749215614E+01  0.71302445653E+01  0.34195587414E+02  0.00000000000E+00 0.  1.
         11    1    5    5    0    0 -0.21060332209E+03  0.27914762207E+02  0.15818508161E+03  0.26486886051E+03  0.00000000000E+00 0. -1.
        -11    1    5    5    0    0 -0.55364777361E+02  0.53492652234E+01  0.11985799657E+03  0.13213558398E+03  0.00000000000E+00 0.  1.
          4    1    6    6  503    0  0.37472132519E+03  0.90805896439E+02 -0.18792026136E+03  0.42892401077E+03  0.00000000000E+00 0. -1.
         -4    1    6    6    0  503  0.11470351572E+03  0.52701734759E+01 -0.90863546131E+01  0.11518347575E+03  0.00000000000E+00 0.  1.
<mgrwt>
<rscale>  0 0.12141481E+04</rscale>
<asrwt>0</asrwt>
<pdfrwt beam="1">  1        1 0.10746827E+00 0.12141481E+04</pdfrwt>
<pdfrwt beam="2">  1       -2 0.81166415E-01 0.12141481E+04</pdfrwt>
<totfact> 0.31668337E+01</totfact>
</mgrwt>
</event>
<event>
12    4  0.4486176E-008  0.2581397E+04  0.7818608E-02  0.8374548E-01
         -2   -1    0    0    0  501 -0.00000000000E+00  0.00000000000E+00  0.21015368345E+04  0.21015368345E+04  0.00000000000E+00 0.  1.
          1   -1    0    0  501    0  0.00000000000E+00 -0.00000000000E+00 -0.79270669951E+03  0.79270669951E+03  0.00000000000E+00 0. -1.
        -24    2    1    2    0    0 -0.85170528457E+03  0.34570526801E+03 -0.16929388226E+03  0.93895263145E+03  0.89764143449E+02 0.  0.
        254    2    1    2    0    0  0.85170528457E+03 -0.34570526801E+03  0.14781240172E+04  0.19552909025E+04  0.89072884717E+03 0.  0.
         23    2    4    4    0    0  0.70166355610E+03  0.16617795242E+03  0.97873247106E+03  0.12190565564E+04  0.90745689093E+02 0.  0.
         23    2    4    4    0    0  0.15004172847E+03 -0.51188322042E+03  0.49939154617E+03  0.73623434610E+03  0.90067443377E+02 0.  0.
          3    1    3    3  502    0 -0.83770791309E+03  0.32572046345E+03 -0.16898558738E+03  0.91455152763E+03  0.00000000000E+00 0. -1.
         -4    1    3    3    0  502 -0.13997371485E+02  0.19984804561E+02 -0.30829487029E+00  0.24401103819E+02  0.00000000000E+00 0.  1.
         11    1    5    5    0    0  0.16775495586E+03  0.21462455434E+01  0.24457348807E+03  0.29658476470E+03  0.00000000000E+00 0.  1.
        -11    1    5    5    0    0  0.53390860023E+03  0.16403170687E+03  0.73415898299E+03  0.92247179175E+03  0.00000000000E+00 0. -1.
          2    1    6    6  503    0  0.26128082235E+02 -0.55199917356E+02  0.24405272787E+02  0.65767202291E+02  0.00000000000E+00 0.  1.
         -2    1    6    6    0  503  0.12391364624E+03 -0.45668330307E+03  0.47498627339E+03  0.67046714381E+03  0.00000000000E+00 0. -1.
<mgrwt>
<rscale>  0 0.25813968E+04</rscale>
<asrwt>0</asrwt>
<pdfrwt beam="1">  1        1 0.12195488E+00 0.25813968E+04</pdfrwt>
<pdfrwt beam="2">  1       -2 0.32331336E+00 0.25813968E+04</pdfrwt>
<totfact> 0.39648784E-01</totfact>
</mgrwt>
</event>
<event>
12    4  0.4486176E-008  0.1717977E+04  0.7818608E-02  0.8751177E-01
         -2   -1    0    0    0  501 -0.00000000000E+00  0.00000000000E+00  0.92835729128E+03  0.92835729128E+03  0.00000000000E+00 0.  1.
          1   -1    0    0  501    0  0.00000000000E+00 -0.00000000000E+00 -0.79480296578E+03  0.79480296578E+03  0.00000000000E+00 0. -1.
        -24    2    1    2    0    0 -0.55254639889E+03  0.12880941219E+03 -0.21284214222E+03  0.61142871418E+03  0.81510167613E+02 0.  0.
        254    2    1    2    0    0  0.55254639889E+03 -0.12880941219E+03  0.34639646772E+03  0.11117315429E+04  0.89109882897E+03 0.  0.
         23    2    4    4    0    0  0.12577622458E+03  0.33689846476E+03 -0.27792771303E+02  0.37196884399E+03  0.90929360158E+02 0.  0.
         23    2    4    4    0    0  0.42677017431E+03 -0.46570787695E+03  0.37418923902E+03  0.73976269889E+03  0.90634738027E+02 0.  0.
          3    1    3    3  502    0 -0.45774137076E+03  0.10736472637E+03 -0.20796908389E+03  0.51410649366E+03  0.00000000000E+00 0. -1.
         -4    1    3    3    0  502 -0.94805028132E+02  0.21444685820E+02 -0.48730583298E+01  0.97322220518E+02  0.00000000000E+00 0.  1.
         11    1    5    5    0    0  0.78682674542E+02  0.24680383351E+03 -0.58902177867E+02  0.26565496808E+03  0.00000000000E+00 0. -1.
        -11    1    5    5    0    0  0.47093550036E+02  0.90094631251E+02  0.31109406564E+02  0.10631387591E+03  0.00000000000E+00 0.  1.
          2    1    6    6  503    0  0.34299347525E+02 -0.18225067867E+02  0.45291176408E+01  0.39103852061E+02  0.00000000000E+00 0.  1.
         -2    1    6    6    0  503  0.39247082679E+03 -0.44748280908E+03  0.36966012138E+03  0.70065884683E+03  0.00000000000E+00 0. -1.
<mgrwt>
<rscale>  0 0.17179769E+04</rscale>
<asrwt>0</asrwt>
<pdfrwt beam="1">  1        1 0.12227738E+00 0.17179769E+04</pdfrwt>
<pdfrwt beam="2">  1       -2 0.14282420E+00 0.17179769E+04</pdfrwt>
<totfact> 0.63378465E+00</totfact>
</mgrwt>
</event>
<event>
12    4  0.4486176E-008  0.1304362E+04  0.7818608E-02  0.9026113E-01
         -2   -1    0    0    0  501 -0.00000000000E+00  0.00000000000E+00  0.37979517124E+03  0.37979517124E+03  0.00000000000E+00 0.  1.
          1   -1    0    0  501    0  0.00000000000E+00 -0.00000000000E+00 -0.11199192516E+04  0.11199192516E+04  0.00000000000E+00 0. -1.
        -24    2    1    2    0    0  0.32402728471E+03 -0.61957518980E+02 -0.26521483014E+03  0.43305283217E+03  0.91451812044E+02 0.  0.
        254    2    1    2    0    0 -0.32402728471E+03  0.61957518980E+02 -0.47490925019E+03  0.10666615906E+04  0.89632345592E+03 0.  0.
         23    2    4    4    0    0 -0.18762179673E+03 -0.40781074456E+03 -0.22345180494E+03  0.50918543875E+03  0.88473498403E+02 0.  0.
         23    2    4    4    0    0 -0.13640548799E+03  0.46976826354E+03 -0.25145744525E+03  0.55747615189E+03  0.90885282479E+02 0.  0.
          1    1    3    3  502    0  0.16747241750E+03 -0.32277576637E+00 -0.17467311617E+03  0.24198721520E+03  0.00000000000E+00 0. -1.
         -2    1    3    3    0  502  0.15655486721E+03 -0.61634743214E+02 -0.90541713970E+02  0.19106561697E+03  0.00000000000E+00 0.  1.
         11    1    5    5    0    0 -0.22798935275E+02 -0.95153918879E+02 -0.15388411676E+02  0.99049800311E+02  0.00000000000E+00 0.  1.
        -11    1    5    5    0    0 -0.16482286145E+03 -0.31265682568E+03 -0.20806339327E+03  0.41013563844E+03  0.00000000000E+00 0. -1.
          3    1    6    6  503    0 -0.10028938056E+03  0.18688748466E+03 -0.98199763501E+02  0.23372651823E+03  0.00000000000E+00 0.  1.
         -3    1    6    6    0  503 -0.36116107432E+02  0.28288077888E+03 -0.15325768174E+03  0.32374963365E+03  0.00000000000E+00 0. -1.
<mgrwt>
<rscale>  0 0.13043618E+04</rscale>
<asrwt>0</asrwt>
<pdfrwt beam="1">  1        1 0.17229527E+00 0.13043618E+04</pdfrwt>
<pdfrwt beam="2">  1       -2 0.58430028E-01 0.13043618E+04</pdfrwt>
<totfact> 0.28897391E+01</totfact>
</mgrwt>
</event>
<event>
12    4  0.4486176E-008  0.2037792E+04  0.7818608E-02  0.8589153E-01
          3   -1    0    0  501    0  0.00000000000E+00  0.00000000000E+00  0.65307075910E+03  0.65307075910E+03  0.00000000000E+00 0. -1.
         -4   -1    0    0    0  501 -0.00000000000E+00 -0.00000000000E+00 -0.15896418645E+04  0.15896418645E+04  0.00000000000E+00 0.  1.
        -24    2    1    2    0    0 -0.55415134512E+02  0.31288169603E+02 -0.12692354568E+04  0.12733223774E+04  0.79633191780E+02 0.  0.
        254    2    1    2    0    0  0.55415134512E+02 -0.31288169603E+02  0.33266435140E+03  0.96939024622E+03  0.90829625788E+03 0.  0.
         23    2    4    4    0    0  0.24244488639E+03 -0.16704763871E+03 -0.20934194579E+03  0.37265207245E+03  0.91438942991E+02 0.  0.
         23    2    4    4    0    0 -0.18702975188E+03  0.13575946911E+03  0.54200629719E+03  0.59673817377E+03  0.94418537893E+02 0.  0.
          3    1    3    3  502    0 -0.55229478805E+01  0.46491046387E+02 -0.75450569839E+03  0.75595685674E+03  0.00000000000E+00 0. -1.
         -4    1    3    3    0  502 -0.49892186632E+02 -0.15202876784E+02 -0.51472975845E+03  0.51736552067E+03  0.00000000000E+00 0.  1.
         11    1    5    5    0    0  0.18575118276E+03 -0.12140593720E+03 -0.10515762355E+03  0.24556267891E+03  0.00000000000E+00 0. -1.
        -11    1    5    5    0    0  0.56693703636E+02 -0.45641701511E+02 -0.10418432224E+03  0.12708939354E+03  0.00000000000E+00 0.  1.
          3    1    6    6  503    0 -0.13827312339E+03  0.45231133177E+02  0.28658870654E+03  0.32140068260E+03  0.00000000000E+00 0. -1.
         -3    1    6    6    0  503 -0.48756628490E+02  0.90528335934E+02  0.25541759065E+03  0.27533749117E+03  0.00000000000E+00 0.  1.
<mgrwt>
<rscale>  0 0.20377916E+04</rscale>
<asrwt>0</asrwt>
<pdfrwt beam="1">  1        3 0.10047242E+00 0.20377916E+04</pdfrwt>
<pdfrwt beam="2">  1       -4 0.24456029E+00 0.20377916E+04</pdfrwt>
<totfact> 0.12497803E-01</totfact>
</mgrwt>
</event>
<event>
12    4  0.4486176E-008  0.1667842E+04  0.7818608E-02  0.8779921E-01
          1   -1    0    0  501    0  0.00000000000E+00  0.00000000000E+00  0.49114597542E+03  0.49114597542E+03  0.00000000000E+00 0. -1.
         -2   -1    0    0    0  501 -0.00000000000E+00 -0.00000000000E+00 -0.14159213075E+04  0.14159213075E+04  0.00000000000E+00 0.  1.
        -24    2    1    2    0    0  0.88351040491E+02  0.17484941027E+03  0.30243942636E+03  0.36911738300E+03  0.79998832415E+02 0.  0.
        254    2    1    2    0    0 -0.88351040491E+02 -0.17484941027E+03 -0.12272147585E+04  0.15379499000E+04  0.90601082153E+03 0.  0.
         23    2    4    4    0    0  0.12490454876E+03  0.10348971689E+03  0.64142201740E+02  0.19671718779E+03  0.90951427273E+02 0.  0.
         23    2    4    4    0    0 -0.21325558925E+03 -0.27833912716E+03 -0.12913569602E+04  0.13412327122E+04  0.91388037656E+02 0.  0.
          1    1    3    3  502    0  0.76958862505E+02  0.15926500999E+03  0.20946394034E+03  0.27415899078E+03  0.00000000000E+00 0. -1.
         -2    1    3    3    0  502  0.11392177986E+02  0.15584400279E+02  0.92975486020E+02  0.94958392215E+02  0.00000000000E+00 0.  1.
         11    1    5    5    0    0  0.11131942948E+02  0.12196540457E+02 -0.21847945786E+02  0.27386282844E+02  0.00000000000E+00 0.  1.
        -11    1    5    5    0    0  0.11377260582E+03  0.91293176437E+02  0.85990147527E+02  0.16933090495E+03  0.00000000000E+00 0. -1.
          4    1    6    6  503    0 -0.18735993052E+03 -0.20481723087E+03 -0.11027974885E+04  0.11371966155E+04  0.00000000000E+00 0. -1.
         -4    1    6    6    0  503 -0.25895658737E+02 -0.73521896290E+02 -0.18855947172E+03  0.20403609669E+03  0.00000000000E+00 0.  1.
<mgrwt>
<rscale>  0 0.16678418E+04</rscale>
<asrwt>0</asrwt>
<pdfrwt beam="1">  1        1 0.75560920E-01 0.16678418E+04</pdfrwt>
<pdfrwt beam="2">  1       -2 0.21783405E+00 0.16678418E+04</pdfrwt>
<totfact> 0.38658021E+00</totfact>
</mgrwt>
</event>
<event>
12    4  0.4486176E-008  0.1420788E+04  0.7818608E-02  0.8938907E-01
         -2   -1    0    0    0  501 -0.00000000000E+00  0.00000000000E+00  0.23906762591E+03  0.23906762591E+03  0.00000000000E+00 0.  1.
          1   -1    0    0  501    0  0.00000000000E+00 -0.00000000000E+00 -0.21109499667E+04  0.21109499667E+04  0.00000000000E+00 0. -1.
        -24    2    1    2    0    0  0.23273257320E+03 -0.27464571048E+03 -0.29556621791E+03  0.47213254102E+03  0.77168842241E+02 0.  0.
        254    2    1    2    0    0 -0.23273257320E+03  0.27464571048E+03 -0.15763161229E+04  0.18778850516E+04  0.95503142921E+03 0.  0.
         23    2    4    4    0    0  0.22137521413E+02  0.14123269446E+03  0.85015129682E+02  0.18941555423E+03  0.90630767793E+02 0.  0.
         23    2    4    4    0    0 -0.25487009461E+03  0.13341301602E+03 -0.16613312526E+04  0.16884694974E+04  0.90276878314E+02 0.  0.
          3    1    3    3  502    0  0.21900504491E+02 -0.67959816417E+02 -0.41263863802E+02  0.82467419023E+02  0.00000000000E+00 0. -1.
         -4    1    3    3    0  502  0.21083206871E+03 -0.20668589406E+03 -0.25430235411E+03  0.38966512200E+03  0.00000000000E+00 0.  1.
         11    1    5    5    0    0 -0.30173552072E+02  0.56227045889E+02  0.10075270101E+02  0.64602128461E+02  0.00000000000E+00 0.  1.
        -11    1    5    5    0    0  0.52311073486E+02  0.85005648569E+02  0.74939859582E+02  0.12481342577E+03  0.00000000000E+00 0. -1.
          3    1    6    6  503    0 -0.19242371864E+03  0.80295843040E+02 -0.96119168054E+03  0.98354651982E+03  0.00000000000E+00 0. -1.
         -3    1    6    6    0  503 -0.62446375973E+02  0.53117172978E+02 -0.70013957203E+03  0.70492297754E+03  0.00000000000E+00 0.  1.
<mgrwt>
<rscale>  0 0.14207882E+04</rscale>
<asrwt>0</asrwt>
<pdfrwt beam="1">  1        1 0.32476153E+00 0.14207882E+04</pdfrwt>
<pdfrwt beam="2">  1       -2 0.36779635E-01 0.14207882E+04</pdfrwt>
<totfact> 0.14927873E+01</totfact>
</mgrwt>
</event>
<event>
12    4  0.4486176E-008  0.1457056E+04  0.7818608E-02  0.8913524E-01
          1   -1    0    0  501    0  0.00000000000E+00  0.00000000000E+00  0.18176781971E+04  0.18176781971E+04  0.00000000000E+00 0. -1.
         -2   -1    0    0    0  501 -0.00000000000E+00 -0.00000000000E+00 -0.29199494676E+03  0.29199494676E+03  0.00000000000E+00 0.  1.
        -24    2    1    2    0    0  0.24405269849E+03 -0.18802624737E+03  0.34514917722E+01  0.31797172413E+03  0.78603531760E+02 0.  0.
        254    2    1    2    0    0 -0.24405269849E+03  0.18802624737E+03  0.15222317586E+04  0.17917014198E+04  0.89335819320E+03 0.  0.
         23    2    4    4    0    0 -0.55293933482E+03  0.21963046640E+03  0.80848425289E+03  0.10079110077E+04  0.90875532806E+02 0.  0.
         23    2    4    4    0    0  0.30888663633E+03 -0.31604219029E+02  0.71374750569E+03  0.78379041207E+03  0.92098465843E+02 0.  0.
          1    1    3    3  502    0  0.44058725126E+02 -0.36005143301E+01  0.11943445063E+02  0.45790619598E+02  0.00000000000E+00 0. -1.
         -2    1    3    3    0  502  0.19999397337E+03 -0.18442573304E+03 -0.84919532907E+01  0.27218110453E+03  0.00000000000E+00 0.  1.
         11    1    5    5    0    0 -0.23213103276E+03  0.11940485853E+03  0.41673079605E+03  0.49173864297E+03  0.00000000000E+00 0. -1.
        -11    1    5    5    0    0 -0.32080830206E+03  0.10022560787E+03  0.39175345684E+03  0.51617236471E+03  0.00000000000E+00 0.  1.
          1    1    6    6  503    0  0.21648861212E+03 -0.41855926772E+02  0.40229920013E+03  0.45876342946E+03  0.00000000000E+00 0. -1.
         -1    1    6    6    0  503  0.92398024212E+02  0.10251707742E+02  0.31144830556E+03  0.32502698261E+03  0.00000000000E+00 0.  1.
<mgrwt>
<rscale>  0 0.14570557E+04</rscale>
<asrwt>0</asrwt>
<pdfrwt beam="1">  1        1 0.27964279E+00 0.14570557E+04</pdfrwt>
<pdfrwt beam="2">  1       -2 0.44922300E-01 0.14570557E+04</pdfrwt>
<totfact> 0.15872297E+01</totfact>
</mgrwt>
</event>
<event>
12    4  0.4486176E-008  0.1238794E+04  0.7818608E-02  0.9079561E-01
          1   -1    0    0  501    0  0.00000000000E+00  0.00000000000E+00  0.93725109723E+03  0.93725109723E+03  0.00000000000E+00 0. -1.
         -2   -1    0    0    0  501 -0.00000000000E+00 -0.00000000000E+00 -0.40933847268E+03  0.40933847268E+03  0.00000000000E+00 0.  1.
        -24    2    1    2    0    0  0.13399073563E+03  0.21605495751E+03  0.24785937197E+03  0.36305380370E+03  0.75766313169E+02 0.  0.
        254    2    1    2    0    0 -0.13399073563E+03 -0.21605495751E+03  0.28005325258E+03  0.98353576620E+03  0.90789840688E+03 0.  0.
         23    2    4    4    0    0 -0.27529259023E+03 -0.13866176745E+03  0.56097818060E+03  0.64706410055E+03  0.94775182021E+02 0.  0.
         23    2    4    4    0    0  0.14130185460E+03 -0.77393190061E+02 -0.28092492802E+03  0.33647166565E+03  0.91315095229E+02 0.  0.
          3    1    3    3  502    0  0.13128715922E+03  0.19207181854E+03  0.19005910832E+03  0.30041698738E+03  0.00000000000E+00 0. -1.
         -4    1    3    3    0  502  0.27035764051E+01  0.23983138969E+02  0.57800263656E+02  0.62636816322E+02  0.00000000000E+00 0.  1.
         11    1    5    5    0    0 -0.59472546217E+02 -0.56654770183E+02  0.22397353518E+03  0.23856003688E+03  0.00000000000E+00 0.  1.
        -11    1    5    5    0    0 -0.21582004401E+03 -0.82006997266E+02  0.33700464543E+03  0.40850406367E+03  0.00000000000E+00 0. -1.
          3    1    6    6  503    0  0.15086563680E+03 -0.82271608356E+02 -0.27481753314E+03  0.32411993834E+03  0.00000000000E+00 0. -1.
         -3    1    6    6    0  503 -0.95637822057E+01  0.48784182952E+01 -0.61073948862E+01  0.12351727306E+02  0.00000000000E+00 0.  1.
<mgrwt>
<rscale>  0 0.12387945E+04</rscale>
<asrwt>0</asrwt>
<pdfrwt beam="1">  1        1 0.14419248E+00 0.12387945E+04</pdfrwt>
<pdfrwt beam="2">  1       -2 0.62975150E-01 0.12387945E+04</pdfrwt>
<totfact> 0.34305914E+01</totfact>
</mgrwt>
</event>
<event>
12    4  0.4486176E-008  0.2439008E+04  0.7818608E-02  0.8425042E-01
         -2   -1    0    0    0  501 -0.00000000000E+00  0.00000000000E+00  0.17995049856E+04  0.17995049856E+04  0.00000000000E+00 0.  1.
          1   -1    0    0  501    0  0.00000000000E+00 -0.00000000000E+00 -0.82644414350E+03  0.82644414350E+03  0.00000000000E+00 0. -1.
        -24    2    1    2    0    0 -0.54652886199E+03  0.17981218991E+03 -0.52632826353E+03  0.78356835376E+03  0.77017552527E+02 0.  0.
        254    2    1    2    0    0  0.54652886199E+03 -0.17981218991E+03  0.14993891056E+04  0.18423807753E+04  0.90286932090E+03 0.  0.
         23    2    4    4    0    0 -0.10705943316E+03  0.14889569549E+03  0.40325336011E+02  0.20764299881E+03  0.88644412495E+02 0.  0.
         23    2    4    4    0    0  0.65358829514E+03 -0.32870788540E+03  0.14590637696E+04  0.16347377765E+04  0.90961424326E+02 0.  0.
          3    1    3    3  502    0 -0.52912267213E+03  0.18761517052E+03 -0.50962722763E+03  0.75821511823E+03  0.00000000000E+00 0. -1.
         -4    1    3    3    0  502 -0.17406189858E+02 -0.78029806066E+01 -0.16701035898E+02  0.25353235529E+02  0.00000000000E+00 0.  1.
         11    1    5    5    0    0 -0.10051867321E+03  0.15152942848E+03  0.56156825126E+02  0.19031227067E+03  0.00000000000E+00 0. -1.
        -11    1    5    5    0    0 -0.65407599499E+01 -0.26337329927E+01 -0.15831489115E+02  0.17330728138E+02  0.00000000000E+00 0.  1.
          3    1    6    6  503    0  0.14385432546E+03 -0.41170085360E+02  0.24718371776E+03  0.28894434275E+03  0.00000000000E+00 0. -1.
         -3    1    6    6    0  503  0.50973396969E+03 -0.28753780004E+03  0.12118800518E+04  0.13457934338E+04  0.00000000000E+00 0.  1.
<mgrwt>
<rscale>  0 0.24390083E+04</rscale>
<asrwt>0</asrwt>
<pdfrwt beam="1">  1        1 0.12714525E+00 0.24390083E+04</pdfrwt>
<pdfrwt beam="2">  1       -2 0.27684692E+00 0.24390083E+04</pdfrwt>
<totfact> 0.72297702E-01</totfact>
</mgrwt>
</event>
<event>
12    4  0.4486176E-008  0.1980607E+04  0.7818608E-02  0.8615741E-01
          1   -1    0    0  501    0  0.00000000000E+00  0.00000000000E+00  0.22696697963E+04  0.22696697963E+04  0.00000000000E+00 0. -1.
         -2   -1    0    0    0  501 -0.00000000000E+00 -0.00000000000E+00 -0.43208979320E+03  0.43208979320E+03  0.00000000000E+00 0.  1.
        -24    2    1    2    0    0  0.57595356038E+02  0.79145840967E+03  0.83146938050E+03  0.11521068026E+04  0.79278714150E+02 0.  0.
        254    2    1    2    0    0 -0.57595356038E+02 -0.79145840967E+03  0.10061106226E+04  0.15496527869E+04  0.87145942869E+03 0.  0.
         23    2    4    4    0    0  0.44969836970E+02  0.32027095475E+01  0.66658534049E+03  0.67455229477E+03  0.93017410359E+02 0.  0.
         23    2    4    4    0    0 -0.10256519301E+03 -0.79466111922E+03  0.33952528208E+03  0.87510049214E+03  0.92290524779E+02 0.  0.
          3    1    3    3  502    0  0.59173357235E+01  0.25385972220E+03  0.21692855652E+03  0.33397271154E+03  0.00000000000E+00 0. -1.
         -4    1    3    3    0  502  0.51678020315E+02  0.53759868747E+03  0.61454082398E+03  0.81813409102E+03  0.00000000000E+00 0.  1.
         11    1    5    5    0    0  0.38590658261E+02  0.40849831720E+02  0.52177274946E+03  0.52479019592E+03  0.00000000000E+00 0. -1.
        -11    1    5    5    0    0  0.63791787089E+01 -0.37647122172E+02  0.14481259103E+03  0.14976209884E+03  0.00000000000E+00 0.  1.
          2    1    6    6  503    0 -0.38996977481E+02 -0.37501147871E+03  0.11090273106E+03  0.39300609305E+03  0.00000000000E+00 0.  1.
         -2    1    6    6    0  503 -0.63568215528E+02 -0.41964964051E+03  0.22862255102E+03  0.48209439910E+03  0.00000000000E+00 0. -1.
<mgrwt>
<rscale>  0 0.19806071E+04</rscale>
<asrwt>0</asrwt>
<pdfrwt beam="1">  1        1 0.34917996E+00 0.19806071E+04</pdfrwt>
<pdfrwt beam="2">  1       -2 0.66475354E-01 0.19806071E+04</pdfrwt>
<totfact> 0.33149343E+00</totfact>
</mgrwt>
</event>
<event>
12    4  0.4486176E-008  0.2179929E+04  0.7818608E-02  0.8526829E-01
         -2   -1    0    0    0  501 -0.00000000000E+00  0.00000000000E+00  0.18648340275E+04  0.18648340275E+04  0.00000000000E+00 0.  1.
          1   -1    0    0  501    0  0.00000000000E+00 -0.00000000000E+00 -0.63706596379E+03  0.63706596379E+03  0.00000000000E+00 0. -1.
        -24    2    1    2    0    0 -0.37806068093E+03 -0.46187155911E+03 -0.26307945615E+03  0.65690316074E+03  0.77818678702E+02 0.  0.
        254    2    1    2    0    0  0.37806068093E+03  0.46187155911E+03  0.14908475198E+04  0.18449968305E+04  0.90836763576E+03 0.  0.
         23    2    4    4    0    0  0.91309231264E+02 -0.11455624549E+03  0.10378999747E+04  0.10522068598E+04  0.91882583792E+02 0.  0.
         23    2    4    4    0    0  0.28675144966E+03  0.57642780461E+03  0.45294754517E+03  0.79278997077E+03  0.94122533330E+02 0.  0.
          1    1    3    3  502    0 -0.78917663004E+02 -0.13933102135E+03 -0.47584892748E+02  0.16704925341E+03  0.00000000000E+00 0. -1.
         -2    1    3    3    0  502 -0.29914301792E+03 -0.32254053776E+03 -0.21549456340E+03  0.48985390733E+03  0.00000000000E+00 0.  1.
         11    1    5    5    0    0  0.77785889033E+02 -0.11670521252E+03  0.10203643697E+04  0.10299583478E+04  0.00000000000E+00 0. -1.
        -11    1    5    5    0    0  0.13523342231E+02  0.21489670237E+01  0.17535604950E+02  0.22248511980E+02  0.00000000000E+00 0.  1.
          3    1    6    6  503    0  0.26017901893E+03  0.51783613956E+03  0.36901500248E+03  0.68703672491E+03  0.00000000000E+00 0. -1.
         -3    1    6    6    0  503  0.26572430736E+02  0.58591665050E+02  0.83932542692E+02  0.10575324587E+03  0.00000000000E+00 0.  1.
<mgrwt>
<rscale>  0 0.21799287E+04</rscale>
<asrwt>0</asrwt>
<pdfrwt beam="1">  1        1 0.98010149E-01 0.21799287E+04</pdfrwt>
<pdfrwt beam="2">  1       -2 0.28689754E+00 0.21799287E+04</pdfrwt>
<totfact> 0.95986693E-01</totfact>
</mgrwt>
</event>
<event>
12    4  0.4486176E-008  0.2565372E+04  0.7818608E-02  0.8380060E-01
         -2   -1    0    0    0  501 -0.00000000000E+00  0.00000000000E+00  0.37651178512E+03  0.37651178512E+03  0.00000000000E+00 0.  1.
          1   -1    0    0  501    0  0.00000000000E+00 -0.00000000000E+00 -0.43698060052E+04  0.43698060052E+04  0.00000000000E+00 0. -1.
        -24    2    1    2    0    0  0.25232162280E+03  0.32615176134E+03  0.18317747275E+03  0.45818415448E+03  0.79608794333E+02 0.  0.
        254    2    1    2    0    0 -0.25232162280E+03 -0.32615176134E+03 -0.41764716928E+04  0.42881336358E+04  0.88041643846E+03 0.  0.
         23    2    4    4    0    0  0.31684102462E+03 -0.82330096824E+02 -0.12377698066E+04  0.12835419246E+04  0.90770580548E+02 0.  0.
         23    2    4    4    0    0 -0.56916264742E+03 -0.24382166452E+03 -0.29387018862E+04  0.30045917112E+04  0.90594988772E+02 0.  0.
          1    1    3    3  502    0  0.79556852819E+02  0.16510865412E+03  0.91318516645E+02  0.20476628623E+03  0.00000000000E+00 0. -1.
         -2    1    3    3    0  502  0.17276476998E+03  0.16104310723E+03  0.91858956104E+02  0.25341786825E+03  0.00000000000E+00 0.  1.
         11    1    5    5    0    0  0.17455066815E+02 -0.36643142350E+01 -0.18931434749E+02  0.26009724681E+02  0.00000000000E+00 0.  1.
        -11    1    5    5    0    0  0.29938595780E+03 -0.78665782589E+02 -0.12188383718E+04  0.12575321999E+04  0.00000000000E+00 0. -1.
          1    1    6    6  503    0 -0.47602562719E+03 -0.19738904049E+03 -0.22638170036E+04  0.23217300138E+04  0.00000000000E+00 0. -1.
         -1    1    6    6    0  503 -0.93137020229E+02 -0.46432624033E+02 -0.67488488258E+03  0.68286169745E+03  0.00000000000E+00 0.  1.
<mgrwt>
<rscale>  0 0.25653721E+04</rscale>
<asrwt>0</asrwt>
<pdfrwt beam="1">  1        1 0.67227784E+00 0.25653721E+04</pdfrwt>
<pdfrwt beam="2">  1       -2 0.57924891E-01 0.25653721E+04</pdfrwt>
<totfact> 0.94663759E-02</totfact>
</mgrwt>
</event>
<event>
12    4  0.4486176E-008  0.1782028E+04  0.7818608E-02  0.8715916E-01
          1   -1    0    0  501    0  0.00000000000E+00  0.00000000000E+00  0.18194971903E+04  0.18194971903E+04  0.00000000000E+00 0. -1.
         -2   -1    0    0    0  501 -0.00000000000E+00 -0.00000000000E+00 -0.43633239467E+03  0.43633239467E+03  0.00000000000E+00 0.  1.
        -24    2    1    2    0    0  0.42529999798E+03  0.15834143438E+03 -0.94280597710E+02  0.47027150745E+03  0.79462956732E+02 0.  0.
        254    2    1    2    0    0 -0.42529999798E+03 -0.15834143438E+03  0.14774453934E+04  0.17855580775E+04  0.89410327132E+03 0.  0.
         23    2    4    4    0    0 -0.60956752754E+03 -0.35760811968E+03  0.99010390839E+03  0.12198663783E+04  0.91170684073E+02 0.  0.
         23    2    4    4    0    0  0.18426752956E+03  0.19926668530E+03  0.48734148497E+03  0.56569169923E+03  0.94040636344E+02 0.  0.
          3    1    3    3  502    0 -0.33362948034E+01 -0.47902369134E+00  0.57638365902E+00  0.34194363328E+01  0.00000000000E+00 0. -1.
         -4    1    3    3    0  502  0.42863629278E+03  0.15882045807E+03 -0.94856981369E+02  0.46685207111E+03  0.00000000000E+00 0.  1.
         11    1    5    5    0    0 -0.94766003140E+02 -0.33024716171E+02  0.10062211368E+03  0.14211276153E+03  0.00000000000E+00 0. -1.
        -11    1    5    5    0    0 -0.51480152440E+03 -0.32458340350E+03  0.88948179471E+03  0.10777536168E+04  0.00000000000E+00 0.  1.
          4    1    6    6  503    0  0.89186339884E+02  0.54067035409E+02  0.11724770463E+03  0.15692186521E+03  0.00000000000E+00 0. -1.
         -4    1    6    6    0  503  0.95081189676E+02  0.14519964989E+03  0.37009378034E+03  0.40876983402E+03  0.00000000000E+00 0.  1.
<mgrwt>
<rscale>  0 0.17820276E+04</rscale>
<asrwt>0</asrwt>
<pdfrwt beam="1">  1        1 0.27992264E+00 0.17820276E+04</pdfrwt>
<pdfrwt beam="2">  1       -2 0.67128062E-01 0.17820276E+04</pdfrwt>
<totfact> 0.66764301E+00</totfact>
</mgrwt>
</event>
<event>
12    4  0.4486176E-008  0.1709033E+04  0.7818608E-02  0.8756229E-01
         -2   -1    0    0    0  501 -0.00000000000E+00  0.00000000000E+00  0.51530327891E+03  0.51530327891E+03  0.00000000000E+00 0.  1.
          1   -1    0    0  501    0  0.00000000000E+00 -0.00000000000E+00 -0.14170273800E+04  0.14170273800E+04  0.00000000000E+00 0. -1.
        -24    2    1    2    0    0 -0.10192986000E+02  0.43930890235E+03  0.15989088859E+03  0.47552292551E+03  0.86375620324E+02 0.  0.
        254    2    1    2    0    0  0.10192986000E+02 -0.43930890235E+03 -0.10616149897E+04  0.14568077334E+04  0.89563730222E+03 0.  0.
         23    2    4    4    0    0  0.22756765634E+03 -0.62002449803E+03 -0.89646746939E+03  0.11173201783E+04  0.92374459620E+02 0.  0.
         23    2    4    4    0    0 -0.21737467034E+03  0.18071559568E+03 -0.16514752028E+03  0.33948755510E+03  0.89823286426E+02 0.  0.
          1    1    3    3  502    0  0.76118424957E+01  0.41158005919E+03  0.13183957970E+03  0.43224733665E+03  0.00000000000E+00 0. -1.
         -2    1    3    3    0  502 -0.17804828495E+02  0.27728843164E+02  0.28051308889E+02  0.43275588862E+02  0.00000000000E+00 0.  1.
         11    1    5    5    0    0  0.99956101670E+02 -0.39181154654E+03 -0.51326678616E+03  0.65341434330E+03  0.00000000000E+00 0. -1.
        -11    1    5    5    0    0  0.12761155467E+03 -0.22821295149E+03 -0.38320068323E+03  0.46390583499E+03  0.00000000000E+00 0.  1.
          1    1    6    6  503    0 -0.72406439227E+02  0.11721136349E+03 -0.66373660816E+02  0.15292697284E+03  0.00000000000E+00 0. -1.
         -1    1    6    6    0  503 -0.14496823111E+03  0.63504232189E+02 -0.98773859467E+02  0.18656058225E+03  0.00000000000E+00 0.  1.
<mgrwt>
<rscale>  0 0.17090335E+04</rscale>
<asrwt>0</asrwt>
<pdfrwt beam="1">  1        1 0.21800421E+00 0.17090335E+04</pdfrwt>
<pdfrwt beam="2">  1       -2 0.79277429E-01 0.17090335E+04</pdfrwt>
<totfact> 0.87976485E+00</totfact>
</mgrwt>
</event>
<event>
12    4  0.4486176E-008  0.1791319E+04  0.7818608E-02  0.8710930E-01
          1   -1    0    0  501    0  0.00000000000E+00  0.00000000000E+00  0.12774312926E+04  0.12774312926E+04  0.00000000000E+00 0. -1.
         -2   -1    0    0    0  501 -0.00000000000E+00 -0.00000000000E+00 -0.62798336211E+03  0.62798336211E+03  0.00000000000E+00 0.  1.
        -24    2    1    2    0    0 -0.14323600390E+03 -0.10209882025E+03 -0.44194303932E+03  0.48697551031E+03  0.10435887951E+03 0.  0.
        254    2    1    2    0    0  0.14323600390E+03  0.10209882025E+03  0.10913909698E+04  0.14184391444E+04  0.88876016756E+03 0.  0.
         23    2    4    4    0    0 -0.73946742874E+02 -0.80389312935E+02  0.11118222182E+04  0.11208082592E+04  0.90177306073E+02 0.  0.
         23    2    4    4    0    0  0.21718274678E+03  0.18248813318E+03 -0.20431248423E+02  0.29763088519E+03  0.87729377370E+02 0.  0.
          3    1    3    3  502    0 -0.17546395217E+02  0.11662767602E+02 -0.13225565130E+03  0.13392331176E+03  0.00000000000E+00 0. -1.
         -4    1    3    3    0  502 -0.12568960869E+03 -0.11376158785E+03 -0.30968738802E+03  0.35305219855E+03  0.00000000000E+00 0.  1.
         11    1    5    5    0    0 -0.43921320001E+02 -0.95769599605E+02  0.74071555894E+03  0.74817139602E+03  0.00000000000E+00 0. -1.
        -11    1    5    5    0    0 -0.30025422873E+02  0.15380286671E+02  0.37110665929E+03  0.37263686319E+03  0.00000000000E+00 0.  1.
          4    1    6    6  503    0  0.96151265016E+02  0.13243245723E+03  0.70365136712E+01  0.16380761282E+03  0.00000000000E+00 0. -1.
         -4    1    6    6    0  503  0.12103148176E+03  0.50055675948E+02 -0.27467762094E+02  0.13382327236E+03  0.00000000000E+00 0.  1.
<mgrwt>
<rscale>  0 0.17913186E+04</rscale>
<asrwt>0</asrwt>
<pdfrwt beam="1">  1        1 0.19652789E+00 0.17913186E+04</pdfrwt>
<pdfrwt beam="2">  1       -2 0.96612825E-01 0.17913186E+04</pdfrwt>
<totfact> 0.69689245E+00</totfact>
</mgrwt>
</event>
<event>
12    4  0.4486176E-008  0.1226029E+04  0.7818608E-02  0.9090373E-01
          1   -1    0    0  501    0  0.00000000000E+00  0.00000000000E+00  0.49642931000E+03  0.49642931000E+03  0.00000000000E+00 0. -1.
         -2   -1    0    0    0  501 -0.00000000000E+00 -0.00000000000E+00 -0.75697971821E+03  0.75697971821E+03  0.00000000000E+00 0.  1.
        -24    2    1    2    0    0 -0.38677396008E+02 -0.12332232580E+03  0.15363468196E+03  0.21515069931E+03  0.77342555636E+02 0.  0.
        254    2    1    2    0    0  0.38677396008E+02  0.12332232580E+03 -0.41418509017E+03  0.10382583289E+04  0.94325327013E+03 0.  0.
         23    2    4    4    0    0 -0.96856837808E+02  0.30424144316E+03 -0.63099316736E+03  0.71199906956E+03  0.82741736950E+02 0.  0.
         23    2    4    4    0    0  0.13553423382E+03 -0.18091911736E+03  0.21680807719E+03  0.32625925934E+03  0.91313232382E+02 0.  0.
          3    1    3    3  502    0 -0.53490641572E+02 -0.56639475675E+02  0.55793745670E+02  0.95823906184E+02  0.00000000000E+00 0. -1.
         -4    1    3    3    0  502  0.14813245564E+02 -0.66682850126E+02  0.97840936287E+02  0.11932679313E+03  0.00000000000E+00 0.  1.
         11    1    5    5    0    0  0.13021865522E+02  0.24686597052E+02 -0.36675272622E+02  0.46087662965E+02  0.00000000000E+00 0. -1.
        -11    1    5    5    0    0 -0.10987870333E+03  0.27955484611E+03 -0.59431789474E+03  0.66591140660E+03  0.00000000000E+00 0.  1.
          1    1    6    6  503    0 -0.58382210441E+01 -0.51734824188E+02  0.40622783170E+02  0.66036258004E+02  0.00000000000E+00 0. -1.
         -1    1    6    6    0  503  0.14137245486E+03 -0.12918429317E+03  0.17618529402E+03  0.26022300133E+03  0.00000000000E+00 0.  1.
<mgrwt>
<rscale>  0 0.12260292E+04</rscale>
<asrwt>0</asrwt>
<pdfrwt beam="1">  1        1 0.76373740E-01 0.12260292E+04</pdfrwt>
<pdfrwt beam="2">  1       -2 0.11645842E+00 0.12260292E+04</pdfrwt>
<totfact> 0.22103457E+01</totfact>
</mgrwt>
</event>
<event>
12    4  0.4486176E-008  0.2028407E+04  0.7818608E-02  0.8593453E-01
         -4   -1    0    0    0  501 -0.00000000000E+00  0.00000000000E+00  0.60126171973E+03  0.60126171973E+03  0.00000000000E+00 0.  1.
          3   -1    0    0  501    0  0.00000000000E+00 -0.00000000000E+00 -0.17107506197E+04  0.17107506197E+04  0.00000000000E+00 0. -1.
        -24    2    1    2    0    0  0.58987826141E+03 -0.49101877178E+03 -0.76051236705E+03  0.10834069251E+04  0.79597157560E+02 0.  0.
        254    2    1    2    0    0 -0.58987826141E+03  0.49101877178E+03 -0.34897653289E+03  0.12286054142E+04  0.89366148282E+03 0.  0.
         23    2    4    4    0    0 -0.80488520792E+03  0.36326698379E+03 -0.36871105338E+03  0.96110775576E+03  0.89315048264E+02 0.  0.
         23    2    4    4    0    0  0.21500694651E+03  0.12775178799E+03  0.19734520493E+02  0.26749765849E+03  0.92828010950E+02 0.  0.
          3    1    3    3  502    0  0.54709868593E+03 -0.47151239772E+03 -0.73245315902E+03  0.10286537530E+04  0.00000000000E+00 0. -1.
         -4    1    3    3    0  502  0.42779575483E+02 -0.19506374052E+02 -0.28059208027E+02  0.54753172166E+02  0.00000000000E+00 0.  1.
         11    1    5    5    0    0 -0.87150136756E+02  0.43967216114E+02 -0.72378573900E+02  0.12151921819E+03  0.00000000000E+00 0.  1.
        -11    1    5    5    0    0 -0.71773507117E+03  0.31929976767E+03 -0.29633247948E+03  0.83958853757E+03  0.00000000000E+00 0. -1.
          2    1    6    6  503    0  0.14072396969E+03  0.38024653851E+02 -0.13415555427E+02  0.14638677220E+03  0.00000000000E+00 0. -1.
         -2    1    6    6    0  503  0.74282976816E+02  0.89727134138E+02  0.33150075920E+02  0.12111088629E+03  0.00000000000E+00 0.  1.
<mgrwt>
<rscale>  0 0.20284071E+04</rscale>
<asrwt>0</asrwt>
<pdfrwt beam="1">  1        3 0.26319240E+00 0.20284071E+04</pdfrwt>
<pdfrwt beam="2">  1       -4 0.92501806E-01 0.20284071E+04</pdfrwt>
<totfact> 0.13099111E-01</totfact>
</mgrwt>
</event>
<event>
12    4  0.4486176E-008  0.2592829E+04  0.7818608E-02  0.8370641E-01
         -2   -1    0    0    0  501 -0.00000000000E+00  0.00000000000E+00  0.16309664114E+04  0.16309664114E+04  0.00000000000E+00 0.  1.
          1   -1    0    0  501    0  0.00000000000E+00 -0.00000000000E+00 -0.10304876389E+04  0.10304876389E+04  0.00000000000E+00 0. -1.
        -24    2    1    2    0    0 -0.91424496402E+03  0.19701077021E+03 -0.41219426338E+03  0.10250952655E+04  0.79114441574E+02 0.  0.
        254    2    1    2    0    0  0.91424496402E+03 -0.19701077021E+03  0.10126730359E+04  0.16363587847E+04  0.88176317504E+03 0.  0.
         23    2    4    4    0    0  0.10355227593E+04 -0.32140931123E+03  0.83233385261E+03  0.13698716268E+04  0.90317779649E+02 0.  0.
         23    2    4    4    0    0 -0.12127779531E+03  0.12439854101E+03  0.18033918333E+03  0.26648715793E+03  0.91158563251E+02 0.  0.
          1    1    3    3  502    0 -0.68773003741E+03  0.14623166412E+03 -0.34645981332E+03  0.78383078926E+03  0.00000000000E+00 0. -1.
         -2    1    3    3    0  502 -0.22651492661E+03  0.50779106096E+02 -0.65734450064E+02  0.24126447629E+03  0.00000000000E+00 0.  1.
         11    1    5    5    0    0  0.62433235880E+03 -0.14758463515E+03  0.48430427690E+03  0.80381761077E+03  0.00000000000E+00 0. -1.
        -11    1    5    5    0    0  0.41119040053E+03 -0.17382467607E+03  0.34802957571E+03  0.56605401603E+03  0.00000000000E+00 0.  1.
          1    1    6    6  503    0 -0.12759842213E+03  0.13329027429E+03  0.17513112859E+03  0.25439844094E+03  0.00000000000E+00 0. -1.
         -1    1    6    6    0  503  0.63206268267E+01 -0.88917332791E+01  0.52080547473E+01  0.12088716989E+02  0.00000000000E+00 0.  1.
<mgrwt>
<rscale>  0 0.25928291E+04</rscale>
<asrwt>0</asrwt>
<pdfrwt beam="1">  1        1 0.15853656E+00 0.25928291E+04</pdfrwt>
<pdfrwt beam="2">  1       -2 0.25091791E+00 0.25928291E+04</pdfrwt>
<totfact> 0.70249779E-01</totfact>
</mgrwt>
</event>
<event>
12    4  0.4486176E-008  0.2324164E+04  0.7818608E-02  0.8468454E-01
         -2   -1    0    0    0  501 -0.00000000000E+00  0.00000000000E+00  0.52193021493E+03  0.52193021493E+03  0.00000000000E+00 0.  1.
          1   -1    0    0  501    0  0.00000000000E+00 -0.00000000000E+00 -0.25873848879E+04  0.25873848879E+04  0.00000000000E+00 0. -1.
        -24    2    1    2    0    0  0.87968439752E+02 -0.33963454839E+02  0.43136379649E+03  0.44903100206E+03  0.81622014418E+02 0.  0.
        254    2    1    2    0    0 -0.87968439752E+02  0.33963454839E+02 -0.24968184695E+04  0.26602841008E+04  0.91330009567E+03 0.  0.
         23    2    4    4    0    0  0.32062070843E+03  0.91107764165E+02 -0.43398905362E+03  0.55463973147E+03  0.90445949082E+02 0.  0.
         23    2    4    4    0    0 -0.40858914818E+03 -0.57144309326E+02 -0.20628294159E+04  0.21056443693E+04  0.90898003387E+02 0.  0.
          3    1    3    3  502    0  0.65041347159E+02  0.14734442111E+02  0.29465736039E+03  0.30210998106E+03  0.00000000000E+00 0. -1.
         -4    1    3    3    0  502  0.22927092593E+02 -0.48697896950E+02  0.13670643609E+03  0.14692102100E+03  0.00000000000E+00 0.  1.
         11    1    5    5    0    0  0.29679319202E+02  0.25083150890E+02 -0.97390571099E+02  0.10485680610E+03  0.00000000000E+00 0. -1.
        -11    1    5    5    0    0  0.29094138922E+03  0.66024613275E+02 -0.33659848252E+03  0.44978292537E+03  0.00000000000E+00 0.  1.
          1    1    6    6  503    0 -0.74371582709E+02 -0.47193135208E+02 -0.43701642717E+03  0.44580453334E+03  0.00000000000E+00 0. -1.
         -1    1    6    6    0  503 -0.33421756547E+03 -0.99511741175E+01 -0.16258129887E+04  0.16598398360E+04  0.00000000000E+00 0.  1.
<mgrwt>
<rscale>  0 0.23241638E+04</rscale>
<asrwt>0</asrwt>
<pdfrwt beam="1">  1        1 0.39805922E+00 0.23241638E+04</pdfrwt>
<pdfrwt beam="2">  1       -2 0.80296956E-01 0.23241638E+04</pdfrwt>
<totfact> 0.12796741E+00</totfact>
</mgrwt>
</event>
<event>
12    4  0.4486176E-008  0.1296045E+04  0.7818608E-02  0.9032707E-01
          1   -1    0    0  501    0  0.00000000000E+00  0.00000000000E+00  0.18781171656E+04  0.18781171656E+04  0.00000000000E+00 0. -1.
         -2   -1    0    0    0  501 -0.00000000000E+00 -0.00000000000E+00 -0.22359277372E+03  0.22359277372E+03  0.00000000000E+00 0.  1.
        -24    2    1    2    0    0 -0.16607069267E+03 -0.28127504641E+03  0.39214653068E+03  0.51673271722E+03  0.80862060433E+02 0.  0.
        254    2    1    2    0    0  0.16607069267E+03  0.28127504641E+03  0.12623778612E+04  0.15849772221E+04  0.90103263172E+03 0.  0.
         23    2    4    4    0    0 -0.48632556446E+02  0.28364680814E+03  0.13122260708E+04  0.13464091759E+04  0.89776225946E+02 0.  0.
         23    2    4    4    0    0  0.21470324912E+03 -0.23717617297E+01 -0.49848209625E+02  0.23856804618E+03  0.91251072415E+02 0.  0.
          1    1    3    3  502    0 -0.14982458340E+01 -0.51987840245E+02  0.84616172782E+02  0.99322087021E+02  0.00000000000E+00 0. -1.
         -2    1    3    3    0  502 -0.16457244684E+03 -0.22928720616E+03  0.30753035790E+03  0.41741063019E+03  0.00000000000E+00 0.  1.
         11    1    5    5    0    0 -0.30683762477E+02  0.58172946989E+02  0.46000195869E+03  0.46467987587E+03  0.00000000000E+00 0. -1.
        -11    1    5    5    0    0 -0.17948793968E+02  0.22547386115E+03  0.85222411214E+03  0.88172930006E+03  0.00000000000E+00 0.  1.
          3    1    6    6  503    0  0.54303766214E+02  0.32352295138E+02  0.97670957527E+01  0.63960661231E+02  0.00000000000E+00 0. -1.
         -3    1    6    6    0  503  0.16039948291E+03 -0.34724056867E+02 -0.59615305377E+02  0.17460738494E+03  0.00000000000E+00 0.  1.
<mgrwt>
<rscale>  0 0.12960454E+04</rscale>
<asrwt>0</asrwt>
<pdfrwt beam="1">  1        1 0.28894109E+00 0.12960454E+04</pdfrwt>
<pdfrwt beam="2">  1       -2 0.34398889E-01 0.12960454E+04</pdfrwt>
<totfact> 0.24650164E+01</totfact>
</mgrwt>
</event>
<event>
12    4  0.4486176E-008  0.1314660E+04  0.7818608E-02  0.9018020E-01
         -2   -1    0    0    0  501 -0.00000000000E+00  0.00000000000E+00  0.40687975645E+03  0.40687975645E+03  0.00000000000E+00 0.  1.
          1   -1    0    0  501    0  0.00000000000E+00 -0.00000000000E+00 -0.10619419472E+04  0.10619419472E+04  0.00000000000E+00 0. -1.
        -24    2    1    2    0    0  0.52592251776E+02 -0.36434736455E+02  0.21293873792E+03  0.23616003286E+03  0.79594095571E+02 0.  0.
        254    2    1    2    0    0 -0.52592251776E+02  0.36434736455E+02 -0.86800092865E+03  0.12326616708E+04  0.87288930999E+03 0.  0.
         23    2    4    4    0    0 -0.32561641669E+03 -0.26362096663E+03 -0.60127809478E+03  0.73852367849E+03  0.91432005136E+02 0.  0.
         23    2    4    4    0    0  0.27302416492E+03  0.30005570308E+03 -0.26672283388E+03  0.49413799229E+03  0.91954693906E+02 0.  0.
          3    1    3    3  502    0  0.40362124596E+02  0.19301882742E+02  0.84416210064E+02  0.95539312855E+02  0.00000000000E+00 0. -1.
         -4    1    3    3    0  502  0.12230127180E+02 -0.55736619197E+02  0.12852252785E+03  0.14062072001E+03  0.00000000000E+00 0.  1.
         11    1    5    5    0    0 -0.22740269500E+03 -0.22652299036E+03 -0.48779783264E+03  0.58392754378E+03  0.00000000000E+00 0. -1.
        -11    1    5    5    0    0 -0.98213721697E+02 -0.37097976263E+02 -0.11348026214E+03  0.15459613471E+03  0.00000000000E+00 0.  1.
          2    1    6    6  503    0  0.18351677978E+03  0.14186216496E+03 -0.17486909790E+03  0.29048663258E+03  0.00000000000E+00 0. -1.
         -2    1    6    6    0  503  0.89507385137E+02  0.15819353812E+03 -0.91853735973E+02  0.20365135971E+03  0.00000000000E+00 0.  1.
<mgrwt>
<rscale>  0 0.13146599E+04</rscale>
<asrwt>0</asrwt>
<pdfrwt beam="1">  1        1 0.16337568E+00 0.13146599E+04</pdfrwt>
<pdfrwt beam="2">  1       -2 0.62596887E-01 0.13146599E+04</pdfrwt>
<totfact> 0.27600053E+01</totfact>
</mgrwt>
</event>
<event>
12    4  0.4486176E-008  0.3919884E+04  0.7818608E-02  0.8020906E-01
          1   -1    0    0  501    0  0.00000000000E+00  0.00000000000E+00  0.22427073123E+04  0.22427073123E+04  0.00000000000E+00 0. -1.
         -4   -1    0    0    0  501 -0.00000000000E+00 -0.00000000000E+00 -0.17128281115E+04  0.17128281115E+04  0.00000000000E+00 0.  1.
        -24    2    1    2    0    0  0.69807491430E+03  0.71752843465E+03 -0.13266807671E+04  0.16639117115E+04  0.79778978968E+02 0.  0.
        254    2    1    2    0    0 -0.69807491430E+03 -0.71752843465E+03  0.18565599678E+04  0.22916237123E+04  0.89586197821E+03 0.  0.
         23    2    4    4    0    0 -0.73735703294E+03 -0.14455146861E+03  0.96302927344E+03  0.12248321330E+04  0.90541986602E+02 0.  0.
         23    2    4    4    0    0  0.39282118641E+02 -0.57297696604E+03  0.89353069438E+03  0.10667915793E+04  0.99002441446E+02 0.  0.
          1    1    3    3  502    0  0.19020593747E+03  0.21957713856E+03 -0.33294029463E+03  0.44186158264E+03  0.00000000000E+00 0. -1.
         -2    1    3    3    0  502  0.50786897683E+03  0.49795129610E+03 -0.99374047244E+03  0.12220501289E+04  0.00000000000E+00 0.  1.
         11    1    5    5    0    0 -0.68697008676E+02 -0.17368316115E+02  0.53339285418E+02  0.88690567563E+02  0.00000000000E+00 0. -1.
        -11    1    5    5    0    0 -0.66866002426E+03 -0.12718315249E+03  0.90968998802E+03  0.11361415654E+04  0.00000000000E+00 0.  1.
          1    1    6    6  503    0 -0.28105339149E+02 -0.10059339634E+03  0.18770840336E+03  0.21481011654E+03  0.00000000000E+00 0. -1.
         -1    1    6    6    0  503  0.67387457789E+02 -0.47238356970E+03  0.70582229103E+03  0.85198146277E+03  0.00000000000E+00 0.  1.
<mgrwt>
<rscale>  0 0.39198837E+04</rscale>
<asrwt>0</asrwt>
<pdfrwt beam="1">  1        1 0.34503189E+00 0.39198837E+04</pdfrwt>
<pdfrwt beam="2">  1       -4 0.26351202E+00 0.39198837E+04</pdfrwt>
<totfact> 0.40502663E-02</totfact>
</mgrwt>
</event>
<event>
12    4  0.4486176E-008  0.5401089E+04  0.7818608E-02  0.7769448E-01
          1   -1    0    0  501    0  0.00000000000E+00  0.00000000000E+00  0.30562562504E+04  0.30562562504E+04  0.00000000000E+00 0. -1.
         -2   -1    0    0    0  501 -0.00000000000E+00 -0.00000000000E+00 -0.23862331100E+04  0.23862331100E+04  0.00000000000E+00 0.  1.
        -24    2    1    2    0    0 -0.25650463356E+03 -0.80793609152E+00  0.29583384010E+04  0.29705155561E+04  0.80008091202E+02 0.  0.
        254    2    1    2    0    0  0.25650463356E+03  0.80793609152E+00 -0.22883152605E+04  0.24719738042E+04  0.89915097587E+03 0.  0.
         23    2    4    4    0    0  0.48894421900E+03 -0.52287520610E+02 -0.68429353076E+03  0.84765802030E+03  0.92011135425E+02 0.  0.
         23    2    4    4    0    0 -0.23243958544E+03  0.53095456701E+02 -0.16040217298E+04  0.16243157839E+04  0.93106218454E+02 0.  0.
          3    1    3    3  502    0 -0.25447989354E+03 -0.12598346127E+02  0.27300366940E+04  0.27419006337E+04  0.00000000000E+00 0. -1.
         -4    1    3    3    0  502 -0.20247400206E+01  0.11790410035E+02  0.22830170698E+03  0.22861492242E+03  0.00000000000E+00 0.  1.
         11    1    5    5    0    0  0.27564529626E+03 -0.70667059419E+02 -0.42390259496E+03  0.51055614055E+03  0.00000000000E+00 0. -1.
        -11    1    5    5    0    0  0.21329892274E+03  0.18379538810E+02 -0.26039093580E+03  0.33710187975E+03  0.00000000000E+00 0.  1.
          4    1    6    6  503    0 -0.10752890840E+03  0.70308794224E+02 -0.72476539264E+03  0.73606430905E+03  0.00000000000E+00 0. -1.
         -4    1    6    6    0  503 -0.12491067705E+03 -0.17213337523E+02 -0.87925633713E+03  0.88825147487E+03  0.00000000000E+00 0.  1.
<mgrwt>
<rscale>  0 0.54010887E+04</rscale>
<asrwt>0</asrwt>
<pdfrwt beam="1">  1        1 0.47019327E+00 0.54010887E+04</pdfrwt>
<pdfrwt beam="2">  1       -2 0.36711279E+00 0.54010887E+04</pdfrwt>
<totfact> 0.40516438E-03</totfact>
</mgrwt>
</event>
<event>
12    4  0.4486176E-008  0.1769078E+04  0.7818608E-02  0.8722919E-01
          1   -1    0    0  501    0  0.00000000000E+00  0.00000000000E+00  0.40113628014E+04  0.40113628014E+04  0.00000000000E+00 0. -1.
         -2   -1    0    0    0  501 -0.00000000000E+00 -0.00000000000E+00 -0.19504821434E+03  0.19504821434E+03  0.00000000000E+00 0.  1.
        -24    2    1    2    0    0  0.34676347549E+03 -0.39509170599E+02  0.10655962853E+03  0.37313928169E+03  0.77923594699E+02 0.  0.
        254    2    1    2    0    0 -0.34676347549E+03  0.39509170599E+02  0.37097549586E+04  0.38332717341E+04  0.89993580453E+03 0.  0.
         23    2    4    4    0    0 -0.62688349005E+03  0.14294059939E+03  0.23474495590E+04  0.24355365297E+04  0.88903489271E+02 0.  0.
         23    2    4    4    0    0  0.28012001455E+03 -0.10343142879E+03  0.13623053996E+04  0.13977352044E+04  0.92856970067E+02 0.  0.
          3    1    3    3  502    0  0.85965297456E+02 -0.99817405849E+01 -0.76958562124E+01  0.86884369795E+02  0.00000000000E+00 0. -1.
         -4    1    3    3    0  502  0.26079817804E+03 -0.29527430014E+02  0.11425548474E+03  0.28625491190E+03  0.00000000000E+00 0.  1.
         11    1    5    5    0    0 -0.50352546998E+03  0.97480753730E+02  0.17393955108E+04  0.18134324193E+04  0.00000000000E+00 0.  1.
        -11    1    5    5    0    0 -0.12335802007E+03  0.45459845660E+02  0.60805404820E+03  0.62210411043E+03  0.00000000000E+00 0. -1.
          3    1    6    6  503    0  0.26166669734E+02 -0.27571153920E+02  0.32041779288E+03  0.32266457061E+03  0.00000000000E+00 0. -1.
         -3    1    6    6    0  503  0.25395334482E+03 -0.75860274872E+02  0.10418876067E+04  0.10750706338E+04  0.00000000000E+00 0.  1.
<mgrwt>
<rscale>  0 0.17690779E+04</rscale>
<asrwt>0</asrwt>
<pdfrwt beam="1">  1        1 0.61713268E+00 0.17690779E+04</pdfrwt>
<pdfrwt beam="2">  1       -2 0.30007421E-01 0.17690779E+04</pdfrwt>
<totfact> 0.80864764E-01</totfact>
</mgrwt>
</event>
<event>
12    4  0.4486176E-008  0.2258412E+04  0.7818608E-02  0.8494502E-01
          1   -1    0    0  501    0  0.00000000000E+00  0.00000000000E+00  0.26344276196E+04  0.26344276196E+04  0.00000000000E+00 0. -1.
         -2   -1    0    0    0  501 -0.00000000000E+00 -0.00000000000E+00 -0.48401628681E+03  0.48401628681E+03  0.00000000000E+00 0.  1.
        -24    2    1    2    0    0 -0.14483760952E+03 -0.59187225191E+03  0.19015870414E+04  0.19984736200E+04  0.81073042500E+02 0.  0.
        254    2    1    2    0    0  0.14483760952E+03  0.59187225191E+03  0.24882429134E+03  0.11199702863E+04  0.90616180597E+03 0.  0.
         23    2    4    4    0    0 -0.23317922513E+03  0.13716601232E+03 -0.22040070147E+03  0.35950024282E+03  0.86469008386E+02 0.  0.
         23    2    4    4    0    0  0.37801683465E+03  0.45470623959E+03  0.46922499281E+03  0.76047004352E+03  0.92130893905E+02 0.  0.
          1    1    3    3  502    0 -0.80100268657E+02 -0.45357602525E+03  0.14845479424E+04  0.15543583425E+04  0.00000000000E+00 0. -1.
         -2    1    3    3    0  502 -0.64737340864E+02 -0.13829622666E+03  0.41703909902E+03  0.44411527751E+03  0.00000000000E+00 0.  1.
         11    1    5    5    0    0 -0.28139222996E+02  0.47998419263E+02 -0.72629928044E+02  0.91491915327E+02  0.00000000000E+00 0.  1.
        -11    1    5    5    0    0 -0.20504000213E+03  0.89167593058E+02 -0.14777077342E+03  0.26800832749E+03  0.00000000000E+00 0. -1.
          1    1    6    6  503    0  0.20790015178E+03  0.31818760533E+03  0.28767424963E+03  0.47667840227E+03  0.00000000000E+00 0. -1.
         -1    1    6    6    0  503  0.17011668287E+03  0.13651863426E+03  0.18155074318E+03  0.28379164124E+03  0.00000000000E+00 0.  1.
<mgrwt>
<rscale>  0 0.22584117E+04</rscale>
<asrwt>0</asrwt>
<pdfrwt beam="1">  1        1 0.40529655E+00 0.22584117E+04</pdfrwt>
<pdfrwt beam="2">  1       -2 0.74464046E-01 0.22584117E+04</pdfrwt>
<totfact> 0.14118939E+00</totfact>
</mgrwt>
</event>
<event>
12    4  0.4486176E-008  0.2181392E+04  0.7818608E-02  0.8526213E-01
          1   -1    0    0  501    0  0.00000000000E+00  0.00000000000E+00  0.11769215353E+04  0.11769215353E+04  0.00000000000E+00 0. -1.
         -2   -1    0    0    0  501 -0.00000000000E+00 -0.00000000000E+00 -0.10107875758E+04  0.10107875758E+04  0.00000000000E+00 0.  1.
        -24    2    1    2    0    0  0.44586728467E+03  0.31951016612E+03  0.78804298398E+03  0.96379900849E+03  0.83740088220E+02 0.  0.
        254    2    1    2    0    0 -0.44586728467E+03 -0.31951016612E+03 -0.62190902442E+03  0.12239101026E+04  0.90016705273E+03 0.  0.
         23    2    4    4    0    0 -0.14328120427E+03  0.21198575962E+03  0.83837971818E+02  0.28490057519E+03  0.93123930575E+02 0.  0.
         23    2    4    4    0    0 -0.30258608040E+03 -0.53149592574E+03 -0.70574699624E+03  0.93900952742E+03  0.98050062467E+02 0.  0.
          3    1    3    3  502    0  0.27845118229E+03  0.24291197323E+03  0.49475857663E+03  0.61751707410E+03  0.00000000000E+00 0. -1.
         -4    1    3    3    0  502  0.16741610238E+03  0.76598192886E+02  0.29328440735E+03  0.34628193439E+03  0.00000000000E+00 0.  1.
         11    1    5    5    0    0 -0.13011611869E+02  0.26744012262E+02 -0.19925614217E+02  0.35799082910E+02  0.00000000000E+00 0.  1.
        -11    1    5    5    0    0 -0.13026959240E+03  0.18524174736E+03  0.10376358604E+03  0.24910149228E+03  0.00000000000E+00 0. -1.
          4    1    6    6  503    0 -0.12515183967E+03 -0.31616417486E+03 -0.40336787752E+03  0.52756839656E+03  0.00000000000E+00 0. -1.
         -4    1    6    6    0  503 -0.17743424073E+03 -0.21533175088E+03 -0.30237911872E+03  0.41144113086E+03  0.00000000000E+00 0.  1.
<mgrwt>
<rscale>  0 0.21813919E+04</rscale>
<asrwt>0</asrwt>
<pdfrwt beam="1">  1        1 0.18106485E+00 0.21813919E+04</pdfrwt>
<pdfrwt beam="2">  1       -2 0.15550578E+00 0.21813919E+04</pdfrwt>
<totfact> 0.24221071E+00</totfact>
</mgrwt>
</event>
<event>
12    4  0.4486176E-008  0.1703926E+04  0.7818608E-02  0.8759129E-01
          1   -1    0    0  501    0  0.00000000000E+00  0.00000000000E+00  0.17925509588E+04  0.17925509588E+04  0.00000000000E+00 0. -1.
         -2   -1    0    0    0  501 -0.00000000000E+00 -0.00000000000E+00 -0.40492046360E+03  0.40492046360E+03  0.00000000000E+00 0.  1.
        -24    2    1    2    0    0  0.43433312617E+03 -0.34392327506E+03  0.16274780709E+03  0.58365211860E+03  0.85055647739E+02 0.  0.
        254    2    1    2    0    0 -0.43433312617E+03  0.34392327506E+03  0.12248826881E+04  0.16138193038E+04  0.89283070183E+03 0.  0.
         23    2    4    4    0    0 -0.53940425759E+03  0.46885373435E+03  0.12315688770E+04  0.14268321435E+04  0.91144333556E+02 0.  0.
         23    2    4    4    0    0  0.10507113142E+03 -0.12493045929E+03 -0.66861888918E+01  0.18698716034E+03  0.90950154994E+02 0.  0.
          3    1    3    3  502    0  0.99433244953E+02 -0.12761158989E+03  0.50222458427E+02  0.16939298512E+03  0.00000000000E+00 0. -1.
         -2    1    3    3    0  502  0.33489988121E+03 -0.21631168517E+03  0.11252534867E+03  0.41425913348E+03  0.00000000000E+00 0.  1.
         11    1    5    5    0    0 -0.24519071531E+03  0.24874506896E+03  0.67317745015E+03  0.75839335150E+03  0.00000000000E+00 0. -1.
        -11    1    5    5    0    0 -0.29421354228E+03  0.22010866539E+03  0.55839142688E+03  0.66843879200E+03  0.00000000000E+00 0.  1.
          3    1    6    6  503    0  0.87426664463E+02 -0.13833325636E+03  0.65263993471E+00  0.16364576809E+03  0.00000000000E+00 0. -1.
         -3    1    6    6    0  503  0.17644466962E+02  0.13402797072E+02 -0.73388288265E+01  0.23341392252E+02  0.00000000000E+00 0.  1.
<mgrwt>
<rscale>  0 0.17039255E+04</rscale>
<asrwt>0</asrwt>
<pdfrwt beam="1">  1        1 0.27577707E+00 0.17039255E+04</pdfrwt>
<pdfrwt beam="2">  1       -2 0.62295457E-01 0.17039255E+04</pdfrwt>
<totfact> 0.82315002E+00</totfact>
</mgrwt>
</event>
<event>
12    4  0.4486176E-008  0.1909008E+04  0.7818608E-02  0.8650385E-01
         -2   -1    0    0    0  501 -0.00000000000E+00  0.00000000000E+00  0.38840926383E+03  0.38840926383E+03  0.00000000000E+00 0.  1.
          1   -1    0    0  501    0  0.00000000000E+00 -0.00000000000E+00 -0.23456648067E+04  0.23456648067E+04  0.00000000000E+00 0. -1.
        -24    2    1    2    0    0 -0.35234834985E+03 -0.60315940029E+03 -0.43210144403E+03  0.82554746956E+03  0.82863410296E+02 0.  0.
        254    2    1    2    0    0  0.35234834985E+03  0.60315940029E+03 -0.15251540989E+04  0.19085266010E+04  0.91018027862E+03 0.  0.
         23    2    4    4    0    0 -0.27993970342E+03  0.29478500159E+03 -0.74982718627E+03  0.85782091877E+03  0.91386457992E+02 0.  0.
         23    2    4    4    0    0  0.63228805327E+03  0.30837439870E+03 -0.77532691262E+03  0.10507056822E+04  0.89261733993E+02 0.  0.
          3    1    3    3  502    0 -0.17046665371E+03 -0.28293279769E+03 -0.25274120011E+03  0.41591821584E+03  0.00000000000E+00 0. -1.
         -2    1    3    3    0  502 -0.18188169614E+03 -0.32022660261E+03 -0.17936024392E+03  0.40962925373E+03  0.00000000000E+00 0.  1.
         11    1    5    5    0    0 -0.17649157694E+03  0.12550781319E+03 -0.35230431266E+03  0.41354542268E+03  0.00000000000E+00 0. -1.
        -11    1    5    5    0    0 -0.10344812648E+03  0.16927718840E+03 -0.39752287361E+03  0.44427549609E+03  0.00000000000E+00 0.  1.
          2    1    6    6  503    0  0.31703021177E+03  0.18685684277E+03 -0.45428036644E+03  0.58463175264E+03  0.00000000000E+00 0. -1.
         -2    1    6    6    0  503  0.31525784151E+03  0.12151755594E+03 -0.32104654618E+03  0.46607392959E+03  0.00000000000E+00 0.  1.
<mgrwt>
<rscale>  0 0.19090081E+04</rscale>
<asrwt>0</asrwt>
<pdfrwt beam="1">  1        1 0.36087151E+00 0.19090081E+04</pdfrwt>
<pdfrwt beam="2">  1       -2 0.59755272E-01 0.19090081E+04</pdfrwt>
<totfact> 0.37161493E+00</totfact>
</mgrwt>
</event>
<event>
12    4  0.4486176E-008  0.1173264E+04  0.7818608E-02  0.9136586E-01
          1   -1    0    0  501    0  0.00000000000E+00  0.00000000000E+00  0.90374415668E+03  0.90374415668E+03  0.00000000000E+00 0. -1.
         -4   -1    0    0    0  501 -0.00000000000E+00 -0.00000000000E+00 -0.38079057625E+03  0.38079057625E+03  0.00000000000E+00 0.  1.
        -24    2    1    2    0    0  0.22702867081E+02 -0.15254870012E+03  0.50526032721E+03  0.53410605364E+03  0.78706748130E+02 0.  0.
        254    2    1    2    0    0 -0.22702867081E+02  0.15254870012E+03  0.17693253222E+02  0.75042867928E+03  0.73419590396E+03 0.  0.
         23    2    4    4    0    0  0.18068654785E+03  0.38072912966E+03  0.16655324488E+02  0.43139304648E+03  0.90665660353E+02 0.  0.
         23    2    4    4    0    0 -0.20338941494E+03 -0.22818042954E+03  0.10379287338E+01  0.31903563281E+03  0.91373383284E+02 0.  0.
          1    1    3    3  502    0  0.23100043242E+02 -0.14866428936E+03  0.50768620651E+03  0.52950917576E+03  0.00000000000E+00 0. -1.
         -2    1    3    3    0  502 -0.39717616115E+00 -0.38844107640E+01 -0.24258793027E+01  0.45968778837E+01  0.00000000000E+00 0.  1.
         11    1    5    5    0    0  0.72570360276E+02  0.12405082221E+03 -0.35487167657E+02  0.14803514025E+03  0.00000000000E+00 0.  1.
        -11    1    5    5    0    0  0.10811618758E+03  0.25667830745E+03  0.52142492144E+02  0.28335790623E+03  0.00000000000E+00 0. -1.
          4    1    6    6  503    0 -0.20596321961E+03 -0.23137993573E+03 -0.71752157460E+01  0.30985320107E+03  0.00000000000E+00 0. -1.
         -4    1    6    6    0  503  0.25738046700E+01  0.31995061979E+01  0.82131444799E+01  0.91824317388E+01  0.00000000000E+00 0.  1.
<mgrwt>
<rscale>  0 0.11732643E+04</rscale>
<asrwt>0</asrwt>
<pdfrwt beam="1">  1        1 0.13903756E+00 0.11732643E+04</pdfrwt>
<pdfrwt beam="2">  1       -4 0.58583166E-01 0.11732643E+04</pdfrwt>
<totfact> 0.24056430E+01</totfact>
</mgrwt>
</event>
<event>
12    4  0.4486176E-008  0.1549298E+04  0.7818608E-02  0.8852316E-01
         -2   -1    0    0    0  501 -0.00000000000E+00  0.00000000000E+00  0.35521801950E+03  0.35521801950E+03  0.00000000000E+00 0.  1.
          1   -1    0    0  501    0  0.00000000000E+00 -0.00000000000E+00 -0.16893309682E+04  0.16893309682E+04  0.00000000000E+00 0. -1.
        -24    2    1    2    0    0 -0.78677944317E+02 -0.14927007132E+03 -0.10263543573E+04  0.10428834391E+04  0.75702231035E+02 0.  0.
        254    2    1    2    0    0  0.78677944317E+02  0.14927007132E+03 -0.30775859141E+03  0.10016655486E+04  0.93816136537E+03 0.  0.
         23    2    4    4    0    0 -0.30240931541E+03 -0.60436740999E+02  0.15733138345E+03  0.35833563948E+03  0.92451460730E+02 0.  0.
         23    2    4    4    0    0  0.38108725973E+03  0.20970681232E+03 -0.46508997485E+03  0.64332990908E+03  0.91434351029E+02 0.  0.
          3    1    3    3  502    0 -0.57587131712E+02 -0.12745534039E+03 -0.95721486088E+03  0.96737863912E+03  0.00000000000E+00 0. -1.
         -4    1    3    3    0  502 -0.21090812606E+02 -0.21814730931E+02 -0.69139496402E+02  0.75504800011E+02  0.00000000000E+00 0.  1.
         11    1    5    5    0    0 -0.16324274966E+02 -0.11004738339E+02  0.41170110556E+02  0.45635120492E+02  0.00000000000E+00 0. -1.
        -11    1    5    5    0    0 -0.28608504044E+03 -0.49432002660E+02  0.11616127289E+03  0.31270051898E+03  0.00000000000E+00 0.  1.
          3    1    6    6  503    0  0.77688357337E+02  0.88464354438E+02 -0.12595573385E+03  0.17241307886E+03  0.00000000000E+00 0. -1.
         -3    1    6    6    0  503  0.30339890239E+03  0.12124245788E+03 -0.33913424100E+03  0.47091683022E+03  0.00000000000E+00 0.  1.
<mgrwt>
<rscale>  0 0.15492976E+04</rscale>
<asrwt>0</asrwt>
<pdfrwt beam="1">  1        1 0.25989708E+00 0.15492976E+04</pdfrwt>
<pdfrwt beam="2">  1       -2 0.54648925E-01 0.15492976E+04</pdfrwt>
<totfact> 0.12913863E+01</totfact>
</mgrwt>
</event>
<event>
12    4  0.4486176E-008  0.1419430E+04  0.7818608E-02  0.8939873E-01
         -2   -1    0    0    0  501 -0.00000000000E+00  0.00000000000E+00  0.45857824637E+03  0.45857824637E+03  0.00000000000E+00 0.  1.
          1   -1    0    0  501    0  0.00000000000E+00 -0.00000000000E+00 -0.10983851410E+04  0.10983851410E+04  0.00000000000E+00 0. -1.
        -24    2    1    2    0    0  0.58089332092E+02  0.12238932910E+03 -0.61815161222E+03  0.63782832470E+03  0.79749844642E+02 0.  0.
        254    2    1    2    0    0 -0.58089332092E+02 -0.12238932910E+03 -0.21655282450E+02  0.91913506271E+03  0.90883815604E+03 0.  0.
         23    2    4    4    0    0 -0.27512754271E+03 -0.10682892763E+03  0.35703172361E+03  0.47293526857E+03  0.95333792867E+02 0.  0.
         23    2    4    4    0    0  0.21703821062E+03 -0.15560401466E+02 -0.37868700606E+03  0.44619979414E+03  0.91338364171E+02 0.  0.
          1    1    3    3  502    0  0.69073378291E+02  0.68478506442E+02 -0.46580067995E+03  0.47584736090E+03  0.00000000000E+00 0. -1.
         -2    1    3    3    0  502 -0.10984046199E+02  0.53910822657E+02 -0.15235093226E+03  0.16198096379E+03  0.00000000000E+00 0.  1.
         11    1    5    5    0    0 -0.19513148998E+03 -0.53797684895E+02  0.17685642258E+03  0.26879115218E+03  0.00000000000E+00 0. -1.
        -11    1    5    5    0    0 -0.79996052731E+02 -0.53031242737E+02  0.18017530103E+03  0.20414411639E+03  0.00000000000E+00 0.  1.
          4    1    6    6  503    0  0.13087637373E+03 -0.50150484014E+01 -0.13762584290E+03  0.18998591670E+03  0.00000000000E+00 0. -1.
         -4    1    6    6    0  503  0.86161836887E+02 -0.10545353065E+02 -0.24106116316E+03  0.25621387744E+03  0.00000000000E+00 0.  1.
<mgrwt>
<rscale>  0 0.14194302E+04</rscale>
<asrwt>0</asrwt>
<pdfrwt beam="1">  1        1 0.16898233E+00 0.14194302E+04</pdfrwt>
<pdfrwt beam="2">  1       -2 0.70550499E-01 0.14194302E+04</pdfrwt>
<totfact> 0.19834997E+01</totfact>
</mgrwt>
</event>
<event>
12    4  0.4486176E-008  0.1420096E+04  0.7818608E-02  0.8939399E-01
          1   -1    0    0  501    0  0.00000000000E+00  0.00000000000E+00  0.13097044227E+04  0.13097044227E+04  0.00000000000E+00 0. -1.
         -2   -1    0    0    0  501 -0.00000000000E+00 -0.00000000000E+00 -0.38494826898E+03  0.38494826898E+03  0.00000000000E+00 0.  1.
        -24    2    1    2    0    0 -0.32683183275E+03 -0.57897498995E+02 -0.27697417396E+02  0.34252622941E+03  0.79911849000E+02 0.  0.
        254    2    1    2    0    0  0.32683183275E+03  0.57897498995E+02  0.95245357107E+03  0.13521264622E+04  0.90050374653E+03 0.  0.
         23    2    4    4    0    0  0.71123975204E+02 -0.19902416984E+03 -0.88211521453E+02  0.24638822027E+03  0.90866069241E+02 0.  0.
         23    2    4    4    0    0  0.25570785755E+03  0.25692166884E+03  0.10406650925E+04  0.11057382420E+04  0.90983364463E+02 0.  0.
          1    1    3    3  502    0 -0.12862575790E+03 -0.19741746729E+02  0.28056936023E+02  0.13312217628E+03  0.00000000000E+00 0. -1.
         -2    1    3    3    0  502 -0.19820607485E+03 -0.38155752266E+02 -0.55754353419E+02  0.20940405313E+03  0.00000000000E+00 0.  1.
         11    1    5    5    0    0  0.71756110167E+02 -0.20379363474E+03 -0.69337614931E+02  0.22691075284E+03  0.00000000000E+00 0. -1.
        -11    1    5    5    0    0 -0.63213496313E+00  0.47694649031E+01 -0.18873906522E+02  0.19477467430E+02  0.00000000000E+00 0.  1.
          2    1    6    6  503    0  0.18546810021E+03  0.22421776473E+03  0.73750933129E+03  0.79283796324E+03  0.00000000000E+00 0. -1.
         -2    1    6    6    0  503  0.70239757342E+02  0.32703904110E+02  0.30315576123E+03  0.31290027872E+03  0.00000000000E+00 0.  1.
<mgrwt>
<rscale>  0 0.14200964E+04</rscale>
<asrwt>0</asrwt>
<pdfrwt beam="1">  1        1 0.20149299E+00 0.14200964E+04</pdfrwt>
<pdfrwt beam="2">  1       -2 0.59222811E-01 0.14200964E+04</pdfrwt>
<totfact> 0.20239588E+01</totfact>
</mgrwt>
</event>
<event>
12    4  0.4486176E-008  0.1260278E+04  0.7818608E-02  0.9061672E-01
         -2   -1    0    0    0  501 -0.00000000000E+00  0.00000000000E+00  0.43265104013E+03  0.43265104013E+03  0.00000000000E+00 0.  1.
          1   -1    0    0  501    0  0.00000000000E+00 -0.00000000000E+00 -0.91777248192E+03  0.91777248192E+03  0.00000000000E+00 0. -1.
        -24    2    1    2    0    0 -0.20967808531E+03 -0.10376084709E+03 -0.29083010954E+03  0.38285231003E+03  0.85220454338E+02 0.  0.
        254    2    1    2    0    0  0.20967808531E+03  0.10376084709E+03 -0.19429133225E+03  0.96757121202E+03  0.91853890266E+03 0.  0.
         23    2    4    4    0    0  0.45511000526E+03  0.33860834689E+03 -0.18137922850E+02  0.57468760928E+03  0.90311320174E+02 0.  0.
         23    2    4    4    0    0 -0.24543191995E+03 -0.23484749980E+03 -0.17615340940E+03  0.39288360274E+03  0.89091672806E+02 0.  0.
          1    1    3    3  502    0 -0.12618100380E+03 -0.17792570135E+02 -0.17222287435E+03  0.21424037837E+03  0.00000000000E+00 0. -1.
         -2    1    3    3    0  502 -0.83497081506E+02 -0.85968276952E+02 -0.11860723519E+03  0.16861193167E+03  0.00000000000E+00 0.  1.
         11    1    5    5    0    0  0.41685134888E+03  0.29692258144E+03 -0.41509098940E+02  0.51346964052E+03  0.00000000000E+00 0.  1.
        -11    1    5    5    0    0  0.38258656374E+02  0.41685765443E+02  0.23371176090E+02  0.61217968767E+02  0.00000000000E+00 0. -1.
          1    1    6    6  503    0 -0.76018425563E+02 -0.36652738646E+02 -0.76017819345E+02  0.11358227473E+03  0.00000000000E+00 0. -1.
         -1    1    6    6    0  503 -0.16941349439E+03 -0.19819476115E+03 -0.10013559005E+03  0.27930132800E+03  0.00000000000E+00 0.  1.
<mgrwt>
<rscale>  0 0.12602781E+04</rscale>
<asrwt>0</asrwt>
<pdfrwt beam="1">  1        1 0.14119576E+00 0.12602781E+04</pdfrwt>
<pdfrwt beam="2">  1       -2 0.66561700E-01 0.12602781E+04</pdfrwt>
<totfact> 0.31528781E+01</totfact>
</mgrwt>
</event>
<event>
12    4  0.4486176E-008  0.1242193E+04  0.7818608E-02  0.9076706E-01
         -4   -1    0    0    0  501 -0.00000000000E+00  0.00000000000E+00  0.27126086579E+03  0.27126086579E+03  0.00000000000E+00 0.  1.
          3   -1    0    0  501    0  0.00000000000E+00 -0.00000000000E+00 -0.14221022427E+04  0.14221022427E+04  0.00000000000E+00 0. -1.
        -24    2    1    2    0    0 -0.16155625617E+03  0.67098779473E+02 -0.56803901258E+03  0.60052879396E+03  0.85812833818E+02 0.  0.
        254    2    1    2    0    0  0.16155625617E+03 -0.67098779473E+02 -0.58280236428E+03  0.10928343145E+04  0.90775854332E+03 0.  0.
         23    2    4    4    0    0  0.76480473358E+01 -0.46004436599E+03 -0.18012421157E+03  0.50241452120E+03  0.90974217291E+02 0.  0.
         23    2    4    4    0    0  0.15390820883E+03  0.39294558652E+03 -0.40267815271E+03  0.59041979328E+03  0.91388549097E+02 0.  0.
          3    1    3    3  502    0 -0.13096789970E+03  0.20796662165E+02 -0.46447085984E+03  0.48303030086E+03  0.00000000000E+00 0. -1.
         -4    1    3    3    0  502 -0.30588356469E+02  0.46302117308E+02 -0.10356815274E+03  0.11749849310E+03  0.00000000000E+00 0.  1.
         11    1    5    5    0    0 -0.71274997570E+01 -0.21264026085E+03 -0.13067403208E+03  0.24968456990E+03  0.00000000000E+00 0.  1.
        -11    1    5    5    0    0  0.14775547093E+02 -0.24740410514E+03 -0.49450179492E+02  0.25272995130E+03  0.00000000000E+00 0. -1.
          3    1    6    6  503    0  0.15651068882E+02  0.15373398601E+02 -0.53700794520E+02  0.58009246451E+02  0.00000000000E+00 0.  1.
         -3    1    6    6    0  503  0.13825713995E+03  0.37757218792E+03 -0.34897735819E+03  0.53241054682E+03  0.00000000000E+00 0. -1.
<mgrwt>
<rscale>  0 0.12421927E+04</rscale>
<asrwt>0</asrwt>
<pdfrwt beam="1">  1        3 0.21878496E+00 0.12421927E+04</pdfrwt>
<pdfrwt beam="2">  1       -4 0.41732442E-01 0.12421927E+04</pdfrwt>
<totfact> 0.14264031E+00</totfact>
</mgrwt>
</event>
<event>
12    4  0.4486176E-008  0.1185751E+04  0.7818608E-02  0.9125421E-01
          1   -1    0    0  501    0  0.00000000000E+00  0.00000000000E+00  0.50255747768E+03  0.50255747768E+03  0.00000000000E+00 0. -1.
         -2   -1    0    0    0  501 -0.00000000000E+00 -0.00000000000E+00 -0.69942502422E+03  0.69942502422E+03  0.00000000000E+00 0.  1.
        -24    2    1    2    0    0  0.61667301236E+02 -0.17755722265E+03  0.11789115435E+03  0.23586842465E+03  0.80038528948E+02 0.  0.
        254    2    1    2    0    0 -0.61667301236E+02  0.17755722265E+03 -0.31475870089E+03  0.96611407725E+03  0.89385342597E+03 0.  0.
         23    2    4    4    0    0  0.53260213427E+02 -0.26531498931E+03  0.13730150959E+03  0.31647989411E+03  0.89883952688E+02 0.  0.
         23    2    4    4    0    0 -0.11492751466E+03  0.44287221197E+03 -0.45206021048E+03  0.64963418314E+03  0.91225041818E+02 0.  0.
          1    1    3    3  502    0  0.41223357744E+02 -0.13313785109E+03  0.12405029693E+03  0.18658383849E+03  0.00000000000E+00 0. -1.
         -2    1    3    3    0  502  0.20443943491E+02 -0.44419371564E+02 -0.61591425874E+01  0.49284586161E+02  0.00000000000E+00 0.  1.
         11    1    5    5    0    0  0.25788527208E+02 -0.93410882845E+01  0.17419233657E+02  0.32492056984E+02  0.00000000000E+00 0. -1.
        -11    1    5    5    0    0  0.27471686219E+02 -0.25597390103E+03  0.11988227593E+03  0.28398783712E+03  0.00000000000E+00 0.  1.
          1    1    6    6  503    0  0.19127206767E+01  0.56126685703E+01 -0.30660967368E+02  0.31229080499E+02  0.00000000000E+00 0. -1.
         -1    1    6    6    0  503 -0.11684023534E+03  0.43725954339E+03 -0.42139924311E+03  0.61840510265E+03  0.00000000000E+00 0.  1.
<mgrwt>
<rscale>  0 0.11857509E+04</rscale>
<asrwt>0</asrwt>
<pdfrwt beam="1">  1        1 0.77316535E-01 0.11857509E+04</pdfrwt>
<pdfrwt beam="2">  1       -2 0.10760385E+00 0.11857509E+04</pdfrwt>
<totfact> 0.26422186E+01</totfact>
</mgrwt>
</event>
<event>
12    4  0.4486176E-008  0.1451414E+04  0.7818608E-02  0.8917421E-01
         -2   -1    0    0    0  501 -0.00000000000E+00  0.00000000000E+00  0.40603977679E+03  0.40603977679E+03  0.00000000000E+00 0.  1.
          1   -1    0    0  501    0  0.00000000000E+00 -0.00000000000E+00 -0.12970424168E+04  0.12970424168E+04  0.00000000000E+00 0. -1.
        -24    2    1    2    0    0  0.80663007783E+02 -0.39340745901E+03 -0.49670860779E+03  0.64371064967E+03  0.79799810888E+02 0.  0.
        254    2    1    2    0    0 -0.80663007783E+02  0.39340745901E+03 -0.39429403225E+03  0.10593715440E+04  0.89751007496E+03 0.  0.
         23    2    4    4    0    0 -0.41508003915E+02 -0.99692732233E+02 -0.52223181425E+03  0.54099465854E+03  0.91036242814E+02 0.  0.
         23    2    4    4    0    0 -0.39155003868E+02  0.49310019124E+03  0.12793778200E+03  0.51837688542E+03  0.87553448502E+02 0.  0.
          3    1    3    3  502    0  0.58729129802E+02 -0.33575861265E+03 -0.37177449909E+03  0.50438005000E+03  0.00000000000E+00 0. -1.
         -4    1    3    3    0  502  0.21933877981E+02 -0.57648846351E+02 -0.12493410870E+03  0.13933059967E+03  0.00000000000E+00 0.  1.
         11    1    5    5    0    0 -0.62297130113E+01 -0.10389203008E+02 -0.28234455671E+03  0.28260430564E+03  0.00000000000E+00 0.  1.
        -11    1    5    5    0    0 -0.35278290904E+02 -0.89303529225E+02 -0.23988725753E+03  0.25839035289E+03  0.00000000000E+00 0. -1.
          3    1    6    6  503    0 -0.47664817233E+01  0.11822136848E+03 -0.68647063375E+01  0.11851639341E+03  0.00000000000E+00 0. -1.
         -3    1    6    6    0  503 -0.34388522144E+02  0.37487882276E+03  0.13480248834E+03  0.39986049201E+03  0.00000000000E+00 0.  1.
<mgrwt>
<rscale>  0 0.14514142E+04</rscale>
<asrwt>0</asrwt>
<pdfrwt beam="1">  1        1 0.19954498E+00 0.14514142E+04</pdfrwt>
<pdfrwt beam="2">  1       -2 0.62467659E-01 0.14514142E+04</pdfrwt>
<totfact> 0.18407585E+01</totfact>
</mgrwt>
</event>
<event>
12    4  0.4486176E-008  0.1473569E+04  0.7818608E-02  0.8902222E-01
         -2   -1    0    0    0  501 -0.00000000000E+00  0.00000000000E+00  0.72848376181E+03  0.72848376181E+03  0.00000000000E+00 0.  1.
          1   -1    0    0  501    0  0.00000000000E+00 -0.00000000000E+00 -0.74517947921E+03  0.74517947921E+03  0.00000000000E+00 0. -1.
        -24    2    1    2    0    0  0.31666029295E+03 -0.74517414755E+02 -0.33209571634E+03  0.47156367473E+03  0.79108458960E+02 0.  0.
        254    2    1    2    0    0 -0.31666029295E+03  0.74517414755E+02  0.31539999894E+03  0.10020995663E+04  0.89381194622E+03 0.  0.
         23    2    4    4    0    0  0.71221132055E+02 -0.43985362357E+01 -0.26801986384E+03  0.29190600842E+03  0.91009194963E+02 0.  0.
         23    2    4    4    0    0 -0.38788142501E+03  0.78915950991E+02  0.58341986278E+03  0.71019355788E+03  0.85536110357E+02 0.  0.
          1    1    3    3  502    0  0.19789140762E+03 -0.22725376790E+02 -0.24352516538E+03  0.31461398273E+03  0.00000000000E+00 0. -1.
         -4    1    3    3    0  502  0.11876888534E+03 -0.51792037965E+02 -0.88570550966E+02  0.15694969200E+03  0.00000000000E+00 0.  1.
         11    1    5    5    0    0 -0.77709292546E+01 -0.29459571125E+02 -0.48629699454E+02  0.57385549935E+02  0.00000000000E+00 0.  1.
        -11    1    5    5    0    0  0.78992061310E+02  0.25061034889E+02 -0.21939016438E+03  0.23452045848E+03  0.00000000000E+00 0. -1.
          3    1    6    6  503    0 -0.11322074582E+03 -0.10993002805E+02  0.13276753684E+03  0.17483421357E+03  0.00000000000E+00 0. -1.
         -3    1    6    6    0  503 -0.27466067919E+03  0.89908953796E+02  0.45065232593E+03  0.53535934431E+03  0.00000000000E+00 0.  1.
<mgrwt>
<rscale>  0 0.14735687E+04</rscale>
<asrwt>0</asrwt>
<pdfrwt beam="1">  1        1 0.11464300E+00 0.14735687E+04</pdfrwt>
<pdfrwt beam="2">  1       -2 0.11207442E+00 0.14735687E+04</pdfrwt>
<totfact> 0.13187445E+01</totfact>
</mgrwt>
</event>
<event>
12    4  0.4486176E-008  0.1818346E+04  0.7818608E-02  0.8696604E-01
         -2   -1    0    0    0  501 -0.00000000000E+00  0.00000000000E+00  0.39955705957E+03  0.39955705957E+03  0.00000000000E+00 0.  1.
          1   -1    0    0  501    0  0.00000000000E+00 -0.00000000000E+00 -0.20687786259E+04  0.20687786259E+04  0.00000000000E+00 0. -1.
        -24    2    1    2    0    0  0.41700911406E+03  0.79777085614E+02  0.92176312672E+02  0.44158952892E+03  0.79018066483E+02 0.  0.
        254    2    1    2    0    0 -0.41700911406E+03 -0.79777085614E+02 -0.17613978790E+04  0.20267461566E+04  0.90824914553E+03 0.  0.
         23    2    4    4    0    0  0.21782973598E+03 -0.45030692964E+02 -0.13076077007E+03  0.27423910847E+03  0.92903995809E+02 0.  0.
         23    2    4    4    0    0 -0.63483885004E+03 -0.34746392650E+02 -0.16306371090E+04  0.17525070481E+04  0.89865984942E+02 0.  0.
          1    1    3    3  502    0  0.57463590481E+02 -0.13552358931E+02  0.75982654837E+00  0.59044965915E+02  0.00000000000E+00 0. -1.
         -2    1    3    3    0  502  0.35954552358E+03  0.93329444545E+02  0.91416486123E+02  0.38254456300E+03  0.00000000000E+00 0.  1.
         11    1    5    5    0    0  0.39340202469E+02  0.27865910972E+02 -0.24018497369E+02  0.53861384502E+02  0.00000000000E+00 0. -1.
        -11    1    5    5    0    0  0.17848953351E+03 -0.72896603936E+02 -0.10674227270E+03  0.22037772396E+03  0.00000000000E+00 0.  1.
          3    1    6    6  503    0 -0.62877700188E+02 -0.86397902997E+01 -0.24836274181E+03  0.25634410990E+03  0.00000000000E+00 0. -1.
         -3    1    6    6    0  503 -0.57196114985E+03 -0.26106602350E+02 -0.13822743671E+04  0.14961629382E+04  0.00000000000E+00 0.  1.
<mgrwt>
<rscale>  0 0.18183455E+04</rscale>
<asrwt>0</asrwt>
<pdfrwt beam="1">  1        1 0.31827364E+00 0.18183455E+04</pdfrwt>
<pdfrwt beam="2">  1       -2 0.61470317E-01 0.18183455E+04</pdfrwt>
<totfact> 0.54477586E+00</totfact>
</mgrwt>
</event>
<event>
12    4  0.4486176E-008  0.2104717E+04  0.7818608E-02  0.8559169E-01
         -2   -1    0    0    0  501 -0.00000000000E+00  0.00000000000E+00  0.11594660129E+04  0.11594660129E+04  0.00000000000E+00 0.  1.
          1   -1    0    0  501    0  0.00000000000E+00 -0.00000000000E+00 -0.95514482574E+03  0.95514482574E+03  0.00000000000E+00 0. -1.
        -24    2    1    2    0    0 -0.25941216229E+03  0.27999310376E+03  0.82094554039E+03  0.90876634538E+03  0.78828180919E+02 0.  0.
        254    2    1    2    0    0  0.25941216229E+03 -0.27999310376E+03 -0.61662435328E+03  0.12058444932E+04  0.96340258495E+03 0.  0.
         23    2    4    4    0    0  0.45369269235E+03  0.18947037677E+03 -0.18296796904E+03  0.53184465548E+03  0.87437847077E+02 0.  0.
         23    2    4    4    0    0 -0.19428053007E+03 -0.46946348052E+03 -0.43365638424E+03  0.67399983774E+03  0.89872341539E+02 0.  0.
          1    1    3    3  502    0 -0.11105121720E+03  0.65518751843E+02  0.26692007035E+03  0.29643111113E+03  0.00000000000E+00 0. -1.
         -2    1    3    3    0  502 -0.14836094508E+03  0.21447435191E+03  0.55402547004E+03  0.61233523425E+03  0.00000000000E+00 0.  1.
         11    1    5    5    0    0  0.11835000459E+03  0.98749338497E+01 -0.36955574279E+02  0.12437826328E+03  0.00000000000E+00 0.  1.
        -11    1    5    5    0    0  0.33534268776E+03  0.17959544292E+03 -0.14601239476E+03  0.40746639220E+03  0.00000000000E+00 0. -1.
          1    1    6    6  503    0 -0.10475864049E+03 -0.34219069976E+03 -0.27098148639E+03  0.44888730627E+03  0.00000000000E+00 0. -1.
         -1    1    6    6    0  503 -0.89521889574E+02 -0.12727278076E+03 -0.16267489785E+03  0.22511253147E+03  0.00000000000E+00 0.  1.
<mgrwt>
<rscale>  0 0.21047166E+04</rscale>
<asrwt>0</asrwt>
<pdfrwt beam="1">  1        1 0.14694536E+00 0.21047166E+04</pdfrwt>
<pdfrwt beam="2">  1       -2 0.17837939E+00 0.21047166E+04</pdfrwt>
<totfact> 0.24615552E+00</totfact>
</mgrwt>
</event>
<event>
12    4  0.4486176E-008  0.1299870E+04  0.7818608E-02  0.9029668E-01
         -2   -1    0    0    0  501 -0.00000000000E+00  0.00000000000E+00  0.64697452146E+03  0.64697452146E+03  0.00000000000E+00 0.  1.
          1   -1    0    0  501    0  0.00000000000E+00 -0.00000000000E+00 -0.65290875841E+03  0.65290875841E+03  0.00000000000E+00 0. -1.
        -24    2    1    2    0    0 -0.13486171251E+03  0.77317852297E+02 -0.29740329305E+03  0.34458921053E+03  0.78276902800E+02 0.  0.
        254    2    1    2    0    0  0.13486171251E+03 -0.77317852297E+02  0.29146905610E+03  0.95529406934E+03  0.89636310526E+03 0.  0.
         23    2    4    4    0    0 -0.83055825579E+02  0.25228685569E+03  0.44123011194E+03  0.52306424656E+03  0.91461831537E+02 0.  0.
         23    2    4    4    0    0  0.21791753809E+03 -0.32960470799E+03 -0.14976105584E+03  0.43222982278E+03  0.90922653469E+02 0.  0.
          3    1    3    3  502    0 -0.89944386843E+02  0.83887139935E+02 -0.25185711429E+03  0.28028387572E+03  0.00000000000E+00 0. -1.
         -4    1    3    3    0  502 -0.44917325670E+02 -0.65692876381E+01 -0.45546178760E+02  0.64305334810E+02  0.00000000000E+00 0.  1.
         11    1    5    5    0    0 -0.61979870855E+02  0.23747133154E+03  0.42967768990E+03  0.49483032939E+03  0.00000000000E+00 0. -1.
        -11    1    5    5    0    0 -0.21075954724E+02  0.14815524154E+02  0.11552422047E+02  0.28233917167E+02  0.00000000000E+00 0.  1.
          2    1    6    6  503    0  0.20491879371E+03 -0.33100693598E+03 -0.15374398581E+03  0.41856244080E+03  0.00000000000E+00 0. -1.
         -2    1    6    6    0  503  0.12998744385E+02  0.14022279850E+01  0.39829299680E+01  0.13667381975E+02  0.00000000000E+00 0.  1.
<mgrwt>
<rscale>  0 0.12998697E+04</rscale>
<asrwt>0</asrwt>
<pdfrwt beam="1">  1        1 0.10044750E+00 0.12998697E+04</pdfrwt>
<pdfrwt beam="2">  1       -2 0.99534542E-01 0.12998697E+04</pdfrwt>
<totfact> 0.21736374E+01</totfact>
</mgrwt>
</event>
<event>
12    4  0.4486176E-008  0.2242643E+04  0.7818608E-02  0.8500886E-01
          1   -1    0    0  501    0  0.00000000000E+00  0.00000000000E+00  0.21903534429E+04  0.21903534429E+04  0.00000000000E+00 0. -1.
         -2   -1    0    0    0  501 -0.00000000000E+00 -0.00000000000E+00 -0.57404532381E+03  0.57404532381E+03  0.00000000000E+00 0.  1.
        -24    2    1    2    0    0 -0.20671534328E+03  0.47337972373E+02 -0.44810650312E+03  0.50183041420E+03  0.77860193297E+02 0.  0.
        254    2    1    2    0    0  0.20671534328E+03 -0.47337972373E+02  0.20644146222E+04  0.22625683526E+04  0.90135215130E+03 0.  0.
         23    2    4    4    0    0 -0.22015466672E+03 -0.11328355145E+03  0.15985240926E+04  0.16201728006E+04  0.91539001468E+02 0.  0.
         23    2    4    4    0    0  0.42687001000E+03  0.65945579078E+02  0.46589052963E+03  0.64239555197E+03  0.95137977423E+02 0.  0.
          3    1    3    3  502    0  0.15802937594E+01  0.44327671223E+01  0.10930025160E+01  0.48312945704E+01  0.00000000000E+00 0. -1.
         -4    1    3    3    0  502 -0.20829563704E+03  0.42905205251E+02 -0.44919950564E+03  0.49699911963E+03  0.00000000000E+00 0.  1.
         11    1    5    5    0    0 -0.48185070844E+02 -0.71663587051E+02  0.47113696757E+03  0.47898592148E+03  0.00000000000E+00 0. -1.
        -11    1    5    5    0    0 -0.17196959587E+03 -0.41619964401E+02  0.11273871250E+04  0.11411868791E+04  0.00000000000E+00 0.  1.
          3    1    6    6  503    0  0.29848445410E+03  0.85704837931E+02  0.30094130326E+03  0.43243954097E+03  0.00000000000E+00 0.  1.
         -3    1    6    6    0  503  0.12838555590E+03 -0.19759258852E+02  0.16494922637E+03  0.20995601100E+03  0.00000000000E+00 0. -1.
<mgrwt>
<rscale>  0 0.22426432E+04</rscale>
<asrwt>0</asrwt>
<pdfrwt beam="1">  1        1 0.33697745E+00 0.22426432E+04</pdfrwt>
<pdfrwt beam="2">  1       -2 0.88314666E-01 0.22426432E+04</pdfrwt>
<totfact> 0.19484260E+00</totfact>
</mgrwt>
</event>
<event>
12    4  0.4486176E-008  0.1157995E+04  0.7818608E-02  0.9150440E-01
          1   -1    0    0  501    0  0.00000000000E+00  0.00000000000E+00  0.50955519106E+03  0.50955519106E+03  0.00000000000E+00 0. -1.
         -2   -1    0    0    0  501 -0.00000000000E+00 -0.00000000000E+00 -0.65790322330E+03  0.65790322330E+03  0.00000000000E+00 0.  1.
        -24    2    1    2    0    0 -0.21688294564E+03  0.10074064847E+03 -0.22989358757E+02  0.25313540233E+03  0.79762967185E+02 0.  0.
        254    2    1    2    0    0  0.21688294564E+03 -0.10074064847E+03 -0.12535867349E+03  0.91432301203E+03  0.87354729863E+03 0.  0.
         23    2    4    4    0    0  0.41905632596E+03 -0.98991887646E+02 -0.37667265581E+03  0.57930974542E+03  0.91158616427E+02 0.  0.
         23    2    4    4    0    0 -0.20217338032E+03 -0.17487608215E+01  0.25131398233E+03  0.33501326662E+03  0.90543013102E+02 0.  0.
          1    1    3    3  502    0 -0.15994023298E+03  0.73980346271E+02  0.19377168474E+02  0.17728351423E+03  0.00000000000E+00 0. -1.
         -2    1    3    3    0  502 -0.56942712658E+02  0.26760302196E+02 -0.42366527231E+02  0.75851888098E+02  0.00000000000E+00 0.  1.
         11    1    5    5    0    0  0.32148851399E+03 -0.86746142138E+02 -0.33553195401E+03  0.47271709294E+03  0.00000000000E+00 0. -1.
        -11    1    5    5    0    0  0.97567811969E+02 -0.12245745508E+02 -0.41140701810E+02  0.10659265247E+03  0.00000000000E+00 0.  1.
          1    1    6    6  503    0 -0.10541562079E+03 -0.38757681489E+01  0.19842883888E+03  0.22472534077E+03  0.00000000000E+00 0. -1.
         -1    1    6    6    0  503 -0.96757759531E+02  0.21270073275E+01  0.52885143442E+02  0.11028792584E+03  0.00000000000E+00 0.  1.
<mgrwt>
<rscale>  0 0.11579948E+04</rscale>
<asrwt>0</asrwt>
<pdfrwt beam="1">  1        1 0.78393106E-01 0.11579948E+04</pdfrwt>
<pdfrwt beam="2">  1       -2 0.10121588E+00 0.11579948E+04</pdfrwt>
<totfact> 0.30084453E+01</totfact>
</mgrwt>
</event>
<event>
12    4  0.4486176E-008  0.1370237E+04  0.7818608E-02  0.8975649E-01
         -2   -1    0    0    0  501 -0.00000000000E+00  0.00000000000E+00  0.51623423710E+03  0.51623423710E+03  0.00000000000E+00 0.  1.
          1   -1    0    0  501    0  0.00000000000E+00 -0.00000000000E+00 -0.90925204256E+03  0.90925204256E+03  0.00000000000E+00 0. -1.
        -24    2    1    2    0    0  0.22275628569E+03 -0.30126833486E+03 -0.21629829998E+03  0.44008183085E+03  0.80647943951E+02 0.  0.
        254    2    1    2    0    0 -0.22275628569E+03  0.30126833486E+03 -0.17671950548E+03  0.98540444881E+03  0.89409684694E+03 0.  0.
         23    2    4    4    0    0 -0.47279507988E+03  0.41174386217E+03 -0.26353027564E+03  0.68592038425E+03  0.89276938503E+02 0.  0.
         23    2    4    4    0    0  0.25003879419E+03 -0.11047552731E+03  0.86810770156E+02  0.29948406456E+03  0.86199503330E+02 0.  0.
          3    1    3    3  502    0  0.21626650035E+03 -0.29605049308E+03 -0.19089750142E+03  0.41335087961E+03  0.00000000000E+00 0. -1.
         -2    1    3    3    0  502  0.64897853415E+01 -0.52178417786E+01 -0.25400798556E+02  0.26730951234E+02  0.00000000000E+00 0.  1.
         11    1    5    5    0    0 -0.42385456499E+03  0.36514907064E+03 -0.20282603608E+03  0.59508397472E+03  0.00000000000E+00 0.  1.
        -11    1    5    5    0    0 -0.48940514891E+02  0.46594791527E+02 -0.60704239556E+02  0.90836409525E+02  0.00000000000E+00 0. -1.
          1    1    6    6  503    0  0.74380163562E+02 -0.21715501299E+02  0.65616801142E+02  0.10153588686E+03  0.00000000000E+00 0. -1.
         -1    1    6    6    0  503  0.17565863063E+03 -0.88760026008E+02  0.21193969015E+02  0.19794817770E+03  0.00000000000E+00 0.  1.
<mgrwt>
<rscale>  0 0.13702365E+04</rscale>
<asrwt>0</asrwt>
<pdfrwt beam="1">  1        1 0.13988493E+00 0.13702365E+04</pdfrwt>
<pdfrwt beam="2">  1       -2 0.79420652E-01 0.13702365E+04</pdfrwt>
<totfact> 0.21523285E+01</totfact>
</mgrwt>
</event>
<event>
12    4  0.4486176E-008  0.1311598E+04  0.7818608E-02  0.9020418E-01
          1   -1    0    0  501    0  0.00000000000E+00  0.00000000000E+00  0.18077039627E+04  0.18077039627E+04  0.00000000000E+00 0. -1.
         -2   -1    0    0    0  501 -0.00000000000E+00 -0.00000000000E+00 -0.23791087159E+03  0.23791087159E+03  0.00000000000E+00 0.  1.
        -24    2    1    2    0    0 -0.22685500233E+02 -0.18024589282E+03  0.80869003259E+03  0.83263832172E+03  0.79396424291E+02 0.  0.
        254    2    1    2    0    0  0.22685500233E+02  0.18024589282E+03  0.76110305849E+03  0.12129765125E+04  0.92683922043E+03 0.  0.
         23    2    4    4    0    0  0.32781943004E+03 -0.20328719308E+03  0.53397105942E+03  0.66488941853E+03  0.90341491011E+02 0.  0.
         23    2    4    4    0    0 -0.30513392980E+03  0.38353308590E+03  0.22713199907E+03  0.54808709401E+03  0.92769469759E+02 0.  0.
          3    1    3    3  502    0 -0.47252916563E+02 -0.15852396972E+03  0.66781230234E+03  0.68799415568E+03  0.00000000000E+00 0. -1.
         -4    1    3    3    0  502  0.24567416330E+02 -0.21721923102E+02  0.14087773025E+03  0.14464416604E+03  0.00000000000E+00 0.  1.
         11    1    5    5    0    0  0.49877437864E+02 -0.48322983557E+01  0.38848875994E+02  0.63406191190E+02  0.00000000000E+00 0.  1.
        -11    1    5    5    0    0  0.27794199217E+03 -0.19845489472E+03  0.49512218343E+03  0.60148322734E+03  0.00000000000E+00 0. -1.
          1    1    6    6  503    0 -0.25499225651E+03  0.34776927768E+03  0.16829987274E+03  0.46291399692E+03  0.00000000000E+00 0. -1.
         -1    1    6    6    0  503 -0.50141673299E+02  0.35763808213E+02  0.58832126329E+02  0.85173097088E+02  0.00000000000E+00 0.  1.
<mgrwt>
<rscale>  0 0.13115981E+04</rscale>
<asrwt>0</asrwt>
<pdfrwt beam="1">  1        1 0.27810829E+00 0.13115981E+04</pdfrwt>
<pdfrwt beam="2">  1       -2 0.36601674E-01 0.13115981E+04</pdfrwt>
<totfact> 0.24392139E+01</totfact>
</mgrwt>
</event>
<event>
12    4  0.4486176E-008  0.1637523E+04  0.7818608E-02  0.8797822E-01
         -2   -1    0    0    0  501 -0.00000000000E+00  0.00000000000E+00  0.52529434083E+03  0.52529434083E+03  0.00000000000E+00 0.  1.
          1   -1    0    0  501    0  0.00000000000E+00 -0.00000000000E+00 -0.12761804979E+04  0.12761804979E+04  0.00000000000E+00 0. -1.
        -24    2    1    2    0    0 -0.31845987419E+03  0.32804257013E+03 -0.62897085370E+03  0.78162719639E+03  0.79423674259E+02 0.  0.
        254    2    1    2    0    0  0.31845987419E+03 -0.32804257013E+03 -0.12191530336E+03  0.10198476423E+04  0.90343635809E+03 0.  0.
         23    2    4    4    0    0  0.23148326600E+03 -0.33606503637E+03 -0.48226508068E+03  0.63826729405E+03  0.91001755524E+02 0.  0.
         23    2    4    4    0    0  0.86976608195E+02  0.80224662382E+01  0.36034977731E+03  0.38158034830E+03  0.90123858428E+02 0.  0.
          3    1    3    3  502    0 -0.31931879877E+03  0.32742609434E+03 -0.63101366338E+03  0.77932700831E+03  0.00000000000E+00 0. -1.
         -4    1    3    3    0  502  0.85892457404E+00  0.61647578615E+00  0.20428096775E+01  0.23001880787E+01  0.00000000000E+00 0.  1.
         11    1    5    5    0    0 -0.42558900730E+01 -0.16527348919E+02 -0.57926596995E+01  0.18022784718E+02  0.00000000000E+00 0. -1.
        -11    1    5    5    0    0  0.23573915607E+03 -0.31953768745E+03 -0.47647242098E+03  0.62024450933E+03  0.00000000000E+00 0.  1.
          1    1    6    6  503    0  0.57778099881E+02  0.53901709262E+00  0.75164888224E+02  0.94806960646E+02  0.00000000000E+00 0. -1.
         -1    1    6    6    0  503  0.29198508314E+02  0.74834491456E+01  0.28518488909E+03  0.28677338765E+03  0.00000000000E+00 0.  1.
<mgrwt>
<rscale>  0 0.16375230E+04</rscale>
<asrwt>0</asrwt>
<pdfrwt beam="1">  1        1 0.19633546E+00 0.16375230E+04</pdfrwt>
<pdfrwt beam="2">  1       -2 0.80814515E-01 0.16375230E+04</pdfrwt>
<totfact> 0.10666845E+01</totfact>
</mgrwt>
</event>
<event>
12    4  0.4486176E-008  0.1935959E+04  0.7818608E-02  0.8637161E-01
         -2   -1    0    0    0  501 -0.00000000000E+00  0.00000000000E+00  0.13927516094E+04  0.13927516094E+04  0.00000000000E+00 0.  1.
          1   -1    0    0  501    0  0.00000000000E+00 -0.00000000000E+00 -0.67275776838E+03  0.67275776838E+03  0.00000000000E+00 0. -1.
        -24    2    1    2    0    0  0.40623016949E+03 -0.41303109055E+03  0.80529415260E+03  0.99463692058E+03  0.72015964961E+02 0.  0.
        254    2    1    2    0    0 -0.40623016949E+03  0.41303109055E+03 -0.85300311580E+02  0.10708724572E+04  0.89659023196E+03 0.  0.
         23    2    4    4    0    0 -0.96641230052E+02 -0.17375820238E+03  0.24216375267E+03  0.32547112940E+03  0.88072315332E+02 0.  0.
         23    2    4    4    0    0 -0.30958893944E+03  0.58678929293E+03 -0.32746406425E+03  0.74540132779E+03  0.90683186829E+02 0.  0.
          1    1    3    3  502    0  0.51867745948E+02 -0.89291108379E+02  0.15942767286E+03  0.18994827711E+03  0.00000000000E+00 0. -1.
         -2    1    3    3    0  502  0.35436242354E+03 -0.32373998217E+03  0.64586647974E+03  0.80468864347E+03  0.00000000000E+00 0.  1.
         11    1    5    5    0    0 -0.26580784747E+02 -0.20524845062E+02  0.41247027577E+01  0.33835196991E+02  0.00000000000E+00 0.  1.
        -11    1    5    5    0    0 -0.70060445305E+02 -0.15323335732E+03  0.23803904991E+03  0.29163593241E+03  0.00000000000E+00 0. -1.
          3    1    6    6  503    0 -0.23901390870E+03  0.40131673655E+03 -0.19142597145E+03  0.50480359956E+03  0.00000000000E+00 0. -1.
         -3    1    6    6    0  503 -0.70575030735E+02  0.18547255639E+03 -0.13603809280E+03  0.24059772823E+03  0.00000000000E+00 0.  1.
<mgrwt>
<rscale>  0 0.19359592E+04</rscale>
<asrwt>0</asrwt>
<pdfrwt beam="1">  1        1 0.10350120E+00 0.19359592E+04</pdfrwt>
<pdfrwt beam="2">  1       -2 0.21426948E+00 0.19359592E+04</pdfrwt>
<totfact> 0.25391092E+00</totfact>
</mgrwt>
</event>
<event>
12    4  0.4486176E-008  0.3791431E+04  0.7818608E-02  0.8047996E-01
         -2   -1    0    0    0  501 -0.00000000000E+00  0.00000000000E+00  0.19632933960E+04  0.19632933960E+04  0.00000000000E+00 0.  1.
          1   -1    0    0  501    0  0.00000000000E+00 -0.00000000000E+00 -0.18304639208E+04  0.18304639208E+04  0.00000000000E+00 0. -1.
        -24    2    1    2    0    0  0.90041319469E+03  0.88044051947E+03  0.13398226049E+04  0.18404566515E+04  0.78972425568E+02 0.  0.
        254    2    1    2    0    0 -0.90041319469E+03 -0.88044051947E+03 -0.12069931298E+04  0.19533006653E+04  0.87899467815E+03 0.  0.
         23    2    4    4    0    0 -0.50220384334E+03 -0.53538597062E+03 -0.12991693437E+03  0.75075036298E+03  0.88886781178E+02 0.  0.
         23    2    4    4    0    0 -0.39820935135E+03 -0.34505454885E+03 -0.10770761954E+04  0.12025503023E+04  0.91655712999E+02 0.  0.
          1    1    3    3  502    0  0.98340410031E+02  0.10432379466E+03  0.19010849463E+03  0.23810823192E+03  0.00000000000E+00 0. -1.
         -2    1    3    3    0  502  0.80207278466E+03  0.77611672481E+03  0.11497141103E+04  0.16023484196E+04  0.00000000000E+00 0.  1.
         11    1    5    5    0    0 -0.26786667902E+02 -0.64465070487E+02 -0.19965748037E+02  0.72607864484E+02  0.00000000000E+00 0.  1.
        -11    1    5    5    0    0 -0.47541717544E+03 -0.47092090013E+03 -0.10995118633E+03  0.67814249849E+03  0.00000000000E+00 0. -1.
          3    1    6    6  503    0 -0.35387281456E+03 -0.29361639685E+03 -0.99434373807E+03  0.10955163289E+04  0.00000000000E+00 0. -1.
         -3    1    6    6    0  503 -0.44336536789E+02 -0.51438151999E+02 -0.82732457309E+02  0.10703397343E+03  0.00000000000E+00 0.  1.
<mgrwt>
<rscale>  0 0.37914312E+04</rscale>
<asrwt>0</asrwt>
<pdfrwt beam="1">  1        1 0.28160983E+00 0.37914312E+04</pdfrwt>
<pdfrwt beam="2">  1       -2 0.30204514E+00 0.37914312E+04</pdfrwt>
<totfact> 0.83925277E-02</totfact>
</mgrwt>
</event>
<event>
12    4  0.4486176E-008  0.1245723E+04  0.7818608E-02  0.9073750E-01
         -2   -1    0    0    0  501 -0.00000000000E+00  0.00000000000E+00  0.71914859815E+03  0.71914859815E+03  0.00000000000E+00 0.  1.
          1   -1    0    0  501    0  0.00000000000E+00 -0.00000000000E+00 -0.53946635317E+03  0.53946635317E+03  0.00000000000E+00 0. -1.
        -24    2    1    2    0    0  0.35421715121E+02  0.60166957305E+02  0.33626095629E+03  0.35515968946E+03  0.90510848180E+02 0.  0.
        254    2    1    2    0    0 -0.35421715121E+02 -0.60166957305E+02 -0.15657871131E+03  0.90345526186E+03  0.88703988450E+03 0.  0.
         23    2    4    4    0    0 -0.37529959088E+03 -0.19358174408E+03 -0.27154945227E+03  0.50958335300E+03  0.87249149419E+02 0.  0.
         23    2    4    4    0    0  0.33987787576E+03  0.13341478677E+03  0.11497074096E+03  0.39387190885E+03  0.92737983307E+02 0.  0.
          3    1    3    3  502    0 -0.14311529250E+02  0.43797767551E+02  0.70027578605E+02  0.83826762297E+02  0.00000000000E+00 0. -1.
         -4    1    3    3    0  502  0.49733244370E+02  0.16369189754E+02  0.26623337769E+03  0.27133292716E+03  0.00000000000E+00 0.  1.
         11    1    5    5    0    0 -0.16607978147E+03 -0.12644754680E+03 -0.10367696920E+03  0.23306735045E+03  0.00000000000E+00 0. -1.
        -11    1    5    5    0    0 -0.20921980941E+03 -0.67134197278E+02 -0.16787248307E+03  0.27651600255E+03  0.00000000000E+00 0.  1.
          2    1    6    6  503    0  0.10910573912E+03  0.49874815335E+02 -0.62751443934E+01  0.12012883480E+03  0.00000000000E+00 0. -1.
         -2    1    6    6    0  503  0.23077213663E+03  0.83539971438E+02  0.12124588535E+03  0.27374307405E+03  0.00000000000E+00 0.  1.
<mgrwt>
<rscale>  0 0.12457230E+04</rscale>
<asrwt>0</asrwt>
<pdfrwt beam="1">  1        1 0.82994823E-01 0.12457230E+04</pdfrwt>
<pdfrwt beam="2">  1       -2 0.11063825E+00 0.12457230E+04</pdfrwt>
<totfact> 0.22284356E+01</totfact>
</mgrwt>
</event>
<event>
12    4  0.4486176E-008  0.1317161E+04  0.7818608E-02  0.9016066E-01
          1   -1    0    0  501    0  0.00000000000E+00  0.00000000000E+00  0.15922829444E+04  0.15922829444E+04  0.00000000000E+00 0. -1.
         -2   -1    0    0    0  501 -0.00000000000E+00 -0.00000000000E+00 -0.27239409882E+03  0.27239409882E+03  0.00000000000E+00 0.  1.
        -24    2    1    2    0    0 -0.10693657229E+03 -0.16748264570E+03  0.78277907094E+03  0.81167940153E+03  0.81206587590E+02 0.  0.
        254    2    1    2    0    0  0.10693657229E+03  0.16748264570E+03  0.53710977461E+03  0.10529976417E+04  0.88364656751E+03 0.  0.
         23    2    4    4    0    0  0.15667638077E+03  0.51222731496E+03  0.28148174983E+03  0.61183287043E+03  0.90460905211E+02 0.  0.
         23    2    4    4    0    0 -0.49739808478E+02 -0.34474466926E+03  0.25562802478E+03  0.44116477124E+03  0.89206125319E+02 0.  0.
          3    1    3    3  502    0 -0.11015875119E+03 -0.12669876858E+03  0.54064663372E+03  0.56611510400E+03  0.00000000000E+00 0. -1.
         -4    1    3    3    0  502  0.32221788955E+01 -0.40783877124E+02  0.24213243721E+03  0.24556429753E+03  0.00000000000E+00 0.  1.
         11    1    5    5    0    0  0.36004616723E+02  0.12820895914E+03  0.11602482232E+03  0.17662284400E+03  0.00000000000E+00 0. -1.
        -11    1    5    5    0    0  0.12067176405E+03  0.38401835582E+03  0.16545692751E+03  0.43521002643E+03  0.00000000000E+00 0.  1.
          3    1    6    6  503    0 -0.11979626562E+02 -0.11298010710E+03  0.13731368279E+03  0.17822195021E+03  0.00000000000E+00 0. -1.
         -3    1    6    6    0  503 -0.37760181916E+02 -0.23176456216E+03  0.11831434199E+03  0.26294282103E+03  0.00000000000E+00 0.  1.
<mgrwt>
<rscale>  0 0.13171613E+04</rscale>
<asrwt>0</asrwt>
<pdfrwt beam="1">  1        1 0.24496660E+00 0.13171613E+04</pdfrwt>
<pdfrwt beam="2">  1       -2 0.41906786E-01 0.13171613E+04</pdfrwt>
<totfact> 0.26248956E+01</totfact>
</mgrwt>
</event>
<event>
12    4  0.4486176E-008  0.1901371E+04  0.7818608E-02  0.8654174E-01
         -2   -1    0    0    0  501 -0.00000000000E+00  0.00000000000E+00  0.57135311557E+03  0.57135311557E+03  0.00000000000E+00 0.  1.
          1   -1    0    0  501    0  0.00000000000E+00 -0.00000000000E+00 -0.15818633257E+04  0.15818633257E+04  0.00000000000E+00 0. -1.
        -24    2    1    2    0    0  0.16181764592E+03 -0.58990244701E+03  0.41550421350E+02  0.62032038600E+03  0.94345621269E+02 0.  0.
        254    2    1    2    0    0 -0.16181764592E+03  0.58990244701E+03 -0.10520606315E+04  0.15328960553E+04  0.93207773092E+03 0.  0.
         23    2    4    4    0    0 -0.44229113932E+03  0.23866583396E+03 -0.16847627932E+03  0.53723338596E+03  0.87479266518E+02 0.  0.
         23    2    4    4    0    0  0.28047349340E+03  0.35123661305E+03 -0.88358435221E+03  0.99566266936E+03  0.92683897471E+02 0.  0.
          1    1    3    3  502    0  0.94013424104E+02 -0.22487483725E+03 -0.17582147683E+02  0.24436928665E+03  0.00000000000E+00 0. -1.
         -2    1    3    3    0  502  0.67804221821E+02 -0.36502760975E+03  0.59132569033E+02  0.37595109935E+03  0.00000000000E+00 0.  1.
         11    1    5    5    0    0 -0.42013348217E+03  0.24533630420E+03 -0.15585133794E+03  0.51087345256E+03  0.00000000000E+00 0.  1.
        -11    1    5    5    0    0 -0.22157657151E+02 -0.66704702349E+01 -0.12624941384E+02  0.26359933394E+02  0.00000000000E+00 0. -1.
          3    1    6    6  503    0  0.12932277619E+03  0.10812696146E+03 -0.26533150796E+03  0.31435112431E+03  0.00000000000E+00 0. -1.
         -3    1    6    6    0  503  0.15115071721E+03  0.24310965159E+03 -0.61825284424E+03  0.68131154506E+03  0.00000000000E+00 0.  1.
<mgrwt>
<rscale>  0 0.19013706E+04</rscale>
<asrwt>0</asrwt>
<pdfrwt beam="1">  1        1 0.24336359E+00 0.19013706E+04</pdfrwt>
<pdfrwt beam="2">  1       -2 0.87900479E-01 0.19013706E+04</pdfrwt>
<totfact> 0.52618470E+00</totfact>
</mgrwt>
</event>
<event>
12    4  0.4486176E-008  0.2363371E+04  0.7818608E-02  0.8453345E-01
         -2   -1    0    0    0  501 -0.00000000000E+00  0.00000000000E+00  0.12853958299E+04  0.12853958299E+04  0.00000000000E+00 0.  1.
          3   -1    0    0  501    0  0.00000000000E+00 -0.00000000000E+00 -0.10863432394E+04  0.10863432394E+04  0.00000000000E+00 0. -1.
        -24    2    1    2    0    0 -0.67093956815E+02 -0.54778717269E+03 -0.76123188867E+03  0.94305417058E+03  0.72834021774E+02 0.  0.
        254    2    1    2    0    0  0.67093956815E+02  0.54778717269E+03  0.96028447916E+03  0.14286848988E+04  0.90245325283E+03 0.  0.
         23    2    4    4    0    0  0.49197254580E+01  0.33698679552E+03  0.10994822284E+04  0.11535159888E+04  0.90297629130E+02 0.  0.
         23    2    4    4    0    0  0.62174231357E+02  0.21080037717E+03 -0.13919774921E+03  0.27516891001E+03  0.89663156266E+02 0.  0.
          3    1    3    3  502    0 -0.51484691225E+02 -0.39905518124E+03 -0.60678784563E+03  0.72807087616E+03  0.00000000000E+00 0. -1.
         -4    1    3    3    0  502 -0.15609265589E+02 -0.14873199144E+03 -0.15444404303E+03  0.21498329442E+03  0.00000000000E+00 0.  1.
         11    1    5    5    0    0 -0.36044965335E+01  0.30550750536E+03  0.10550590152E+04  0.10984067343E+04  0.00000000000E+00 0. -1.
        -11    1    5    5    0    0  0.85242219915E+01  0.31479290160E+02  0.44423213130E+02  0.55109254526E+02  0.00000000000E+00 0.  1.
          2    1    6    6  503    0  0.77407373645E+01 -0.84129916758E+01 -0.53940092748E+01  0.12640916895E+02  0.00000000000E+00 0.  1.
         -2    1    6    6    0  503  0.54433493992E+02  0.21921336884E+03 -0.13380373994E+03  0.26252799312E+03  0.00000000000E+00 0. -1.
<mgrwt>
<rscale>  0 0.23633714E+04</rscale>
<asrwt>0</asrwt>
<pdfrwt beam="1">  1        3 0.16712973E+00 0.23633714E+04</pdfrwt>
<pdfrwt beam="2">  1       -2 0.19775320E+00 0.23633714E+04</pdfrwt>
<totfact> 0.12487676E-01</totfact>
</mgrwt>
</event>
<event>
12    4  0.4486176E-008  0.1284259E+04  0.7818608E-02  0.9042142E-01
         -2   -1    0    0    0  501 -0.00000000000E+00  0.00000000000E+00  0.15628039906E+03  0.15628039906E+03  0.00000000000E+00 0.  1.
          1   -1    0    0  501    0  0.00000000000E+00 -0.00000000000E+00 -0.26384022699E+04  0.26384022699E+04  0.00000000000E+00 0. -1.
        -24    2    1    2    0    0  0.33210571952E+03  0.83681037506E+02 -0.51871218840E+03  0.62666559076E+03  0.79691299819E+02 0.  0.
        254    2    1    2    0    0 -0.33210571952E+03 -0.83681037506E+02 -0.19634096825E+04  0.21680170782E+04  0.85324307517E+03 0.  0.
         23    2    4    4    0    0  0.16442355392E+03  0.20770864506E+03 -0.32278436145E+03  0.42687736120E+03  0.88637188558E+02 0.  0.
         23    2    4    4    0    0 -0.49652927343E+03 -0.29138968256E+03 -0.16406253210E+04  0.17411397170E+04  0.92015236694E+02 0.  0.
          1    1    3    3  502    0  0.11764303862E+03  0.39924759106E+02 -0.12520708168E+03  0.17638221063E+03  0.00000000000E+00 0. -1.
         -2    1    3    3    0  502  0.21446268090E+03  0.43756278399E+02 -0.39350510672E+03  0.45028338012E+03  0.00000000000E+00 0.  1.
         11    1    5    5    0    0  0.10112223137E+03  0.18657904996E+03 -0.23568317410E+03  0.31714981652E+03  0.00000000000E+00 0. -1.
        -11    1    5    5    0    0  0.63301322546E+02  0.21129595095E+02 -0.87101187350E+02  0.10972754469E+03  0.00000000000E+00 0.  1.
          4    1    6    6  503    0 -0.42709163403E+03 -0.24555639761E+03 -0.14862318524E+04  0.15657555133E+04  0.00000000000E+00 0. -1.
         -4    1    6    6    0  503 -0.69437639404E+02 -0.45833284950E+02 -0.15439346861E+03  0.17538420375E+03  0.00000000000E+00 0.  1.
<mgrwt>
<rscale>  0 0.12842594E+04</rscale>
<asrwt>0</asrwt>
<pdfrwt beam="1">  1        1 0.40590801E+00 0.12842594E+04</pdfrwt>
<pdfrwt beam="2">  1       -2 0.24043140E-01 0.12842594E+04</pdfrwt>
<totfact> 0.14510647E+01</totfact>
</mgrwt>
</event>
<event>
12    4  0.4486176E-008  0.1384844E+04  0.7818608E-02  0.8964863E-01
          1   -1    0    0  501    0  0.00000000000E+00  0.00000000000E+00  0.28676333603E+04  0.28676333603E+04  0.00000000000E+00 0. -1.
         -2   -1    0    0    0  501 -0.00000000000E+00 -0.00000000000E+00 -0.16719300349E+03  0.16719300349E+03  0.00000000000E+00 0.  1.
        -24    2    1    2    0    0 -0.54524578094E+02 -0.24717089676E+03  0.13464993347E+03  0.29755216223E+03  0.79626018622E+02 0.  0.
        254    2    1    2    0    0  0.54524578094E+02  0.24717089676E+03  0.25657904234E+04  0.27372742016E+04  0.91941458344E+03 0.  0.
         23    2    4    4    0    0  0.18089388461E+03  0.29029331140E+03  0.25508415937E+04  0.25752217822E+04  0.89339730039E+02 0.  0.
         23    2    4    4    0    0 -0.12636930651E+03 -0.43122414645E+02  0.14948829643E+02  0.16205241934E+03  0.90602289342E+02 0.  0.
          3    1    3    3  502    0 -0.39860687920E+02 -0.87545038279E+02  0.88581133639E+02  0.13076553600E+03  0.00000000000E+00 0. -1.
         -4    1    3    3    0  502 -0.14663890174E+02 -0.15962585848E+03  0.46068799834E+02  0.16678662622E+03  0.00000000000E+00 0.  1.
         11    1    5    5    0    0  0.14731889404E+03  0.16355691827E+03  0.17359953958E+04  0.17498953501E+04  0.00000000000E+00 0.  1.
        -11    1    5    5    0    0  0.33574990570E+02  0.12673639314E+03  0.81484619791E+03  0.82532643214E+03  0.00000000000E+00 0. -1.
          2    1    6    6  503    0 -0.11109811407E+03 -0.65194480881E+02  0.28583994331E+02  0.13194755026E+03  0.00000000000E+00 0. -1.
         -2    1    6    6    0  503 -0.15271192441E+02  0.22072066236E+02 -0.13635164688E+02  0.30104869084E+02  0.00000000000E+00 0.  1.
<mgrwt>
<rscale>  0 0.13848440E+04</rscale>
<asrwt>0</asrwt>
<pdfrwt beam="1">  1        1 0.44117433E+00 0.13848440E+04</pdfrwt>
<pdfrwt beam="2">  1       -2 0.25722003E-01 0.13848440E+04</pdfrwt>
<totfact> 0.87636407E+00</totfact>
</mgrwt>
</event>
<event>
12    4  0.4486176E-008  0.2077149E+04  0.7818608E-02  0.8571377E-01
          1   -1    0    0  501    0  0.00000000000E+00  0.00000000000E+00  0.18989238162E+04  0.18989238162E+04  0.00000000000E+00 0. -1.
         -2   -1    0    0    0  501 -0.00000000000E+00 -0.00000000000E+00 -0.56802565236E+03  0.56802565236E+03  0.00000000000E+00 0.  1.
        -24    2    1    2    0    0  0.27058585014E+03 -0.77316675456E+03  0.41944762858E+03  0.92489362229E+03  0.92132333019E+02 0.  0.
        254    2    1    2    0    0 -0.27058585014E+03  0.77316675456E+03  0.91145053529E+03  0.15420558463E+04  0.93605054467E+03 0.  0.
         23    2    4    4    0    0 -0.41033725630E+03  0.73508979236E+03  0.10303811103E+04  0.13337458772E+04  0.91973723139E+02 0.  0.
         23    2    4    4    0    0  0.13975140616E+03  0.38076962204E+02 -0.11893057505E+03  0.20830996907E+03  0.90929923347E+02 0.  0.
          3    1    3    3  502    0 -0.11140015270E+01 -0.69074561678E+01  0.15632184783E+02  0.17126562738E+02  0.00000000000E+00 0. -1.
         -4    1    3    3    0  502  0.27169985166E+03 -0.76625929839E+03  0.40381544380E+03  0.90776705956E+03  0.00000000000E+00 0.  1.
         11    1    5    5    0    0 -0.28182864733E+03  0.45556616562E+03  0.59476804821E+03  0.80044796763E+03  0.00000000000E+00 0.  1.
        -11    1    5    5    0    0 -0.12850860896E+03  0.27952362673E+03  0.43561306213E+03  0.53329790959E+03  0.00000000000E+00 0. -1.
          3    1    6    6  503    0  0.42912070463E+02  0.32021670122E+02 -0.93919645353E+02  0.10810981885E+03  0.00000000000E+00 0. -1.
         -3    1    6    6    0  503  0.96839335697E+02  0.60552920826E+01 -0.25010929695E+02  0.10020015022E+03  0.00000000000E+00 0.  1.
<mgrwt>
<rscale>  0 0.20771494E+04</rscale>
<asrwt>0</asrwt>
<pdfrwt beam="1">  1        1 0.29214212E+00 0.20771494E+04</pdfrwt>
<pdfrwt beam="2">  1       -2 0.87388563E-01 0.20771494E+04</pdfrwt>
<totfact> 0.31939861E+00</totfact>
</mgrwt>
</event>
<event>
12    4  0.4486176E-008  0.2403271E+04  0.7818608E-02  0.8438280E-01
         -2   -1    0    0    0  501 -0.00000000000E+00  0.00000000000E+00  0.98306280016E+03  0.98306280016E+03  0.00000000000E+00 0.  1.
          1   -1    0    0  501    0  0.00000000000E+00 -0.00000000000E+00 -0.14688047400E+04  0.14688047400E+04  0.00000000000E+00 0. -1.
        -24    2    1    2    0    0 -0.33571516059E+03 -0.21374446280E+03  0.76447665331E+03  0.86521560190E+03  0.76040251758E+02 0.  0.
        254    2    1    2    0    0  0.33571516059E+03  0.21374446280E+03 -0.12502185932E+04  0.15866519383E+04  0.89220315966E+03 0.  0.
         23    2    4    4    0    0  0.11387235250E+03 -0.34058977842E+03 -0.43991751137E+03  0.57576539539E+03  0.94921356288E+02 0.  0.
         23    2    4    4    0    0  0.22184280809E+03  0.55433424122E+03 -0.81030108178E+03  0.10108865429E+04  0.93824713928E+02 0.  0.
          1    1    3    3  502    0 -0.74024968029E+02 -0.47733393031E+02  0.10876148072E+03  0.13995439396E+03  0.00000000000E+00 0. -1.
         -2    1    3    3    0  502 -0.26169019256E+03 -0.16601106977E+03  0.65571517259E+03  0.72526120793E+03  0.00000000000E+00 0.  1.
         11    1    5    5    0    0  0.84539353003E+02 -0.32195355463E+03 -0.41927924426E+03  0.53534668973E+03  0.00000000000E+00 0.  1.
        -11    1    5    5    0    0  0.29332999500E+02 -0.18636223798E+02 -0.20638267114E+02  0.40418705652E+02  0.00000000000E+00 0. -1.
          1    1    6    6  503    0  0.94067263233E+02  0.34205453996E+03 -0.51586616779E+03  0.62607336741E+03  0.00000000000E+00 0. -1.
         -1    1    6    6    0  503  0.12777554485E+03  0.21227970126E+03 -0.29443491400E+03  0.38481317546E+03  0.00000000000E+00 0.  1.
<mgrwt>
<rscale>  0 0.24032705E+04</rscale>
<asrwt>0</asrwt>
<pdfrwt beam="1">  1        1 0.22596996E+00 0.24032705E+04</pdfrwt>
<pdfrwt beam="2">  1       -2 0.15124043E+00 0.24032705E+04</pdfrwt>
<totfact> 0.15855390E+00</totfact>
</mgrwt>
</event>
<event>
12    4  0.4486176E-008  0.2101703E+04  0.7818608E-02  0.8560494E-01
         -2   -1    0    0    0  501 -0.00000000000E+00  0.00000000000E+00  0.79801331720E+03  0.79801331720E+03  0.00000000000E+00 0.  1.
          1   -1    0    0  501    0  0.00000000000E+00 -0.00000000000E+00 -0.13837970636E+04  0.13837970636E+04  0.00000000000E+00 0. -1.
        -24    2    1    2    0    0  0.35719628576E+03 -0.56218600053E+03 -0.80002795663E+03  0.10441263893E+04  0.80702538850E+02 0.  0.
        254    2    1    2    0    0 -0.35719628576E+03  0.56218600053E+03  0.21424421024E+03  0.11376839914E+04  0.89709642570E+03 0.  0.
         23    2    4    4    0    0 -0.76064073754E+02 -0.44300418281E+02 -0.27545098642E+03  0.30348863159E+03  0.92107726108E+02 0.  0.
         23    2    4    4    0    0 -0.28113221201E+03  0.60648641881E+03  0.48969519666E+03  0.83419535985E+03  0.96017789642E+02 0.  0.
          3    1    3    3  502    0  0.24677704519E+03 -0.35244271044E+03 -0.56668476140E+03  0.71150993878E+03  0.00000000000E+00 0. -1.
         -4    1    3    3    0  502  0.11041924057E+03 -0.20974329009E+03 -0.23334319522E+03  0.33261645056E+03  0.00000000000E+00 0.  1.
         11    1    5    5    0    0 -0.45425520648E+01 -0.53972853249E+02 -0.13784013679E+03  0.14809998980E+03  0.00000000000E+00 0. -1.
        -11    1    5    5    0    0 -0.71521521690E+02  0.96724349675E+01 -0.13761084963E+03  0.15538864179E+03  0.00000000000E+00 0.  1.
          1    1    6    6  503    0 -0.67875419835E+02  0.87186668112E+02  0.11361400717E+03  0.15848258686E+03  0.00000000000E+00 0. -1.
         -1    1    6    6    0  503 -0.21325679217E+03  0.51929975069E+03  0.37608118950E+03  0.67571277298E+03  0.00000000000E+00 0.  1.
<mgrwt>
<rscale>  0 0.21017026E+04</rscale>
<asrwt>0</asrwt>
<pdfrwt beam="1">  1        1 0.21289186E+00 0.21017026E+04</pdfrwt>
<pdfrwt beam="2">  1       -2 0.12277128E+00 0.21017026E+04</pdfrwt>
<totfact> 0.31928724E+00</totfact>
</mgrwt>
</event>
<event>
12    4  0.4486176E-008  0.1640281E+04  0.7818608E-02  0.8796177E-01
         -2   -1    0    0    0  501 -0.00000000000E+00  0.00000000000E+00  0.99925234149E+03  0.99925234149E+03  0.00000000000E+00 0.  1.
          1   -1    0    0  501    0  0.00000000000E+00 -0.00000000000E+00 -0.67313397635E+03  0.67313397635E+03  0.00000000000E+00 0. -1.
        -24    2    1    2    0    0  0.17794251786E+03  0.30654163915E+03  0.56733818991E+03  0.67346552977E+03  0.77793842003E+02 0.  0.
        254    2    1    2    0    0 -0.17794251786E+03 -0.30654163915E+03 -0.24121982477E+03  0.99892078808E+03  0.90223301912E+03 0.  0.
         23    2    4    4    0    0 -0.21942219487E+03 -0.21713362276E+03  0.30062031964E+03  0.44029659943E+03  0.90528499150E+02 0.  0.
         23    2    4    4    0    0  0.41479677005E+02 -0.89408016396E+02 -0.54184014441E+03  0.55862418865E+03  0.93572886273E+02 0.  0.
          1    1    3    3  502    0  0.14987787969E+02  0.22351763741E+02  0.94316339253E+02  0.98080614703E+02  0.00000000000E+00 0. -1.
         -2    1    3    3    0  502  0.16295472990E+03  0.28418987541E+03  0.47302185066E+03  0.57538491506E+03  0.00000000000E+00 0.  1.
         11    1    5    5    0    0 -0.22431007201E+03 -0.22069906530E+03  0.28926978885E+03  0.42743431843E+03  0.00000000000E+00 0. -1.
        -11    1    5    5    0    0  0.48878771390E+01  0.35654425410E+01  0.11350530792E+02  0.12862281007E+02  0.00000000000E+00 0.  1.
          2    1    6    6  503    0  0.52201563272E+02 -0.32493369214E+02 -0.41052731389E+03  0.41510661004E+03  0.00000000000E+00 0. -1.
         -2    1    6    6    0  503 -0.10721886267E+02 -0.56914647182E+02 -0.13131283052E+03  0.14351757860E+03  0.00000000000E+00 0.  1.
<mgrwt>
<rscale>  0 0.16402813E+04</rscale>
<asrwt>0</asrwt>
<pdfrwt beam="1">  1        1 0.10355907E+00 0.16402813E+04</pdfrwt>
<pdfrwt beam="2">  1       -2 0.15373113E+00 0.16402813E+04</pdfrwt>
<totfact> 0.67880399E+00</totfact>
</mgrwt>
</event>
<event>
12    4  0.4486176E-008  0.1547133E+04  0.7818608E-02  0.8853701E-01
          1   -1    0    0  501    0  0.00000000000E+00  0.00000000000E+00  0.11483725290E+04  0.11483725290E+04  0.00000000000E+00 0. -1.
         -2   -1    0    0    0  501 -0.00000000000E+00 -0.00000000000E+00 -0.52108972992E+03  0.52108972992E+03  0.00000000000E+00 0.  1.
        -24    2    1    2    0    0 -0.44853621237E+03  0.22254595398E+03  0.15128799491E+03  0.53465961023E+03  0.11073123301E+03 0.  0.
        254    2    1    2    0    0  0.44853621237E+03 -0.22254595398E+03  0.47599480417E+03  0.11348026487E+04  0.90027471497E+03 0.  0.
         23    2    4    4    0    0  0.23582851788E+03 -0.52642654939E+03  0.47571166943E+03  0.75320725826E+03  0.90992195873E+02 0.  0.
         23    2    4    4    0    0  0.21270769449E+03  0.30388059541E+03  0.28313474023E+00  0.38159539042E+03  0.89593427586E+02 0.  0.
          3    1    3    3  502    0 -0.14181149290E+02  0.90212691898E+01  0.32046104405E+02  0.36186200415E+02  0.00000000000E+00 0. -1.
         -4    1    3    3    0  502 -0.43435506308E+03  0.21352468479E+03  0.11924189050E+03  0.49847340981E+03  0.00000000000E+00 0.  1.
         11    1    5    5    0    0  0.19349001139E+03 -0.32582490360E+03  0.30783475563E+03  0.48822381045E+03  0.00000000000E+00 0. -1.
        -11    1    5    5    0    0  0.42338506486E+02 -0.20060164579E+03  0.16787691380E+03  0.26498344781E+03  0.00000000000E+00 0.  1.
          3    1    6    6  503    0  0.36591105032E+02  0.11097866586E+03 -0.23895236206E+02  0.11927344866E+03  0.00000000000E+00 0. -1.
         -3    1    6    6    0  503  0.17611658946E+03  0.19290192955E+03  0.24178370947E+02  0.26232194176E+03  0.00000000000E+00 0.  1.
<mgrwt>
<rscale>  0 0.15471330E+04</rscale>
<asrwt>0</asrwt>
<pdfrwt beam="1">  1        1 0.17667270E+00 0.15471330E+04</pdfrwt>
<pdfrwt beam="2">  1       -2 0.80167651E-01 0.15471330E+04</pdfrwt>
<totfact> 0.13562971E+01</totfact>
</mgrwt>
</event>
<event>
12    4  0.4486176E-008  0.1551879E+04  0.7818608E-02  0.8850669E-01
         -2   -1    0    0    0  501 -0.00000000000E+00  0.00000000000E+00  0.17958140802E+04  0.17958140802E+04  0.00000000000E+00 0.  1.
          1   -1    0    0  501    0  0.00000000000E+00 -0.00000000000E+00 -0.33526953355E+03  0.33526953355E+03  0.00000000000E+00 0. -1.
        -24    2    1    2    0    0 -0.12849315607E+03  0.39800609324E+03  0.84160051381E+02  0.43384506264E+03  0.78862429028E+02 0.  0.
        254    2    1    2    0    0  0.12849315607E+03 -0.39800609324E+03  0.13763844952E+04  0.16972385511E+04  0.90070254751E+03 0.  0.
         23    2    4    4    0    0  0.20836238186E+02 -0.50731606160E+03  0.14222208701E+04  0.15129000208E+04  0.91381259453E+02 0.  0.
         23    2    4    4    0    0  0.10765691789E+03  0.10930996836E+03 -0.45836374812E+02  0.18433853026E+03  0.91329290658E+02 0.  0.
          3    1    3    3  502    0 -0.13298680073E+03  0.39832341650E+03  0.86523448257E+02  0.42875790418E+03  0.00000000000E+00 0. -1.
         -4    1    3    3    0  502  0.44936446612E+01 -0.31732325417E+00 -0.23633968762E+01  0.50871584586E+01  0.00000000000E+00 0.  1.
         11    1    5    5    0    0  0.17421263335E+02 -0.20293703027E+03  0.44570832237E+03  0.49004371979E+03  0.00000000000E+00 0.  1.
        -11    1    5    5    0    0  0.34149748511E+01 -0.30437903133E+03  0.97651254769E+03  0.10228563010E+04  0.00000000000E+00 0. -1.
          1    1    6    6  503    0  0.68387322239E+02  0.10729286510E+03 -0.62350171118E+02  0.14169025578E+03  0.00000000000E+00 0. -1.
         -1    1    6    6    0  503  0.39269595647E+02  0.20171032560E+01  0.16513796306E+02  0.42648274482E+02  0.00000000000E+00 0.  1.
<mgrwt>
<rscale>  0 0.15518785E+04</rscale>
<asrwt>0</asrwt>
<pdfrwt beam="1">  1        1 0.51579929E-01 0.15518785E+04</pdfrwt>
<pdfrwt beam="2">  1       -2 0.27627908E+00 0.15518785E+04</pdfrwt>
<totfact> 0.28355561E+00</totfact>
</mgrwt>
</event>
<event>
12    4  0.4486176E-008  0.1656085E+04  0.7818608E-02  0.8786815E-01
          1   -1    0    0  501    0  0.00000000000E+00  0.00000000000E+00  0.21261281710E+04  0.21261281710E+04  0.00000000000E+00 0. -1.
         -2   -1    0    0    0  501 -0.00000000000E+00 -0.00000000000E+00 -0.32248984904E+03  0.32248984904E+03  0.00000000000E+00 0.  1.
        -24    2    1    2    0    0 -0.31397674381E+03  0.33612333439E+03  0.11272181070E+04  0.12210115636E+04  0.93210976377E+02 0.  0.
        254    2    1    2    0    0  0.31397674381E+03 -0.33612333439E+03  0.67642021494E+03  0.12276064564E+04  0.91537588623E+03 0.  0.
         23    2    4    4    0    0  0.16585858281E+03  0.22227385802E+03 -0.48394464673E+02  0.29587055705E+03  0.91008927407E+02 0.  0.
         23    2    4    4    0    0  0.14811816100E+03 -0.55839719241E+03  0.72481467962E+03  0.93173589938E+03  0.95021325447E+02 0.  0.
          3    1    3    3  502    0 -0.35957752428E+02  0.21663555696E+02  0.18216703941E+03  0.18694143429E+03  0.00000000000E+00 0. -1.
         -4    1    3    3    0  502 -0.27801899138E+03  0.31445977869E+03  0.94505106759E+03  0.10340701293E+04  0.00000000000E+00 0.  1.
         11    1    5    5    0    0  0.15818299695E+03  0.19338533527E+03 -0.69444870431E+02  0.25931127714E+03  0.00000000000E+00 0.  1.
        -11    1    5    5    0    0  0.76755858514E+01  0.28888522745E+02  0.21050405758E+02  0.36559279905E+02  0.00000000000E+00 0. -1.
          1    1    6    6  503    0  0.12121406933E+03 -0.32993251879E+03  0.38434804766E+03  0.52083753638E+03  0.00000000000E+00 0. -1.
         -1    1    6    6    0  503  0.26904091674E+02 -0.22846467362E+03  0.34046663195E+03  0.41089836300E+03  0.00000000000E+00 0.  1.
<mgrwt>
<rscale>  0 0.16560854E+04</rscale>
<asrwt>0</asrwt>
<pdfrwt beam="1">  1        1 0.32709663E+00 0.16560854E+04</pdfrwt>
<pdfrwt beam="2">  1       -2 0.49613824E-01 0.16560854E+04</pdfrwt>
<totfact> 0.78916933E+00</totfact>
</mgrwt>
</event>
<event>
12    4  0.4486176E-008  0.1431739E+04  0.7818608E-02  0.8931159E-01
          1   -1    0    0  501    0  0.00000000000E+00  0.00000000000E+00  0.16938038835E+04  0.16938038835E+04  0.00000000000E+00 0. -1.
         -2   -1    0    0    0  501 -0.00000000000E+00 -0.00000000000E+00 -0.30255530611E+03  0.30255530611E+03  0.00000000000E+00 0.  1.
        -24    2    1    2    0    0  0.32461300193E+03  0.12279130568E+03  0.75574350272E+02  0.36443963350E+03  0.81568733401E+02 0.  0.
        254    2    1    2    0    0 -0.32461300193E+03 -0.12279130568E+03  0.13156742272E+04  0.16319195562E+04  0.90095030939E+03 0.  0.
         23    2    4    4    0    0 -0.22517801059E+03  0.82072556049E+02  0.13589586472E+04  0.13827862974E+04  0.88816094396E+02 0.  0.
         23    2    4    4    0    0 -0.99434991345E+02 -0.20486386173E+03 -0.43284420031E+02  0.24913325875E+03  0.91308927556E+02 0.  0.
          3    1    3    3  502    0  0.16499720582E+03  0.68435568889E+02  0.80094996129E+02  0.19576187939E+03  0.00000000000E+00 0. -1.
         -4    1    3    3    0  502  0.15961579612E+03  0.54355736789E+02 -0.45206458568E+01  0.16867775411E+03  0.00000000000E+00 0.  1.
         11    1    5    5    0    0 -0.18560114167E+03  0.99852916484E+02  0.11775058461E+04  0.11962183774E+04  0.00000000000E+00 0.  1.
        -11    1    5    5    0    0 -0.39576868916E+02 -0.17780360435E+02  0.18145280105E+03  0.18656792002E+03  0.00000000000E+00 0. -1.
          4    1    6    6  503    0 -0.52453929649E+02 -0.14365466461E+03 -0.69031973780E+02  0.16779001998E+03  0.00000000000E+00 0. -1.
         -4    1    6    6    0  503 -0.46981061696E+02 -0.61209197116E+02  0.25747553748E+02  0.81343238770E+02  0.00000000000E+00 0.  1.
<mgrwt>
<rscale>  0 0.14317393E+04</rscale>
<asrwt>0</asrwt>
<pdfrwt beam="1">  1        1 0.26058521E+00 0.14317393E+04</pdfrwt>
<pdfrwt beam="2">  1       -2 0.46546971E-01 0.14317393E+04</pdfrwt>
<totfact> 0.17979109E+01</totfact>
</mgrwt>
</event>
<event>
12    4  0.4486176E-008  0.2228430E+04  0.7818608E-02  0.8506687E-01
         -2   -1    0    0    0  501 -0.00000000000E+00  0.00000000000E+00  0.11896517885E+04  0.11896517885E+04  0.00000000000E+00 0.  1.
          1   -1    0    0  501    0  0.00000000000E+00 -0.00000000000E+00 -0.10435619024E+04  0.10435619024E+04  0.00000000000E+00 0. -1.
        -24    2    1    2    0    0 -0.45768640893E+03 -0.66684702485E+03 -0.40956338611E+03  0.91010361200E+03  0.79903778766E+02 0.  0.
        254    2    1    2    0    0  0.45768640893E+03  0.66684702485E+03  0.55565327220E+03  0.13231100790E+04  0.88752910864E+03 0.  0.
         23    2    4    4    0    0  0.53923840372E+03  0.64326990870E+03  0.72490745385E+03  0.11120886232E+04  0.81707146650E+02 0.  0.
         23    2    4    4    0    0 -0.81551994790E+02  0.23577116145E+02 -0.16925418165E+03  0.21102145572E+03  0.93147563090E+02 0.  0.
          1    1    3    3  502    0 -0.23008133558E+03 -0.29479207631E+03 -0.15264709677E+03  0.40390707519E+03  0.00000000000E+00 0. -1.
         -2    1    3    3    0  502 -0.22760507336E+03 -0.37205494854E+03 -0.25691628935E+03  0.50619653681E+03  0.00000000000E+00 0.  1.
         11    1    5    5    0    0  0.20587399282E+03  0.30629687196E+03  0.30279313000E+03  0.47737360030E+03  0.00000000000E+00 0. -1.
        -11    1    5    5    0    0  0.33336441090E+03  0.33697303674E+03  0.42211432385E+03  0.63471502294E+03  0.00000000000E+00 0.  1.
          1    1    6    6  503    0 -0.36476434174E+02  0.54061768375E+02 -0.58449635720E+02  0.87576052467E+02  0.00000000000E+00 0. -1.
         -1    1    6    6    0  503 -0.45075560616E+02 -0.30484652230E+02 -0.11080454593E+03  0.12344540326E+03  0.00000000000E+00 0.  1.
<mgrwt>
<rscale>  0 0.22284302E+04</rscale>
<asrwt>0</asrwt>
<pdfrwt beam="1">  1        1 0.16054798E+00 0.22284302E+04</pdfrwt>
<pdfrwt beam="2">  1       -2 0.18302335E+00 0.22284302E+04</pdfrwt>
<totfact> 0.19293587E+00</totfact>
</mgrwt>
</event>
<event>
12    4  0.4486176E-008  0.1487873E+04  0.7818608E-02  0.8892557E-01
         -2   -1    0    0    0  501 -0.00000000000E+00  0.00000000000E+00  0.77199534235E+03  0.77199534235E+03  0.00000000000E+00 0.  1.
          1   -1    0    0  501    0  0.00000000000E+00 -0.00000000000E+00 -0.71689771141E+03  0.71689771141E+03  0.00000000000E+00 0. -1.
        -24    2    1    2    0    0 -0.13465473524E+03  0.29960045874E+02 -0.41622719637E+03  0.44399216922E+03  0.69673992690E+02 0.  0.
        254    2    1    2    0    0  0.13465473524E+03 -0.29960045874E+02  0.47132482731E+03  0.10449008845E+04  0.92230215418E+03 0.  0.
         23    2    4    4    0    0  0.44913887539E+03  0.22775590604E+03  0.31041152279E+03  0.59849772939E+03  0.90806037675E+02 0.  0.
         23    2    4    4    0    0 -0.31448414015E+03 -0.25771595191E+03  0.16091330452E+03  0.44640315516E+03  0.89804783210E+02 0.  0.
          1    1    3    3  502    0 -0.96679636951E+02  0.44158607343E+02 -0.22954370209E+03  0.25295700420E+03  0.00000000000E+00 0. -1.
         -2    1    3    3    0  502 -0.37975098291E+02 -0.14198561469E+02 -0.18668349428E+03  0.19103516502E+03  0.00000000000E+00 0.  1.
         11    1    5    5    0    0  0.17219515260E+03  0.13700553978E+03  0.12478851275E+03  0.25297008009E+03  0.00000000000E+00 0. -1.
        -11    1    5    5    0    0  0.27694372279E+03  0.90750366264E+02  0.18562301004E+03  0.34552764929E+03  0.00000000000E+00 0.  1.
          2    1    6    6  503    0 -0.26107895957E+02  0.27822915123E+01  0.12991626133E+01  0.26287852724E+02  0.00000000000E+00 0. -1.
         -2    1    6    6    0  503 -0.28837624419E+03 -0.26049824343E+03  0.15961414191E+03  0.42011530243E+03  0.00000000000E+00 0.  1.
<mgrwt>
<rscale>  0 0.14878732E+04</rscale>
<asrwt>0</asrwt>
<pdfrwt beam="1">  1        1 0.11029196E+00 0.14878732E+04</pdfrwt>
<pdfrwt beam="2">  1       -2 0.11876851E+00 0.14878732E+04</pdfrwt>
<totfact> 0.12131643E+01</totfact>
</mgrwt>
</event>
<event>
12    4  0.4486176E-008  0.1882973E+04  0.7818608E-02  0.8663379E-01
         -2   -1    0    0    0  501 -0.00000000000E+00  0.00000000000E+00  0.66199920658E+03  0.66199920658E+03  0.00000000000E+00 0.  1.
          1   -1    0    0  501    0  0.00000000000E+00 -0.00000000000E+00 -0.13389695426E+04  0.13389695426E+04  0.00000000000E+00 0. -1.
        -24    2    1    2    0    0  0.64485709859E+03 -0.25805240102E+03 -0.47864877675E+03  0.84723782351E+03  0.79218424769E+02 0.  0.
        254    2    1    2    0    0 -0.64485709859E+03  0.25805240102E+03 -0.19832155924E+03  0.11537309256E+04  0.89962875045E+03 0.  0.
         23    2    4    4    0    0 -0.77565666534E+03  0.43745652862E+03 -0.12597423052E+03  0.90399918064E+03  0.91288197063E+02 0.  0.
         23    2    4    4    0    0  0.13079956675E+03 -0.17940412760E+03 -0.72347328719E+02  0.24973174500E+03  0.88529321849E+02 0.  0.
          3    1    3    3  502    0  0.44146477601E+03 -0.19243146269E+03 -0.37115687857E+03  0.60801187883E+03  0.00000000000E+00 0. -1.
         -4    1    3    3    0  502  0.20339232258E+03 -0.65620938339E+02 -0.10749189818E+03  0.23922594468E+03  0.00000000000E+00 0.  1.
         11    1    5    5    0    0 -0.80315306334E+02  0.55282159322E+02  0.13355803665E+02  0.98412616378E+02  0.00000000000E+00 0. -1.
        -11    1    5    5    0    0 -0.69534135901E+03  0.38217436930E+03 -0.13933003418E+03  0.80558656426E+03  0.00000000000E+00 0.  1.
          4    1    6    6  503    0  0.98730695759E+02 -0.67704362107E+02 -0.56726086438E+02  0.13247444967E+03  0.00000000000E+00 0. -1.
         -4    1    6    6    0  503  0.32068870990E+02 -0.11169976549E+03 -0.15621242281E+02  0.11725729533E+03  0.00000000000E+00 0.  1.
<mgrwt>
<rscale>  0 0.18829729E+04</rscale>
<asrwt>0</asrwt>
<pdfrwt beam="1">  1        1 0.20599531E+00 0.18829729E+04</pdfrwt>
<pdfrwt beam="2">  1       -2 0.10184603E+00 0.18829729E+04</pdfrwt>
<totfact> 0.55163923E+00</totfact>
</mgrwt>
</event>
<event>
12    4  0.4486176E-008  0.1674908E+04  0.7818608E-02  0.8775806E-01
         -2   -1    0    0    0  501 -0.00000000000E+00  0.00000000000E+00  0.42373440984E+03  0.42373440984E+03  0.00000000000E+00 0.  1.
          1   -1    0    0  501    0  0.00000000000E+00 -0.00000000000E+00 -0.16551145868E+04  0.16551145868E+04  0.00000000000E+00 0. -1.
        -24    2    1    2    0    0  0.30527225653E+03 -0.32333665445E+03  0.51162668331E+02  0.45522479995E+03  0.82911140034E+02 0.  0.
        254    2    1    2    0    0 -0.30527225653E+03  0.32333665445E+03 -0.12825428453E+04  0.16236241967E+04  0.89078708982E+03 0.  0.
         23    2    4    4    0    0 -0.31409977108E+03  0.35707336845E+03 -0.18115483296E+03  0.51761352693E+03  0.94586643419E+02 0.  0.
         23    2    4    4    0    0  0.88275145492E+01 -0.33736714000E+02 -0.11013880123E+04  0.11060106698E+04  0.94804836637E+02 0.  0.
          1    1    3    3  502    0  0.21871054826E+02 -0.38944434668E+02 -0.17374340032E+02  0.47925773050E+02  0.00000000000E+00 0. -1.
         -2    1    3    3    0  502  0.28340120170E+03 -0.28439221978E+03  0.68537008363E+02  0.40729902690E+03  0.00000000000E+00 0.  1.
         11    1    5    5    0    0 -0.11529589334E+01 -0.27355145484E+01 -0.10855328493E+02  0.11253910913E+02  0.00000000000E+00 0. -1.
        -11    1    5    5    0    0 -0.31294681214E+03  0.35980888299E+03 -0.17029950447E+03  0.50635961602E+03  0.00000000000E+00 0.  1.
          2    1    6    6  503    0  0.37511150292E+02 -0.40054467861E+02 -0.37142748541E+03  0.37545948345E+03  0.00000000000E+00 0. -1.
         -2    1    6    6    0  503 -0.28683635743E+02  0.63177538609E+01 -0.72996052692E+03  0.73055118632E+03  0.00000000000E+00 0.  1.
<mgrwt>
<rscale>  0 0.16749078E+04</rscale>
<asrwt>0</asrwt>
<pdfrwt beam="1">  1        1 0.25463301E+00 0.16749078E+04</pdfrwt>
<pdfrwt beam="2">  1       -2 0.65189911E-01 0.16749078E+04</pdfrwt>
<totfact> 0.92876601E+00</totfact>
</mgrwt>
</event>
<event>
12    4  0.4486176E-008  0.2153300E+04  0.7818608E-02  0.8538121E-01
         -2   -1    0    0    0  501 -0.00000000000E+00  0.00000000000E+00  0.23591027272E+04  0.23591027272E+04  0.00000000000E+00 0.  1.
          1   -1    0    0  501    0  0.00000000000E+00 -0.00000000000E+00 -0.49136286343E+03  0.49136286343E+03  0.00000000000E+00 0. -1.
        -24    2    1    2    0    0 -0.53615367597E+03  0.22658890638E+03 -0.97058720046E+02  0.59523640399E+03  0.77991568416E+02 0.  0.
        254    2    1    2    0    0  0.53615367597E+03 -0.22658890638E+03  0.19647985838E+04  0.22552291866E+04  0.94171222385E+03 0.  0.
         23    2    4    4    0    0 -0.23513234764E+03 -0.89449477901E+01  0.22599595203E+03  0.33845749251E+03  0.90067035635E+02 0.  0.
         23    2    4    4    0    0  0.77128602361E+03 -0.21764395859E+03  0.17388026318E+04  0.19167716941E+04  0.91258490844E+02 0.  0.
          3    1    3    3  502    0 -0.34803752869E+03  0.12008757845E+03 -0.32368772599E+02  0.36959286426E+03  0.00000000000E+00 0. -1.
         -4    1    3    3    0  502 -0.18811614728E+03  0.10650132794E+03 -0.64689947447E+02  0.22564353973E+03  0.00000000000E+00 0.  1.
         11    1    5    5    0    0 -0.16192993610E+03  0.25461970881E+02  0.18696516079E+03  0.24864751661E+03  0.00000000000E+00 0.  1.
        -11    1    5    5    0    0 -0.73202411534E+02 -0.34406918671E+02  0.39030791239E+02  0.89809975903E+02  0.00000000000E+00 0. -1.
          1    1    6    6  503    0  0.16259390190E+02  0.78115378820E+01  0.50906375615E+02  0.54007841761E+02  0.00000000000E+00 0. -1.
         -1    1    6    6    0  503  0.75502663342E+03 -0.22545549648E+03  0.16878962562E+04  0.18627638523E+04  0.00000000000E+00 0.  1.
<mgrwt>
<rscale>  0 0.21533002E+04</rscale>
<asrwt>0</asrwt>
<pdfrwt beam="1">  1        1 0.75594288E-01 0.21533002E+04</pdfrwt>
<pdfrwt beam="2">  1       -2 0.36293887E+00 0.21533002E+04</pdfrwt>
<totfact> 0.46958936E-01</totfact>
</mgrwt>
</event>
<event>
12    4  0.4486176E-008  0.1285561E+04  0.7818608E-02  0.9041094E-01
          1   -1    0    0  501    0  0.00000000000E+00  0.00000000000E+00  0.18771168050E+04  0.18771168050E+04  0.00000000000E+00 0. -1.
         -2   -1    0    0    0  501 -0.00000000000E+00 -0.00000000000E+00 -0.22010719827E+03  0.22010719827E+03  0.00000000000E+00 0.  1.
        -24    2    1    2    0    0  0.18477748883E+02 -0.11453380290E+03 -0.55945977150E+02  0.15204636928E+03  0.80800537397E+02 0.  0.
        254    2    1    2    0    0 -0.18477748883E+02  0.11453380290E+03  0.17129555839E+04  0.19451776340E+04  0.91435210737E+03 0.  0.
         23    2    4    4    0    0  0.10629287732E+03 -0.37553767677E+03  0.64002271407E+03  0.75543661836E+03  0.93427444474E+02 0.  0.
         23    2    4    4    0    0 -0.12477062620E+03  0.49007147967E+03  0.10729328698E+04  0.11897410157E+04  0.92525546906E+02 0.  0.
          3    1    3    3  502    0 -0.27386187815E+02 -0.27291368894E+02  0.98940400192E-01  0.38663055859E+02  0.00000000000E+00 0. -1.
         -4    1    3    3    0  502  0.45863936699E+02 -0.87242434001E+02 -0.56044917550E+02  0.11338331342E+03  0.00000000000E+00 0.  1.
         11    1    5    5    0    0  0.39677693558E+02 -0.28549648016E+03  0.43537792624E+03  0.52214605064E+03  0.00000000000E+00 0. -1.
        -11    1    5    5    0    0  0.66615183761E+02 -0.90041196613E+02  0.20464478784E+03  0.23329056771E+03  0.00000000000E+00 0.  1.
          1    1    6    6  503    0 -0.98915712863E+02  0.35340944831E+03  0.67674303649E+03  0.76984653915E+03  0.00000000000E+00 0. -1.
         -1    1    6    6    0  503 -0.25854913339E+02  0.13666203136E+03  0.39618983335E+03  0.41989447652E+03  0.00000000000E+00 0.  1.
<mgrwt>
<rscale>  0 0.12855612E+04</rscale>
<asrwt>0</asrwt>
<pdfrwt beam="1">  1        1 0.28878719E+00 0.12855612E+04</pdfrwt>
<pdfrwt beam="2">  1       -2 0.33862647E-01 0.12855612E+04</pdfrwt>
<totfact> 0.25460359E+01</totfact>
</mgrwt>
</event>
<event>
12    4  0.4486176E-008  0.1205824E+04  0.7818608E-02  0.9107774E-01
         -2   -1    0    0    0  501 -0.00000000000E+00  0.00000000000E+00  0.44570167809E+03  0.44570167809E+03  0.00000000000E+00 0.  1.
          1   -1    0    0  501    0  0.00000000000E+00 -0.00000000000E+00 -0.81557499243E+03  0.81557499243E+03  0.00000000000E+00 0. -1.
        -24    2    1    2    0    0  0.78531917111E+02 -0.76371494204E+02  0.15701872965E+03  0.20815364324E+03  0.81689599094E+02 0.  0.
        254    2    1    2    0    0 -0.78531917111E+02  0.76371494204E+02 -0.52689204399E+03  0.10531230273E+04  0.90523644284E+03 0.  0.
         23    2    4    4    0    0 -0.21768381944E+03  0.36566153372E+03 -0.56993728988E+03  0.71720587555E+03  0.91984515251E+02 0.  0.
         23    2    4    4    0    0  0.13915190233E+03 -0.28929003952E+03  0.43045245885E+02  0.33591715173E+03  0.89081203110E+02 0.  0.
          3    1    3    3  502    0  0.14093512149E+02 -0.58805769062E+02  0.37257088346E+02  0.71027010296E+02  0.00000000000E+00 0. -1.
         -4    1    3    3    0  502  0.64438404962E+02 -0.17565725143E+02  0.11976164131E+03  0.13712663294E+03  0.00000000000E+00 0.  1.
         11    1    5    5    0    0 -0.49662684757E+02  0.87741063099E+02 -0.20655948485E+03  0.22985146768E+03  0.00000000000E+00 0.  1.
        -11    1    5    5    0    0 -0.16802113468E+03  0.27792047062E+03 -0.36337780502E+03  0.48735440788E+03  0.00000000000E+00 0. -1.
          2    1    6    6  503    0  0.82129476771E+02 -0.21819455449E+03  0.65279108718E+02  0.24210633325E+03  0.00000000000E+00 0. -1.
         -2    1    6    6    0  503  0.57022425555E+02 -0.71095485025E+02 -0.22233862834E+02  0.93810818479E+02  0.00000000000E+00 0.  1.
<mgrwt>
<rscale>  0 0.12058244E+04</rscale>
<asrwt>0</asrwt>
<pdfrwt beam="1">  1        1 0.12547307E+00 0.12058244E+04</pdfrwt>
<pdfrwt beam="2">  1       -2 0.68569490E-01 0.12058244E+04</pdfrwt>
<totfact> 0.36131900E+01</totfact>
</mgrwt>
</event>
<event>
12    4  0.4486176E-008  0.1254193E+04  0.7818608E-02  0.9066700E-01
         -2   -1    0    0    0  501 -0.00000000000E+00  0.00000000000E+00  0.79721599311E+03  0.79721599311E+03  0.00000000000E+00 0.  1.
          1   -1    0    0  501    0  0.00000000000E+00 -0.00000000000E+00 -0.49327931783E+03  0.49327931783E+03  0.00000000000E+00 0. -1.
        -24    2    1    2    0    0  0.15018958566E+02  0.27307008941E+03  0.24600530678E+03  0.37633776548E+03  0.79489998840E+02 0.  0.
        254    2    1    2    0    0 -0.15018958566E+02 -0.27307008941E+03  0.57931368500E+02  0.91415754546E+03  0.87036494163E+03 0.  0.
         23    2    4    4    0    0 -0.22066592981E+02 -0.48800467362E+03  0.29563276892E+03  0.57799710628E+03  0.89701866229E+02 0.  0.
         23    2    4    4    0    0  0.70476344154E+01  0.21493458420E+03 -0.23770140042E+03  0.33616043919E+03  0.10126865493E+03 0.  0.
          3    1    3    3  502    0  0.45311326839E+01  0.15219069960E+02 -0.46852275383E+01  0.16556044543E+02  0.00000000000E+00 0. -1.
         -4    1    3    3    0  502  0.10487825882E+02  0.25785101945E+03  0.25069053432E+03  0.35978172094E+03  0.00000000000E+00 0.  1.
         11    1    5    5    0    0 -0.88630772666E+01 -0.41883109266E+03  0.21477635960E+03  0.47077268715E+03  0.00000000000E+00 0. -1.
        -11    1    5    5    0    0 -0.13203515714E+02 -0.69173580956E+02  0.80856409324E+02  0.10722441913E+03  0.00000000000E+00 0.  1.
          1    1    6    6  503    0  0.71409522546E+01  0.19345668153E+03 -0.14733806036E+03  0.24327964333E+03  0.00000000000E+00 0. -1.
         -1    1    6    6    0  503 -0.93317839201E-01  0.21477902674E+02 -0.90363340063E+02  0.92880795856E+02  0.00000000000E+00 0.  1.
<mgrwt>
<rscale>  0 0.12541932E+04</rscale>
<asrwt>0</asrwt>
<pdfrwt beam="1">  1        1 0.75889126E-01 0.12541932E+04</pdfrwt>
<pdfrwt beam="2">  1       -2 0.12264861E+00 0.12541932E+04</pdfrwt>
<totfact> 0.19568561E+01</totfact>
</mgrwt>
</event>
<event>
12    4  0.4486176E-008  0.1565545E+04  0.7818608E-02  0.8841999E-01
         -2   -1    0    0    0  501 -0.00000000000E+00  0.00000000000E+00  0.10437266573E+04  0.10437266573E+04  0.00000000000E+00 0.  1.
          1   -1    0    0  501    0  0.00000000000E+00 -0.00000000000E+00 -0.58706269398E+03  0.58706269398E+03  0.00000000000E+00 0. -1.
        -24    2    1    2    0    0 -0.18719712693E+03  0.47728857431E+03  0.25078614587E+03  0.57611518277E+03  0.78535758507E+02 0.  0.
        254    2    1    2    0    0  0.18719712693E+03 -0.47728857431E+03  0.20587781742E+03  0.10546741685E+04  0.89839010369E+03 0.  0.
         23    2    4    4    0    0  0.15757013887E+03 -0.56301312254E+03  0.47356540361E+03  0.75796237613E+03  0.91818556495E+02 0.  0.
         23    2    4    4    0    0  0.29626988057E+02  0.85724548229E+02 -0.26768758620E+03  0.29671179233E+03  0.90303861005E+02 0.  0.
          1    1    3    3  502    0 -0.18632579249E+03  0.42479558881E+03  0.20788499811E+03  0.50831561618E+03  0.00000000000E+00 0. -1.
         -2    1    3    3    0  502 -0.87133444040E+00  0.52492985504E+02  0.42901147759E+02  0.67799566590E+02  0.00000000000E+00 0.  1.
         11    1    5    5    0    0  0.14051763590E+03 -0.51404092778E+03  0.39296499144E+03  0.66212141328E+03  0.00000000000E+00 0.  1.
        -11    1    5    5    0    0  0.17052502970E+02 -0.48972194762E+02  0.80600412175E+02  0.95840962851E+02  0.00000000000E+00 0. -1.
          4    1    6    6  503    0 -0.14375549367E+02 -0.10049257163E+02 -0.75599516994E+02  0.77607544471E+02  0.00000000000E+00 0. -1.
         -4    1    6    6    0  503  0.44002537424E+02  0.95773805392E+02 -0.19208806920E+03  0.21910424786E+03  0.00000000000E+00 0.  1.
<mgrwt>
<rscale>  0 0.15655453E+04</rscale>
<asrwt>0</asrwt>
<pdfrwt beam="1">  1        1 0.90317338E-01 0.15655453E+04</pdfrwt>
<pdfrwt beam="2">  1       -2 0.16057333E+00 0.15655453E+04</pdfrwt>
<totfact> 0.74178096E+00</totfact>
</mgrwt>
</event>
<event>
12    4  0.4486176E-008  0.3019412E+04  0.7818608E-02  0.8238209E-01
         -2   -1    0    0    0  501 -0.00000000000E+00  0.00000000000E+00  0.13381980509E+04  0.13381980509E+04  0.00000000000E+00 0.  1.
          1   -1    0    0  501    0  0.00000000000E+00 -0.00000000000E+00 -0.17031951689E+04  0.17031951689E+04  0.00000000000E+00 0. -1.
        -24    2    1    2    0    0 -0.10144648403E+04 -0.80897890916E+03  0.29092021556E+03  0.13321440734E+04  0.79921667125E+02 0.  0.
        254    2    1    2    0    0  0.10144648403E+04  0.80897890916E+03 -0.65591733356E+03  0.17092491464E+04  0.89873205592E+03 0.  0.
         23    2    4    4    0    0  0.77184895226E+03  0.26681542714E+03 -0.73590089480E+03  0.11030173614E+04  0.90309995312E+02 0.  0.
         23    2    4    4    0    0  0.24261588804E+03  0.54216348202E+03  0.79983561244E+02  0.60623178502E+03  0.91191538766E+02 0.  0.
          1    1    3    3  502    0 -0.83606267565E+03 -0.66761486884E+03  0.20834565923E+03  0.10900084057E+04  0.00000000000E+00 0. -1.
         -2    1    3    3    0  502 -0.17840216465E+03 -0.14136404033E+03  0.82574556330E+02  0.24213566776E+03  0.00000000000E+00 0.  1.
         11    1    5    5    0    0  0.87219932841E+02  0.48065429262E+02 -0.59205358378E+02  0.11585713891E+03  0.00000000000E+00 0.  1.
        -11    1    5    5    0    0  0.68462901942E+03  0.21874999788E+03 -0.67669553642E+03  0.98716022247E+03  0.00000000000E+00 0. -1.
          2    1    6    6  503    0  0.24197132064E+03  0.47852708475E+03  0.82537001029E+02  0.54254091771E+03  0.00000000000E+00 0. -1.
         -2    1    6    6    0  503  0.64456739689E+00  0.63636397269E+02 -0.25534397848E+01  0.63690867314E+02  0.00000000000E+00 0.  1.
<mgrwt>
<rscale>  0 0.30194122E+04</rscale>
<asrwt>0</asrwt>
<pdfrwt beam="1">  1        1 0.26203002E+00 0.30194122E+04</pdfrwt>
<pdfrwt beam="2">  1       -2 0.20587662E+00 0.30194122E+04</pdfrwt>
<totfact> 0.43105717E-01</totfact>
</mgrwt>
</event>
<event>
12    4  0.4486176E-008  0.2189087E+04  0.7818608E-02  0.8522984E-01
         -2   -1    0    0    0  501 -0.00000000000E+00  0.00000000000E+00  0.98428782163E+03  0.98428782163E+03  0.00000000000E+00 0.  1.
          1   -1    0    0  501    0  0.00000000000E+00 -0.00000000000E+00 -0.12171495529E+04  0.12171495529E+04  0.00000000000E+00 0. -1.
        -24    2    1    2    0    0 -0.31404041015E+03  0.65958065056E+03 -0.64088219319E+03  0.97510096894E+03  0.80149237524E+02 0.  0.
        254    2    1    2    0    0  0.31404041015E+03 -0.65958065056E+03  0.40802046195E+03  0.12263364056E+04  0.89652231898E+03 0.  0.
         23    2    4    4    0    0  0.12211989279E+02 -0.74630351717E+03  0.68549797248E+02  0.75505173965E+03  0.91027371810E+02 0.  0.
         23    2    4    4    0    0  0.30182842087E+03  0.86722866608E+02  0.33947066470E+03  0.47128466591E+03  0.90816589322E+02 0.  0.
          1    1    3    3  502    0 -0.22639232675E+03  0.48911222939E+03 -0.51719888661E+03  0.74697988384E+03  0.00000000000E+00 0. -1.
         -2    1    3    3    0  502 -0.87648083399E+02  0.17046842117E+03 -0.12368330658E+03  0.22812108510E+03  0.00000000000E+00 0.  1.
         11    1    5    5    0    0  0.62489208068E+00 -0.49297186259E+02  0.28167632268E+02  0.56780441797E+02  0.00000000000E+00 0. -1.
        -11    1    5    5    0    0  0.11587097198E+02 -0.69700633091E+03  0.40382164981E+02  0.69827129785E+03  0.00000000000E+00 0.  1.
          3    1    6    6  503    0  0.27406280310E+02  0.98274895184E+01  0.14441218753E+01  0.29150801681E+02  0.00000000000E+00 0. -1.
         -3    1    6    6    0  503  0.27442214056E+03  0.76895377089E+02  0.33802654282E+03  0.44213386423E+03  0.00000000000E+00 0.  1.
<mgrwt>
<rscale>  0 0.21890870E+04</rscale>
<asrwt>0</asrwt>
<pdfrwt beam="1">  1        1 0.18725378E+00 0.21890870E+04</pdfrwt>
<pdfrwt beam="2">  1       -2 0.15142889E+00 0.21890870E+04</pdfrwt>
<totfact> 0.24284652E+00</totfact>
</mgrwt>
</event>
<event>
12    4  0.4486176E-008  0.1789047E+04  0.7818608E-02  0.8712146E-01
         -2   -1    0    0    0  501 -0.00000000000E+00  0.00000000000E+00  0.14313783393E+04  0.14313783393E+04  0.00000000000E+00 0.  1.
          1   -1    0    0  501    0  0.00000000000E+00 -0.00000000000E+00 -0.55902251467E+03  0.55902251467E+03  0.00000000000E+00 0. -1.
        -24    2    1    2    0    0  0.45278353278E+02  0.25756185346E+03 -0.35430908694E+03  0.44794238621E+03  0.82031790463E+02 0.  0.
        254    2    1    2    0    0 -0.45278353278E+02 -0.25756185346E+03  0.12266649116E+04  0.15424584678E+04  0.89782129730E+03 0.  0.
         23    2    4    4    0    0 -0.21725339787E+03 -0.41917606632E+03  0.26484810309E+03  0.54869155477E+03  0.89500229580E+02 0.  0.
         23    2    4    4    0    0  0.17197504459E+03  0.16161421286E+03  0.96181680850E+03  0.99376691303E+03  0.82380425745E+02 0.  0.
          3    1    3    3  502    0  0.97533564723E+01  0.20895732974E+03 -0.30642516319E+03  0.37101842845E+03  0.00000000000E+00 0. -1.
         -4    1    3    3    0  502  0.35524996805E+02  0.48604523726E+02 -0.47883923742E+02  0.76923957761E+02  0.00000000000E+00 0.  1.
         11    1    5    5    0    0 -0.80169046341E+01 -0.37114505834E+01 -0.57430515925E+01  0.10536995157E+02  0.00000000000E+00 0.  1.
        -11    1    5    5    0    0 -0.20923649324E+03 -0.41546461574E+03  0.27059115469E+03  0.53815455961E+03  0.00000000000E+00 0. -1.
          1    1    6    6  503    0  0.41103224441E+02  0.92774959412E+02  0.35756892601E+03  0.37168831701E+03  0.00000000000E+00 0. -1.
         -1    1    6    6    0  503  0.13087182015E+03  0.68839253448E+02  0.60424788249E+03  0.62207859602E+03  0.00000000000E+00 0.  1.
<mgrwt>
<rscale>  0 0.17890475E+04</rscale>
<asrwt>0</asrwt>
<pdfrwt beam="1">  1        1 0.86003464E-01 0.17890475E+04</pdfrwt>
<pdfrwt beam="2">  1       -2 0.22021205E+00 0.17890475E+04</pdfrwt>
<totfact> 0.30855240E+00</totfact>
</mgrwt>
</event>
<event>
12    4  0.4486176E-008  0.1813463E+04  0.7818608E-02  0.8699173E-01
         -2   -1    0    0    0  501 -0.00000000000E+00  0.00000000000E+00  0.60532293053E+03  0.60532293053E+03  0.00000000000E+00 0.  1.
          1   -1    0    0  501    0  0.00000000000E+00 -0.00000000000E+00 -0.13582203153E+04  0.13582203153E+04  0.00000000000E+00 0. -1.
        -24    2    1    2    0    0 -0.62408507313E+03  0.90494130076E+02 -0.61677558087E+03  0.88599380761E+03  0.83075531244E+02 0.  0.
        254    2    1    2    0    0  0.62408507313E+03 -0.90494130076E+02 -0.13612180389E+03  0.10775494382E+04  0.86308300887E+03 0.  0.
         23    2    4    4    0    0  0.11099470979E+03 -0.42378537635E+03 -0.17083682692E+02  0.44752176008E+03  0.89833193859E+02 0.  0.
         23    2    4    4    0    0  0.51309036333E+03  0.33329124627E+03 -0.11903812120E+03  0.63002767812E+03  0.91760694811E+02 0.  0.
          3    1    3    3  502    0 -0.44603392893E+03  0.81866374529E+02 -0.48736731919E+03  0.66571410744E+03  0.00000000000E+00 0. -1.
         -4    1    3    3    0  502 -0.17805114419E+03  0.86277555463E+01 -0.12940826168E+03  0.22027970017E+03  0.00000000000E+00 0.  1.
         11    1    5    5    0    0  0.92427955839E+02 -0.21094338345E+03 -0.35729926223E+02  0.23305936083E+03  0.00000000000E+00 0. -1.
        -11    1    5    5    0    0  0.18566753955E+02 -0.21284199290E+03  0.18646243531E+02  0.21446239925E+03  0.00000000000E+00 0.  1.
          3    1    6    6  503    0  0.46378964472E+02  0.62508457930E+02 -0.17715815182E+01  0.77855341238E+02  0.00000000000E+00 0. -1.
         -3    1    6    6    0  503  0.46671139886E+03  0.27078278835E+03 -0.11726653968E+03  0.55217233688E+03  0.00000000000E+00 0.  1.
<mgrwt>
<rscale>  0 0.18134629E+04</rscale>
<asrwt>0</asrwt>
<pdfrwt beam="1">  1        1 0.20895697E+00 0.18134629E+04</pdfrwt>
<pdfrwt beam="2">  1       -2 0.93126605E-01 0.18134629E+04</pdfrwt>
<totfact> 0.66390352E+00</totfact>
</mgrwt>
</event>
<event>
12    4  0.4486176E-008  0.2275702E+04  0.7818608E-02  0.8487564E-01
         -2   -1    0    0    0  501 -0.00000000000E+00  0.00000000000E+00  0.51776140405E+03  0.51776140405E+03  0.00000000000E+00 0.  1.
          1   -1    0    0  501    0  0.00000000000E+00 -0.00000000000E+00 -0.25005816642E+04  0.25005816642E+04  0.00000000000E+00 0. -1.
        -24    2    1    2    0    0  0.94393359010E+03 -0.76249408277E+01 -0.61542765794E+03  0.11297699958E+04  0.80995550040E+02 0.  0.
        254    2    1    2    0    0 -0.94393359010E+03  0.76249408277E+01 -0.13673926022E+04  0.18885730724E+04  0.89770649936E+03 0.  0.
         23    2    4    4    0    0 -0.54541107106E+03  0.42768720996E+03 -0.89534082570E+03  0.11358951759E+04  0.90736269179E+02 0.  0.
         23    2    4    4    0    0 -0.39852251903E+03 -0.42006226913E+03 -0.47205177650E+03  0.75267789646E+03  0.91753081691E+02 0.  0.
          1    1    3    3  502    0  0.20136244050E+03 -0.13683352073E+02 -0.16958183728E+03  0.26361347861E+03  0.00000000000E+00 0. -1.
         -2    1    3    3    0  502  0.74257114959E+03  0.60584112449E+01 -0.44584582066E+03  0.86615651724E+03  0.00000000000E+00 0.  1.
         11    1    5    5    0    0 -0.41256426520E+03  0.36790406723E+03 -0.68971104259E+03  0.88389139484E+03  0.00000000000E+00 0.  1.
        -11    1    5    5    0    0 -0.13284680587E+03  0.59783142725E+02 -0.20562978311E+03  0.25200378109E+03  0.00000000000E+00 0. -1.
          1    1    6    6  503    0 -0.22134168997E+02 -0.59043710905E+02 -0.34340925543E+02  0.71800977722E+02  0.00000000000E+00 0. -1.
         -1    1    6    6    0  503 -0.37638835004E+03 -0.36101855823E+03 -0.43771085096E+03  0.68087691874E+03  0.00000000000E+00 0.  1.
<mgrwt>
<rscale>  0 0.22757018E+04</rscale>
<asrwt>0</asrwt>
<pdfrwt beam="1">  1        1 0.38470487E+00 0.22757018E+04</pdfrwt>
<pdfrwt beam="2">  1       -2 0.79655601E-01 0.22757018E+04</pdfrwt>
<totfact> 0.15037757E+00</totfact>
</mgrwt>
</event>
<event>
12    4  0.4486176E-008  0.1385146E+04  0.7818608E-02  0.8964641E-01
         -4   -1    0    0    0  501 -0.00000000000E+00  0.00000000000E+00  0.23716442596E+03  0.23716442596E+03  0.00000000000E+00 0.  1.
          3   -1    0    0  501    0  0.00000000000E+00 -0.00000000000E+00 -0.20224689245E+04  0.20224689245E+04  0.00000000000E+00 0. -1.
        -24    2    1    2    0    0 -0.87085594489E+02 -0.27936943805E+03 -0.77197349824E+02  0.31274453894E+03  0.78857670078E+02 0.  0.
        254    2    1    2    0    0  0.87085594489E+02  0.27936943805E+03 -0.17081071487E+04  0.19468888115E+04  0.88719492180E+03 0.  0.
         23    2    4    4    0    0  0.34516177418E+03  0.20368427300E+03 -0.15852613913E+04  0.16378962725E+04  0.95008354815E+02 0.  0.
         23    2    4    4    0    0 -0.25807617969E+03  0.75685165053E+02 -0.12284575739E+03  0.30899253895E+03  0.89742689315E+02 0.  0.
          3    1    3    3  502    0 -0.56600090372E+02 -0.96809471620E+02 -0.59134265304E+02  0.12677738504E+03  0.00000000000E+00 0. -1.
         -4    1    3    3    0  502 -0.30485504117E+02 -0.18255996643E+03 -0.18063084521E+02  0.18596715389E+03  0.00000000000E+00 0.  1.
         11    1    5    5    0    0  0.22380737191E+03  0.11710077564E+03 -0.81141572787E+03  0.84982222542E+03  0.00000000000E+00 0.  1.
        -11    1    5    5    0    0  0.12135440226E+03  0.86583497355E+02 -0.77384566342E+03  0.78807404713E+03  0.00000000000E+00 0. -1.
          1    1    6    6  503    0 -0.11433741702E+02  0.23294095644E+02  0.47830682481E+01  0.26386039549E+02  0.00000000000E+00 0. -1.
         -1    1    6    6    0  503 -0.24664243798E+03  0.52391069409E+02 -0.12762882564E+03  0.28260649940E+03  0.00000000000E+00 0.  1.
<mgrwt>
<rscale>  0 0.13851465E+04</rscale>
<asrwt>0</asrwt>
<pdfrwt beam="1">  1        3 0.31114906E+00 0.13851465E+04</pdfrwt>
<pdfrwt beam="2">  1       -4 0.36486836E-01 0.13851465E+04</pdfrwt>
<totfact> 0.55397346E-01</totfact>
</mgrwt>
</event>
<event>
12    4  0.4486176E-008  0.1801767E+04  0.7818608E-02  0.8705360E-01
         -2   -1    0    0    0  501 -0.00000000000E+00  0.00000000000E+00  0.23498664022E+03  0.23498664022E+03  0.00000000000E+00 0.  1.
          1   -1    0    0  501    0  0.00000000000E+00 -0.00000000000E+00 -0.34537747775E+04  0.34537747775E+04  0.00000000000E+00 0. -1.
        -24    2    1    2    0    0 -0.29157996050E+02  0.52281804499E+03 -0.21344286299E+04  0.21992057534E+04  0.80817527197E+02 0.  0.
        254    2    1    2    0    0  0.29157996050E+02 -0.52281804499E+03 -0.10843595074E+04  0.14895556643E+04  0.87678483050E+03 0.  0.
         23    2    4    4    0    0  0.17864840047E+03 -0.37379625170E+03 -0.11698860512E+04  0.12444221657E+04  0.91182591151E+02 0.  0.
         23    2    4    4    0    0 -0.14949040442E+03 -0.14902179329E+03  0.85526543844E+02  0.24513349860E+03  0.90668442930E+02 0.  0.
          3    1    3    3  502    0  0.59877176918E+01  0.43516059961E+03 -0.17309220704E+04  0.17847946139E+04  0.00000000000E+00 0. -1.
         -4    1    3    3    0  502 -0.35145713741E+02  0.87657445384E+02 -0.40350655954E+03  0.41441113947E+03  0.00000000000E+00 0.  1.
         11    1    5    5    0    0 -0.12266204597E+01 -0.17566315561E+02 -0.17219131460E+02  0.24628815001E+02  0.00000000000E+00 0. -1.
        -11    1    5    5    0    0  0.17987502093E+03 -0.35622993614E+03 -0.11526669198E+04  0.12197933507E+04  0.00000000000E+00 0.  1.
          1    1    6    6  503    0 -0.83155967826E+02 -0.31274981228E+02  0.76902686979E+01  0.89174994637E+02  0.00000000000E+00 0. -1.
         -1    1    6    6    0  503 -0.66334436597E+02 -0.11774681206E+03  0.77836275146E+02  0.15595850396E+03  0.00000000000E+00 0.  1.
<mgrwt>
<rscale>  0 0.18017668E+04</rscale>
<asrwt>0</asrwt>
<pdfrwt beam="1">  1        1 0.53134996E+00 0.18017668E+04</pdfrwt>
<pdfrwt beam="2">  1       -2 0.36151791E-01 0.18017668E+04</pdfrwt>
<totfact> 0.16309320E+00</totfact>
</mgrwt>
</event>
<event>
12    4  0.4486176E-008  0.1458615E+04  0.7818608E-02  0.8912450E-01
         -2   -1    0    0    0  501 -0.00000000000E+00  0.00000000000E+00  0.31341270894E+03  0.31341270894E+03  0.00000000000E+00 0.  1.
          1   -1    0    0  501    0  0.00000000000E+00 -0.00000000000E+00 -0.16970899107E+04  0.16970899107E+04  0.00000000000E+00 0. -1.
        -24    2    1    2    0    0 -0.32129196407E+03  0.14498405408E+03 -0.72953213374E+03  0.81425910981E+03  0.80943570673E+02 0.  0.
        254    2    1    2    0    0  0.32129196407E+03 -0.14498405408E+03 -0.65414506798E+03  0.11962435098E+04  0.93746672616E+03 0.  0.
         23    2    4    4    0    0  0.43976647897E+03 -0.44379742611E+03 -0.57273359598E+03  0.85254607658E+03  0.91980048243E+02 0.  0.
         23    2    4    4    0    0 -0.11847451490E+03  0.29881337203E+03 -0.81411472003E+02  0.34369743322E+03  0.90412697344E+02 0.  0.
          3    1    3    3  502    0 -0.21001470800E+03  0.92261954571E+02 -0.38227548953E+03  0.44581722234E+03  0.00000000000E+00 0. -1.
         -4    1    3    3    0  502 -0.11127725607E+03  0.52722099507E+02 -0.34725664421E+03  0.36844188747E+03  0.00000000000E+00 0.  1.
         11    1    5    5    0    0  0.20404178461E+03 -0.17247510849E+03 -0.29742212744E+03  0.39980074388E+03  0.00000000000E+00 0.  1.
        -11    1    5    5    0    0  0.23572469436E+03 -0.27132231762E+03 -0.27531146854E+03  0.45274533270E+03  0.00000000000E+00 0. -1.
          1    1    6    6  503    0 -0.10526415870E+03  0.28517119061E+03 -0.97051631678E+02  0.31909586377E+03  0.00000000000E+00 0. -1.
         -1    1    6    6    0  503 -0.13210356196E+02  0.13642181420E+02  0.15640159675E+02  0.24601569449E+02  0.00000000000E+00 0.  1.
<mgrwt>
<rscale>  0 0.14586152E+04</rscale>
<asrwt>0</asrwt>
<pdfrwt beam="1">  1        1 0.26109076E+00 0.14586152E+04</pdfrwt>
<pdfrwt beam="2">  1       -2 0.48217339E-01 0.14586152E+04</pdfrwt>
<totfact> 0.16619985E+01</totfact>
</mgrwt>
</event>
<event>
12    4  0.4486176E-008  0.3499159E+04  0.7818608E-02  0.8113989E-01
         -4   -1    0    0    0  501 -0.00000000000E+00  0.00000000000E+00  0.18971758888E+04  0.18971758888E+04  0.00000000000E+00 0.  1.
          3   -1    0    0  501    0  0.00000000000E+00 -0.00000000000E+00 -0.16134657670E+04  0.16134657670E+04  0.00000000000E+00 0. -1.
        -24    2    1    2    0    0 -0.13536556037E+04  0.65640141530E+03  0.76212490087E+03  0.16883451162E+04  0.80178273269E+02 0.  0.
        254    2    1    2    0    0  0.13536556037E+04 -0.65640141530E+03 -0.47841477898E+03  0.18222965396E+04  0.91029537284E+03 0.  0.
         23    2    4    4    0    0  0.60101956981E+03 -0.44894039542E+03  0.20250307220E+03  0.78222039509E+03  0.89940259690E+02 0.  0.
         23    2    4    4    0    0  0.75263603392E+03 -0.20746101989E+03 -0.68091785119E+03  0.10400761445E+04  0.92780342181E+02 0.  0.
          1    1    3    3  502    0 -0.30962021965E+03  0.16722632407E+03  0.21259116691E+03  0.41112568410E+03  0.00000000000E+00 0. -1.
         -2    1    3    3    0  502 -0.10440353841E+04  0.48917509124E+03  0.54953373396E+03  0.12772194321E+04  0.00000000000E+00 0.  1.
         11    1    5    5    0    0  0.39877382461E+03 -0.24337334070E+03  0.12633082628E+03  0.48395312151E+03  0.00000000000E+00 0.  1.
        -11    1    5    5    0    0  0.20224574520E+03 -0.20556705472E+03  0.76172245925E+02  0.29826727358E+03  0.00000000000E+00 0. -1.
          3    1    6    6  503    0  0.38699748048E+03 -0.74346304831E+02 -0.29714141504E+03  0.49354578660E+03  0.00000000000E+00 0. -1.
         -3    1    6    6    0  503  0.36563855344E+03 -0.13311471506E+03 -0.38377643615E+03  0.54653035786E+03  0.00000000000E+00 0.  1.
<mgrwt>
<rscale>  0 0.34991590E+04</rscale>
<asrwt>0</asrwt>
<pdfrwt beam="1">  1        3 0.24822550E+00 0.34991590E+04</pdfrwt>
<pdfrwt beam="2">  1       -4 0.29187321E+00 0.34991590E+04</pdfrwt>
<totfact> 0.48678954E-03</totfact>
</mgrwt>
</event>
<event>
12    4  0.4486176E-008  0.1287998E+04  0.7818608E-02  0.9039137E-01
         -2   -1    0    0    0  501 -0.00000000000E+00  0.00000000000E+00  0.44911404617E+03  0.44911404617E+03  0.00000000000E+00 0.  1.
          1   -1    0    0  501    0  0.00000000000E+00 -0.00000000000E+00 -0.92345082761E+03  0.92345082761E+03  0.00000000000E+00 0. -1.
        -24    2    1    2    0    0 -0.31354250483E+03 -0.54220069068E+02 -0.14824226460E+03  0.36028108278E+03  0.81104693873E+02 0.  0.
        254    2    1    2    0    0  0.31354250483E+03  0.54220069068E+02 -0.32609451684E+03  0.10122837910E+04  0.90395360578E+03 0.  0.
         23    2    4    4    0    0 -0.66482700215E+02  0.25620664860E+03 -0.47161296080E+03  0.54850177946E+03  0.91507491848E+02 0.  0.
         23    2    4    4    0    0  0.38002520504E+03 -0.20198657954E+03  0.14551844396E+03  0.46378201154E+03  0.93275945013E+02 0.  0.
          3    1    3    3  502    0 -0.19085281464E+02 -0.22801250275E+02 -0.14596892829E+01  0.29770382521E+02  0.00000000000E+00 0. -1.
         -4    1    3    3    0  502 -0.29445722336E+03 -0.31418818794E+02 -0.14678257532E+03  0.33051070025E+03  0.00000000000E+00 0.  1.
         11    1    5    5    0    0 -0.83793825941E+02  0.22618365426E+03 -0.43906627330E+03  0.50095872392E+03  0.00000000000E+00 0. -1.
        -11    1    5    5    0    0  0.17311125726E+02  0.30022994349E+02 -0.32546687495E+02  0.47543055545E+02  0.00000000000E+00 0.  1.
          4    1    6    6  503    0  0.35760226936E+03 -0.16586506921E+03  0.14831582520E+03  0.42117477161E+03  0.00000000000E+00 0. -1.
         -4    1    6    6    0  503  0.22422935684E+02 -0.36121510330E+02 -0.27973812397E+01  0.42607239937E+02  0.00000000000E+00 0.  1.
<mgrwt>
<rscale>  0 0.12879980E+04</rscale>
<asrwt>0</asrwt>
<pdfrwt beam="1">  1        1 0.14206936E+00 0.12879980E+04</pdfrwt>
<pdfrwt beam="2">  1       -2 0.69094469E-01 0.12879980E+04</pdfrwt>
<totfact> 0.28706846E+01</totfact>
</mgrwt>
</event>
<event>
12    4  0.4486176E-008  0.2612434E+04  0.7818608E-02  0.8363990E-01
          1   -1    0    0  501    0  0.00000000000E+00  0.00000000000E+00  0.12255769151E+04  0.12255769151E+04  0.00000000000E+00 0. -1.
         -2   -1    0    0    0  501 -0.00000000000E+00 -0.00000000000E+00 -0.13921633896E+04  0.13921633896E+04  0.00000000000E+00 0.  1.
        -24    2    1    2    0    0 -0.35505061347E+02 -0.51736252782E+02  0.10775715624E+04  0.10824322460E+04  0.81005221240E+02 0.  0.
        254    2    1    2    0    0  0.35505061347E+02  0.51736252782E+02 -0.12441580369E+04  0.15353080586E+04  0.89738752214E+03 0.  0.
         23    2    4    4    0    0 -0.17131855964E+02 -0.39117769799E+03 -0.82325447928E+03  0.91623952174E+03  0.91833717326E+02 0.  0.
         23    2    4    4    0    0  0.52636917311E+02  0.44291395077E+03 -0.42090355763E+03  0.61906853691E+03  0.84514115465E+02 0.  0.
          3    1    3    3  502    0 -0.56730471055E+01 -0.64297243279E+02  0.86563068401E+03  0.86803387034E+03  0.00000000000E+00 0. -1.
         -4    1    3    3    0  502 -0.29832014241E+02  0.12560990496E+02  0.21194087839E+03  0.21439837566E+03  0.00000000000E+00 0.  1.
         11    1    5    5    0    0 -0.53693623278E+02 -0.28124428312E+03 -0.58607973350E+03  0.65228123228E+03  0.00000000000E+00 0.  1.
        -11    1    5    5    0    0  0.36561767313E+02 -0.10993341487E+03 -0.23717474578E+03  0.26395828945E+03  0.00000000000E+00 0. -1.
          1    1    6    6  503    0  0.42285070429E+02  0.19063753042E+03 -0.23489517020E+03  0.30546102234E+03  0.00000000000E+00 0. -1.
         -1    1    6    6    0  503  0.10351846882E+02  0.25227642035E+03 -0.18600838743E+03  0.31360751457E+03  0.00000000000E+00 0.  1.
<mgrwt>
<rscale>  0 0.26124344E+04</rscale>
<asrwt>0</asrwt>
<pdfrwt beam="1">  1        1 0.18855029E+00 0.26124344E+04</pdfrwt>
<pdfrwt beam="2">  1       -2 0.21417898E+00 0.26124344E+04</pdfrwt>
<totfact> 0.85070956E-01</totfact>
</mgrwt>
</event>
<event>
12    4  0.4486176E-008  0.2284974E+04  0.7818608E-02  0.8483869E-01
          1   -1    0    0  501    0  0.00000000000E+00  0.00000000000E+00  0.74629717560E+03  0.74629717560E+03  0.00000000000E+00 0. -1.
         -2   -1    0    0    0  501 -0.00000000000E+00 -0.00000000000E+00 -0.17490044008E+04  0.17490044008E+04  0.00000000000E+00 0.  1.
        -24    2    1    2    0    0 -0.11254084115E+03 -0.29042984785E+03 -0.14263567153E+04  0.14621269766E+04  0.79415861038E+02 0.  0.
        254    2    1    2    0    0  0.11254084115E+03  0.29042984785E+03  0.42364949004E+03  0.10331745999E+04  0.88935702951E+03 0.  0.
         23    2    4    4    0    0  0.11672566991E+03  0.57350790564E+03  0.11284797815E+03  0.60294811738E+03  0.90970139293E+02 0.  0.
         23    2    4    4    0    0 -0.41848287593E+01 -0.28307805778E+03  0.31080151189E+03  0.43022648248E+03  0.91359437614E+02 0.  0.
          3    1    3    3  502    0 -0.21168301420E+02 -0.59135232042E+01 -0.76887934217E+02  0.79967625761E+02  0.00000000000E+00 0. -1.
         -4    1    3    3    0  502 -0.91372539735E+02 -0.28451632465E+03 -0.13494687810E+04  0.13821593508E+04  0.00000000000E+00 0.  1.
         11    1    5    5    0    0  0.43069055720E+02  0.19767037142E+03  0.83420371236E+02  0.21883207634E+03  0.00000000000E+00 0.  1.
        -11    1    5    5    0    0  0.73656614194E+02  0.37583753422E+03  0.29427606910E+02  0.38411604105E+03  0.00000000000E+00 0. -1.
          4    1    6    6  503    0 -0.19828281386E+01 -0.27951501861E+03  0.31706899994E+03  0.42268821601E+03  0.00000000000E+00 0. -1.
         -4    1    6    6    0  503 -0.22020006207E+01 -0.35630391690E+01 -0.62674880449E+01  0.75382664616E+01  0.00000000000E+00 0.  1.
<mgrwt>
<rscale>  0 0.22849744E+04</rscale>
<asrwt>0</asrwt>
<pdfrwt beam="1">  1        1 0.11481495E+00 0.22849744E+04</pdfrwt>
<pdfrwt beam="2">  1       -2 0.26907760E+00 0.22849744E+04</pdfrwt>
<totfact> 0.96131229E-01</totfact>
</mgrwt>
</event>
<event>
12    4  0.4486176E-008  0.1304431E+04  0.7818608E-02  0.9026058E-01
         -2   -1    0    0    0  501 -0.00000000000E+00  0.00000000000E+00  0.99467623213E+02  0.99467623213E+02  0.00000000000E+00 0.  1.
          1   -1    0    0  501    0  0.00000000000E+00 -0.00000000000E+00 -0.42766205362E+04  0.42766205362E+04  0.00000000000E+00 0. -1.
        -24    2    1    2    0    0  0.86014792080E+02  0.26868665647E+03 -0.18190551960E+04  0.18425123256E+04  0.79364979668E+02 0.  0.
        254    2    1    2    0    0 -0.86014792080E+02 -0.26868665647E+03 -0.23580977170E+04  0.25335758338E+04  0.88249113259E+03 0.  0.
         23    2    4    4    0    0 -0.10212776885E+03  0.71178450914E+02 -0.50676453614E+01  0.15434404182E+03  0.91104056830E+02 0.  0.
         23    2    4    4    0    0  0.16112976767E+02 -0.33986510739E+03 -0.23530300716E+04  0.23792317920E+04  0.90694448129E+02 0.  0.
          1    1    3    3  502    0  0.46290498955E+02  0.23828714942E+03 -0.15387312942E+04  0.15577604346E+04  0.00000000000E+00 0. -1.
         -4    1    3    3    0  502  0.39724293125E+02  0.30399507050E+02 -0.28032390187E+03  0.28475189104E+03  0.00000000000E+00 0.  1.
         11    1    5    5    0    0 -0.11576697234E+03  0.75357279192E+02 -0.11670354080E+02  0.13862506475E+03  0.00000000000E+00 0. -1.
        -11    1    5    5    0    0  0.13639203493E+02 -0.41788282783E+01  0.66027087190E+01  0.15718977070E+02  0.00000000000E+00 0.  1.
          4    1    6    6  503    0  0.48338815441E+02 -0.19205837096E+03 -0.14799275839E+04  0.14931204614E+04  0.00000000000E+00 0. -1.
         -4    1    6    6    0  503 -0.32225838674E+02 -0.14780673643E+03 -0.87310248775E+03  0.88611133055E+03  0.00000000000E+00 0.  1.
<mgrwt>
<rscale>  0 0.13044313E+04</rscale>
<asrwt>0</asrwt>
<pdfrwt beam="1">  1        1 0.65794150E+00 0.13044313E+04</pdfrwt>
<pdfrwt beam="2">  1       -2 0.15302714E-01 0.13044313E+04</pdfrwt>
<totfact> 0.16243494E+00</totfact>
</mgrwt>
</event>
<event>
12    4  0.4486176E-008  0.1260691E+04  0.7818608E-02  0.9061332E-01
          1   -1    0    0  501    0  0.00000000000E+00  0.00000000000E+00  0.15610934965E+04  0.15610934965E+04  0.00000000000E+00 0. -1.
         -2   -1    0    0    0  501 -0.00000000000E+00 -0.00000000000E+00 -0.25452363417E+03  0.25452363417E+03  0.00000000000E+00 0.  1.
        -24    2    1    2    0    0 -0.24004902773E+03  0.91012114040E+02  0.86022192707E+02  0.28204335248E+03  0.79005660703E+02 0.  0.
        254    2    1    2    0    0  0.24004902773E+03 -0.91012114040E+02  0.12205476696E+04  0.15335737782E+04  0.89230329972E+03 0.  0.
         23    2    4    4    0    0  0.14463049570E+03 -0.38240033895E+03  0.20169314181E+03  0.46537877654E+03  0.93537600400E+02 0.  0.
         23    2    4    4    0    0  0.95418532037E+02  0.29138822491E+03  0.10188545278E+04  0.10681950016E+04  0.94679558703E+02 0.  0.
          3    1    3    3  502    0  0.27703834975E+01 -0.18186051113E+01 -0.55189604286E+01  0.64374896882E+01  0.00000000000E+00 0. -1.
         -4    1    3    3    0  502 -0.24281941123E+03  0.92830719152E+02  0.91541153135E+02  0.27560586279E+03  0.00000000000E+00 0.  1.
         11    1    5    5    0    0  0.23385809345E+02 -0.12691707352E+03  0.23640315294E+02  0.13120100661E+03  0.00000000000E+00 0. -1.
        -11    1    5    5    0    0  0.12124468635E+03 -0.25548326543E+03  0.17805282652E+03  0.33417776993E+03  0.00000000000E+00 0.  1.
          2    1    6    6  503    0  0.37118136461E+02  0.44927739932E+02  0.31061779085E+03  0.31603745009E+03  0.00000000000E+00 0. -1.
         -2    1    6    6    0  503  0.58300395576E+02  0.24646048498E+03  0.70823673693E+03  0.75215755152E+03  0.00000000000E+00 0.  1.
<mgrwt>
<rscale>  0 0.12606906E+04</rscale>
<asrwt>0</asrwt>
<pdfrwt beam="1">  1        1 0.24016822E+00 0.12606906E+04</pdfrwt>
<pdfrwt beam="2">  1       -2 0.39157483E-01 0.12606906E+04</pdfrwt>
<totfact> 0.31643260E+01</totfact>
</mgrwt>
</event>
<event>
12    4  0.4486176E-008  0.1809860E+04  0.7818608E-02  0.8701073E-01
          1   -1    0    0  501    0  0.00000000000E+00  0.00000000000E+00  0.54860048492E+03  0.54860048492E+03  0.00000000000E+00 0. -1.
         -2   -1    0    0    0  501 -0.00000000000E+00 -0.00000000000E+00 -0.14927045154E+04  0.14927045154E+04  0.00000000000E+00 0.  1.
        -24    2    1    2    0    0  0.78216867945E+02  0.60154560523E+03  0.73266275594E+02  0.61604124297E+03  0.78510332448E+02 0.  0.
        254    2    1    2    0    0 -0.78216867945E+02 -0.60154560523E+03 -0.10173703061E+04  0.14252637573E+04  0.79269126694E+03 0.  0.
         23    2    4    4    0    0 -0.42433636580E+03 -0.35783451932E+03 -0.52131891970E+03  0.76684714586E+03  0.90411473364E+02 0.  0.
         23    2    4    4    0    0  0.34611949786E+03 -0.24371108592E+03 -0.49605138635E+03  0.65841661146E+03  0.90838626975E+02 0.  0.
          1    1    3    3  502    0  0.66966294458E+02  0.32285512856E+03  0.70148173570E+02  0.33710634062E+03  0.00000000000E+00 0. -1.
         -2    1    3    3    0  502  0.11250573488E+02  0.27869047667E+03  0.31181020240E+01  0.27893490235E+03  0.00000000000E+00 0.  1.
         11    1    5    5    0    0 -0.41095950436E+03 -0.32535474643E+03 -0.46620836751E+03  0.70149388250E+03  0.00000000000E+00 0. -1.
        -11    1    5    5    0    0 -0.13376861445E+02 -0.32479772885E+02 -0.55110552197E+02  0.65353263363E+02  0.00000000000E+00 0.  1.
          4    1    6    6  503    0  0.32893827496E+03 -0.23652761178E+03 -0.49513859130E+03  0.63977177530E+03  0.00000000000E+00 0. -1.
         -4    1    6    6    0  503  0.17181222893E+02 -0.71834741378E+01 -0.91279505025E+00  0.18644836164E+02  0.00000000000E+00 0.  1.
<mgrwt>
<rscale>  0 0.18098601E+04</rscale>
<asrwt>0</asrwt>
<pdfrwt beam="1">  1        1 0.84400076E-01 0.18098601E+04</pdfrwt>
<pdfrwt beam="2">  1       -2 0.22964685E+00 0.18098601E+04</pdfrwt>
<totfact> 0.27593640E+00</totfact>
</mgrwt>
</event>
<event>
12    4  0.4486176E-008  0.1428891E+04  0.7818608E-02  0.8933168E-01
          1   -1    0    0  501    0  0.00000000000E+00  0.00000000000E+00  0.23114169767E+03  0.23114169767E+03  0.00000000000E+00 0. -1.
         -2   -1    0    0    0  501 -0.00000000000E+00 -0.00000000000E+00 -0.22083079704E+04  0.22083079704E+04  0.00000000000E+00 0.  1.
        -24    2    1    2    0    0  0.89507780661E+02  0.38130325241E+03 -0.76279517887E+03  0.86164666195E+03  0.84703435843E+02 0.  0.
        254    2    1    2    0    0 -0.89507780661E+02 -0.38130325241E+03 -0.12143710939E+04  0.15778030061E+04  0.92809555513E+03 0.  0.
         23    2    4    4    0    0 -0.38015217456E+02  0.29962195415E+03 -0.43623684944E+03  0.53856181174E+03  0.92345893704E+02 0.  0.
         23    2    4    4    0    0 -0.51492563205E+02 -0.68092520656E+03 -0.77813424445E+03  0.10392411944E+04  0.90657248976E+02 0.  0.
          3    1    3    3  502    0  0.61947634436E+02  0.12151171147E+03 -0.21280150391E+03  0.25275894743E+03  0.00000000000E+00 0. -1.
         -4    1    3    3    0  502  0.27560146225E+02  0.25979154094E+03 -0.54999367496E+03  0.60888771452E+03  0.00000000000E+00 0.  1.
         11    1    5    5    0    0 -0.68680287298E+02  0.19349427280E+03 -0.27977351840E+03  0.34703059961E+03  0.00000000000E+00 0. -1.
        -11    1    5    5    0    0  0.30665069842E+02  0.10612768135E+03 -0.15646333104E+03  0.19153121213E+03  0.00000000000E+00 0.  1.
          1    1    6    6  503    0 -0.77046897382E+02 -0.53350368198E+03 -0.59855151488E+03  0.80549755992E+03  0.00000000000E+00 0.  1.
         -1    1    6    6    0  503  0.25554334177E+02 -0.14742152458E+03 -0.17958272957E+03  0.23374363449E+03  0.00000000000E+00 0. -1.
<mgrwt>
<rscale>  0 0.14288906E+04</rscale>
<asrwt>0</asrwt>
<pdfrwt beam="1">  1        1 0.35560262E-01 0.14288906E+04</pdfrwt>
<pdfrwt beam="2">  1       -2 0.33973968E+00 0.14288906E+04</pdfrwt>
<totfact> 0.19015903E+00</totfact>
</mgrwt>
</event>
<event>
12    4  0.4486176E-008  0.2955411E+04  0.7818608E-02  0.8256579E-01
         -2   -1    0    0    0  501 -0.00000000000E+00  0.00000000000E+00  0.18010338718E+04  0.18010338718E+04  0.00000000000E+00 0.  1.
          1   -1    0    0  501    0  0.00000000000E+00 -0.00000000000E+00 -0.12124226461E+04  0.12124226461E+04  0.00000000000E+00 0. -1.
        -24    2    1    2    0    0  0.31242334520E+02 -0.11072449537E+04  0.10318243946E+04  0.15149342771E+04  0.58282174369E+02 0.  0.
        254    2    1    2    0    0 -0.31242334520E+02  0.11072449537E+04 -0.44321316885E+03  0.14985222407E+04  0.90673233210E+03 0.  0.
         23    2    4    4    0    0  0.24194239347E+03  0.20947622097E+03  0.16953913248E+03  0.37393565971E+03  0.93101832673E+02 0.  0.
         23    2    4    4    0    0 -0.27318472800E+03  0.89776873271E+03 -0.61275230133E+03  0.11245865810E+04  0.92795487147E+02 0.  0.
          1    1    3    3  502    0  0.25503020935E+02 -0.34457998193E+03  0.35198740249E+03  0.49323513615E+03  0.00000000000E+00 0. -1.
         -2    1    3    3    0  502  0.57393135857E+01 -0.76266497175E+03  0.67983699209E+03  0.10216991410E+04  0.00000000000E+00 0.  1.
         11    1    5    5    0    0  0.17189260582E+03  0.17634655705E+03  0.16476786754E+03  0.29629989250E+03  0.00000000000E+00 0.  1.
        -11    1    5    5    0    0  0.70049787652E+02  0.33129663917E+02  0.47712649435E+01  0.77635767211E+02  0.00000000000E+00 0. -1.
          2    1    6    6  503    0 -0.75106971227E+02  0.29650123105E+03 -0.24947363892E+03  0.39470385564E+03  0.00000000000E+00 0. -1.
         -2    1    6    6    0  503 -0.19807775677E+03  0.60126750166E+03 -0.36327866241E+03  0.72988272540E+03  0.00000000000E+00 0.  1.
<mgrwt>
<rscale>  0 0.29554115E+04</rscale>
<asrwt>0</asrwt>
<pdfrwt beam="1">  1        1 0.18652656E+00 0.29554115E+04</pdfrwt>
<pdfrwt beam="2">  1       -2 0.27708214E+00 0.29554115E+04</pdfrwt>
<totfact> 0.34427153E-01</totfact>
</mgrwt>
</event>
<event>
12    4  0.4486176E-008  0.1378077E+04  0.7818608E-02  0.8969842E-01
          1   -1    0    0  501    0  0.00000000000E+00  0.00000000000E+00  0.17997224393E+04  0.17997224393E+04  0.00000000000E+00 0. -1.
         -2   -1    0    0    0  501 -0.00000000000E+00 -0.00000000000E+00 -0.26380394891E+03  0.26380394891E+03  0.00000000000E+00 0.  1.
        -24    2    1    2    0    0  0.11959568943E+03 -0.16142282225E+03 -0.55606003117E+02  0.22349653203E+03  0.80611511418E+02 0.  0.
        254    2    1    2    0    0 -0.11959568943E+03  0.16142282225E+03  0.15915244935E+04  0.18400298562E+04  0.90133190431E+03 0.  0.
         23    2    4    4    0    0 -0.34092945461E+03  0.42955479612E+03  0.83982023352E+03  0.10075763037E+04  0.95717121431E+02 0.  0.
         23    2    4    4    0    0  0.22133376518E+03 -0.26813197387E+03  0.75170425997E+03  0.83245355243E+03  0.83882247634E+02 0.  0.
          1    1    3    3  502    0  0.58651595708E+02 -0.28278813081E+02 -0.39565449181E+02  0.76191375609E+02  0.00000000000E+00 0. -1.
         -2    1    3    3    0  502  0.60944093718E+02 -0.13314400917E+03 -0.16040553936E+02  0.14730515642E+03  0.00000000000E+00 0.  1.
         11    1    5    5    0    0 -0.18458799938E+03  0.30406368769E+03  0.51609919081E+03  0.62680605488E+03  0.00000000000E+00 0.  1.
        -11    1    5    5    0    0 -0.15634145523E+03  0.12549110844E+03  0.32372104271E+03  0.38077024886E+03  0.00000000000E+00 0. -1.
          2    1    6    6  503    0  0.10211418205E+02  0.29664389001E+01  0.83304281173E+01  0.13508103276E+02  0.00000000000E+00 0. -1.
         -2    1    6    6    0  503  0.21112234698E+03 -0.27109841277E+03  0.74337383185E+03  0.81894544915E+03  0.00000000000E+00 0.  1.
<mgrwt>
<rscale>  0 0.13780768E+04</rscale>
<asrwt>0</asrwt>
<pdfrwt beam="1">  1        1 0.27688037E+00 0.13780768E+04</pdfrwt>
<pdfrwt beam="2">  1       -2 0.40585224E-01 0.13780768E+04</pdfrwt>
<totfact> 0.20092469E+01</totfact>
</mgrwt>
</event>
<event>
12    4  0.4486176E-008  0.1632746E+04  0.7818608E-02  0.8800680E-01
         -2   -1    0    0    0  501 -0.00000000000E+00  0.00000000000E+00  0.21977651620E+03  0.21977651620E+03  0.00000000000E+00 0.  1.
          1   -1    0    0  501    0  0.00000000000E+00 -0.00000000000E+00 -0.30324653773E+04  0.30324653773E+04  0.00000000000E+00 0. -1.
        -24    2    1    2    0    0 -0.27017689885E+02  0.44347941610E+03 -0.32138143552E+03  0.55419367464E+03  0.80253684296E+02 0.  0.
        254    2    1    2    0    0  0.27017689885E+02 -0.44347941610E+03 -0.24913074256E+04  0.26980482189E+04  0.93565354405E+03 0.  0.
         23    2    4    4    0    0 -0.23981369433E+03  0.20238834856E+03 -0.90314877976E+03  0.96055368731E+03  0.92271426802E+02 0.  0.
         23    2    4    4    0    0  0.26683138422E+03 -0.64586776465E+03 -0.15881586458E+04  0.17374945315E+04  0.91078020751E+02 0.  0.
          1    1    3    3  502    0 -0.74082300251E+01  0.12877360280E+03 -0.14029114479E+03  0.19057578009E+03  0.00000000000E+00 0. -1.
         -2    1    3    3    0  502 -0.19609459860E+02  0.31470581330E+03 -0.18109029073E+03  0.36361789455E+03  0.00000000000E+00 0.  1.
         11    1    5    5    0    0 -0.14208127265E+03  0.17338348665E+03 -0.58537231083E+03  0.62682506632E+03  0.00000000000E+00 0. -1.
        -11    1    5    5    0    0 -0.97732421687E+02  0.29004861902E+02 -0.31777646894E+03  0.33372862100E+03  0.00000000000E+00 0.  1.
          4    1    6    6  503    0  0.13994026381E+03 -0.41005226930E+03 -0.10655873106E+04  0.11503053758E+04  0.00000000000E+00 0. -1.
         -4    1    6    6    0  503  0.12689112040E+03 -0.23581549535E+03 -0.52257133521E+03  0.58718915578E+03  0.00000000000E+00 0.  1.
<mgrwt>
<rscale>  0 0.16327458E+04</rscale>
<asrwt>0</asrwt>
<pdfrwt beam="1">  1        1 0.46653308E+00 0.16327458E+04</pdfrwt>
<pdfrwt beam="2">  1       -2 0.33811775E-01 0.16327458E+04</pdfrwt>
<totfact> 0.39111680E+00</totfact>
</mgrwt>
</event>
<event>
12    4  0.4664152E-008  0.2512207E+04  0.7818608E-02  0.8398650E-01
         -2   -1    0    0    0  501 -0.00000000000E+00  0.00000000000E+00  0.68637981349E+03  0.68637981349E+03  0.00000000000E+00 0.  1.
          1   -1    0    0  501    0  0.00000000000E+00 -0.00000000000E+00 -0.22987207443E+04  0.22987207443E+04  0.00000000000E+00 0. -1.
        -24    2    1    2    0    0 -0.77101845368E+03 -0.47519633880E+03 -0.14071033125E+04  0.16752790427E+04  0.79618606670E+02 0.  0.
        254    2    1    2    0    0  0.77101845368E+03  0.47519633880E+03 -0.20523761834E+03  0.13098215151E+04  0.92370390555E+03 0.  0.
         23    2    4    4    0    0  0.55690874287E+03  0.39657308474E+03 -0.55341760254E+03  0.88342239864E+03  0.82137276514E+02 0.  0.
         23    2    4    4    0    0  0.21410971082E+03  0.78623254060E+02  0.34817998420E+03  0.42639911647E+03  0.92532809200E+02 0.  0.
          3    1    3    3  502    0 -0.68443556394E+03 -0.44170694682E+03 -0.12292804472E+04  0.14746821644E+04  0.00000000000E+00 0. -1.
         -4    1    3    3    0  502 -0.86582889739E+02 -0.33489391983E+02 -0.17782286523E+03  0.20059687827E+03  0.00000000000E+00 0.  1.
         11    1    5    5    0    0  0.27277922764E+01  0.85407316418E+01  0.61483726979E+00  0.89868221607E+01  0.00000000000E+00 0.  1.
        -11    1    5    5    0    0  0.55418095059E+03  0.38803235310E+03 -0.55403243981E+03  0.87443557648E+03  0.00000000000E+00 0. -1.
          3    1    6    6  503    0  0.17160697344E+03  0.93402042547E+02  0.24163733457E+03  0.31074345744E+03  0.00000000000E+00 0. -1.
         -3    1    6    6    0  503  0.42502737384E+02 -0.14778788487E+02  0.10654264963E+03  0.11565565903E+03  0.00000000000E+00 0.  1.
<mgrwt>
<rscale>  0 0.25122066E+04</rscale>
<asrwt>0</asrwt>
<pdfrwt beam="1">  1        1 0.35364934E+00 0.25122066E+04</pdfrwt>
<pdfrwt beam="2">  1       -2 0.10559690E+00 0.25122066E+04</pdfrwt>
<totfact> 0.10547650E+00</totfact>
</mgrwt>
</event>
<event>
12    4  0.4486176E-008  0.1657426E+04  0.7818608E-02  0.8786026E-01
          1   -1    0    0  501    0  0.00000000000E+00  0.00000000000E+00  0.24263974402E+04  0.24263974402E+04  0.00000000000E+00 0. -1.
         -2   -1    0    0    0  501 -0.00000000000E+00 -0.00000000000E+00 -0.28303893552E+03  0.28303893552E+03  0.00000000000E+00 0.  1.
        -24    2    1    2    0    0 -0.28620056757E+03 -0.14432938592E+03 -0.38413679240E+02  0.33265864784E+03  0.80277199234E+02 0.  0.
        254    2    1    2    0    0  0.28620056757E+03  0.14432938592E+03  0.21817721840E+04  0.23767777279E+04  0.88667963137E+03 0.  0.
         23    2    4    4    0    0  0.57188334299E+03  0.19289104549E+03  0.17091234280E+04  0.18148849484E+04  0.91907400637E+02 0.  0.
         23    2    4    4    0    0 -0.28568277542E+03 -0.48561659575E+02  0.47264875592E+03  0.56189277950E+03  0.91398939978E+02 0.  0.
          1    1    3    3  502    0 -0.17188383985E+03 -0.12920210364E+03 -0.28734403737E+02  0.21693986251E+03  0.00000000000E+00 0. -1.
         -2    1    3    3    0  502 -0.11431672772E+03 -0.15127282276E+02 -0.96792755024E+01  0.11571878534E+03  0.00000000000E+00 0.  1.
         11    1    5    5    0    0  0.24783356884E+03  0.11018449578E+03  0.65341811268E+03  0.70747249483E+03  0.00000000000E+00 0. -1.
        -11    1    5    5    0    0  0.32404977414E+03  0.82706549715E+02  0.10557053154E+04  0.11074124536E+04  0.00000000000E+00 0.  1.
          4    1    6    6  503    0 -0.15355369307E+03 -0.10792115926E+02  0.16900494596E+03  0.22859982104E+03  0.00000000000E+00 0.  1.
         -4    1    6    6    0  503 -0.13212908235E+03 -0.37769543649E+02  0.30364380997E+03  0.33329295846E+03  0.00000000000E+00 0. -1.
<mgrwt>
<rscale>  0 0.16574257E+04</rscale>
<asrwt>0</asrwt>
<pdfrwt beam="1">  1        1 0.37329190E+00 0.16574257E+04</pdfrwt>
<pdfrwt beam="2">  1       -2 0.43544453E-01 0.16574257E+04</pdfrwt>
<totfact> 0.63984709E+00</totfact>
</mgrwt>
</event>
<event>
12    4  0.4486176E-008  0.2301701E+04  0.7818608E-02  0.8477251E-01
         -2   -1    0    0    0  501 -0.00000000000E+00  0.00000000000E+00  0.72748041466E+03  0.72748041466E+03  0.00000000000E+00 0.  1.
          1   -1    0    0  501    0  0.00000000000E+00 -0.00000000000E+00 -0.18206081496E+04  0.18206081496E+04  0.00000000000E+00 0. -1.
        -24    2    1    2    0    0 -0.80717691473E+02  0.21662865223E+03 -0.15131386029E+04  0.15330813074E+04  0.85478329360E+02 0.  0.
        254    2    1    2    0    0  0.80717691473E+02 -0.21662865223E+03  0.42001086800E+03  0.10150072568E+04  0.89464366288E+03 0.  0.
         23    2    4    4    0    0 -0.17198454973E+02  0.29258516446E+03 -0.47285564429E+02  0.31041487948E+03  0.90662050953E+02 0.  0.
         23    2    4    4    0    0  0.97916146446E+02 -0.50921381669E+03  0.46729643243E+03  0.70459237736E+03  0.95907140706E+02 0.  0.
          3    1    3    3  502    0 -0.87649985545E+02  0.21867542077E+03 -0.14966435197E+04  0.15150720394E+04  0.00000000000E+00 0. -1.
         -4    1    3    3    0  502  0.69322940716E+01 -0.20467685389E+01 -0.16495083242E+02  0.18009267995E+02  0.00000000000E+00 0.  1.
         11    1    5    5    0    0 -0.82390139043E+00  0.24510508688E+03 -0.70558912779E+02  0.25506027248E+03  0.00000000000E+00 0. -1.
        -11    1    5    5    0    0 -0.16374553583E+02  0.47480077585E+02  0.23273348350E+02  0.55354606998E+02  0.00000000000E+00 0.  1.
          2    1    6    6  503    0  0.30271133368E+02 -0.33760661050E+03  0.26061256412E+03  0.42756692289E+03  0.00000000000E+00 0. -1.
         -2    1    6    6    0  503  0.67645013078E+02 -0.17160720619E+03  0.20668386831E+03  0.27702545448E+03  0.00000000000E+00 0.  1.
<mgrwt>
<rscale>  0 0.23017009E+04</rscale>
<asrwt>0</asrwt>
<pdfrwt beam="1">  1        1 0.28009356E+00 0.23017009E+04</pdfrwt>
<pdfrwt beam="2">  1       -2 0.11192007E+00 0.23017009E+04</pdfrwt>
<totfact> 0.19727438E+00</totfact>
</mgrwt>
</event>
<event>
12    4  0.4486176E-008  0.1353894E+04  0.7818608E-02  0.8987886E-01
          1   -1    0    0  501    0  0.00000000000E+00  0.00000000000E+00  0.77753583665E+03  0.77753583665E+03  0.00000000000E+00 0. -1.
         -2   -1    0    0    0  501 -0.00000000000E+00 -0.00000000000E+00 -0.58937117616E+03  0.58937117616E+03  0.00000000000E+00 0.  1.
        -24    2    1    2    0    0  0.30115806029E+03  0.14246924952E+03 -0.10732669042E+03  0.36047261034E+03  0.86184801393E+02 0.  0.
        254    2    1    2    0    0 -0.30115806029E+03 -0.14246924952E+03  0.29549135091E+03  0.10064344025E+04  0.90255271519E+03 0.  0.
         23    2    4    4    0    0 -0.55273842866E+03 -0.44976840014E+02 -0.44241321873E+02  0.56350165631E+03  0.89633338976E+02 0.  0.
         23    2    4    4    0    0  0.25158036837E+03 -0.97492409503E+02  0.33973267278E+03  0.44293274617E+03  0.89295447914E+02 0.  0.
          3    1    3    3  502    0  0.32152985897E+02  0.30319259946E+01  0.12517438264E+02  0.34636589584E+02  0.00000000000E+00 0. -1.
         -4    1    3    3    0  502  0.26900507439E+03  0.13943732352E+03 -0.11984412868E+03  0.32583602075E+03  0.00000000000E+00 0.  1.
         11    1    5    5    0    0 -0.10292487769E+03 -0.23858480859E+02  0.23197949430E+02  0.10817070959E+03  0.00000000000E+00 0. -1.
        -11    1    5    5    0    0 -0.44981355097E+03 -0.21118359155E+02 -0.67439271303E+02  0.45533094672E+03  0.00000000000E+00 0.  1.
          3    1    6    6  503    0  0.13843813051E+03 -0.60897761172E+02  0.11990944588E+03  0.19300758666E+03  0.00000000000E+00 0. -1.
         -3    1    6    6    0  503  0.11314223785E+03 -0.36594648331E+02  0.21982322690E+03  0.24992515951E+03  0.00000000000E+00 0.  1.
<mgrwt>
<rscale>  0 0.13538940E+04</rscale>
<asrwt>0</asrwt>
<pdfrwt beam="1">  1        1 0.11962090E+00 0.13538940E+04</pdfrwt>
<pdfrwt beam="2">  1       -2 0.90672489E-01 0.13538940E+04</pdfrwt>
<totfact> 0.20606562E+01</totfact>
</mgrwt>
</event>
<event>
12    4  0.4486176E-008  0.1417803E+04  0.7818608E-02  0.8941032E-01
         -4   -1    0    0    0  501 -0.00000000000E+00  0.00000000000E+00  0.17856360254E+03  0.17856360254E+03  0.00000000000E+00 0.  1.
          3   -1    0    0  501    0  0.00000000000E+00 -0.00000000000E+00 -0.28143532723E+04  0.28143532723E+04  0.00000000000E+00 0. -1.
        -24    2    1    2    0    0 -0.26506032936E+03 -0.23282842275E+03 -0.31692929948E+03  0.48081207987E+03  0.79183474574E+02 0.  0.
        254    2    1    2    0    0  0.26506032936E+03  0.23282842275E+03 -0.23188603703E+04  0.25121047950E+04  0.89949487571E+03 0.  0.
         23    2    4    4    0    0 -0.70701204393E+02  0.38024673202E+03 -0.19296691532E+04  0.19700508732E+04  0.88832228065E+02 0.  0.
         23    2    4    4    0    0  0.33576153375E+03 -0.14741830926E+03 -0.38919121712E+03  0.54205392179E+03  0.88795749881E+02 0.  0.
          1    1    3    3  502    0 -0.17133803030E+03 -0.15038915058E+03 -0.15211729821E+03  0.27406803836E+03  0.00000000000E+00 0. -1.
         -2    1    3    3    0  502 -0.93722299058E+02 -0.82439272171E+02 -0.16481200127E+03  0.20674404151E+03  0.00000000000E+00 0.  1.
         11    1    5    5    0    0 -0.35192117154E+02  0.25964662096E+03 -0.14855515699E+04  0.15084821244E+04  0.00000000000E+00 0. -1.
        -11    1    5    5    0    0 -0.35509087239E+02  0.12060011106E+03 -0.44411758331E+03  0.46156874880E+03  0.00000000000E+00 0.  1.
          4    1    6    6  503    0  0.26899642455E+03 -0.13939839448E+03 -0.27308526101E+03  0.40788055676E+03  0.00000000000E+00 0. -1.
         -4    1    6    6    0  503  0.66765109200E+02 -0.80199147846E+01 -0.11610595611E+03  0.13417336503E+03  0.00000000000E+00 0.  1.
<mgrwt>
<rscale>  0 0.14178026E+04</rscale>
<asrwt>0</asrwt>
<pdfrwt beam="1">  1        3 0.43297743E+00 0.14178026E+04</pdfrwt>
<pdfrwt beam="2">  1       -4 0.27471323E-01 0.14178026E+04</pdfrwt>
<totfact> 0.21526954E-01</totfact>
</mgrwt>
</event>
<event>
12    4  0.4486176E-008  0.1933825E+04  0.7818608E-02  0.8638200E-01
          1   -1    0    0  501    0  0.00000000000E+00  0.00000000000E+00  0.28219320910E+04  0.28219320910E+04  0.00000000000E+00 0. -1.
         -2   -1    0    0    0  501 -0.00000000000E+00 -0.00000000000E+00 -0.33130482979E+03  0.33130482979E+03  0.00000000000E+00 0.  1.
        -24    2    1    2    0    0 -0.29014540015E+03 -0.56088282756E+03  0.16528347584E+04  0.17717389525E+04  0.91772969131E+02 0.  0.
        254    2    1    2    0    0  0.29014540015E+03  0.56088282756E+03  0.83779250283E+03  0.13814979683E+04  0.89881391793E+03 0.  0.
         23    2    4    4    0    0  0.27894221361E+03 -0.18572615935E+03  0.26395080909E+03  0.43550916116E+03  0.87722488712E+02 0.  0.
         23    2    4    4    0    0  0.11203186533E+02  0.74660898691E+03  0.57384169373E+03  0.94598880711E+03  0.89722031820E+02 0.  0.
          3    1    3    3  502    0 -0.25752759215E+03 -0.43009186661E+03  0.12418392599E+04  0.13392028308E+04  0.00000000000E+00 0. -1.
         -4    1    3    3    0  502 -0.32617808000E+02 -0.13079096094E+03  0.41099549847E+03  0.43253612176E+03  0.00000000000E+00 0.  1.
         11    1    5    5    0    0  0.25379527526E+03 -0.17568755871E+03  0.26717547695E+03  0.40824122221E+03  0.00000000000E+00 0. -1.
        -11    1    5    5    0    0  0.25146938351E+02 -0.10038600649E+02 -0.32246678583E+01  0.27267938943E+02  0.00000000000E+00 0.  1.
          2    1    6    6  503    0 -0.37370260034E+02  0.43043716056E+03  0.32112821805E+03  0.53832705482E+03  0.00000000000E+00 0. -1.
         -2    1    6    6    0  503  0.48573446566E+02  0.31617182635E+03  0.25271347569E+03  0.40766175229E+03  0.00000000000E+00 0.  1.
<mgrwt>
<rscale>  0 0.19338249E+04</rscale>
<asrwt>0</asrwt>
<pdfrwt beam="1">  1        1 0.43414338E+00 0.19338249E+04</pdfrwt>
<pdfrwt beam="2">  1       -2 0.50969976E-01 0.19338249E+04</pdfrwt>
<totfact> 0.24006978E+00</totfact>
</mgrwt>
</event>
<event>
12    4  0.4486176E-008  0.1316780E+04  0.7818608E-02  0.9016363E-01
         -2   -1    0    0    0  501 -0.00000000000E+00  0.00000000000E+00  0.21580465404E+03  0.21580465404E+03  0.00000000000E+00 0.  1.
          1   -1    0    0  501    0  0.00000000000E+00 -0.00000000000E+00 -0.20086558757E+04  0.20086558757E+04  0.00000000000E+00 0. -1.
        -24    2    1    2    0    0  0.23712450306E+03  0.54016581049E+02 -0.85059903749E+02  0.27018878318E+03  0.81369345295E+02 0.  0.
        254    2    1    2    0    0 -0.23712450306E+03 -0.54016581049E+02 -0.17077913179E+04  0.19542717465E+04  0.91841224562E+03 0.  0.
         23    2    4    4    0    0 -0.27296116944E+03 -0.42883434077E+03 -0.66453954455E+03  0.84142603797E+03  0.89321213927E+02 0.  0.
         23    2    4    4    0    0  0.35836666376E+02  0.37481775973E+03 -0.10432517733E+04  0.11128457086E+04  0.90987300492E+02 0.  0.
          1    1    3    3  502    0  0.37695620809E+02  0.64096938827E+01  0.16185271514E+02  0.41521163494E+02  0.00000000000E+00 0. -1.
         -4    1    3    3    0  502  0.19942888225E+03  0.47606887166E+02 -0.10124517526E+03  0.22866761969E+03  0.00000000000E+00 0.  1.
         11    1    5    5    0    0 -0.23062201920E+03 -0.28852702009E+03 -0.48617966105E+03  0.61057761168E+03  0.00000000000E+00 0. -1.
        -11    1    5    5    0    0 -0.42339150232E+02 -0.14030732068E+03 -0.17835988351E+03  0.23084842630E+03  0.00000000000E+00 0.  1.
          3    1    6    6  503    0  0.29568363269E+02  0.34465764944E+03 -0.10096250028E+04  0.10672421608E+04  0.00000000000E+00 0. -1.
         -3    1    6    6    0  503  0.62683031066E+01  0.30160110289E+02 -0.33626770545E+02  0.45603547820E+02  0.00000000000E+00 0.  1.
<mgrwt>
<rscale>  0 0.13167798E+04</rscale>
<asrwt>0</asrwt>
<pdfrwt beam="1">  1        1 0.30902399E+00 0.13167798E+04</pdfrwt>
<pdfrwt beam="2">  1       -2 0.33200715E-01 0.13167798E+04</pdfrwt>
<totfact> 0.21483477E+01</totfact>
</mgrwt>
</event>
<event>
12    4  0.4486176E-008  0.2239422E+04  0.7818608E-02  0.8502197E-01
         -2   -1    0    0    0  501 -0.00000000000E+00  0.00000000000E+00  0.60879239529E+03  0.60879239529E+03  0.00000000000E+00 0.  1.
          1   -1    0    0  501    0  0.00000000000E+00 -0.00000000000E+00 -0.20594089072E+04  0.20594089072E+04  0.00000000000E+00 0. -1.
        -24    2    1    2    0    0 -0.88805255622E+03  0.24930304449E+03 -0.72302834085E+03  0.11746119059E+04  0.78446142522E+02 0.  0.
        254    2    1    2    0    0  0.88805255622E+03 -0.24930304449E+03 -0.72758817111E+03  0.14935893966E+04  0.92229896906E+03 0.  0.
         23    2    4    4    0    0 -0.12061566868E+03 -0.28200359133E+02  0.85897397409E+02  0.17591381833E+03  0.90685769620E+02 0.  0.
         23    2    4    4    0    0  0.10086682249E+04 -0.22110268535E+03 -0.81348556852E+03  0.13176755783E+04  0.90621046233E+02 0.  0.
          3    1    3    3  502    0 -0.74708180113E+03  0.23691877627E+03 -0.62538881481E+03  0.10026828481E+04  0.00000000000E+00 0. -1.
         -4    1    3    3    0  502 -0.14097075509E+03  0.12384268218E+02 -0.97639526037E+02  0.17192905785E+03  0.00000000000E+00 0.  1.
         11    1    5    5    0    0 -0.71594493305E+02 -0.95693279377E+01  0.98338921206E+02  0.12201592901E+03  0.00000000000E+00 0. -1.
        -11    1    5    5    0    0 -0.49021175374E+02 -0.18631031195E+02 -0.12441523798E+02  0.53897889317E+02  0.00000000000E+00 0.  1.
          4    1    6    6  503    0  0.57265502590E+03 -0.16082741977E+03 -0.50369135027E+03  0.77942556666E+03  0.00000000000E+00 0. -1.
         -4    1    6    6    0  503  0.43601319900E+03 -0.60275265585E+02 -0.30979421825E+03  0.53825001161E+03  0.00000000000E+00 0.  1.
<mgrwt>
<rscale>  0 0.22394218E+04</rscale>
<asrwt>0</asrwt>
<pdfrwt beam="1">  1        1 0.31683214E+00 0.22394218E+04</pdfrwt>
<pdfrwt beam="2">  1       -2 0.93660370E-01 0.22394218E+04</pdfrwt>
<totfact> 0.20882947E+00</totfact>
</mgrwt>
</event>
<event>
12    4  0.4486176E-008  0.1384080E+04  0.7818608E-02  0.8965423E-01
         -2   -1    0    0    0  501 -0.00000000000E+00  0.00000000000E+00  0.15541560660E+04  0.15541560660E+04  0.00000000000E+00 0.  1.
          1   -1    0    0  501    0  0.00000000000E+00 -0.00000000000E+00 -0.30815410935E+03  0.30815410935E+03  0.00000000000E+00 0. -1.
        -24    2    1    2    0    0 -0.28944713383E+03 -0.63912562683E+02  0.70862943997E+03  0.77232086519E+03  0.80370247378E+02 0.  0.
        254    2    1    2    0    0  0.28944713383E+03  0.63912562683E+02  0.53737251666E+03  0.10899893101E+04  0.90080131860E+03 0.  0.
         23    2    4    4    0    0  0.35096412390E+03 -0.27446914908E+03  0.10993316457E+02  0.45462462467E+03  0.89741664167E+02 0.  0.
         23    2    4    4    0    0 -0.61516990072E+02  0.33838171177E+03  0.52637920021E+03  0.63536468546E+03  0.91250743529E+02 0.  0.
          1    1    3    3  502    0 -0.12834225635E+03 -0.31037871594E+02  0.21798045672E+03  0.25485400477E+03  0.00000000000E+00 0. -1.
         -2    1    3    3    0  502 -0.16110487748E+03 -0.32874691088E+02  0.49064898325E+03  0.51746686041E+03  0.00000000000E+00 0.  1.
         11    1    5    5    0    0  0.26856485026E+03 -0.22223087484E+03 -0.27660355432E+02  0.34968376541E+03  0.00000000000E+00 0.  1.
        -11    1    5    5    0    0  0.82399273647E+02 -0.52238274241E+02  0.38653671889E+02  0.10494085927E+03  0.00000000000E+00 0. -1.
          2    1    6    6  503    0 -0.58709252196E+02  0.97606435623E+02  0.14596521179E+03  0.18514760495E+03  0.00000000000E+00 0. -1.
         -2    1    6    6    0  503 -0.28077378758E+01  0.24077527614E+03  0.38041398842E+03  0.45021708051E+03  0.00000000000E+00 0.  1.
<mgrwt>
<rscale>  0 0.13840803E+04</rscale>
<asrwt>0</asrwt>
<pdfrwt beam="1">  1        1 0.47408326E-01 0.13840803E+04</pdfrwt>
<pdfrwt beam="2">  1       -2 0.23910093E+00 0.13840803E+04</pdfrwt>
<totfact> 0.54174405E+00</totfact>
</mgrwt>
</event>
<event>
12    4  0.4486176E-008  0.2281506E+04  0.7818608E-02  0.8485249E-01
          1   -1    0    0  501    0  0.00000000000E+00  0.00000000000E+00  0.12272490678E+04  0.12272490678E+04  0.00000000000E+00 0. -1.
         -2   -1    0    0    0  501 -0.00000000000E+00 -0.00000000000E+00 -0.10603528146E+04  0.10603528146E+04  0.00000000000E+00 0.  1.
        -24    2    1    2    0    0 -0.36702272216E+02  0.30558372640E+03  0.98926401782E+03  0.10393286516E+04  0.82657598350E+02 0.  0.
        254    2    1    2    0    0  0.36702272216E+02 -0.30558372640E+03 -0.82236776462E+03  0.12482732308E+04  0.88722536471E+03 0.  0.
         23    2    4    4    0    0  0.43777834245E+03 -0.59518314483E+02 -0.31543220874E+03  0.55061698947E+03  0.92137310054E+02 0.  0.
         23    2    4    4    0    0 -0.40107607024E+03 -0.24606541191E+03 -0.50693555587E+03  0.69765624131E+03  0.91270872563E+02 0.  0.
          3    1    3    3  502    0 -0.23492752404E+01  0.26040263066E+03  0.77029622138E+03  0.81312441719E+03  0.00000000000E+00 0. -1.
         -4    1    3    3    0  502 -0.34352996975E+02  0.45181095740E+02  0.21896779643E+03  0.22620423446E+03  0.00000000000E+00 0.  1.
         11    1    5    5    0    0  0.36727806397E+03 -0.33326042707E+02 -0.29614340685E+03  0.47297433209E+03  0.00000000000E+00 0.  1.
        -11    1    5    5    0    0  0.70500278480E+02 -0.26192271776E+02 -0.19288801893E+02  0.77642657380E+02  0.00000000000E+00 0. -1.
          1    1    6    6  503    0 -0.15857990699E+03 -0.85707016845E+02 -0.25908320764E+03  0.31562222374E+03  0.00000000000E+00 0. -1.
         -1    1    6    6    0  503 -0.24249616325E+03 -0.16035839507E+03 -0.24785234823E+03  0.38203401757E+03  0.00000000000E+00 0.  1.
<mgrwt>
<rscale>  0 0.22815056E+04</rscale>
<asrwt>0</asrwt>
<pdfrwt beam="1">  1        1 0.18880755E+00 0.22815056E+04</pdfrwt>
<pdfrwt beam="2">  1       -2 0.16313120E+00 0.22815056E+04</pdfrwt>
<totfact> 0.19368951E+00</totfact>
</mgrwt>
</event>
<event>
12    4  0.4486176E-008  0.1408914E+04  0.7818608E-02  0.8947391E-01
         -2   -1    0    0    0  501 -0.00000000000E+00  0.00000000000E+00  0.98335084967E+03  0.98335084967E+03  0.00000000000E+00 0.  1.
          1   -1    0    0  501    0  0.00000000000E+00 -0.00000000000E+00 -0.50466193333E+03  0.50466193333E+03  0.00000000000E+00 0. -1.
        -24    2    1    2    0    0 -0.10448045764E+03  0.39470070544E+03  0.18625073871E+03  0.45603953086E+03  0.81104273220E+02 0.  0.
        254    2    1    2    0    0  0.10448045764E+03 -0.39470070544E+03  0.29243817762E+03  0.10319732521E+04  0.90152309593E+03 0.  0.
         23    2    4    4    0    0  0.28985024497E+03 -0.60101091717E+03  0.96687509128E+02  0.68030487758E+03  0.90768744486E+02 0.  0.
         23    2    4    4    0    0 -0.18536978733E+03  0.20631021173E+03  0.19575066849E+03  0.35166837455E+03  0.91795751145E+02 0.  0.
          3    1    3    3  502    0 -0.27710824320E+02  0.21638694511E+03  0.12985334091E+03  0.25387613110E+03  0.00000000000E+00 0. -1.
         -4    1    3    3    0  502 -0.76769633322E+02  0.17831376033E+03  0.56397397803E+02  0.20216339976E+03  0.00000000000E+00 0.  1.
         11    1    5    5    0    0  0.29569145384E+03 -0.58841760169E+03  0.99863555472E+02  0.66606414073E+03  0.00000000000E+00 0. -1.
        -11    1    5    5    0    0 -0.58412088678E+01 -0.12593315476E+02 -0.31760463446E+01  0.14240736852E+02  0.00000000000E+00 0.  1.
          4    1    6    6  503    0 -0.17333030561E+03  0.19178686553E+03  0.20568185964E+03  0.33034924552E+03  0.00000000000E+00 0. -1.
         -4    1    6    6    0  503 -0.12039481719E+02  0.14523346198E+02 -0.99311911510E+01  0.21319129028E+02  0.00000000000E+00 0.  1.
<mgrwt>
<rscale>  0 0.14089141E+04</rscale>
<asrwt>0</asrwt>
<pdfrwt beam="1">  1        1 0.77640298E-01 0.14089141E+04</pdfrwt>
<pdfrwt beam="2">  1       -2 0.15128475E+00 0.14089141E+04</pdfrwt>
<totfact> 0.10912125E+01</totfact>
</mgrwt>
</event>
<event>
12    4  0.4486176E-008  0.1543422E+04  0.7818608E-02  0.8856080E-01
          1   -1    0    0  501    0  0.00000000000E+00  0.00000000000E+00  0.97402174392E+03  0.97402174392E+03  0.00000000000E+00 0. -1.
         -2   -1    0    0    0  501 -0.00000000000E+00 -0.00000000000E+00 -0.61142139792E+03  0.61142139792E+03  0.00000000000E+00 0.  1.
        -24    2    1    2    0    0 -0.90700551704E+02 -0.32288054618E+03 -0.26542697174E+03  0.43515008957E+03  0.80160376450E+02 0.  0.
        254    2    1    2    0    0  0.90700551704E+02  0.32288054618E+03  0.62802731773E+03  0.11502930523E+04  0.90348068994E+03 0.  0.
         23    2    4    4    0    0 -0.25481140023E+03  0.32629167965E+03 -0.47249148147E+01  0.42374291980E+03  0.90225425279E+02 0.  0.
         23    2    4    4    0    0  0.34551195193E+03 -0.34111334712E+01  0.63275223255E+03  0.72655013246E+03  0.90053108960E+02 0.  0.
          1    1    3    3  502    0 -0.80680123426E+01 -0.17684774275E+03 -0.13545919050E+03  0.22291121378E+03  0.00000000000E+00 0. -1.
         -2    1    3    3    0  502 -0.82632539362E+02 -0.14603280343E+03 -0.12996778124E+03  0.21223887579E+03  0.00000000000E+00 0.  1.
         11    1    5    5    0    0 -0.81583482337E+02  0.88540366175E+02 -0.41364630894E+02  0.12730394229E+03  0.00000000000E+00 0. -1.
        -11    1    5    5    0    0 -0.17322791789E+03  0.23775131347E+03  0.36639716079E+02  0.29643897751E+03  0.00000000000E+00 0.  1.
          3    1    6    6  503    0  0.11406399309E+03  0.46277945768E+01  0.30134911405E+03  0.32224726459E+03  0.00000000000E+00 0. -1.
         -3    1    6    6    0  503  0.23144795884E+03 -0.80389280480E+01  0.33140311850E+03  0.40430286787E+03  0.00000000000E+00 0.  1.
<mgrwt>
<rscale>  0 0.15434218E+04</rscale>
<asrwt>0</asrwt>
<pdfrwt beam="1">  1        1 0.14984950E+00 0.15434218E+04</pdfrwt>
<pdfrwt beam="2">  1       -2 0.94064830E-01 0.15434218E+04</pdfrwt>
<totfact> 0.12783427E+01</totfact>
</mgrwt>
</event>
<event>
12    4  0.4486176E-008  0.1084918E+04  0.7818608E-02  0.9220018E-01
         -2   -1    0    0    0  501 -0.00000000000E+00  0.00000000000E+00  0.32662833892E+03  0.32662833892E+03  0.00000000000E+00 0.  1.
          1   -1    0    0  501    0  0.00000000000E+00 -0.00000000000E+00 -0.90090706464E+03  0.90090706464E+03  0.00000000000E+00 0. -1.
        -24    2    1    2    0    0 -0.67362801689E+02 -0.12462019434E+03 -0.16941370738E+03  0.23478486915E+03  0.79718195199E+02 0.  0.
        254    2    1    2    0    0  0.67362801689E+02  0.12462019434E+03 -0.40486501834E+03  0.99275053442E+03  0.89530441785E+03 0.  0.
         23    2    4    4    0    0 -0.21374494770E+03 -0.28740566749E+03 -0.47531604437E+02  0.37265641917E+03  0.91239426540E+02 0.  0.
         23    2    4    4    0    0  0.28110774938E+03  0.41202586183E+03 -0.35733341391E+03  0.62009411525E+03  0.89680909279E+02 0.  0.
          3    1    3    3  502    0 -0.82161301581E+02 -0.91034075404E+02 -0.10885636686E+03  0.16397375085E+03  0.00000000000E+00 0. -1.
         -4    1    3    3    0  502  0.14798499892E+02 -0.33586118940E+02 -0.60557340520E+02  0.70811118303E+02  0.00000000000E+00 0.  1.
         11    1    5    5    0    0 -0.53185132932E+02 -0.19503103280E+02  0.51441462879E+00  0.56650631284E+02  0.00000000000E+00 0.  1.
        -11    1    5    5    0    0 -0.16055981476E+03 -0.26790256421E+03 -0.48046019066E+02  0.31600578788E+03  0.00000000000E+00 0. -1.
          2    1    6    6  503    0  0.24932518127E+03  0.40220566193E+03 -0.33900269162E+03  0.58211276006E+03  0.00000000000E+00 0. -1.
         -2    1    6    6    0  503  0.31782568118E+02  0.98201999037E+01 -0.18330722290E+02  0.37981355189E+02  0.00000000000E+00 0.  1.
<mgrwt>
<rscale>  0 0.10849180E+04</rscale>
<asrwt>0</asrwt>
<pdfrwt beam="1">  1        1 0.13860108E+00 0.10849180E+04</pdfrwt>
<pdfrwt beam="2">  1       -2 0.50250515E-01 0.10849180E+04</pdfrwt>
<totfact> 0.59481106E+01</totfact>
</mgrwt>
</event>
<event>
12    4  0.4486176E-008  0.2480681E+04  0.7818608E-02  0.8409901E-01
         -2   -1    0    0    0  501 -0.00000000000E+00  0.00000000000E+00  0.77338183981E+03  0.77338183981E+03  0.00000000000E+00 0.  1.
          1   -1    0    0  501    0  0.00000000000E+00 -0.00000000000E+00 -0.19892424055E+04  0.19892424055E+04  0.00000000000E+00 0. -1.
        -24    2    1    2    0    0  0.55524729869E+03 -0.26755003926E+03  0.41903685383E+03  0.74954281456E+03  0.79623864372E+02 0.  0.
        254    2    1    2    0    0 -0.55524729869E+03  0.26755003926E+03 -0.16348974195E+04  0.20130814308E+04  0.99986233464E+03 0.  0.
         23    2    4    4    0    0 -0.56241586435E+03  0.13219614468E+03 -0.17256618714E+04  0.18219551272E+04  0.88454317244E+02 0.  0.
         23    2    4    4    0    0  0.71685656547E+01  0.13535389458E+03  0.90764451822E+02  0.19112630353E+03  0.99594242167E+02 0.  0.
          1    1    3    3  502    0  0.59080904650E+02 -0.39516414363E+02  0.22019220885E+02  0.74410660437E+02  0.00000000000E+00 0. -1.
         -2    1    3    3    0  502  0.49616639405E+03 -0.22803362490E+03  0.39701763295E+03  0.67513215413E+03  0.00000000000E+00 0.  1.
         11    1    5    5    0    0 -0.40681421345E+03  0.10431590040E+03 -0.11248298570E+04  0.12006755676E+04  0.00000000000E+00 0. -1.
        -11    1    5    5    0    0 -0.15560165090E+03  0.27880244276E+02 -0.60083201435E+03  0.62127955966E+03  0.00000000000E+00 0.  1.
          2    1    6    6  503    0  0.44344432949E+02  0.10410445992E+03  0.37884570112E+02  0.11932899044E+03  0.00000000000E+00 0. -1.
         -2    1    6    6    0  503 -0.37175867294E+02  0.31249434665E+02  0.52879881710E+02  0.71797313081E+02  0.00000000000E+00 0.  1.
<mgrwt>
<rscale>  0 0.24806805E+04</rscale>
<asrwt>0</asrwt>
<pdfrwt beam="1">  1        1 0.30603729E+00 0.24806805E+04</pdfrwt>
<pdfrwt beam="2">  1       -2 0.11898182E+00 0.24806805E+04</pdfrwt>
<totfact> 0.12852446E+00</totfact>
</mgrwt>
</event>
<event>
12    4  0.4486176E-008  0.2048402E+04  0.7818608E-02  0.8584320E-01
         -2   -1    0    0    0  501 -0.00000000000E+00  0.00000000000E+00  0.27606943676E+04  0.27606943676E+04  0.00000000000E+00 0.  1.
          1   -1    0    0  501    0  0.00000000000E+00 -0.00000000000E+00 -0.37997226806E+03  0.37997226806E+03  0.00000000000E+00 0. -1.
        -24    2    1    2    0    0 -0.27710617253E+03 -0.25227197498E+03  0.20860899479E+04  0.21209920918E+04  0.80045002689E+02 0.  0.
        254    2    1    2    0    0  0.27710617253E+03  0.25227197498E+03  0.29463215162E+03  0.10196745439E+04  0.90138731432E+03 0.  0.
         23    2    4    4    0    0  0.48463961255E+03  0.38481760928E+03  0.39319972711E+03  0.73884642344E+03  0.91257139779E+02 0.  0.
         23    2    4    4    0    0 -0.20753344002E+03 -0.13254563430E+03 -0.98567575488E+02  0.28082812043E+03  0.92251787986E+02 0.  0.
          1    1    3    3  502    0 -0.67057498347E+02 -0.70267047110E+02  0.75293354420E+03  0.75917263384E+03  0.00000000000E+00 0. -1.
         -2    1    3    3    0  502 -0.21004867418E+03 -0.18200492787E+03  0.13331564037E+04  0.13618194580E+04  0.00000000000E+00 0.  1.
         11    1    5    5    0    0  0.26800754791E+03  0.18428557487E+03  0.15904459467E+03  0.36205579948E+03  0.00000000000E+00 0. -1.
        -11    1    5    5    0    0  0.21663206463E+03  0.20053203442E+03  0.23415513244E+03  0.37679062396E+03  0.00000000000E+00 0.  1.
          3    1    6    6  503    0 -0.19909482156E+03 -0.95522665609E+02 -0.65121594785E+02  0.23022630112E+03  0.00000000000E+00 0. -1.
         -3    1    6    6    0  503 -0.84386184548E+01 -0.37022968696E+02 -0.33445980703E+02  0.50601819312E+02  0.00000000000E+00 0.  1.
<mgrwt>
<rscale>  0 0.20484016E+04</rscale>
<asrwt>0</asrwt>
<pdfrwt beam="1">  1        1 0.58457274E-01 0.20484016E+04</pdfrwt>
<pdfrwt beam="2">  1       -2 0.42472220E+00 0.20484016E+04</pdfrwt>
<totfact> 0.26555271E-01</totfact>
</mgrwt>
</event>
<event>
12    4  0.4486176E-008  0.3365959E+04  0.7818608E-02  0.8146312E-01
          1   -1    0    0  501    0  0.00000000000E+00  0.00000000000E+00  0.38816587212E+04  0.38816587212E+04  0.00000000000E+00 0. -1.
         -2   -1    0    0    0  501 -0.00000000000E+00 -0.00000000000E+00 -0.72969337668E+03  0.72969337668E+03  0.00000000000E+00 0.  1.
        -24    2    1    2    0    0  0.40126507498E+02 -0.10300951314E+04 -0.14401960601E+03  0.10431129976E+04  0.68095245503E+02 0.  0.
        254    2    1    2    0    0 -0.40126507498E+02  0.10300951314E+04  0.32959849505E+04  0.35682391003E+04  0.89783482135E+03 0.  0.
         23    2    4    4    0    0 -0.10792198646E+03  0.11739966155E+04  0.28985707311E+04  0.31302990980E+04  0.84527814997E+02 0.  0.
         23    2    4    4    0    0  0.67795478964E+02 -0.14390148409E+03  0.39741421941E+03  0.43794000227E+03  0.92463612857E+02 0.  0.
          3    1    3    3  502    0 -0.86976097363E+01 -0.68698170227E+02 -0.22646246414E+02  0.72855607089E+02  0.00000000000E+00 0. -1.
         -4    1    3    3    0  502  0.48824117234E+02 -0.96139696118E+03 -0.12137335960E+03  0.97025739049E+03  0.00000000000E+00 0.  1.
         11    1    5    5    0    0 -0.98241720030E+02  0.99334650648E+03  0.23702094632E+04  0.25718245696E+04  0.00000000000E+00 0. -1.
        -11    1    5    5    0    0 -0.96802664316E+01  0.18065010901E+03  0.52836126791E+03  0.55847452840E+03  0.00000000000E+00 0.  1.
          1    1    6    6  503    0  0.41134606115E+02 -0.13038394861E+03  0.22753503297E+03  0.26545097683E+03  0.00000000000E+00 0. -1.
         -1    1    6    6    0  503  0.26660872849E+02 -0.13517535477E+02  0.16987918645E+03  0.17248902543E+03  0.00000000000E+00 0.  1.
<mgrwt>
<rscale>  0 0.33659594E+04</rscale>
<asrwt>0</asrwt>
<pdfrwt beam="1">  1        1 0.59717826E+00 0.33659594E+04</pdfrwt>
<pdfrwt beam="2">  1       -2 0.11226052E+00 0.33659594E+04</pdfrwt>
<totfact> 0.55130977E-02</totfact>
</mgrwt>
</event>
<event>
12    4  0.4486176E-008  0.2437170E+04  0.7818608E-02  0.8425717E-01
          1   -1    0    0  501    0  0.00000000000E+00  0.00000000000E+00  0.18707106511E+04  0.18707106511E+04  0.00000000000E+00 0. -1.
         -2   -1    0    0    0  501 -0.00000000000E+00 -0.00000000000E+00 -0.79378912391E+03  0.79378912391E+03  0.00000000000E+00 0.  1.
        -24    2    1    2    0    0 -0.42057600746E+03  0.63768379978E+03  0.12554632111E+04  0.14716632278E+04  0.77974194326E+02 0.  0.
        254    2    1    2    0    0  0.42057600746E+03 -0.63768379978E+03 -0.17854168390E+03  0.11928365473E+04  0.89858616116E+03 0.  0.
         23    2    4    4    0    0  0.57392634250E+03 -0.74583351434E+03 -0.24214444876E+03  0.97607812032E+03  0.91844897366E+02 0.  0.
         23    2    4    4    0    0 -0.15335033504E+03  0.10814971456E+03  0.63602764862E+02  0.21675842694E+03  0.87898907464E+02 0.  0.
          1    1    3    3  502    0 -0.40893839898E+03  0.62357907284E+03  0.11958112342E+04  0.14092714366E+04  0.00000000000E+00 0. -1.
         -2    1    3    3    0  502 -0.11637608481E+02  0.14104726937E+02  0.59651976949E+02  0.62391791183E+02  0.00000000000E+00 0.  1.
         11    1    5    5    0    0  0.36758319946E+03 -0.50451783805E+03 -0.11865181247E+03  0.63540059021E+03  0.00000000000E+00 0. -1.
        -11    1    5    5    0    0  0.20634314304E+03 -0.24131567629E+03 -0.12349263630E+03  0.34067753011E+03  0.00000000000E+00 0.  1.
          4    1    6    6  503    0 -0.14685204954E+03  0.90525567931E+02  0.25645814870E+02  0.17440788607E+03  0.00000000000E+00 0. -1.
         -4    1    6    6    0  503 -0.64982854990E+01  0.17624146629E+02  0.37956949992E+02  0.42350540864E+02  0.00000000000E+00 0.  1.
<mgrwt>
<rscale>  0 0.24371703E+04</rscale>
<asrwt>0</asrwt>
<pdfrwt beam="1">  1        1 0.28780164E+00 0.24371703E+04</pdfrwt>
<pdfrwt beam="2">  1       -2 0.12212140E+00 0.24371703E+04</pdfrwt>
<totfact> 0.14549138E+00</totfact>
</mgrwt>
</event>
<event>
12    4  0.4486176E-008  0.1265715E+04  0.7818608E-02  0.9057204E-01
         -2   -1    0    0    0  501 -0.00000000000E+00  0.00000000000E+00  0.21255792847E+03  0.21255792847E+03  0.00000000000E+00 0.  1.
          1   -1    0    0  501    0  0.00000000000E+00 -0.00000000000E+00 -0.18842339046E+04  0.18842339046E+04  0.00000000000E+00 0. -1.
        -24    2    1    2    0    0 -0.15207269567E+02  0.47372546296E+02  0.84358897509E+02  0.12616611688E+03  0.79536446176E+02 0.  0.
        254    2    1    2    0    0  0.15207269567E+02 -0.47372546296E+02 -0.17560348736E+04  0.19706257162E+04  0.89287838850E+03 0.  0.
         23    2    4    4    0    0 -0.32972600053E+03  0.25378029756E+03 -0.89681285085E+03  0.99284562367E+03  0.91353533743E+02 0.  0.
         23    2    4    4    0    0  0.34493327009E+03 -0.30115284386E+03 -0.85922202279E+03  0.97778009251E+03  0.90107872525E+02 0.  0.
          3    1    3    3  502    0 -0.23102893270E+02  0.25201264900E+02 -0.42805906195E+01  0.34455346262E+02  0.00000000000E+00 0. -1.
         -4    1    3    3    0  502  0.78956237026E+01  0.22171281397E+02  0.88639488128E+02  0.91710770622E+02  0.00000000000E+00 0.  1.
         11    1    5    5    0    0 -0.21470142618E+03  0.10845245543E+03 -0.49510931199E+03  0.55044697138E+03  0.00000000000E+00 0. -1.
        -11    1    5    5    0    0 -0.11502457435E+03  0.14532784214E+03 -0.40170353887E+03  0.44239865228E+03  0.00000000000E+00 0.  1.
          2    1    6    6  503    0  0.32243925156E+03 -0.26451660968E+03 -0.81818323091E+03  0.91834628931E+03  0.00000000000E+00 0. -1.
         -2    1    6    6    0  503  0.22494018533E+02 -0.36636234180E+02 -0.41038791873E+02  0.59433803202E+02  0.00000000000E+00 0.  1.
<mgrwt>
<rscale>  0 0.12657154E+04</rscale>
<asrwt>0</asrwt>
<pdfrwt beam="1">  1        1 0.28988214E+00 0.12657154E+04</pdfrwt>
<pdfrwt beam="2">  1       -2 0.32701220E-01 0.12657154E+04</pdfrwt>
<totfact> 0.26946424E+01</totfact>
</mgrwt>
</event>
<event>
12    4  0.4486176E-008  0.3397198E+04  0.7818608E-02  0.8138594E-01
         -2   -1    0    0    0  501 -0.00000000000E+00  0.00000000000E+00  0.10346978277E+04  0.10346978277E+04  0.00000000000E+00 0.  1.
          1   -1    0    0  501    0  0.00000000000E+00 -0.00000000000E+00 -0.27884839254E+04  0.27884839254E+04  0.00000000000E+00 0. -1.
        -24    2    1    2    0    0  0.15001209547E+04 -0.34871501412E+03 -0.39252414028E+03  0.15913990267E+04  0.80688422205E+02 0.  0.
        254    2    1    2    0    0 -0.15001209547E+04  0.34871501412E+03 -0.13612619574E+04  0.22317827264E+04  0.86939920699E+03 0.  0.
         23    2    4    4    0    0 -0.11053385093E+04  0.59087549360E+03 -0.76473038572E+03  0.14710929559E+04  0.91623430709E+02 0.  0.
         23    2    4    4    0    0 -0.39478244543E+03 -0.24216047948E+03 -0.59653157172E+03  0.76068977046E+03  0.91127020035E+02 0.  0.
          3    1    3    3  502    0  0.98288562110E+03 -0.24972689650E+03 -0.22501691007E+03  0.10387782616E+04  0.00000000000E+00 0. -1.
         -4    1    3    3    0  502  0.51723533363E+03 -0.98988117622E+02 -0.16750723021E+03  0.55262076505E+03  0.00000000000E+00 0.  1.
         11    1    5    5    0    0 -0.14365129373E+03  0.48043392182E+02 -0.11097894357E+03  0.18777696248E+03  0.00000000000E+00 0.  1.
        -11    1    5    5    0    0 -0.96168721557E+03  0.54283210141E+03 -0.65375144215E+03  0.12833159934E+04  0.00000000000E+00 0. -1.
          3    1    6    6  503    0 -0.25605897726E+03 -0.20533341141E+03 -0.40311342071E+03  0.51983501193E+03  0.00000000000E+00 0. -1.
         -3    1    6    6    0  503 -0.13872346817E+03 -0.36827068069E+02 -0.19341815101E+03  0.24085475853E+03  0.00000000000E+00 0.  1.
<mgrwt>
<rscale>  0 0.33971978E+04</rscale>
<asrwt>0</asrwt>
<pdfrwt beam="1">  1        1 0.42899752E+00 0.33971978E+04</pdfrwt>
<pdfrwt beam="2">  1       -2 0.15918428E+00 0.33971978E+04</pdfrwt>
<totfact> 0.15706265E-01</totfact>
</mgrwt>
</event>
<event>
12    4  0.4486176E-008  0.1386754E+04  0.7818608E-02  0.8963463E-01
          3   -1    0    0  501    0  0.00000000000E+00  0.00000000000E+00  0.18976947916E+03  0.18976947916E+03  0.00000000000E+00 0. -1.
         -4   -1    0    0    0  501 -0.00000000000E+00 -0.00000000000E+00 -0.25334505025E+04  0.25334505025E+04  0.00000000000E+00 0.  1.
        -24    2    1    2    0    0 -0.68208083511E+02  0.34561793554E+03 -0.71527579337E+03  0.80128168859E+03  0.79553653948E+02 0.  0.
        254    2    1    2    0    0  0.68208083511E+02 -0.34561793554E+03 -0.16284052299E+04  0.19219382930E+04  0.95814357449E+03 0.  0.
         23    2    4    4    0    0 -0.43862922542E+02 -0.64354672764E+03 -0.81231333770E+03  0.10412622780E+04  0.91092405959E+02 0.  0.
         23    2    4    4    0    0  0.11207100605E+03  0.29792879210E+03 -0.81609189223E+03  0.88067601500E+03  0.90899896944E+02 0.  0.
          1    1    3    3  502    0 -0.67060479152E+02  0.34444893792E+03 -0.67317206896E+03  0.75914610789E+03  0.00000000000E+00 0. -1.
         -2    1    3    3    0  502 -0.11476043596E+01  0.11689976226E+01 -0.42103724417E+02  0.42135580701E+02  0.00000000000E+00 0.  1.
         11    1    5    5    0    0  0.24658817765E+01 -0.50114287322E+03 -0.60720647728E+03  0.78730550995E+03  0.00000000000E+00 0.  1.
        -11    1    5    5    0    0 -0.46328804318E+02 -0.14240385442E+03 -0.20510686042E+03  0.25395676809E+03  0.00000000000E+00 0. -1.
          3    1    6    6  503    0 -0.99605545486E-01  0.12252930975E+03 -0.32082175058E+03  0.34342399059E+03  0.00000000000E+00 0. -1.
         -3    1    6    6    0  503  0.11217061160E+03  0.17539948235E+03 -0.49527014165E+03  0.53725202441E+03  0.00000000000E+00 0.  1.
<mgrwt>
<rscale>  0 0.13867539E+04</rscale>
<asrwt>0</asrwt>
<pdfrwt beam="1">  1        3 0.29195304E-01 0.13867539E+04</pdfrwt>
<pdfrwt beam="2">  1       -4 0.38976162E+00 0.13867539E+04</pdfrwt>
<totfact> 0.20790532E-01</totfact>
</mgrwt>
</event>
<event>
12    4  0.4486176E-008  0.2867825E+04  0.7818608E-02  0.8282515E-01
          1   -1    0    0  501    0  0.00000000000E+00  0.00000000000E+00  0.21122031195E+04  0.21122031195E+04  0.00000000000E+00 0. -1.
         -2   -1    0    0    0  501 -0.00000000000E+00 -0.00000000000E+00 -0.97344070414E+03  0.97344070414E+03  0.00000000000E+00 0.  1.
        -24    2    1    2    0    0 -0.55880494364E+03  0.77552527775E+02 -0.73492801997E+03  0.92984118619E+03  0.78791353626E+02 0.  0.
        254    2    1    2    0    0  0.55880494364E+03 -0.77552527775E+02  0.18736904354E+04  0.21558026375E+04  0.90470536895E+03 0.  0.
         23    2    4    4    0    0  0.34067680785E+03  0.35826207676E+03  0.13195864713E+04  0.14121776025E+04  0.92329424435E+02 0.  0.
         23    2    4    4    0    0  0.21812813578E+03 -0.43581460454E+03  0.55410396402E+03  0.74362503497E+03  0.91829932739E+02 0.  0.
          3    1    3    3  502    0 -0.20387338472E+03 -0.71421319613E+01 -0.24106363443E+03  0.31579588802E+03  0.00000000000E+00 0. -1.
         -4    1    3    3    0  502 -0.35493155892E+03  0.84694659737E+02 -0.49386438554E+03  0.61404529817E+03  0.00000000000E+00 0.  1.
         11    1    5    5    0    0  0.51499849079E+02  0.15920166216E+02  0.11740596405E+03  0.12918918895E+03  0.00000000000E+00 0.  1.
        -11    1    5    5    0    0  0.28917695878E+03  0.34234191055E+03  0.12021805073E+04  0.12829884136E+04  0.00000000000E+00 0. -1.
          4    1    6    6  503    0  0.17353089231E+03 -0.39851514553E+03  0.51322564339E+03  0.67255323420E+03  0.00000000000E+00 0. -1.
         -4    1    6    6    0  503  0.44597243467E+02 -0.37299459011E+02  0.40878320633E+02  0.71071800773E+02  0.00000000000E+00 0.  1.
<mgrwt>
<rscale>  0 0.28678246E+04</rscale>
<asrwt>0</asrwt>
<pdfrwt beam="1">  1        1 0.32495432E+00 0.28678246E+04</pdfrwt>
<pdfrwt beam="2">  1       -2 0.14976011E+00 0.28678246E+04</pdfrwt>
<totfact> 0.56927187E-01</totfact>
</mgrwt>
</event>
<event>
12    4  0.4486176E-008  0.2585850E+04  0.7818608E-02  0.8373023E-01
          1   -1    0    0  501    0  0.00000000000E+00  0.00000000000E+00  0.13209585916E+04  0.13209585916E+04  0.00000000000E+00 0. -1.
         -2   -1    0    0    0  501 -0.00000000000E+00 -0.00000000000E+00 -0.12654865797E+04  0.12654865797E+04  0.00000000000E+00 0.  1.
        -24    2    1    2    0    0 -0.80526328454E+03 -0.66595379235E+03 -0.41463249924E+03  0.11276258381E+04  0.87615696925E+02 0.  0.
        254    2    1    2    0    0  0.80526328454E+03  0.66595379235E+03  0.47010451123E+03  0.14588193332E+04  0.90289101471E+03 0.  0.
         23    2    4    4    0    0  0.65376060773E+02 -0.37018385906E+02  0.41838741355E+03  0.43302791590E+03  0.82587879948E+02 0.  0.
         23    2    4    4    0    0  0.73988722377E+03  0.70297217825E+03  0.51717097683E+02  0.10257914173E+04  0.89277020058E+02 0.  0.
          1    1    3    3  502    0 -0.13915698402E+03 -0.14667093061E+03 -0.10695486838E+03  0.22872772450E+03  0.00000000000E+00 0. -1.
         -4    1    3    3    0  502 -0.66610630052E+03 -0.51928286174E+03 -0.30767763086E+03  0.89889811360E+03  0.00000000000E+00 0.  1.
         11    1    5    5    0    0  0.47302123596E+02 -0.37276224717E+02  0.12165923073E+03  0.13574968231E+03  0.00000000000E+00 0.  1.
        -11    1    5    5    0    0  0.18073937177E+02  0.25783881085E+00  0.29672818282E+03  0.29727823359E+03  0.00000000000E+00 0. -1.
          2    1    6    6  503    0  0.25390307918E+03  0.28177079036E+03 -0.12392992754E+02  0.37949326500E+03  0.00000000000E+00 0. -1.
         -2    1    6    6    0  503  0.48598414459E+03  0.42120138790E+03  0.64110090437E+02  0.64629815229E+03  0.00000000000E+00 0.  1.
<mgrwt>
<rscale>  0 0.25858502E+04</rscale>
<asrwt>0</asrwt>
<pdfrwt beam="1">  1        1 0.20322440E+00 0.25858502E+04</pdfrwt>
<pdfrwt beam="2">  1       -2 0.19469024E+00 0.25858502E+04</pdfrwt>
<totfact> 0.97543291E-01</totfact>
</mgrwt>
</event>
<event>
12    4  0.4486176E-008  0.1425031E+04  0.7818608E-02  0.8935897E-01
         -2   -1    0    0    0  501 -0.00000000000E+00  0.00000000000E+00  0.30364796219E+03  0.30364796219E+03  0.00000000000E+00 0.  1.
          1   -1    0    0  501    0  0.00000000000E+00 -0.00000000000E+00 -0.16719298006E+04  0.16719298006E+04  0.00000000000E+00 0. -1.
        -24    2    1    2    0    0 -0.37481422862E+03 -0.19037218894E+03 -0.46026058342E+03  0.63107561550E+03  0.98434503741E+02 0.  0.
        254    2    1    2    0    0  0.37481422862E+03  0.19037218894E+03 -0.90802125499E+03  0.13445021473E+04  0.89802903531E+03 0.  0.
         23    2    4    4    0    0  0.58240605727E+03  0.30408703342E+03 -0.39442562202E+03  0.77191479740E+03  0.92817798333E+02 0.  0.
         23    2    4    4    0    0 -0.20759182865E+03 -0.11371484448E+03 -0.51359563297E+03  0.57258734990E+03  0.89723831170E+02 0.  0.
          3    1    3    3  502    0 -0.21891087346E+03 -0.70821220876E+02 -0.29657173060E+03  0.37535637364E+03  0.00000000000E+00 0. -1.
         -4    1    3    3    0  502 -0.15590335516E+03 -0.11955096807E+03 -0.16368885282E+03  0.25571924186E+03  0.00000000000E+00 0.  1.
         11    1    5    5    0    0  0.24224966937E+03  0.11390161846E+03 -0.10982451726E+03  0.28934392267E+03  0.00000000000E+00 0. -1.
        -11    1    5    5    0    0  0.34015638790E+03  0.19018541496E+03 -0.28460110477E+03  0.48257087472E+03  0.00000000000E+00 0.  1.
          4    1    6    6  503    0 -0.18618636306E+03 -0.12690307933E+03 -0.48311185917E+03  0.53307299857E+03  0.00000000000E+00 0. -1.
         -4    1    6    6    0  503 -0.21405465590E+02  0.13188234855E+02 -0.30483773796E+02  0.39514351324E+02  0.00000000000E+00 0.  1.
<mgrwt>
<rscale>  0 0.14250306E+04</rscale>
<asrwt>0</asrwt>
<pdfrwt beam="1">  1        1 0.25721997E+00 0.14250306E+04</pdfrwt>
<pdfrwt beam="2">  1       -2 0.46715072E-01 0.14250306E+04</pdfrwt>
<totfact> 0.18482910E+01</totfact>
</mgrwt>
</event>
<event>
12    4  0.4486176E-008  0.1728675E+04  0.7818608E-02  0.8745177E-01
         -2   -1    0    0    0  501 -0.00000000000E+00  0.00000000000E+00  0.74716867458E+03  0.74716867458E+03  0.00000000000E+00 0.  1.
          1   -1    0    0  501    0  0.00000000000E+00 -0.00000000000E+00 -0.99988052638E+03  0.99988052638E+03  0.00000000000E+00 0. -1.
        -24    2    1    2    0    0 -0.21659599994E+03  0.11400427761E+03 -0.67368413269E+03  0.72130121207E+03  0.80711370902E+02 0.  0.
        254    2    1    2    0    0  0.21659599994E+03 -0.11400427761E+03  0.42097228089E+03  0.10257479889E+04  0.90279038151E+03 0.  0.
         23    2    4    4    0    0  0.27817013757E+03  0.16044401074E+03  0.59537592945E+03  0.68237394531E+03  0.89670496010E+02 0.  0.
         23    2    4    4    0    0 -0.61574137633E+02 -0.27444828835E+03 -0.17440364855E+03  0.34337404358E+03  0.91519745267E+02 0.  0.
          3    1    3    3  502    0 -0.20163403920E+03  0.10216597308E+03 -0.66050627249E+03  0.69811367829E+03  0.00000000000E+00 0. -1.
         -4    1    3    3    0  502 -0.14961960740E+02  0.11838304526E+02 -0.13177860199E+02  0.23187533777E+02  0.00000000000E+00 0.  1.
         11    1    5    5    0    0 -0.30332038889E+01 -0.57831380848E+01  0.85907340757E+01  0.10791001988E+02  0.00000000000E+00 0.  1.
        -11    1    5    5    0    0  0.28120334146E+03  0.16622714883E+03  0.58678519537E+03  0.67158294332E+03  0.00000000000E+00 0. -1.
          4    1    6    6  503    0 -0.54879712511E+01 -0.16010213860E+03 -0.13657979411E+03  0.21051568296E+03  0.00000000000E+00 0. -1.
         -4    1    6    6    0  503 -0.56086166382E+02 -0.11434614975E+03 -0.37823854442E+02  0.13285836062E+03  0.00000000000E+00 0.  1.
<mgrwt>
<rscale>  0 0.17286751E+04</rscale>
<asrwt>0</asrwt>
<pdfrwt beam="1">  1        1 0.15382777E+00 0.17286751E+04</pdfrwt>
<pdfrwt beam="2">  1       -2 0.11494903E+00 0.17286751E+04</pdfrwt>
<totfact> 0.74344424E+00</totfact>
</mgrwt>
</event>
<event>
12    4  0.4486176E-008  0.1317601E+04  0.7818608E-02  0.9015722E-01
         -2   -1    0    0    0  501 -0.00000000000E+00  0.00000000000E+00  0.21132997335E+03  0.21132997335E+03  0.00000000000E+00 0.  1.
          1   -1    0    0  501    0  0.00000000000E+00 -0.00000000000E+00 -0.20537470680E+04  0.20537470680E+04  0.00000000000E+00 0. -1.
        -24    2    1    2    0    0  0.47150031746E+02  0.52064890295E+02 -0.11571177321E+04  0.11617217124E+04  0.75776070112E+02 0.  0.
        254    2    1    2    0    0 -0.47150031746E+02 -0.52064890295E+02 -0.68529936246E+03  0.11033553289E+04  0.86187231496E+03 0.  0.
         23    2    4    4    0    0 -0.22887398470E+03  0.32111580465E+03 -0.17932453289E+03  0.44278481483E+03  0.91664842130E+02 0.  0.
         23    2    4    4    0    0  0.18172395296E+03 -0.37318069494E+03 -0.50597482958E+03  0.66057051405E+03  0.89752157118E+02 0.  0.
          3    1    3    3  502    0  0.28291273674E+02  0.64349006291E+02 -0.10453302658E+04  0.10476910591E+04  0.00000000000E+00 0. -1.
         -4    1    3    3    0  502  0.18858758071E+02 -0.12284115996E+02 -0.11178746633E+03  0.11403065329E+03  0.00000000000E+00 0.  1.
         11    1    5    5    0    0  0.49418559211E+01  0.13469872035E+02 -0.20457780946E+02  0.24987600801E+02  0.00000000000E+00 0.  1.
        -11    1    5    5    0    0 -0.23381584062E+03  0.30764593261E+03 -0.15886675194E+03  0.41779721403E+03  0.00000000000E+00 0. -1.
          1    1    6    6  503    0  0.97990529900E+02 -0.11575647533E+03 -0.14947201386E+03  0.21294034014E+03  0.00000000000E+00 0. -1.
         -1    1    6    6    0  503  0.83733423058E+02 -0.25742421962E+03 -0.35650281572E+03  0.44763017391E+03  0.00000000000E+00 0.  1.
<mgrwt>
<rscale>  0 0.13176013E+04</rscale>
<asrwt>0</asrwt>
<pdfrwt beam="1">  1        1 0.31596110E+00 0.13176013E+04</pdfrwt>
<pdfrwt beam="2">  1       -2 0.32512302E-01 0.13176013E+04</pdfrwt>
<totfact> 0.20835587E+01</totfact>
</mgrwt>
</event>
<event>
12    4  0.4486176E-008  0.2631698E+04  0.7818608E-02  0.8357513E-01
         -2   -1    0    0    0  501 -0.00000000000E+00  0.00000000000E+00  0.52504580356E+03  0.52504580356E+03  0.00000000000E+00 0.  1.
          1   -1    0    0  501    0  0.00000000000E+00 -0.00000000000E+00 -0.32977284106E+04  0.32977284106E+04  0.00000000000E+00 0. -1.
        -24    2    1    2    0    0  0.62212460577E+03 -0.92674186507E+03 -0.16618391884E+04  0.20035016498E+04  0.80124047279E+02 0.  0.
        254    2    1    2    0    0 -0.62212460577E+03  0.92674186507E+03 -0.11108434186E+04  0.18192725643E+04  0.91098301474E+03 0.  0.
         23    2    4    4    0    0 -0.11470814223E+03  0.48449216587E+03  0.12462857461E+02  0.50655512414E+03  0.92477858353E+02 0.  0.
         23    2    4    4    0    0 -0.50741646354E+03  0.44224969919E+03 -0.11233062760E+04  0.13127174402E+04  0.91399256506E+02 0.  0.
          1    1    3    3  502    0  0.33656344879E+03 -0.46495606298E+03 -0.91573578780E+03  0.10807548883E+04  0.00000000000E+00 0. -1.
         -2    1    3    3    0  502  0.28556115698E+03 -0.46178580209E+03 -0.74610340064E+03  0.92274676148E+03  0.00000000000E+00 0.  1.
         11    1    5    5    0    0 -0.11342264696E+03  0.30340131061E+03 -0.10055421049E+02  0.32406506078E+03  0.00000000000E+00 0. -1.
        -11    1    5    5    0    0 -0.12854952706E+01  0.18109085526E+03  0.22518278509E+02  0.18249006336E+03  0.00000000000E+00 0.  1.
          4    1    6    6  503    0 -0.52493370630E+02  0.70443837994E+02 -0.19835878049E+03  0.21694260548E+03  0.00000000000E+00 0. -1.
         -4    1    6    6    0  503 -0.45492309291E+03  0.37180586120E+03 -0.92494749555E+03  0.10957748347E+04  0.00000000000E+00 0.  1.
<mgrwt>
<rscale>  0 0.26316979E+04</rscale>
<asrwt>0</asrwt>
<pdfrwt beam="1">  1        1 0.50734284E+00 0.26316979E+04</pdfrwt>
<pdfrwt beam="2">  1       -2 0.80776277E-01 0.26316979E+04</pdfrwt>
<totfact> 0.37464229E-01</totfact>
</mgrwt>
</event>
<event>
12    4  0.4486176E-008  0.1321760E+04  0.7818608E-02  0.9012485E-01
         -2   -1    0    0    0  501 -0.00000000000E+00  0.00000000000E+00  0.28606116191E+03  0.28606116191E+03  0.00000000000E+00 0.  1.
          1   -1    0    0  501    0  0.00000000000E+00 -0.00000000000E+00 -0.15268142867E+04  0.15268142867E+04  0.00000000000E+00 0. -1.
        -24    2    1    2    0    0  0.13084013070E+03 -0.17444065077E+03 -0.70549422862E+03  0.74287541705E+03  0.81197895312E+02 0.  0.
        254    2    1    2    0    0 -0.13084013070E+03  0.17444065077E+03 -0.53525889620E+03  0.10700000316E+04  0.90047171039E+03 0.  0.
         23    2    4    4    0    0 -0.15057694474E+03 -0.33270262263E+02 -0.74118381913E+03  0.76310186270E+03  0.95867995106E+02 0.  0.
         23    2    4    4    0    0  0.19736814048E+02  0.20771091303E+03  0.20592492293E+03  0.30689816889E+03  0.90818758889E+02 0.  0.
          1    1    3    3  502    0  0.10779198871E+03 -0.17836159997E+03 -0.61235209536E+03  0.64684392389E+03  0.00000000000E+00 0. -1.
         -2    1    3    3    0  502  0.23048141990E+02  0.39209492042E+01 -0.93142133261E+02  0.96031493169E+02  0.00000000000E+00 0.  1.
         11    1    5    5    0    0  0.18726185448E+01 -0.28137962341E+02 -0.14477263807E+03  0.14749362142E+03  0.00000000000E+00 0.  1.
        -11    1    5    5    0    0 -0.15244956329E+03 -0.51322999218E+01 -0.59641118105E+03  0.61560824128E+03  0.00000000000E+00 0. -1.
          2    1    6    6  503    0  0.24308661672E+02  0.21181340704E+03  0.21021185510E+03  0.29940750569E+03  0.00000000000E+00 0. -1.
         -2    1    6    6    0  503 -0.45718476235E+01 -0.41024940107E+01 -0.42869321761E+01  0.74906632072E+01  0.00000000000E+00 0.  1.
<mgrwt>
<rscale>  0 0.13217598E+04</rscale>
<asrwt>0</asrwt>
<pdfrwt beam="1">  1        1 0.23489450E+00 0.13217598E+04</pdfrwt>
<pdfrwt beam="2">  1       -2 0.44009410E-01 0.13217598E+04</pdfrwt>
<totfact> 0.26413960E+01</totfact>
</mgrwt>
</event>
<event>
12    4  0.4486176E-008  0.2158071E+04  0.7818608E-02  0.8536086E-01
         -2   -1    0    0    0  501 -0.00000000000E+00  0.00000000000E+00  0.11946312395E+04  0.11946312395E+04  0.00000000000E+00 0.  1.
          1   -1    0    0  501    0  0.00000000000E+00 -0.00000000000E+00 -0.97462473529E+03  0.97462473529E+03  0.00000000000E+00 0. -1.
        -24    2    1    2    0    0 -0.40651381448E+03 -0.49033914179E+03  0.71567674931E+03  0.96088416073E+03  0.73615253211E+02 0.  0.
        254    2    1    2    0    0  0.40651381448E+03  0.49033914179E+03 -0.49567024514E+03  0.12083718140E+04  0.89932613309E+03 0.  0.
         23    2    4    4    0    0 -0.63856118894E+01  0.17937839346E+03  0.23417603249E+03  0.30950477315E+03  0.93474094428E+02 0.  0.
         23    2    4    4    0    0  0.41289942637E+03  0.31096074833E+03 -0.72984627763E+03  0.89886704088E+03  0.90021358051E+02 0.  0.
          3    1    3    3  502    0 -0.14282864820E+02 -0.21991292367E+01  0.10885354045E+02  0.18092189739E+02  0.00000000000E+00 0. -1.
         -4    1    3    3    0  502 -0.39223094966E+03 -0.48814001256E+03  0.70479139527E+03  0.94279197100E+03  0.00000000000E+00 0.  1.
         11    1    5    5    0    0 -0.10694365948E+02  0.82664674226E+02  0.39828762144E+02  0.92380453137E+02  0.00000000000E+00 0. -1.
        -11    1    5    5    0    0  0.43087540591E+01  0.96713719236E+02  0.19434727034E+03  0.21712432001E+03  0.00000000000E+00 0.  1.
          4    1    6    6  503    0  0.74700127748E+01  0.99213920756E+01 -0.13851188945E+01  0.12496146043E+02  0.00000000000E+00 0. -1.
         -4    1    6    6    0  503  0.40542941360E+03  0.30103935626E+03 -0.72846115873E+03  0.88637089483E+03  0.00000000000E+00 0.  1.
<mgrwt>
<rscale>  0 0.21580706E+04</rscale>
<asrwt>0</asrwt>
<pdfrwt beam="1">  1        1 0.14994227E+00 0.21580706E+04</pdfrwt>
<pdfrwt beam="2">  1       -2 0.18378942E+00 0.21580706E+04</pdfrwt>
<totfact> 0.21700634E+00</totfact>
</mgrwt>
</event>
<event>
12    4  0.4486176E-008  0.2543317E+04  0.7818608E-02  0.8387714E-01
         -2   -1    0    0    0  501 -0.00000000000E+00  0.00000000000E+00  0.91749330931E+03  0.91749330931E+03  0.00000000000E+00 0.  1.
          1   -1    0    0  501    0  0.00000000000E+00 -0.00000000000E+00 -0.17625359476E+04  0.17625359476E+04  0.00000000000E+00 0. -1.
        -24    2    1    2    0    0  0.10144636717E+04 -0.30978645438E+03 -0.67975146245E+03  0.12626096987E+04  0.83767606134E+02 0.  0.
        254    2    1    2    0    0 -0.10144636717E+04  0.30978645438E+03 -0.16529117583E+03  0.14174195582E+04  0.92555542387E+03 0.  0.
         23    2    4    4    0    0  0.91695351221E+02 -0.96422727502E+02  0.11890557989E+03  0.20170444609E+03  0.94025352054E+02 0.  0.
         23    2    4    4    0    0 -0.11061590230E+04  0.40620918188E+03 -0.28419675572E+03  0.12157151121E+04  0.92745643589E+02 0.  0.
          3    1    3    3  502    0  0.93120224707E+03 -0.30312922132E+03 -0.60960658810E+03  0.11535359301E+04  0.00000000000E+00 0. -1.
         -2    1    3    3    0  502  0.83261424682E+02 -0.66572330536E+01 -0.70144874348E+02  0.10907376857E+03  0.00000000000E+00 0.  1.
         11    1    5    5    0    0  0.71893306314E+02 -0.11268686955E+03  0.82135100607E+02  0.15688579545E+03  0.00000000000E+00 0. -1.
        -11    1    5    5    0    0  0.19802044907E+02  0.16264142044E+02  0.36770479282E+02  0.44818650644E+02  0.00000000000E+00 0.  1.
          2    1    6    6  503    0 -0.51856660047E+03  0.15331534240E+03 -0.98998438692E+02  0.54974321660E+03  0.00000000000E+00 0.  1.
         -2    1    6    6    0  503 -0.58759242250E+03  0.25289383948E+03 -0.18519831703E+03  0.66597189555E+03  0.00000000000E+00 0. -1.
<mgrwt>
<rscale>  0 0.25433167E+04</rscale>
<asrwt>0</asrwt>
<pdfrwt beam="1">  1        1 0.27115938E+00 0.25433167E+04</pdfrwt>
<pdfrwt beam="2">  1       -2 0.14115282E+00 0.25433167E+04</pdfrwt>
<totfact> 0.11810737E+00</totfact>
</mgrwt>
</event>
<event>
12    4  0.4486176E-008  0.1875008E+04  0.7818608E-02  0.8667397E-01
         -4   -1    0    0    0  501 -0.00000000000E+00  0.00000000000E+00  0.11570426327E+04  0.11570426327E+04  0.00000000000E+00 0.  1.
          1   -1    0    0  501    0  0.00000000000E+00 -0.00000000000E+00 -0.75962121566E+03  0.75962121566E+03  0.00000000000E+00 0. -1.
        -24    2    1    2    0    0  0.39096350074E+03 -0.28310956251E+03  0.69111812932E+03  0.84690106625E+03  0.81201379595E+02 0.  0.
        254    2    1    2    0    0 -0.39096350074E+03  0.28310956251E+03 -0.29369671224E+03  0.10697627822E+04  0.90836730897E+03 0.  0.
         23    2    4    4    0    0  0.25791001517E+03  0.22446741686E+03 -0.19530185920E+03  0.40427685770E+03  0.91617489097E+02 0.  0.
         23    2    4    4    0    0 -0.64887351590E+03  0.58642145655E+02 -0.98394853037E+02  0.66548592446E+03  0.93350027640E+02 0.  0.
          1    1    3    3  502    0 -0.22367607890E+00 -0.14463180259E+02  0.14728387438E+02  0.20643619128E+02  0.00000000000E+00 0. -1.
         -2    1    3    3    0  502  0.39118717681E+03 -0.26864638226E+03  0.67638974189E+03  0.82625744713E+03  0.00000000000E+00 0.  1.
         11    1    5    5    0    0  0.36605245043E+02  0.15932029770E+02 -0.58548039376E+02  0.70863576342E+02  0.00000000000E+00 0. -1.
        -11    1    5    5    0    0  0.22130477012E+03  0.20853538709E+03 -0.13675381983E+03  0.33341328136E+03  0.00000000000E+00 0.  1.
          2    1    6    6  503    0 -0.40921635306E+03  0.80655762655E+02 -0.73778342905E+02  0.42356418586E+03  0.00000000000E+00 0. -1.
         -2    1    6    6    0  503 -0.23965716284E+03 -0.22013617000E+02 -0.24616510131E+02  0.24192173860E+03  0.00000000000E+00 0.  1.
<mgrwt>
<rscale>  0 0.18750084E+04</rscale>
<asrwt>0</asrwt>
<pdfrwt beam="1">  1        1 0.11686480E+00 0.18750084E+04</pdfrwt>
<pdfrwt beam="2">  1       -4 0.17800656E+00 0.18750084E+04</pdfrwt>
<totfact> 0.20126128E+00</totfact>
</mgrwt>
</event>
<event>
12    4  0.4486176E-008  0.1274916E+04  0.7818608E-02  0.9049697E-01
         -2   -1    0    0    0  501 -0.00000000000E+00  0.00000000000E+00  0.25651666429E+03  0.25651666429E+03  0.00000000000E+00 0.  1.
          1   -1    0    0  501    0  0.00000000000E+00 -0.00000000000E+00 -0.15841172524E+04  0.15841172524E+04  0.00000000000E+00 0. -1.
        -24    2    1    2    0    0 -0.28922231266E+03 -0.15191592956E+01 -0.47781660469E+03  0.56421378452E+03  0.79853822262E+02 0.  0.
        254    2    1    2    0    0  0.28922231266E+03  0.15191592956E+01 -0.84978398339E+03  0.12764201321E+04  0.90744899655E+03 0.  0.
         23    2    4    4    0    0 -0.80884511352E+02 -0.11916736562E+03 -0.86087121683E+03  0.87767303658E+03  0.92019247787E+02 0.  0.
         23    2    4    4    0    0  0.37010682401E+03  0.12068652492E+03  0.11087233444E+02  0.39874709557E+03  0.85627221155E+02 0.  0.
          3    1    3    3  502    0 -0.22461654620E+03 -0.29063209279E+02 -0.32618583050E+03  0.39710761637E+03  0.00000000000E+00 0. -1.
         -4    1    3    3    0  502 -0.64605766462E+02  0.27544049983E+02 -0.15163077419E+03  0.16710616814E+03  0.00000000000E+00 0.  1.
         11    1    5    5    0    0  0.20533725693E+02 -0.22944733795E+02 -0.17704146542E+03  0.17969912403E+03  0.00000000000E+00 0.  1.
        -11    1    5    5    0    0 -0.10141823705E+03 -0.96222631825E+02 -0.68382975141E+03  0.69797391255E+03  0.00000000000E+00 0. -1.
          4    1    6    6  503    0  0.56609572407E+02  0.10205767603E+02 -0.28155956392E+02  0.64043416998E+02  0.00000000000E+00 0. -1.
         -4    1    6    6    0  503  0.31349725161E+03  0.11048075731E+03  0.39243189836E+02  0.33470367857E+03  0.00000000000E+00 0.  1.
<mgrwt>
<rscale>  0 0.12749156E+04</rscale>
<asrwt>0</asrwt>
<pdfrwt beam="1">  1        1 0.24371035E+00 0.12749156E+04</pdfrwt>
<pdfrwt beam="2">  1       -2 0.39464101E-01 0.12749156E+04</pdfrwt>
<totfact> 0.30017364E+01</totfact>
</mgrwt>
</event>
<event>
12    4  0.4486176E-008  0.2375892E+04  0.7818608E-02  0.8448585E-01
         -2   -1    0    0    0  501 -0.00000000000E+00  0.00000000000E+00  0.76754111590E+03  0.76754111590E+03  0.00000000000E+00 0.  1.
          1   -1    0    0  501    0  0.00000000000E+00 -0.00000000000E+00 -0.18386190852E+04  0.18386190852E+04  0.00000000000E+00 0. -1.
        -24    2    1    2    0    0  0.60950101908E+03  0.18067887619E+03  0.41214415012E+03  0.76192202268E+03  0.80783783103E+02 0.  0.
        254    2    1    2    0    0 -0.60950101908E+03 -0.18067887619E+03 -0.14832221194E+04  0.18442381784E+04  0.89282151332E+03 0.  0.
         23    2    4    4    0    0 -0.18053549564E+03 -0.46646067203E+03 -0.10389880443E+04  0.11566843912E+04  0.90796480870E+02 0.  0.
         23    2    4    4    0    0 -0.42896552344E+03  0.28578179584E+03 -0.44423407509E+03  0.68755378719E+03  0.98507064069E+02 0.  0.
          3    1    3    3  502    0  0.32314478056E+03  0.70825179358E+02  0.25242536987E+03  0.41612176414E+03  0.00000000000E+00 0. -1.
         -4    1    3    3    0  502  0.28635623852E+03  0.10985369683E+03  0.15971878025E+03  0.34580025854E+03  0.00000000000E+00 0.  1.
         11    1    5    5    0    0 -0.14214419814E+03 -0.37338285503E+03 -0.90340077678E+03  0.98780195028E+03  0.00000000000E+00 0. -1.
        -11    1    5    5    0    0 -0.38391297498E+02 -0.93077817003E+02 -0.13558726754E+03  0.16888244095E+03  0.00000000000E+00 0.  1.
          3    1    6    6  503    0 -0.42305854659E+03  0.27397241236E+03 -0.40632148099E+03  0.64740757062E+03  0.00000000000E+00 0. -1.
         -3    1    6    6    0  503 -0.59069768509E+01  0.11809383476E+02 -0.37912594098E+02  0.40146216569E+02  0.00000000000E+00 0.  1.
<mgrwt>
<rscale>  0 0.23758920E+04</rscale>
<asrwt>0</asrwt>
<pdfrwt beam="1">  1        1 0.28286447E+00 0.23758920E+04</pdfrwt>
<pdfrwt beam="2">  1       -2 0.11808325E+00 0.23758920E+04</pdfrwt>
<totfact> 0.16718815E+00</totfact>
</mgrwt>
</event>
<event>
12    4  0.4486176E-008  0.2166836E+04  0.7818608E-02  0.8532360E-01
          1   -1    0    0  501    0  0.00000000000E+00  0.00000000000E+00  0.22523251376E+04  0.22523251376E+04  0.00000000000E+00 0. -1.
         -2   -1    0    0    0  501 -0.00000000000E+00 -0.00000000000E+00 -0.52114805765E+03  0.52114805765E+03  0.00000000000E+00 0.  1.
        -24    2    1    2    0    0 -0.46315823811E+03 -0.45889770921E+03  0.14998746261E+04  0.16377185323E+04  0.85996720594E+02 0.  0.
        254    2    1    2    0    0  0.46315823811E+03  0.45889770921E+03  0.23130245379E+03  0.11357546629E+04  0.90074145465E+03 0.  0.
         23    2    4    4    0    0 -0.37892524985E+02 -0.21850874470E+03  0.15374801934E+03  0.28485000313E+03  0.91209406719E+02 0.  0.
         23    2    4    4    0    0  0.50105076310E+03  0.67740645391E+03  0.77554434450E+02  0.85090465977E+03  0.89959316944E+02 0.  0.
          3    1    3    3  502    0 -0.33569209651E+03 -0.37013837775E+03  0.10787397874E+04  0.11888528636E+04  0.00000000000E+00 0. -1.
         -4    1    3    3    0  502 -0.12746614161E+03 -0.88759331456E+02  0.42113483869E+03  0.44886566870E+03  0.00000000000E+00 0.  1.
         11    1    5    5    0    0  0.30079534912E+02 -0.69940874946E+02  0.42525215447E+02  0.87206068352E+02  0.00000000000E+00 0. -1.
        -11    1    5    5    0    0 -0.67972059897E+02 -0.14856786976E+03  0.11122280389E+03  0.19764393478E+03  0.00000000000E+00 0.  1.
          1    1    6    6  503    0  0.39148136172E+03  0.58542593793E+03  0.67732208633E+02  0.70750889568E+03  0.00000000000E+00 0. -1.
         -1    1    6    6    0  503  0.10956940138E+03  0.91980515981E+02  0.98222258173E+01  0.14339576409E+03  0.00000000000E+00 0.  1.
<mgrwt>
<rscale>  0 0.21668363E+04</rscale>
<asrwt>0</asrwt>
<pdfrwt beam="1">  1        1 0.34651156E+00 0.21668363E+04</pdfrwt>
<pdfrwt beam="2">  1       -2 0.80176625E-01 0.21668363E+04</pdfrwt>
<totfact> 0.22168936E+00</totfact>
</mgrwt>
</event>
<event>
12    4  0.4486176E-008  0.1545897E+04  0.7818608E-02  0.8854493E-01
          1   -1    0    0  501    0  0.00000000000E+00  0.00000000000E+00  0.22026898253E+04  0.22026898253E+04  0.00000000000E+00 0. -1.
         -2   -1    0    0    0  501 -0.00000000000E+00 -0.00000000000E+00 -0.27123639105E+03  0.27123639105E+03  0.00000000000E+00 0.  1.
        -24    2    1    2    0    0  0.22679590541E+03  0.39650726954E+03  0.97395633125E+03  0.10787120647E+04  0.79839751414E+02 0.  0.
        254    2    1    2    0    0 -0.22679590541E+03 -0.39650726954E+03  0.95749710304E+03  0.13952141517E+04  0.90618288946E+03 0.  0.
         23    2    4    4    0    0  0.81907278212E+02  0.19718799502E+03  0.14929211027E+02  0.23565009708E+03  0.98570681795E+02 0.  0.
         23    2    4    4    0    0 -0.30870318362E+03 -0.59369526456E+03  0.94256789202E+03  0.11595640546E+04  0.91557866233E+02 0.  0.
          1    1    3    3  502    0  0.21074670384E+03  0.31201436249E+03  0.76120936123E+03  0.84923896944E+03  0.00000000000E+00 0. -1.
         -2    1    3    3    0  502  0.16049201566E+02  0.84492907053E+02  0.21274697002E+03  0.22947309530E+03  0.00000000000E+00 0.  1.
         11    1    5    5    0    0  0.71031472980E+02  0.59137338355E+02 -0.15892546573E+02  0.93783090043E+02  0.00000000000E+00 0. -1.
        -11    1    5    5    0    0  0.10875805232E+02  0.13805065666E+03  0.30821757600E+02  0.14186700704E+03  0.00000000000E+00 0.  1.
          2    1    6    6  503    0 -0.10497606191E+03 -0.15216976535E+03  0.32051825766E+03  0.37001022223E+03  0.00000000000E+00 0. -1.
         -2    1    6    6    0  503 -0.20372712170E+03 -0.44152549921E+03  0.62204963436E+03  0.78955383235E+03  0.00000000000E+00 0.  1.
<mgrwt>
<rscale>  0 0.15458973E+04</rscale>
<asrwt>0</asrwt>
<pdfrwt beam="1">  1        1 0.33887535E+00 0.15458973E+04</pdfrwt>
<pdfrwt beam="2">  1       -2 0.41728677E-01 0.15458973E+04</pdfrwt>
<totfact> 0.10000299E+01</totfact>
</mgrwt>
</event>
<event>
12    4  0.4486176E-008  0.1308014E+04  0.7818608E-02  0.9023234E-01
         -2   -1    0    0    0  501 -0.00000000000E+00  0.00000000000E+00  0.16745794436E+03  0.16745794436E+03  0.00000000000E+00 0.  1.
          1   -1    0    0  501    0  0.00000000000E+00 -0.00000000000E+00 -0.25542260454E+04  0.25542260454E+04  0.00000000000E+00 0. -1.
        -24    2    1    2    0    0 -0.48326973240E+02 -0.25211806341E+03 -0.11028392636E+04  0.11350527704E+04  0.78685042592E+02 0.  0.
        254    2    1    2    0    0  0.48326973240E+02  0.25211806341E+03 -0.12839288374E+04  0.15866312194E+04  0.89611737651E+03 0.  0.
         23    2    4    4    0    0 -0.22274339923E+03 -0.19461622579E+03 -0.17013109712E+03  0.35304274706E+03  0.90578660843E+02 0.  0.
         23    2    4    4    0    0  0.27107037247E+03  0.44673428920E+03 -0.11137977403E+04  0.12335884723E+04  0.90246555318E+02 0.  0.
          3    1    3    3  502    0 -0.52514739470E+02 -0.23898637963E+03 -0.92953035533E+03  0.96119663388E+03  0.00000000000E+00 0. -1.
         -4    1    3    3    0  502  0.41877662298E+01 -0.13131683778E+02 -0.17330890829E+03  0.17385613650E+03  0.00000000000E+00 0.  1.
         11    1    5    5    0    0 -0.15097494898E+03 -0.96247650660E+02 -0.14084653476E+03  0.22780428404E+03  0.00000000000E+00 0.  1.
        -11    1    5    5    0    0 -0.71768450256E+02 -0.98368575132E+02 -0.29284562368E+02  0.12523846302E+03  0.00000000000E+00 0. -1.
          1    1    6    6  503    0  0.28054661793E+02  0.10562679398E+03 -0.18791298463E+03  0.21738301095E+03  0.00000000000E+00 0. -1.
         -1    1    6    6    0  503  0.24301571068E+03  0.34110749522E+03 -0.92588475567E+03  0.10162054614E+04  0.00000000000E+00 0.  1.
<mgrwt>
<rscale>  0 0.13080144E+04</rscale>
<asrwt>0</asrwt>
<pdfrwt beam="1">  1        1 0.39295783E+00 0.13080144E+04</pdfrwt>
<pdfrwt beam="2">  1       -2 0.25762762E-01 0.13080144E+04</pdfrwt>
<totfact> 0.14617414E+01</totfact>
</mgrwt>
</event>
<event>
12    4  0.4486176E-008  0.2290643E+04  0.7818608E-02  0.8481619E-01
         -2   -1    0    0    0  501 -0.00000000000E+00  0.00000000000E+00  0.81274900513E+03  0.81274900513E+03  0.00000000000E+00 0.  1.
          1   -1    0    0  501    0  0.00000000000E+00 -0.00000000000E+00 -0.16139813703E+04  0.16139813703E+04  0.00000000000E+00 0. -1.
        -24    2    1    2    0    0  0.13516732345E+03 -0.69488088929E+03  0.35631661284E+03  0.79644948958E+03  0.78997501484E+02 0.  0.
        254    2    1    2    0    0 -0.13516732345E+03  0.69488088929E+03 -0.11575489780E+04  0.16302808859E+04  0.90375133453E+03 0.  0.
         23    2    4    4    0    0 -0.69215792921E+02  0.73773463709E+02  0.13455346516E+03  0.19196900533E+03  0.92271957197E+02 0.  0.
         23    2    4    4    0    0 -0.65951530532E+02  0.62110742558E+03 -0.12921024432E+04  0.14383118805E+04  0.95332594161E+02 0.  0.
          1    1    3    3  502    0  0.55877052284E+02 -0.17131734981E+03  0.12053102171E+03  0.21679392638E+03  0.00000000000E+00 0. -1.
         -2    1    3    3    0  502  0.79290271168E+02 -0.52356353947E+03  0.23578559112E+03  0.57965556320E+03  0.00000000000E+00 0.  1.
         11    1    5    5    0    0 -0.37006069816E+02  0.29584203324E+02  0.70699221910E+00  0.47383268435E+02  0.00000000000E+00 0. -1.
        -11    1    5    5    0    0 -0.32209723104E+02  0.44189260385E+02  0.13384647294E+03  0.14458573690E+03  0.00000000000E+00 0.  1.
          2    1    6    6  503    0 -0.80669067183E+02  0.54796645464E+03 -0.11817164743E+04  0.13050779898E+04  0.00000000000E+00 0.  1.
         -2    1    6    6    0  503  0.14717536652E+02  0.73140970936E+02 -0.11038596888E+03  0.13323389073E+03  0.00000000000E+00 0. -1.
<mgrwt>
<rscale>  0 0.22906434E+04</rscale>
<asrwt>0</asrwt>
<pdfrwt beam="1">  1        1 0.24830482E+00 0.22906434E+04</pdfrwt>
<pdfrwt beam="2">  1       -2 0.12503831E+00 0.22906434E+04</pdfrwt>
<totfact> 0.20773371E+00</totfact>
</mgrwt>
</event>
<event>
12    4  0.4486176E-008  0.1636260E+04  0.7818608E-02  0.8798577E-01
         -2   -1    0    0    0  501 -0.00000000000E+00  0.00000000000E+00  0.17152201526E+04  0.17152201526E+04  0.00000000000E+00 0.  1.
          1   -1    0    0  501    0  0.00000000000E+00 -0.00000000000E+00 -0.39023350207E+03  0.39023350207E+03  0.00000000000E+00 0. -1.
        -24    2    1    2    0    0 -0.21202469577E+03 -0.13820979494E+03 -0.18682717515E+03  0.32443602149E+03  0.79359433201E+02 0.  0.
        254    2    1    2    0    0  0.21202469577E+03  0.13820979494E+03  0.15118138257E+04  0.17810176332E+04  0.90685519635E+03 0.  0.
         23    2    4    4    0    0  0.16598809563E+03 -0.36304986281E+03  0.85018199504E+03  0.94468357091E+03  0.10129350270E+03 0.  0.
         23    2    4    4    0    0  0.46036600136E+02  0.50125965774E+03  0.66163183064E+03  0.83633406226E+03  0.91199623640E+02 0.  0.
          1    1    3    3  502    0 -0.13274068087E+03 -0.12677595977E+03 -0.14593537743E+03  0.23449811667E+03  0.00000000000E+00 0. -1.
         -2    1    3    3    0  502 -0.79284014892E+02 -0.11433835161E+02 -0.40891797726E+02  0.89937904829E+02  0.00000000000E+00 0.  1.
         11    1    5    5    0    0  0.13391250956E+03 -0.27227372301E+03  0.73101243203E+03  0.79148260640E+03  0.00000000000E+00 0.  1.
        -11    1    5    5    0    0  0.32075586072E+02 -0.90776139803E+02  0.11916956301E+03  0.15320096451E+03  0.00000000000E+00 0. -1.
          1    1    6    6  503    0 -0.25393613481E+02  0.16866165517E+03  0.24362893156E+03  0.29739980804E+03  0.00000000000E+00 0. -1.
         -1    1    6    6    0  503  0.71430213617E+02  0.33259800258E+03  0.41800289908E+03  0.53893425422E+03  0.00000000000E+00 0.  1.
<mgrwt>
<rscale>  0 0.16362596E+04</rscale>
<asrwt>0</asrwt>
<pdfrwt beam="1">  1        1 0.60035924E-01 0.16362596E+04</pdfrwt>
<pdfrwt beam="2">  1       -2 0.26388002E+00 0.16362596E+04</pdfrwt>
<totfact> 0.27417343E+00</totfact>
</mgrwt>
</event>
<event>
12    4  0.4486176E-008  0.1933875E+04  0.7818608E-02  0.8638176E-01
         -2   -1    0    0    0  501 -0.00000000000E+00  0.00000000000E+00  0.11061747242E+04  0.11061747242E+04  0.00000000000E+00 0.  1.
          1   -1    0    0  501    0  0.00000000000E+00 -0.00000000000E+00 -0.84522604525E+03  0.84522604525E+03  0.00000000000E+00 0. -1.
        -24    2    1    2    0    0  0.20505717661E+03  0.36301041553E+03  0.73403837384E+03  0.84795705535E+03  0.79961403088E+02 0.  0.
        254    2    1    2    0    0 -0.20505717661E+03 -0.36301041553E+03 -0.47308969493E+03  0.11034437141E+04  0.90551044344E+03 0.  0.
         23    2    4    4    0    0 -0.29451059326E+03  0.10863055197E+03  0.10796092697E+03  0.34375705774E+03  0.89309947004E+02 0.  0.
         23    2    4    4    0    0  0.89453416650E+02 -0.47164096750E+03 -0.58105062191E+03  0.75968665632E+03  0.95167613140E+02 0.  0.
          3    1    3    3  502    0  0.92244382336E+02  0.11085389017E+03  0.19833042978E+03  0.24521943319E+03  0.00000000000E+00 0. -1.
         -4    1    3    3    0  502  0.11281279427E+03  0.25215652536E+03  0.53570794406E+03  0.60273762216E+03  0.00000000000E+00 0.  1.
         11    1    5    5    0    0 -0.27105089711E+03  0.94457281744E+02  0.67468681907E+02  0.29486062799E+03  0.00000000000E+00 0.  1.
        -11    1    5    5    0    0 -0.23459696142E+02  0.14173270225E+02  0.40492245067E+02  0.48896429752E+02  0.00000000000E+00 0. -1.
          3    1    6    6  503    0 -0.18093914606E+02 -0.12111234733E+03 -0.15674938809E+03  0.19891194305E+03  0.00000000000E+00 0. -1.
         -3    1    6    6    0  503  0.10754733126E+03 -0.35052862017E+03 -0.42430123381E+03  0.56077471326E+03  0.00000000000E+00 0.  1.
<mgrwt>
<rscale>  0 0.19338745E+04</rscale>
<asrwt>0</asrwt>
<pdfrwt beam="1">  1        1 0.13003478E+00 0.19338745E+04</pdfrwt>
<pdfrwt beam="2">  1       -2 0.17018073E+00 0.19338745E+04</pdfrwt>
<totfact> 0.35102663E+00</totfact>
</mgrwt>
</event>
<event>
12    4  0.4486176E-008  0.2073279E+04  0.7818608E-02  0.8573106E-01
          1   -1    0    0  501    0  0.00000000000E+00  0.00000000000E+00  0.26718241372E+04  0.26718241372E+04  0.00000000000E+00 0. -1.
         -2   -1    0    0    0  501 -0.00000000000E+00 -0.00000000000E+00 -0.40220530201E+03  0.40220530201E+03  0.00000000000E+00 0.  1.
        -24    2    1    2    0    0 -0.23755856133E+03  0.38717924513E+03 -0.12307093833E+03  0.47742141929E+03  0.80267788156E+02 0.  0.
        254    2    1    2    0    0  0.23755856133E+03 -0.38717924513E+03  0.23926897735E+04  0.25966080199E+04  0.90059259321E+03 0.  0.
         23    2    4    4    0    0  0.55849440635E+02 -0.54878973633E+03  0.22085979875E+04  0.22782619401E+04  0.91011331057E+02 0.  0.
         23    2    4    4    0    0  0.18170912069E+03  0.16161049120E+03  0.18409178598E+03  0.31834607984E+03  0.91204635165E+02 0.  0.
          1    1    3    3  502    0 -0.62013188150E+02  0.17624230792E+03 -0.52249403496E+02  0.19400254320E+03  0.00000000000E+00 0. -1.
         -2    1    3    3    0  502 -0.17554537318E+03  0.21093693722E+03 -0.70821534831E+02  0.28341887609E+03  0.00000000000E+00 0.  1.
         11    1    5    5    0    0  0.72588937240E+02 -0.50366812292E+03  0.20666208096E+04  0.21283496664E+04  0.00000000000E+00 0. -1.
        -11    1    5    5    0    0 -0.16739496604E+02 -0.45121613407E+02  0.14197717797E+03  0.14991227371E+03  0.00000000000E+00 0.  1.
          1    1    6    6  503    0  0.13616277931E+03  0.16279175737E+03  0.16552422335E+03  0.26914629341E+03  0.00000000000E+00 0. -1.
         -1    1    6    6    0  503  0.45546341383E+02 -0.11812661727E+01  0.18567562624E+02  0.49199786432E+02  0.00000000000E+00 0.  1.
<mgrwt>
<rscale>  0 0.20732794E+04</rscale>
<asrwt>0</asrwt>
<pdfrwt beam="1">  1        1 0.41104986E+00 0.20732794E+04</pdfrwt>
<pdfrwt beam="2">  1       -2 0.61877740E-01 0.20732794E+04</pdfrwt>
<totfact> 0.20197061E+00</totfact>
</mgrwt>
</event>
<event>
12    4  0.4486176E-008  0.1178917E+04  0.7818608E-02  0.9131513E-01
         -2   -1    0    0    0  501 -0.00000000000E+00  0.00000000000E+00  0.55315685911E+03  0.55315685911E+03  0.00000000000E+00 0.  1.
          1   -1    0    0  501    0  0.00000000000E+00 -0.00000000000E+00 -0.62814280660E+03  0.62814280660E+03  0.00000000000E+00 0. -1.
        -24    2    1    2    0    0 -0.13750990777E+03 -0.53046363101E+02  0.16837709754E+03  0.23807124738E+03  0.81266109048E+02 0.  0.
        254    2    1    2    0    0  0.13750990777E+03  0.53046363101E+02 -0.24336304503E+03  0.94322841833E+03  0.89929493832E+03 0.  0.
         23    2    4    4    0    0 -0.25937822408E+02 -0.39363155846E+03 -0.21465506727E+03  0.45820199127E+03  0.90849834590E+02 0.  0.
         23    2    4    4    0    0  0.16344773018E+03  0.44667792157E+03 -0.28707977764E+02  0.48502642707E+03  0.90499507472E+02 0.  0.
          1    1    3    3  502    0 -0.20522331654E+02  0.17408113351E+02  0.94327462033E+01  0.28516402436E+02  0.00000000000E+00 0. -1.
         -2    1    3    3    0  502 -0.11698757612E+03 -0.70454476452E+02  0.15894435134E+03  0.20955484495E+03  0.00000000000E+00 0.  1.
         11    1    5    5    0    0  0.18911955852E+02 -0.25061540110E+03 -0.16349634524E+03  0.29982794441E+03  0.00000000000E+00 0.  1.
        -11    1    5    5    0    0 -0.44849778260E+02 -0.14301615737E+03 -0.51158722026E+02  0.15837404685E+03  0.00000000000E+00 0. -1.
          1    1    6    6  503    0  0.28594421814E+02  0.33649345845E+02 -0.24543969387E+02  0.50520548967E+02  0.00000000000E+00 0. -1.
         -1    1    6    6    0  503  0.13485330837E+03  0.41302857572E+03 -0.41640083768E+01  0.43450587810E+03  0.00000000000E+00 0.  1.
<mgrwt>
<rscale>  0 0.11789173E+04</rscale>
<asrwt>0</asrwt>
<pdfrwt beam="1">  1        1 0.96637355E-01 0.11789173E+04</pdfrwt>
<pdfrwt beam="2">  1       -2 0.85101055E-01 0.11789173E+04</pdfrwt>
<totfact> 0.33408463E+01</totfact>
</mgrwt>
</event>
<event>
12    4  0.4486176E-008  0.1742497E+04  0.7818608E-02  0.8737491E-01
          1   -1    0    0  501    0  0.00000000000E+00  0.00000000000E+00  0.28173983713E+04  0.28173983713E+04  0.00000000000E+00 0. -1.
         -2   -1    0    0    0  501 -0.00000000000E+00 -0.00000000000E+00 -0.26942380776E+03  0.26942380776E+03  0.00000000000E+00 0.  1.
        -24    2    1    2    0    0 -0.16949778800E+03  0.41280035225E+03  0.17699022832E+04  0.18270726750E+04  0.80664965822E+02 0.  0.
        254    2    1    2    0    0  0.16949778800E+03 -0.41280035225E+03  0.77807228037E+03  0.12597495041E+04  0.88455565604E+03 0.  0.
         23    2    4    4    0    0  0.14718967876E+03 -0.37465392803E+03  0.96308105644E+03  0.10477668984E+04  0.90884459016E+02 0.  0.
         23    2    4    4    0    0  0.22308109236E+02 -0.38146424224E+02 -0.18500877607E+03  0.21198260564E+03  0.93571237310E+02 0.  0.
          3    1    3    3  502    0 -0.16180060125E+03  0.37935829595E+03  0.16984693938E+04  0.17478244858E+04  0.00000000000E+00 0. -1.
         -4    1    3    3    0  502 -0.76971867495E+01  0.33442056295E+02  0.71432889364E+02  0.79248189229E+02  0.00000000000E+00 0.  1.
         11    1    5    5    0    0  0.58246664173E+02 -0.22140116518E+03  0.63309386252E+03  0.67321541024E+03  0.00000000000E+00 0. -1.
        -11    1    5    5    0    0  0.88943014590E+02 -0.15325276285E+03  0.32998719392E+03  0.37455148820E+03  0.00000000000E+00 0.  1.
          1    1    6    6  503    0  0.29083416328E+02 -0.52113524718E+02 -0.55343715868E+02  0.81391593239E+02  0.00000000000E+00 0. -1.
         -1    1    6    6    0  503 -0.67753070921E+01  0.13967100494E+02 -0.12966506021E+03  0.13059101240E+03  0.00000000000E+00 0.  1.
<mgrwt>
<rscale>  0 0.17424973E+04</rscale>
<asrwt>0</asrwt>
<pdfrwt beam="1">  1        1 0.43344588E+00 0.17424973E+04</pdfrwt>
<pdfrwt beam="2">  1       -2 0.41449819E-01 0.17424973E+04</pdfrwt>
<totfact> 0.37291114E+00</totfact>
</mgrwt>
</event>
<event>
12    4  0.4486176E-008  0.1151415E+04  0.7818608E-02  0.9156479E-01
         -2   -1    0    0    0  501 -0.00000000000E+00  0.00000000000E+00  0.30868188773E+03  0.30868188773E+03  0.00000000000E+00 0.  1.
          1   -1    0    0  501    0  0.00000000000E+00 -0.00000000000E+00 -0.10737233767E+04  0.10737233767E+04  0.00000000000E+00 0. -1.
        -24    2    1    2    0    0  0.57170649153E+02 -0.16026860302E+03 -0.30145412799E+03  0.35532940096E+03  0.80186555395E+02 0.  0.
        254    2    1    2    0    0 -0.57170649153E+02  0.16026860302E+03 -0.46358736104E+03  0.10270758635E+04  0.90056486711E+03 0.  0.
         23    2    4    4    0    0  0.34037738520E+03 -0.16984927986E+03 -0.18485841627E+03  0.43289875289E+03  0.92320929182E+02 0.  0.
         23    2    4    4    0    0 -0.39754803435E+03  0.33011788288E+03 -0.27872894477E+03  0.59417711063E+03  0.91292704698E+02 0.  0.
          3    1    3    3  502    0  0.69583976860E+02 -0.13307348318E+03 -0.20345642523E+03  0.25287348364E+03  0.00000000000E+00 0. -1.
         -4    1    3    3    0  502 -0.12413327706E+02 -0.27195119843E+02 -0.97997702755E+02  0.10245591732E+03  0.00000000000E+00 0.  1.
         11    1    5    5    0    0  0.98706402086E+01 -0.24231537585E+02  0.20346536000E+01  0.26243794831E+02  0.00000000000E+00 0.  1.
        -11    1    5    5    0    0  0.33050674499E+03 -0.14561774227E+03 -0.18689306987E+03  0.40665495806E+03  0.00000000000E+00 0. -1.
          3    1    6    6  503    0 -0.25053723375E+03  0.16208285616E+03 -0.19102343200E+03  0.35430172075E+03  0.00000000000E+00 0. -1.
         -3    1    6    6    0  503 -0.14701080060E+03  0.16803502672E+03 -0.87705512770E+02  0.23987538988E+03  0.00000000000E+00 0.  1.
<mgrwt>
<rscale>  0 0.11514147E+04</rscale>
<asrwt>0</asrwt>
<pdfrwt beam="1">  1        1 0.16518822E+00 0.11514147E+04</pdfrwt>
<pdfrwt beam="2">  1       -2 0.47489520E-01 0.11514147E+04</pdfrwt>
<totfact> 0.48557549E+01</totfact>
</mgrwt>
</event>
<event>
12    4  0.4486176E-008  0.1725607E+04  0.7818608E-02  0.8746893E-01
          1   -1    0    0  501    0  0.00000000000E+00  0.00000000000E+00  0.99829768042E+03  0.99829768042E+03  0.00000000000E+00 0. -1.
         -2   -1    0    0    0  501 -0.00000000000E+00 -0.00000000000E+00 -0.74569959755E+03  0.74569959755E+03  0.00000000000E+00 0.  1.
        -24    2    1    2    0    0 -0.37066049674E+03 -0.18376605209E+03  0.56077976446E+03  0.70153774092E+03  0.80759469862E+02 0.  0.
        254    2    1    2    0    0  0.37066049674E+03  0.18376605209E+03 -0.30818168159E+03  0.10424595370E+04  0.90586244638E+03 0.  0.
         23    2    4    4    0    0  0.48831892467E+03  0.38497959192E+03 -0.43147187904E+03  0.76233638318E+03  0.91236617291E+02 0.  0.
         23    2    4    4    0    0 -0.11765842793E+03 -0.20121353983E+03  0.12329019744E+03  0.28012315387E+03  0.94541600741E+02 0.  0.
          1    1    3    3  502    0 -0.36055767720E+03 -0.19178583849E+03  0.53929434278E+03  0.67647766748E+03  0.00000000000E+00 0. -1.
         -2    1    3    3    0  502 -0.10102819533E+02  0.80197864075E+01  0.21485421673E+02  0.25060073444E+02  0.00000000000E+00 0.  1.
         11    1    5    5    0    0  0.42612110381E+03  0.32682172922E+03 -0.40673037788E+03  0.67366255506E+03  0.00000000000E+00 0.  1.
        -11    1    5    5    0    0  0.62197820857E+02  0.58157862701E+02 -0.24741501157E+02  0.88673828116E+02  0.00000000000E+00 0. -1.
          4    1    6    6  503    0  0.12076470945E+02 -0.19309716667E+02 -0.37822755381E+01  0.23087050840E+02  0.00000000000E+00 0. -1.
         -4    1    6    6    0  503 -0.12973489888E+03 -0.18190382317E+03  0.12707247298E+03  0.25703610303E+03  0.00000000000E+00 0.  1.
<mgrwt>
<rscale>  0 0.17256073E+04</rscale>
<asrwt>0</asrwt>
<pdfrwt beam="1">  1        1 0.15358426E+00 0.17256073E+04</pdfrwt>
<pdfrwt beam="2">  1       -2 0.11472301E+00 0.17256073E+04</pdfrwt>
<totfact> 0.74935288E+00</totfact>
</mgrwt>
</event>
<event>
12    4  0.4486176E-008  0.2212329E+04  0.7818608E-02  0.8513314E-01
          1   -1    0    0  501    0  0.00000000000E+00  0.00000000000E+00  0.19828584407E+04  0.19828584407E+04  0.00000000000E+00 0. -1.
         -2   -1    0    0    0  501 -0.00000000000E+00 -0.00000000000E+00 -0.61708907956E+03  0.61708907956E+03  0.00000000000E+00 0.  1.
        -24    2    1    2    0    0  0.31579290118E+03 -0.39519188734E+03  0.14771442365E+04  0.15633593960E+04  0.78966583395E+02 0.  0.
        254    2    1    2    0    0 -0.31579290118E+03  0.39519188734E+03 -0.11137487542E+03  0.10365881242E+04  0.89789130309E+03 0.  0.
         23    2    4    4    0    0 -0.20333547985E+03 -0.21382639531E+03 -0.24944879020E+03  0.39583240522E+03  0.85974120495E+02 0.  0.
         23    2    4    4    0    0 -0.11245742133E+03  0.60901828265E+03  0.13807391478E+03  0.64075571901E+03  0.89182651222E+02 0.  0.
          1    1    3    3  502    0  0.17881353789E+03 -0.16134162152E+03  0.67712385688E+03  0.71868081770E+03  0.00000000000E+00 0. -1.
         -2    1    3    3    0  502  0.13697936329E+03 -0.23385026582E+03  0.80002037964E+03  0.84467857829E+03  0.00000000000E+00 0.  1.
         11    1    5    5    0    0 -0.49022257294E+02 -0.11123023624E+03 -0.10971687190E+03  0.16374718057E+03  0.00000000000E+00 0. -1.
        -11    1    5    5    0    0 -0.15431322256E+03 -0.10259615907E+03 -0.13973191830E+03  0.23208522466E+03  0.00000000000E+00 0.  1.
          4    1    6    6  503    0 -0.33939106348E+02  0.54588293618E+02  0.11182283389E+01  0.64288375111E+02  0.00000000000E+00 0. -1.
         -4    1    6    6    0  503 -0.78518314980E+02  0.55442998903E+03  0.13695568644E+03  0.57646734389E+03  0.00000000000E+00 0.  1.
<mgrwt>
<rscale>  0 0.22123294E+04</rscale>
<asrwt>0</asrwt>
<pdfrwt beam="1">  1        1 0.30505514E+00 0.22123294E+04</pdfrwt>
<pdfrwt beam="2">  1       -2 0.94936782E-01 0.22123294E+04</pdfrwt>
<totfact> 0.22857402E+00</totfact>
</mgrwt>
</event>
<event>
12    4  0.4486176E-008  0.1238522E+04  0.7818608E-02  0.9079791E-01
         -2   -1    0    0    0  501 -0.00000000000E+00  0.00000000000E+00  0.15888999339E+04  0.15888999339E+04  0.00000000000E+00 0.  1.
          1   -1    0    0  501    0  0.00000000000E+00 -0.00000000000E+00 -0.24135182292E+03  0.24135182292E+03  0.00000000000E+00 0. -1.
        -24    2    1    2    0    0  0.82823225626E+02 -0.11556660492E+03 -0.43930522121E+02  0.16775464173E+03  0.77436439568E+02 0.  0.
        254    2    1    2    0    0 -0.82823225626E+02  0.11556660492E+03  0.13914786332E+04  0.16624971151E+04  0.89859253527E+03 0.  0.
         23    2    4    4    0    0  0.17837840094E+03  0.13004010526E+03 -0.48210247807E+01  0.23899100747E+03  0.91455871735E+02 0.  0.
         23    2    4    4    0    0 -0.26120162657E+03 -0.14473500340E+02  0.13962996579E+04  0.14235061077E+04  0.91000724618E+02 0.  0.
          3    1    3    3  502    0  0.95184459500E+02 -0.96234484502E+02 -0.49533191162E+02  0.14413429281E+03  0.00000000000E+00 0. -1.
         -4    1    3    3    0  502 -0.12361233874E+02 -0.19332120416E+02  0.56026690412E+01  0.23620348919E+02  0.00000000000E+00 0.  1.
         11    1    5    5    0    0  0.19917638934E+02 -0.11302436327E+02  0.12242999270E+02  0.25968219784E+02  0.00000000000E+00 0.  1.
        -11    1    5    5    0    0  0.15846076201E+03  0.14134254159E+03 -0.17064024051E+02  0.21302278769E+03  0.00000000000E+00 0. -1.
          1    1    6    6  503    0 -0.16517285452E+03 -0.34305828615E+02  0.10549063687E+04  0.10683100713E+04  0.00000000000E+00 0. -1.
         -1    1    6    6    0  503 -0.96028772050E+02  0.19832328275E+02  0.34139328924E+03  0.35519603635E+03  0.00000000000E+00 0.  1.
<mgrwt>
<rscale>  0 0.12385215E+04</rscale>
<asrwt>0</asrwt>
<pdfrwt beam="1">  1        1 0.37131051E-01 0.12385215E+04</pdfrwt>
<pdfrwt beam="2">  1       -2 0.24444614E+00 0.12385215E+04</pdfrwt>
<totfact> 0.69821946E+00</totfact>
</mgrwt>
</event>
<event>
12    4  0.4486176E-008  0.1426650E+04  0.7818608E-02  0.8934750E-01
          1   -1    0    0  501    0  0.00000000000E+00  0.00000000000E+00  0.61914046696E+03  0.61914046696E+03  0.00000000000E+00 0. -1.
         -2   -1    0    0    0  501 -0.00000000000E+00 -0.00000000000E+00 -0.82183747552E+03  0.82183747552E+03  0.00000000000E+00 0.  1.
        -24    2    1    2    0    0  0.30759339403E+03 -0.45873826006E+01  0.22971898762E+03  0.39425665547E+03  0.89625649100E+02 0.  0.
        254    2    1    2    0    0 -0.30759339403E+03  0.45873826006E+01 -0.43241599618E+03  0.10467212870E+04  0.90222343064E+03 0.  0.
         23    2    4    4    0    0 -0.24661342663E+03  0.31580139668E+02 -0.70447289807E+03  0.75267985439E+03  0.91811827513E+02 0.  0.
         23    2    4    4    0    0 -0.60979967399E+02 -0.26992757067E+02  0.27205690189E+03  0.29404143262E+03  0.89432884760E+02 0.  0.
          1    1    3    3  502    0  0.27856106183E+03 -0.28397250690E+02  0.18379730843E+03  0.33493897892E+03  0.00000000000E+00 0. -1.
         -2    1    3    3    0  502  0.29032332204E+02  0.23809868089E+02  0.45921679187E+02  0.59317676547E+02  0.00000000000E+00 0.  1.
         11    1    5    5    0    0 -0.14827460041E+03  0.12845629789E+02 -0.28608797302E+03  0.32248518669E+03  0.00000000000E+00 0. -1.
        -11    1    5    5    0    0 -0.98338826224E+02  0.18734509879E+02 -0.41838492505E+03  0.43019466769E+03  0.00000000000E+00 0.  1.
          1    1    6    6  503    0  0.22215455983E+02 -0.62253601056E+01  0.34692966385E+02  0.41663935358E+02  0.00000000000E+00 0. -1.
         -1    1    6    6    0  503 -0.83195423382E+02 -0.20767396962E+02  0.23736393550E+03  0.25237749727E+03  0.00000000000E+00 0.  1.
<mgrwt>
<rscale>  0 0.14266504E+04</rscale>
<asrwt>0</asrwt>
<pdfrwt beam="1">  1        1 0.95252380E-01 0.14266504E+04</pdfrwt>
<pdfrwt beam="2">  1       -2 0.12643653E+00 0.14266504E+04</pdfrwt>
<totfact> 0.12976687E+01</totfact>
</mgrwt>
</event>
<event>
12    4  0.4486176E-008  0.1578774E+04  0.7818608E-02  0.8833695E-01
         -2   -1    0    0    0  501 -0.00000000000E+00  0.00000000000E+00  0.50230066520E+03  0.50230066520E+03  0.00000000000E+00 0.  1.
          1   -1    0    0  501    0  0.00000000000E+00 -0.00000000000E+00 -0.12405547197E+04  0.12405547197E+04  0.00000000000E+00 0. -1.
        -24    2    1    2    0    0 -0.19000487891E+03  0.39828584842E+03 -0.62308675167E+03  0.76790603418E+03  0.81909133617E+02 0.  0.
        254    2    1    2    0    0  0.19000487891E+03 -0.39828584842E+03 -0.11516730279E+03  0.97494935069E+03  0.86170137386E+03 0.  0.
         23    2    4    4    0    0  0.42515519772E+03 -0.14421316558E+03 -0.32333878683E+03  0.56068402111E+03  0.90907762001E+02 0.  0.
         23    2    4    4    0    0 -0.23515031881E+03 -0.25407268283E+03  0.20817148403E+03  0.41426532957E+03  0.91824811046E+02 0.  0.
          1    1    3    3  502    0 -0.19540967604E+03  0.37332269929E+03 -0.56845659993E+03  0.70759994721E+03  0.00000000000E+00 0. -1.
         -2    1    3    3    0  502  0.54047971271E+01  0.24963149125E+02 -0.54630151742E+02  0.60306086969E+02  0.00000000000E+00 0.  1.
         11    1    5    5    0    0  0.21878704454E+02  0.12737217148E+02 -0.17528038722E+02  0.30791988418E+02  0.00000000000E+00 0. -1.
        -11    1    5    5    0    0  0.40327649326E+03 -0.15695038273E+03 -0.30581074810E+03  0.52989203269E+03  0.00000000000E+00 0.  1.
          3    1    6    6  503    0 -0.26573460634E+02 -0.40721687584E+02 -0.30188081499E+01  0.48718762837E+02  0.00000000000E+00 0. -1.
         -3    1    6    6    0  503 -0.20857685817E+03 -0.21335099525E+03  0.21119029218E+03  0.36554656674E+03  0.00000000000E+00 0.  1.
<mgrwt>
<rscale>  0 0.15787735E+04</rscale>
<asrwt>0</asrwt>
<pdfrwt beam="1">  1        1 0.19085457E+00 0.15787735E+04</pdfrwt>
<pdfrwt beam="2">  1       -2 0.77277025E-01 0.15787735E+04</pdfrwt>
<totfact> 0.12573740E+01</totfact>
</mgrwt>
</event>
<event>
12    4  0.4486176E-008  0.2502185E+04  0.7818608E-02  0.8402208E-01
          1   -1    0    0  501    0  0.00000000000E+00  0.00000000000E+00  0.31904498997E+04  0.31904498997E+04  0.00000000000E+00 0. -1.
         -2   -1    0    0    0  501 -0.00000000000E+00 -0.00000000000E+00 -0.49059926812E+03  0.49059926812E+03  0.00000000000E+00 0.  1.
        -24    2    1    2    0    0 -0.64094390528E+03 -0.47663112333E+03  0.22524972390E+04  0.23912540309E+04  0.79785404464E+02 0.  0.
        254    2    1    2    0    0  0.64094390528E+03  0.47663112333E+03  0.44735339257E+03  0.12897951370E+04  0.90854835872E+03 0.  0.
         23    2    4    4    0    0  0.14427238687E+02 -0.19476235797E+03 -0.76921671766E+02  0.22876583439E+03  0.90974403533E+02 0.  0.
         23    2    4    4    0    0  0.62651666659E+03  0.67139348130E+03  0.52427506433E+03  0.10610293026E+04  0.87329821083E+02 0.  0.
          3    1    3    3  502    0 -0.53765726069E+03 -0.39431072157E+03  0.19604339617E+04  0.20707142713E+04  0.00000000000E+00 0. -1.
         -4    1    3    3    0  502 -0.10328664459E+03 -0.82320401756E+02  0.29206327736E+03  0.32053975959E+03  0.00000000000E+00 0.  1.
         11    1    5    5    0    0  0.43672666310E+02 -0.61883741549E+02 -0.77632361600E+01  0.76139129798E+02  0.00000000000E+00 0. -1.
        -11    1    5    5    0    0 -0.29245427623E+02 -0.13287861642E+03 -0.69158435606E+02  0.15262670459E+03  0.00000000000E+00 0.  1.
          3    1    6    6  503    0  0.45111405484E+03  0.49917622490E+03  0.34021219546E+03  0.75393974024E+03  0.00000000000E+00 0. -1.
         -3    1    6    6    0  503  0.17540261175E+03  0.17221725640E+03  0.18406286888E+03  0.30708956236E+03  0.00000000000E+00 0.  1.
<mgrwt>
<rscale>  0 0.25021850E+04</rscale>
<asrwt>0</asrwt>
<pdfrwt beam="1">  1        1 0.49083843E+00 0.25021850E+04</pdfrwt>
<pdfrwt beam="2">  1       -2 0.75476812E-01 0.25021850E+04</pdfrwt>
<totfact> 0.53157419E-01</totfact>
</mgrwt>
</event>
<event>
12    4  0.4486176E-008  0.1887875E+04  0.7818608E-02  0.8660915E-01
         -2   -1    0    0    0  501 -0.00000000000E+00  0.00000000000E+00  0.81459413642E+03  0.81459413642E+03  0.00000000000E+00 0.  1.
          1   -1    0    0  501    0  0.00000000000E+00 -0.00000000000E+00 -0.10938188804E+04  0.10938188804E+04  0.00000000000E+00 0. -1.
        -24    2    1    2    0    0 -0.12805577843E+03  0.12594578279E+03 -0.81593114379E+03  0.83933470506E+03  0.80489086977E+02 0.  0.
        254    2    1    2    0    0  0.12805577843E+03 -0.12594578279E+03  0.53670639986E+03  0.10690783117E+04  0.90698073539E+03 0.  0.
         23    2    4    4    0    0  0.37397050789E+03  0.14773792840E+03 -0.58385816957E-01  0.41201196722E+03  0.89852220126E+02 0.  0.
         23    2    4    4    0    0 -0.24591472947E+03 -0.27368371119E+03  0.53676478567E+03  0.65706634450E+03  0.90790517134E+02 0.  0.
          3    1    3    3  502    0 -0.95196170376E+02  0.98349719677E+02 -0.73594519426E+03  0.74856549958E+03  0.00000000000E+00 0. -1.
         -4    1    3    3    0  502 -0.32859608051E+02  0.27596063109E+02 -0.79985949530E+02  0.90769205475E+02  0.00000000000E+00 0.  1.
         11    1    5    5    0    0  0.76298972279E+02  0.60651300060E+02  0.25686121092E+02  0.10079628062E+03  0.00000000000E+00 0. -1.
        -11    1    5    5    0    0  0.29767153561E+03  0.87086628340E+02 -0.25744506909E+02  0.31121568660E+03  0.00000000000E+00 0.  1.
          2    1    6    6  503    0  0.36964163331E+01 -0.79206514379E+01  0.71173338139E+00  0.87696509232E+01  0.00000000000E+00 0. -1.
         -2    1    6    6    0  503 -0.24961114580E+03 -0.26576305975E+03  0.53605305229E+03  0.64829669358E+03  0.00000000000E+00 0.  1.
<mgrwt>
<rscale>  0 0.18878755E+04</rscale>
<asrwt>0</asrwt>
<pdfrwt beam="1">  1        1 0.16827983E+00 0.18878755E+04</pdfrwt>
<pdfrwt beam="2">  1       -2 0.12532217E+00 0.18878755E+04</pdfrwt>
<totfact> 0.50141491E+00</totfact>
</mgrwt>
</event>
<event>
12    4  0.4486176E-008  0.1558231E+04  0.7818608E-02  0.8846627E-01
         -2   -1    0    0    0  501 -0.00000000000E+00  0.00000000000E+00  0.10146079908E+04  0.10146079908E+04  0.00000000000E+00 0.  1.
          1   -1    0    0  501    0  0.00000000000E+00 -0.00000000000E+00 -0.59828109284E+03  0.59828109284E+03  0.00000000000E+00 0. -1.
        -24    2    1    2    0    0 -0.22266300338E+03 -0.44290163055E+03  0.21254870671E+02  0.50277141079E+03  0.81158206985E+02 0.  0.
        254    2    1    2    0    0  0.22266300338E+03  0.44290163055E+03  0.39507202731E+03  0.11101176729E+04  0.91133894542E+03 0.  0.
         23    2    4    4    0    0  0.42207162938E+02  0.21291722694E+03  0.66253791936E+03  0.70335179565E+03  0.92908900100E+02 0.  0.
         23    2    4    4    0    0  0.18045584044E+03  0.22998440361E+03 -0.26746589205E+03  0.40676587722E+03  0.91996408665E+02 0.  0.
          1    1    3    3  502    0 -0.22876444491E+03 -0.42098291027E+03  0.24698697368E+02  0.47976015637E+03  0.00000000000E+00 0. -1.
         -2    1    3    3    0  502  0.61014415252E+01 -0.21918720286E+02 -0.34438266971E+01  0.23011254420E+02  0.00000000000E+00 0.  1.
         11    1    5    5    0    0  0.71122486261E+02  0.15253322706E+03  0.44588425900E+03  0.47658951503E+03  0.00000000000E+00 0. -1.
        -11    1    5    5    0    0 -0.28915323324E+02  0.60383999882E+02  0.21665366036E+03  0.22676228062E+03  0.00000000000E+00 0.  1.
          1    1    6    6  503    0  0.10490190148E+03  0.18282330695E+03 -0.22428085857E+03  0.30778348562E+03  0.00000000000E+00 0. -1.
         -1    1    6    6    0  503  0.75553938963E+02  0.47161096661E+02 -0.43185033484E+02  0.98982391606E+02  0.00000000000E+00 0.  1.
<mgrwt>
<rscale>  0 0.15582308E+04</rscale>
<asrwt>0</asrwt>
<pdfrwt beam="1">  1        1 0.92043245E-01 0.15582308E+04</pdfrwt>
<pdfrwt beam="2">  1       -2 0.15609354E+00 0.15582308E+04</pdfrwt>
<totfact> 0.77997735E+00</totfact>
</mgrwt>
</event>
<event>
12    4  0.4486176E-008  0.1544662E+04  0.7818608E-02  0.8855285E-01
         -2   -1    0    0    0  501 -0.00000000000E+00  0.00000000000E+00  0.80732457765E+03  0.80732457765E+03  0.00000000000E+00 0.  1.
          1   -1    0    0  501    0  0.00000000000E+00 -0.00000000000E+00 -0.73885377483E+03  0.73885377483E+03  0.00000000000E+00 0. -1.
        -24    2    1    2    0    0  0.29799368916E+03 -0.82160417248E+02 -0.37308233807E+03  0.49130646258E+03  0.81492553336E+02 0.  0.
        254    2    1    2    0    0 -0.29799368916E+03  0.82160417248E+02  0.44155314089E+03  0.10548718899E+04  0.90677172151E+03 0.  0.
         23    2    4    4    0    0 -0.22936954619E+03  0.13738273164E+03  0.70681461261E+03  0.76079410992E+03  0.87956679224E+02 0.  0.
         23    2    4    4    0    0 -0.68624142971E+02 -0.55222314396E+02 -0.26526147172E+03  0.29407777998E+03  0.91429291247E+02 0.  0.
          1    1    3    3  502    0  0.28216765438E+03 -0.81087989989E+02 -0.31290111100E+03  0.42906986909E+03  0.00000000000E+00 0. -1.
         -4    1    3    3    0  502  0.15826034783E+02 -0.10724272587E+01 -0.60181227067E+02  0.62236593484E+02  0.00000000000E+00 0.  1.
         11    1    5    5    0    0 -0.13998468721E+03  0.85276339500E+02  0.54156345163E+03  0.56582571422E+03  0.00000000000E+00 0.  1.
        -11    1    5    5    0    0 -0.89384858982E+02  0.52106392145E+02  0.16525116098E+03  0.19496839570E+03  0.00000000000E+00 0. -1.
          3    1    6    6  503    0 -0.23307434045E+02 -0.69834279862E+02 -0.20129479740E+03  0.21433538809E+03  0.00000000000E+00 0. -1.
         -3    1    6    6    0  503 -0.45316708926E+02  0.14611965465E+02 -0.63966674314E+02  0.79742391897E+02  0.00000000000E+00 0.  1.
<mgrwt>
<rscale>  0 0.15446615E+04</rscale>
<asrwt>0</asrwt>
<pdfrwt beam="1">  1        1 0.11366981E+00 0.15446615E+04</pdfrwt>
<pdfrwt beam="2">  1       -2 0.12420378E+00 0.15446615E+04</pdfrwt>
<totfact> 0.10308901E+01</totfact>
</mgrwt>
</event>
<event>
12    4  0.4775517E-008  0.2585526E+04  0.7818608E-02  0.8373134E-01
          1   -1    0    0  501    0  0.00000000000E+00  0.00000000000E+00  0.12282153637E+04  0.12282153637E+04  0.00000000000E+00 0. -1.
         -2   -1    0    0    0  501 -0.00000000000E+00 -0.00000000000E+00 -0.13607028706E+04  0.13607028706E+04  0.00000000000E+00 0.  1.
        -24    2    1    2    0    0  0.39594122141E+03  0.12713303851E+03  0.98256249579E+03  0.10699453253E+04  0.80135390406E+02 0.  0.
        254    2    1    2    0    0 -0.39594122141E+03 -0.12713303851E+03 -0.11150500026E+04  0.15189729090E+04  0.94393322298E+03 0.  0.
         23    2    4    4    0    0  0.86043651850E+02  0.26626258536E+03 -0.71662370966E+03  0.77442841664E+03  0.88828806503E+02 0.  0.
         23    2    4    4    0    0 -0.48198487326E+03 -0.39339562387E+03 -0.39842629299E+03  0.74454449232E+03  0.92376702475E+02 0.  0.
          3    1    3    3  502    0  0.36338962598E+03  0.98639044543E+02  0.91806751227E+03  0.99228505907E+03  0.00000000000E+00 0. -1.
         -4    1    3    3    0  502  0.32551595433E+02  0.28493993972E+02  0.64494983524E+02  0.77660266272E+02  0.00000000000E+00 0.  1.
         11    1    5    5    0    0  0.94358543850E+02  0.18953837437E+03 -0.45870598509E+03  0.50521234240E+03  0.00000000000E+00 0. -1.
        -11    1    5    5    0    0 -0.83148920008E+01  0.76724210993E+02 -0.25791772457E+03  0.26921607424E+03  0.00000000000E+00 0.  1.
          3    1    6    6  503    0 -0.20780272899E+03 -0.12414982728E+03 -0.18747320112E+03  0.30617210018E+03  0.00000000000E+00 0. -1.
         -3    1    6    6    0  503 -0.27418214427E+03 -0.26924579660E+03 -0.21095309187E+03  0.43837239214E+03  0.00000000000E+00 0.  1.
<mgrwt>
<rscale>  0 0.25855260E+04</rscale>
<asrwt>0</asrwt>
<pdfrwt beam="1">  1        1 0.18895621E+00 0.25855260E+04</pdfrwt>
<pdfrwt beam="2">  1       -2 0.20933890E+00 0.25855260E+04</pdfrwt>
<totfact> 0.91195726E-01</totfact>
</mgrwt>
</event>
<event>
12    4  0.4486176E-008  0.1502227E+04  0.7818608E-02  0.8882973E-01
          1   -1    0    0  501    0  0.00000000000E+00  0.00000000000E+00  0.20107078344E+04  0.20107078344E+04  0.00000000000E+00 0. -1.
         -2   -1    0    0    0  501 -0.00000000000E+00 -0.00000000000E+00 -0.28058350234E+03  0.28058350234E+03  0.00000000000E+00 0.  1.
        -24    2    1    2    0    0  0.35324211107E+03 -0.11457498808E+03  0.10080125715E+03  0.39317673298E+03  0.80744244260E+02 0.  0.
        254    2    1    2    0    0 -0.35324211107E+03  0.11457498808E+03  0.16293230749E+04  0.18981146038E+04  0.90013218454E+03 0.  0.
         23    2    4    4    0    0 -0.30708825435E+03  0.34169033080E+03  0.15753305339E+04  0.16436628716E+04  0.94370897527E+02 0.  0.
         23    2    4    4    0    0 -0.46153856721E+02 -0.22711534272E+03  0.53992540992E+02  0.25445173214E+03  0.90105117060E+02 0.  0.
          1    1    3    3  502    0 -0.14256871722E+01 -0.56579935195E+01  0.94086173627E+01  0.11071023225E+02  0.00000000000E+00 0. -1.
         -2    1    3    3    0  502  0.35466779825E+03 -0.10891699456E+03  0.91392639792E+02  0.38210570975E+03  0.00000000000E+00 0.  1.
         11    1    5    5    0    0 -0.16821952978E+02  0.21825059266E+02  0.20570049311E+03  0.20753795841E+03  0.00000000000E+00 0. -1.
        -11    1    5    5    0    0 -0.29026630138E+03  0.31986527154E+03  0.13696300408E+04  0.14361249132E+04  0.00000000000E+00 0.  1.
          1    1    6    6  503    0 -0.35443479941E+02 -0.29937633215E+02  0.30657861488E+02  0.55609411289E+02  0.00000000000E+00 0. -1.
         -1    1    6    6    0  503 -0.10710376780E+02 -0.19717770950E+03  0.23334679503E+02  0.19884232085E+03  0.00000000000E+00 0.  1.
<mgrwt>
<rscale>  0 0.15022269E+04</rscale>
<asrwt>0</asrwt>
<pdfrwt beam="1">  1        1 0.30933966E+00 0.15022269E+04</pdfrwt>
<pdfrwt beam="2">  1       -2 0.43166694E-01 0.15022269E+04</pdfrwt>
<totfact> 0.12669627E+01</totfact>
</mgrwt>
</event>
<event>
12    4  0.4486176E-008  0.1352540E+04  0.7818608E-02  0.8988908E-01
         -2   -1    0    0    0  501 -0.00000000000E+00  0.00000000000E+00  0.19720020352E+03  0.19720020352E+03  0.00000000000E+00 0.  1.
          1   -1    0    0  501    0  0.00000000000E+00 -0.00000000000E+00 -0.23191713396E+04  0.23191713396E+04  0.00000000000E+00 0. -1.
        -24    2    1    2    0    0  0.10911326440E+03 -0.55621972355E+02  0.64930132137E+02  0.16017603559E+03  0.80255417511E+02 0.  0.
        254    2    1    2    0    0 -0.10911326440E+03  0.55621972355E+02 -0.21869012682E+04  0.23561955075E+04  0.86840117719E+03 0.  0.
         23    2    4    4    0    0  0.31744821476E+03  0.22459516386E+03 -0.83299667205E+03  0.92384153479E+03  0.91560739796E+02 0.  0.
         23    2    4    4    0    0 -0.42656147917E+03 -0.16897319150E+03 -0.13539045962E+04  0.14323539728E+04  0.89853284717E+02 0.  0.
          1    1    3    3  502    0  0.43655694830E+02 -0.18944597682E+02 -0.15625924159E+02  0.50088790944E+02  0.00000000000E+00 0. -1.
         -2    1    3    3    0  502  0.65457569573E+02 -0.36677374673E+02  0.80556056296E+02  0.11008724464E+03  0.00000000000E+00 0.  1.
         11    1    5    5    0    0  0.40214190006E+02  0.27338160188E+02 -0.48227600763E+02  0.68486915215E+02  0.00000000000E+00 0. -1.
        -11    1    5    5    0    0  0.27723402476E+03  0.19725700367E+03 -0.78476907128E+03  0.85535461957E+03  0.00000000000E+00 0.  1.
          4    1    6    6  503    0 -0.42730897735E+03 -0.16205431107E+03 -0.13475297634E+04  0.14229163802E+04  0.00000000000E+00 0.  1.
         -4    1    6    6    0  503  0.74749817765E+00 -0.69188804317E+01 -0.63748327756E+01  0.94375925357E+01  0.00000000000E+00 0. -1.
<mgrwt>
<rscale>  0 0.13525399E+04</rscale>
<asrwt>0</asrwt>
<pdfrwt beam="1">  1        1 0.35679562E+00 0.13525399E+04</pdfrwt>
<pdfrwt beam="2">  1       -2 0.30338490E-01 0.13525399E+04</pdfrwt>
<totfact> 0.15621858E+01</totfact>
</mgrwt>
</event>
<event>
12    4  0.4486176E-008  0.4373651E+04  0.7818608E-02  0.7933138E-01
         -2   -1    0    0    0  501 -0.00000000000E+00  0.00000000000E+00  0.22200826899E+04  0.22200826899E+04  0.00000000000E+00 0.  1.
          1   -1    0    0  501    0  0.00000000000E+00 -0.00000000000E+00 -0.21540664498E+04  0.21540664498E+04  0.00000000000E+00 0. -1.
        -24    2    1    2    0    0 -0.52864875521E+03 -0.19210840528E+04  0.66936812886E+03  0.21034553719E+04  0.80233193042E+02 0.  0.
        254    2    1    2    0    0  0.52864875521E+03  0.19210840528E+04 -0.60335188873E+03  0.22706937678E+04  0.90663291436E+03 0.  0.
         23    2    4    4    0    0  0.57085047649E+03  0.19802487801E+04 -0.61959489369E+03  0.21539306883E+04  0.90906987061E+02 0.  0.
         23    2    4    4    0    0 -0.42201721284E+02 -0.59164727309E+02  0.16243004963E+02  0.11676307950E+03  0.89935150451E+02 0.  0.
          3    1    3    3  502    0 -0.37423955240E+02 -0.15800086819E+03  0.32607418276E+02  0.16561422192E+03  0.00000000000E+00 0. -1.
         -4    1    3    3    0  502 -0.49122479997E+03 -0.17630831846E+04  0.63676071059E+03  0.19378411499E+04  0.00000000000E+00 0.  1.
         11    1    5    5    0    0  0.12335358412E+03  0.35358783087E+03 -0.83172007479E+02  0.38361183986E+03  0.00000000000E+00 0. -1.
        -11    1    5    5    0    0  0.44749689237E+03  0.16266609492E+04 -0.53642288621E+03  0.17703188485E+04  0.00000000000E+00 0.  1.
          4    1    6    6  503    0 -0.62726031371E+02 -0.32464821905E+02 -0.13410666115E+02  0.71891346062E+02  0.00000000000E+00 0. -1.
         -4    1    6    6    0  503  0.20524310088E+02 -0.26699905405E+02  0.29653671077E+02  0.44871733436E+02  0.00000000000E+00 0.  1.
<mgrwt>
<rscale>  0 0.43736509E+04</rscale>
<asrwt>0</asrwt>
<pdfrwt beam="1">  1        1 0.33139484E+00 0.43736509E+04</pdfrwt>
<pdfrwt beam="2">  1       -2 0.34155118E+00 0.43736509E+04</pdfrwt>
<totfact> 0.27469293E-02</totfact>
</mgrwt>
</event>
<event>
12    4  0.4486176E-008  0.1516556E+04  0.7818608E-02  0.8873517E-01
         -2   -1    0    0    0  501 -0.00000000000E+00  0.00000000000E+00  0.74378608739E+03  0.74378608739E+03  0.00000000000E+00 0.  1.
          1   -1    0    0  501    0  0.00000000000E+00 -0.00000000000E+00 -0.77305246525E+03  0.77305246525E+03  0.00000000000E+00 0. -1.
        -24    2    1    2    0    0  0.32573482206E+03  0.29185521208E+03 -0.21369593291E+03  0.49339382592E+03  0.80553563481E+02 0.  0.
        254    2    1    2    0    0 -0.32573482206E+03 -0.29185521208E+03  0.18442955505E+03  0.10234447267E+04  0.90672057920E+03 0.  0.
         23    2    4    4    0    0 -0.46158719183E+03  0.18174581981E+03  0.11832205457E+03  0.51806871913E+03  0.91108783728E+02 0.  0.
         23    2    4    4    0    0  0.13585236977E+03 -0.47360103189E+03  0.66107500483E+02  0.50537600759E+03  0.90999470567E+02 0.  0.
          3    1    3    3  502    0  0.12644134582E+03  0.13037393220E+03 -0.13084418041E+03  0.22384140742E+03  0.00000000000E+00 0. -1.
         -4    1    3    3    0  502  0.19929347624E+03  0.16148127989E+03 -0.82851752505E+02  0.26955241850E+03  0.00000000000E+00 0.  1.
         11    1    5    5    0    0 -0.45733973702E+03  0.16673956174E+03  0.12241786303E+03  0.50194407029E+03  0.00000000000E+00 0. -1.
        -11    1    5    5    0    0 -0.42474548008E+01  0.15006258064E+02 -0.40958084587E+01  0.16124648842E+02  0.00000000000E+00 0.  1.
          3    1    6    6  503    0  0.14679410523E+03 -0.42844329236E+03  0.71853577343E+02  0.45855763070E+03  0.00000000000E+00 0. -1.
         -3    1    6    6    0  503 -0.10941735466E+02 -0.45157739535E+02 -0.57460768603E+01  0.46818376885E+02  0.00000000000E+00 0.  1.
<mgrwt>
<rscale>  0 0.15165562E+04</rscale>
<asrwt>0</asrwt>
<pdfrwt beam="1">  1        1 0.11893115E+00 0.15165562E+04</pdfrwt>
<pdfrwt beam="2">  1       -2 0.11442863E+00 0.15165562E+04</pdfrwt>
<totfact> 0.11793333E+01</totfact>
</mgrwt>
</event>
<event>
12    4  0.4486176E-008  0.3336547E+04  0.7818608E-02  0.8153658E-01
          1   -1    0    0  501    0  0.00000000000E+00  0.00000000000E+00  0.13816862428E+04  0.13816862428E+04  0.00000000000E+00 0. -1.
         -2   -1    0    0    0  501 -0.00000000000E+00 -0.00000000000E+00 -0.20143040384E+04  0.20143040384E+04  0.00000000000E+00 0.  1.
        -24    2    1    2    0    0  0.19179334746E+03 -0.10951306246E+04 -0.13870609262E+04  0.17795348208E+04  0.81916985604E+02 0.  0.
        254    2    1    2    0    0 -0.19179334746E+03  0.10951306246E+04  0.75444313058E+03  0.16164554604E+04  0.89869240849E+03 0.  0.
         23    2    4    4    0    0  0.95555327927E+02 -0.77797964907E+02 -0.50628598706E+02  0.16183366613E+03  0.91888717745E+02 0.  0.
         23    2    4    4    0    0 -0.28734867539E+03  0.11729285895E+04  0.80507172928E+03  0.14546217943E+04  0.97228276201E+02 0.  0.
          3    1    3    3  502    0  0.15867053031E+02 -0.29570395623E+03 -0.38044374017E+03  0.48210997971E+03  0.00000000000E+00 0. -1.
         -4    1    3    3    0  502  0.17592629443E+03 -0.79942666840E+03 -0.10066171860E+04  0.12974248411E+04  0.00000000000E+00 0.  1.
         11    1    5    5    0    0  0.43012184413E+02 -0.62773084605E+02  0.13813723422E+02  0.77339040035E+02  0.00000000000E+00 0. -1.
        -11    1    5    5    0    0  0.52543143513E+02 -0.15024880302E+02 -0.64442322128E+02  0.84494626099E+02  0.00000000000E+00 0.  1.
          3    1    6    6  503    0 -0.16913670576E+03  0.73075292054E+03  0.55483403935E+03  0.93297795652E+03  0.00000000000E+00 0. -1.
         -3    1    6    6    0  503 -0.11821196963E+03  0.44217566899E+03  0.25023768993E+03  0.52164383776E+03  0.00000000000E+00 0.  1.
<mgrwt>
<rscale>  0 0.33365468E+04</rscale>
<asrwt>0</asrwt>
<pdfrwt beam="1">  1        1 0.21256711E+00 0.33365468E+04</pdfrwt>
<pdfrwt beam="2">  1       -2 0.30989293E+00 0.33365468E+04</pdfrwt>
<totfact> 0.15883466E-01</totfact>
</mgrwt>
</event>
<event>
12    4  0.4486176E-008  0.1434594E+04  0.7818608E-02  0.8929151E-01
         -2   -1    0    0    0  501 -0.00000000000E+00  0.00000000000E+00  0.15703605227E+04  0.15703605227E+04  0.00000000000E+00 0.  1.
          1   -1    0    0  501    0  0.00000000000E+00 -0.00000000000E+00 -0.32764135438E+03  0.32764135438E+03  0.00000000000E+00 0. -1.
        -24    2    1    2    0    0  0.21062716366E+03 -0.19924055928E+03  0.80339491046E+03  0.85779225445E+03  0.79395006887E+02 0.  0.
        254    2    1    2    0    0 -0.21062716366E+03  0.19924055928E+03  0.43932425785E+03  0.10402096226E+04  0.89720101030E+03 0.  0.
         23    2    4    4    0    0 -0.11567624121E+03 -0.29859620064E+03  0.40461820004E+03  0.52368205968E+03  0.89366257670E+02 0.  0.
         23    2    4    4    0    0 -0.94950922449E+02  0.49783675992E+03  0.34706057806E+02  0.51652756293E+03  0.93483130094E+02 0.  0.
          1    1    3    3  502    0  0.94733576170E+02 -0.38179593458E+02  0.26603290887E+03  0.28496603379E+03  0.00000000000E+00 0. -1.
         -2    1    3    3    0  502  0.11589358749E+03 -0.16106096583E+03  0.53736200158E+03  0.57282622066E+03  0.00000000000E+00 0.  1.
         11    1    5    5    0    0 -0.74230545644E+02 -0.25021368096E+03  0.27430295733E+03  0.37862801329E+03  0.00000000000E+00 0. -1.
        -11    1    5    5    0    0 -0.41445695563E+02 -0.48382519671E+02  0.13031524271E+03  0.14505404639E+03  0.00000000000E+00 0.  1.
          1    1    6    6  503    0 -0.96767177176E+02  0.50092508546E+03  0.30635796277E+02  0.51110505753E+03  0.00000000000E+00 0. -1.
         -1    1    6    6    0  503  0.18162547273E+01 -0.30883255372E+01  0.40702615287E+01  0.54225053961E+01  0.00000000000E+00 0.  1.
<mgrwt>
<rscale>  0 0.14345941E+04</rscale>
<asrwt>0</asrwt>
<pdfrwt beam="1">  1        1 0.50406363E-01 0.14345941E+04</pdfrwt>
<pdfrwt beam="2">  1       -2 0.24159392E+00 0.14345941E+04</pdfrwt>
<totfact> 0.48065243E+00</totfact>
</mgrwt>
</event>
<event>
12    4  0.4486176E-008  0.2898131E+04  0.7818608E-02  0.8273434E-01
          1   -1    0    0  501    0  0.00000000000E+00  0.00000000000E+00  0.18893654285E+04  0.18893654285E+04  0.00000000000E+00 0. -1.
         -2   -1    0    0    0  501 -0.00000000000E+00 -0.00000000000E+00 -0.11113736575E+04  0.11113736575E+04  0.00000000000E+00 0.  1.
        -24    2    1    2    0    0 -0.29096754912E+03 -0.11461795077E+04 -0.22756087429E+03  0.12061040165E+04  0.67181608833E+02 0.  0.
        254    2    1    2    0    0  0.29096754912E+03  0.11461795077E+04  0.10055526452E+04  0.17946350696E+04  0.90066049766E+03 0.  0.
         23    2    4    4    0    0 -0.53006534478E+02  0.97303482005E+03  0.10000541227E+04  0.13992523226E+04  0.90511658437E+02 0.  0.
         23    2    4    4    0    0  0.34397408360E+03  0.17314468763E+03  0.54985225450E+01  0.39538274693E+03  0.89442885566E+02 0.  0.
          3    1    3    3  502    0 -0.90111580104E+02 -0.47330904100E+03 -0.10843369796E+03  0.49386173370E+03  0.00000000000E+00 0. -1.
         -2    1    3    3    0  502 -0.20085596902E+03 -0.67287046668E+03 -0.11912717633E+03  0.71224228276E+03  0.00000000000E+00 0.  1.
         11    1    5    5    0    0 -0.25448384502E+02  0.62950185527E+03  0.70582523474E+03  0.94610225032E+03  0.00000000000E+00 0. -1.
        -11    1    5    5    0    0 -0.27558149976E+02  0.34353296478E+03  0.29422888796E+03  0.45315007230E+03  0.00000000000E+00 0.  1.
          2    1    6    6  503    0  0.39552703453E+02  0.25074854249E+02 -0.29038702236E+02  0.55103637753E+02  0.00000000000E+00 0. -1.
         -2    1    6    6    0  503  0.30442138015E+03  0.14806983338E+03  0.34537224781E+02  0.34027910918E+03  0.00000000000E+00 0.  1.
<mgrwt>
<rscale>  0 0.28981311E+04</rscale>
<asrwt>0</asrwt>
<pdfrwt beam="1">  1        1 0.29067160E+00 0.28981311E+04</pdfrwt>
<pdfrwt beam="2">  1       -2 0.17098056E+00 0.28981311E+04</pdfrwt>
<totfact> 0.56065597E-01</totfact>
</mgrwt>
</event>
<event>
12    4  0.4486176E-008  0.1858070E+04  0.7818608E-02  0.8676014E-01
          1   -1    0    0  501    0  0.00000000000E+00  0.00000000000E+00  0.12223597275E+04  0.12223597275E+04  0.00000000000E+00 0. -1.
         -2   -1    0    0    0  501 -0.00000000000E+00 -0.00000000000E+00 -0.70609830134E+03  0.70609830134E+03  0.00000000000E+00 0.  1.
        -24    2    1    2    0    0 -0.13630752134E+03  0.11689445153E+03  0.91684881935E+03  0.93775595982E+03  0.80811072660E+02 0.  0.
        254    2    1    2    0    0  0.13630752134E+03 -0.11689445153E+03 -0.40058739315E+03  0.99070206906E+03  0.88813077692E+03 0.  0.
         23    2    4    4    0    0  0.34342257164E+03 -0.36337211258E+03 -0.61677703339E+02  0.51214901004E+03  0.92271959365E+02 0.  0.
         23    2    4    4    0    0 -0.20711505030E+03  0.24647766105E+03 -0.33890968981E+03  0.47855305902E+03  0.10249571205E+03 0.  0.
          1    1    3    3  502    0 -0.12185876614E+03  0.12336618744E+03  0.88871001686E+03  0.90546908790E+03  0.00000000000E+00 0. -1.
         -2    1    3    3    0  502 -0.14448755200E+02 -0.64717359052E+01  0.28138802491E+02  0.32286871916E+02  0.00000000000E+00 0.  1.
         11    1    5    5    0    0  0.32516849962E+03 -0.33206382948E+03 -0.79912130508E+02  0.47157914352E+03  0.00000000000E+00 0. -1.
        -11    1    5    5    0    0  0.18254072020E+02 -0.31308283100E+02  0.18234427170E+02  0.40569866529E+02  0.00000000000E+00 0.  1.
          1    1    6    6  503    0 -0.18249531499E+03  0.22064135490E+03 -0.33782781726E+03  0.44284848605E+03  0.00000000000E+00 0. -1.
         -1    1    6    6    0  503 -0.24619735313E+02  0.25836306151E+02 -0.10818725528E+01  0.35704572965E+02  0.00000000000E+00 0.  1.
<mgrwt>
<rscale>  0 0.18580701E+04</rscale>
<asrwt>0</asrwt>
<pdfrwt beam="1">  1        1 0.18805534E+00 0.18580701E+04</pdfrwt>
<pdfrwt beam="2">  1       -2 0.10863051E+00 0.18580701E+04</pdfrwt>
<totfact> 0.57408380E+00</totfact>
</mgrwt>
</event>
<event>
12    4  0.4486176E-008  0.1649499E+04  0.7818608E-02  0.8790703E-01
         -2   -1    0    0    0  501 -0.00000000000E+00  0.00000000000E+00  0.58500206911E+03  0.58500206911E+03  0.00000000000E+00 0.  1.
          1   -1    0    0  501    0  0.00000000000E+00 -0.00000000000E+00 -0.11627516265E+04  0.11627516265E+04  0.00000000000E+00 0. -1.
        -24    2    1    2    0    0  0.30927420164E+03 -0.44745233408E+03  0.13396659094E+01  0.54969778770E+03  0.79383499700E+02 0.  0.
        254    2    1    2    0    0 -0.30927420164E+03  0.44745233408E+03 -0.57908922326E+03  0.11980559079E+04  0.89673268413E+03 0.  0.
         23    2    4    4    0    0 -0.97815458572E+02 -0.23667214569E+02 -0.65419567745E+03  0.66805281288E+03  0.90523894214E+02 0.  0.
         23    2    4    4    0    0 -0.21145874307E+03  0.47111954865E+03  0.75106454193E+02  0.53000309498E+03  0.92703139551E+02 0.  0.
          1    1    3    3  502    0  0.44579923178E+02 -0.12361377984E+03 -0.24261040205E+01  0.13142915239E+03  0.00000000000E+00 0. -1.
         -2    1    3    3    0  502  0.26469427846E+03 -0.32383855424E+03  0.37657699300E+01  0.41826863531E+03  0.00000000000E+00 0.  1.
         11    1    5    5    0    0 -0.77713937433E+02 -0.49722602889E+02 -0.57400913926E+03  0.58137619943E+03  0.00000000000E+00 0. -1.
        -11    1    5    5    0    0 -0.20101521139E+02  0.26055388320E+02 -0.80186538193E+02  0.86676613455E+02  0.00000000000E+00 0.  1.
          1    1    6    6  503    0 -0.17559881960E+03  0.39795110026E+03  0.27973580069E+02  0.43586987144E+03  0.00000000000E+00 0. -1.
         -1    1    6    6    0  503 -0.35859923466E+02  0.73168448388E+02  0.47132874124E+02  0.94133223538E+02  0.00000000000E+00 0.  1.
<mgrwt>
<rscale>  0 0.16494994E+04</rscale>
<asrwt>0</asrwt>
<pdfrwt beam="1">  1        1 0.17888487E+00 0.16494994E+04</pdfrwt>
<pdfrwt beam="2">  1       -2 0.90000318E-01 0.16494994E+04</pdfrwt>
<totfact> 0.10081211E+01</totfact>
</mgrwt>
</event>
<event>
12    4  0.4486176E-008  0.1982041E+04  0.7818608E-02  0.8615064E-01
         -2   -1    0    0    0  501 -0.00000000000E+00  0.00000000000E+00  0.45817018802E+03  0.45817018802E+03  0.00000000000E+00 0.  1.
          1   -1    0    0  501    0  0.00000000000E+00 -0.00000000000E+00 -0.21435729081E+04  0.21435729081E+04  0.00000000000E+00 0. -1.
        -24    2    1    2    0    0  0.77770443828E+03  0.62248677018E+02 -0.82712705276E+03  0.11409626637E+04  0.94644320332E+02 0.  0.
        254    2    1    2    0    0 -0.77770443828E+03 -0.62248677018E+02 -0.85827566731E+03  0.14607804325E+04  0.88799958312E+03 0.  0.
         23    2    4    4    0    0 -0.80369569234E+03  0.11108179718E+03 -0.30088666646E+03  0.86971665875E+03  0.87225849933E+02 0.  0.
         23    2    4    4    0    0  0.25991254064E+02 -0.17333047419E+03 -0.55738900085E+03  0.59106377370E+03  0.89190177362E+02 0.  0.
          1    1    3    3  502    0  0.43894900994E+03  0.50377527217E+00 -0.41693141149E+03  0.60539928064E+03  0.00000000000E+00 0. -1.
         -2    1    3    3    0  502  0.33875542834E+03  0.61744901746E+02 -0.41019564128E+03  0.53556338303E+03  0.00000000000E+00 0.  1.
         11    1    5    5    0    0 -0.34811659234E+03  0.88030881192E+02 -0.11375142140E+03  0.37666163034E+03  0.00000000000E+00 0. -1.
        -11    1    5    5    0    0 -0.45557910001E+03  0.23050915984E+02 -0.18713524506E+03  0.49305502841E+03  0.00000000000E+00 0.  1.
          2    1    6    6  503    0 -0.32591452493E+01 -0.16360029163E+03 -0.43230506584E+03  0.46223732801E+03  0.00000000000E+00 0. -1.
         -2    1    6    6    0  503  0.29250399313E+02 -0.97301825636E+01 -0.12508393501E+03  0.12882644569E+03  0.00000000000E+00 0.  1.
<mgrwt>
<rscale>  0 0.19820406E+04</rscale>
<asrwt>0</asrwt>
<pdfrwt beam="1">  1        1 0.32978044E+00 0.19820406E+04</pdfrwt>
<pdfrwt beam="2">  1       -2 0.70487723E-01 0.19820406E+04</pdfrwt>
<totfact> 0.35564403E+00</totfact>
</mgrwt>
</event>
<event>
12    4  0.4486176E-008  0.2244105E+04  0.7818608E-02  0.8500292E-01
          1   -1    0    0  501    0  0.00000000000E+00  0.00000000000E+00  0.16814950779E+04  0.16814950779E+04  0.00000000000E+00 0. -1.
         -2   -1    0    0    0  501 -0.00000000000E+00 -0.00000000000E+00 -0.74873934519E+03  0.74873934519E+03  0.00000000000E+00 0.  1.
        -24    2    1    2    0    0 -0.69528045484E+03  0.30992542153E+03  0.98839417653E+03  0.12499678405E+04  0.77639398958E+02 0.  0.
        254    2    1    2    0    0  0.69528045484E+03 -0.30992542153E+03 -0.55638443780E+02  0.11802665826E+04  0.90025823622E+03 0.  0.
         23    2    4    4    0    0  0.20042166531E+03  0.30185165722E+03 -0.92755242315E+02  0.38688126085E+03  0.98945985912E+02 0.  0.
         23    2    4    4    0    0  0.49485878953E+03 -0.61177707875E+03  0.37116798534E+02  0.79338532179E+03  0.94478550211E+02 0.  0.
          3    1    3    3  502    0 -0.58643816109E+03  0.28436755927E+03  0.87105032320E+03  0.10878893745E+04  0.00000000000E+00 0. -1.
         -4    1    3    3    0  502 -0.10884229375E+03  0.25557862260E+02  0.11734385333E+03  0.16207846602E+03  0.00000000000E+00 0.  1.
         11    1    5    5    0    0  0.38461465283E+02  0.52881652128E+02  0.21225614786E+02  0.68747946635E+02  0.00000000000E+00 0. -1.
        -11    1    5    5    0    0  0.16196020003E+03  0.24897000509E+03 -0.11398085710E+03  0.31813331422E+03  0.00000000000E+00 0.  1.
          2    1    6    6  503    0  0.49610555062E+03 -0.59740042325E+03  0.29565836645E+02  0.77709852770E+03  0.00000000000E+00 0. -1.
         -2    1    6    6    0  503 -0.12467610881E+01 -0.14376655499E+02  0.75509618891E+01  0.16286794098E+02  0.00000000000E+00 0.  1.
<mgrwt>
<rscale>  0 0.22441047E+04</rscale>
<asrwt>0</asrwt>
<pdfrwt beam="1">  1        1 0.25869155E+00 0.22441047E+04</pdfrwt>
<pdfrwt beam="2">  1       -2 0.11519067E+00 0.22441047E+04</pdfrwt>
<totfact> 0.22983538E+00</totfact>
</mgrwt>
</event>
<event>
12    4  0.4486176E-008  0.1428030E+04  0.7818608E-02  0.8933775E-01
          1   -1    0    0  501    0  0.00000000000E+00  0.00000000000E+00  0.23941268243E+04  0.23941268243E+04  0.00000000000E+00 0. -1.
         -2   -1    0    0    0  501 -0.00000000000E+00 -0.00000000000E+00 -0.21294512640E+03  0.21294512640E+03  0.00000000000E+00 0.  1.
        -24    2    1    2    0    0  0.79740583827E+02 -0.37750871730E+03  0.34024628602E+03  0.52067741588E+03  0.80411715042E+02 0.  0.
        254    2    1    2    0    0 -0.79740583827E+02  0.37750871730E+03  0.18409354119E+04  0.20863945348E+04  0.90284415701E+03 0.  0.
         23    2    4    4    0    0  0.29524133416E+03 -0.68511542839E+00  0.12477654622E+04  0.12853131996E+04  0.89126077891E+02 0.  0.
         23    2    4    4    0    0 -0.37498191799E+03  0.37819383273E+03  0.59316994975E+03  0.80108133522E+03  0.78985457073E+02 0.  0.
          3    1    3    3  502    0  0.33236224643E+02 -0.41978805705E+02  0.30216643279E+02  0.61480991273E+02  0.00000000000E+00 0. -1.
         -4    1    3    3    0  502  0.46504359184E+02 -0.33552991159E+03  0.31002964274E+03  0.45919642461E+03  0.00000000000E+00 0.  1.
         11    1    5    5    0    0  0.17109098378E+03  0.38643532839E+02  0.62942944961E+03  0.65341172273E+03  0.00000000000E+00 0. -1.
        -11    1    5    5    0    0  0.12415035038E+03 -0.39328648268E+02  0.61833601256E+03  0.63190147690E+03  0.00000000000E+00 0.  1.
          2    1    6    6  503    0 -0.34648822043E+02  0.12928858691E+02  0.61430274890E+02  0.71703381574E+02  0.00000000000E+00 0. -1.
         -2    1    6    6    0  503 -0.34033309595E+03  0.36526497403E+03  0.53173967486E+03  0.72937795365E+03  0.00000000000E+00 0.  1.
<mgrwt>
<rscale>  0 0.14280303E+04</rscale>
<asrwt>0</asrwt>
<pdfrwt beam="1">  1        1 0.36832718E+00 0.14280303E+04</pdfrwt>
<pdfrwt beam="2">  1       -2 0.32760790E-01 0.14280303E+04</pdfrwt>
<totfact> 0.11933907E+01</totfact>
</mgrwt>
</event>
<event>
12    4  0.4486176E-008  0.2022429E+04  0.7818608E-02  0.8596206E-01
          1   -1    0    0  501    0  0.00000000000E+00  0.00000000000E+00  0.50307884305E+03  0.50307884305E+03  0.00000000000E+00 0. -1.
         -2   -1    0    0    0  501 -0.00000000000E+00 -0.00000000000E+00 -0.20325938402E+04  0.20325938402E+04  0.00000000000E+00 0.  1.
        -24    2    1    2    0    0 -0.32908395872E+03  0.59807989125E+03 -0.11425329699E+04  0.13335157079E+04  0.82986431359E+02 0.  0.
        254    2    1    2    0    0  0.32908395872E+03 -0.59807989125E+03 -0.38698202729E+03  0.12021569754E+04  0.91073074822E+03 0.  0.
         23    2    4    4    0    0  0.10567635049E+03  0.25840204560E+02 -0.50289021211E+03  0.52320759041E+03  0.94933713730E+02 0.  0.
         23    2    4    4    0    0  0.22340760824E+03 -0.62392009581E+03  0.11590818482E+03  0.67894938495E+03  0.91380056028E+02 0.  0.
          1    1    3    3  502    0 -0.42222881165E+02  0.33548364990E+02 -0.76639147145E+02  0.93711383313E+02  0.00000000000E+00 0. -1.
         -2    1    3    3    0  502 -0.28686107756E+03  0.56453152626E+03 -0.10658938227E+04  0.12398043246E+04  0.00000000000E+00 0.  1.
         11    1    5    5    0    0  0.11553002979E+03 -0.12627167085E+01 -0.39977096774E+03  0.41613172059E+03  0.00000000000E+00 0.  1.
        -11    1    5    5    0    0 -0.98536793062E+01  0.27102921269E+02 -0.10311924437E+03  0.10707586982E+03  0.00000000000E+00 0. -1.
          2    1    6    6  503    0  0.20530857807E+03 -0.47427984679E+03  0.70958128155E+02  0.52165893192E+03  0.00000000000E+00 0. -1.
         -2    1    6    6    0  503  0.18099030166E+02 -0.14964024902E+03  0.44950056663E+02  0.15729045303E+03  0.00000000000E+00 0.  1.
<mgrwt>
<rscale>  0 0.20224292E+04</rscale>
<asrwt>0</asrwt>
<pdfrwt beam="1">  1        1 0.77396745E-01 0.20224292E+04</pdfrwt>
<pdfrwt beam="2">  1       -2 0.31270674E+00 0.20224292E+04</pdfrwt>
<totfact> 0.94719997E-01</totfact>
</mgrwt>
</event>
<event>
12    4  0.4486176E-008  0.1833232E+04  0.7818608E-02  0.8688824E-01
          1   -1    0    0  501    0  0.00000000000E+00  0.00000000000E+00  0.21808658321E+04  0.21808658321E+04  0.00000000000E+00 0. -1.
         -2   -1    0    0    0  501 -0.00000000000E+00 -0.00000000000E+00 -0.38525297515E+03  0.38525297515E+03  0.00000000000E+00 0.  1.
        -24    2    1    2    0    0 -0.16942491172E+03  0.46212379141E+03 -0.19081332955E+02  0.49955627384E+03  0.83241661234E+02 0.  0.
        254    2    1    2    0    0  0.16942491172E+03 -0.46212379141E+03  0.18146941899E+04  0.20665625334E+04  0.85749781472E+03 0.  0.
         23    2    4    4    0    0 -0.33712789000E+03 -0.25615981213E+03  0.73658683786E+03  0.85429184936E+03  0.89338293103E+02 0.  0.
         23    2    4    4    0    0  0.50655280172E+03 -0.20596397928E+03  0.10781073520E+04  0.12122706840E+04  0.90927702820E+02 0.  0.
          3    1    3    3  502    0 -0.31385602249E+02  0.27986504107E+02 -0.12807950261E+02  0.43958435260E+02  0.00000000000E+00 0. -1.
         -4    1    3    3    0  502 -0.13803930948E+03  0.43413728731E+03 -0.62733826940E+01  0.45559783858E+03  0.00000000000E+00 0.  1.
         11    1    5    5    0    0 -0.24117267524E+03 -0.15193577284E+03  0.55560301136E+03  0.62445451763E+03  0.00000000000E+00 0. -1.
        -11    1    5    5    0    0 -0.95955214754E+02 -0.10422403930E+03  0.18098382650E+03  0.22983733174E+03  0.00000000000E+00 0.  1.
          2    1    6    6  503    0  0.46681625326E+03 -0.17901966093E+03  0.10265106006E+04  0.11417922169E+04  0.00000000000E+00 0. -1.
         -2    1    6    6    0  503  0.39736548465E+02 -0.26944318352E+02  0.51596751350E+02  0.70478467104E+02  0.00000000000E+00 0.  1.
<mgrwt>
<rscale>  0 0.18332322E+04</rscale>
<asrwt>0</asrwt>
<pdfrwt beam="1">  1        1 0.33551781E+00 0.18332322E+04</pdfrwt>
<pdfrwt beam="2">  1       -2 0.59269690E-01 0.18332322E+04</pdfrwt>
<totfact> 0.49320701E+00</totfact>
</mgrwt>
</event>
<event>
12    4  0.4486176E-008  0.3373626E+04  0.7818608E-02  0.8144410E-01
          1   -1    0    0  501    0  0.00000000000E+00  0.00000000000E+00  0.17566102006E+04  0.17566102006E+04  0.00000000000E+00 0. -1.
         -2   -1    0    0    0  501 -0.00000000000E+00 -0.00000000000E+00 -0.16197889995E+04  0.16197889995E+04  0.00000000000E+00 0.  1.
        -24    2    1    2    0    0  0.28654455233E+03  0.14482019983E+04 -0.45752843914E+03  0.15475665082E+04  0.78949452848E+02 0.  0.
        254    2    1    2    0    0 -0.28654455233E+03 -0.14482019983E+04  0.59434964032E+03  0.18288326919E+04  0.90109972348E+03 0.  0.
         23    2    4    4    0    0  0.24129302449E+03 -0.15009519703E+03 -0.13434680887E+02  0.29867396017E+03  0.90965663800E+02 0.  0.
         23    2    4    4    0    0 -0.52783757682E+03 -0.12981068013E+04  0.60778432121E+03  0.15301587318E+04  0.91050470514E+02 0.  0.
          3    1    3    3  502    0  0.18554553755E+03  0.99912155879E+03 -0.27847393161E+03  0.10536691921E+04  0.00000000000E+00 0. -1.
         -4    1    3    3    0  502  0.10099901479E+03  0.44908043955E+03 -0.17905450753E+03  0.49389731609E+03  0.00000000000E+00 0.  1.
         11    1    5    5    0    0  0.18990023373E+03 -0.98971457193E+02 -0.46283531050E+02  0.21908814061E+03  0.00000000000E+00 0. -1.
        -11    1    5    5    0    0  0.51392790763E+02 -0.51123739841E+02  0.32848850163E+02  0.79585819558E+02  0.00000000000E+00 0.  1.
          3    1    6    6  503    0 -0.51087667367E+03 -0.12217112753E+04  0.55535917932E+03  0.14359656103E+04  0.00000000000E+00 0. -1.
         -3    1    6    6    0  503 -0.16960903153E+02 -0.76395525966E+02  0.52425141890E+02  0.94193121434E+02  0.00000000000E+00 0.  1.
<mgrwt>
<rscale>  0 0.33736259E+04</rscale>
<asrwt>0</asrwt>
<pdfrwt beam="1">  1        1 0.27024772E+00 0.33736259E+04</pdfrwt>
<pdfrwt beam="2">  1       -2 0.24919831E+00 0.33736259E+04</pdfrwt>
<totfact> 0.20537070E-01</totfact>
</mgrwt>
</event>
<event>
12    4  0.4486176E-008  0.1945476E+04  0.7818608E-02  0.8632546E-01
          1   -1    0    0  501    0  0.00000000000E+00  0.00000000000E+00  0.94477667482E+03  0.94477667482E+03  0.00000000000E+00 0. -1.
         -2   -1    0    0    0  501 -0.00000000000E+00 -0.00000000000E+00 -0.10015265020E+04  0.10015265020E+04  0.00000000000E+00 0.  1.
        -24    2    1    2    0    0 -0.65253208042E+03 -0.60207702058E+02 -0.40925906815E+03  0.77687684309E+03  0.81372975308E+02 0.  0.
        254    2    1    2    0    0  0.65253208042E+03  0.60207702058E+02  0.35250924096E+03  0.11694263337E+04  0.90214860289E+03 0.  0.
         23    2    4    4    0    0  0.11010445744E+03  0.50276737110E+02 -0.28773690183E+03  0.32530762518E+03  0.91552086170E+02 0.  0.
         23    2    4    4    0    0  0.54242762298E+03  0.99309649484E+01  0.64024614279E+03  0.84411870856E+03  0.91076454351E+02 0.  0.
          3    1    3    3  502    0 -0.39914251246E+03 -0.41097745059E+02 -0.20348936968E+03  0.44990187094E+03  0.00000000000E+00 0. -1.
         -4    1    3    3    0  502 -0.25338956796E+03 -0.19109956999E+02 -0.20576969847E+03  0.32697497215E+03  0.00000000000E+00 0.  1.
         11    1    5    5    0    0  0.45711362121E+02  0.40021712585E+02 -0.23105848121E+03  0.23891272014E+03  0.00000000000E+00 0. -1.
        -11    1    5    5    0    0  0.64393095318E+02  0.10255024525E+02 -0.56678420618E+02  0.86394905037E+02  0.00000000000E+00 0.  1.
          2    1    6    6  503    0  0.39668183300E+03 -0.32826094717E+02  0.45354375911E+03  0.60343679914E+03  0.00000000000E+00 0. -1.
         -2    1    6    6    0  503  0.14574578997E+03  0.42757059666E+02  0.18670238368E+03  0.24068190942E+03  0.00000000000E+00 0.  1.
<mgrwt>
<rscale>  0 0.19454757E+04</rscale>
<asrwt>0</asrwt>
<pdfrwt beam="1">  1        1 0.14535026E+00 0.19454757E+04</pdfrwt>
<pdfrwt beam="2">  1       -2 0.15408100E+00 0.19454757E+04</pdfrwt>
<totfact> 0.38126021E+00</totfact>
</mgrwt>
</event>
<event>
12    4  0.4486176E-008  0.1285361E+04  0.7818608E-02  0.9041255E-01
         -2   -1    0    0    0  501 -0.00000000000E+00  0.00000000000E+00  0.77119822997E+03  0.77119822997E+03  0.00000000000E+00 0.  1.
          1   -1    0    0  501    0  0.00000000000E+00 -0.00000000000E+00 -0.53558011907E+03  0.53558011907E+03  0.00000000000E+00 0. -1.
        -24    2    1    2    0    0  0.15764504541E+03 -0.19120338930E+03 -0.15096585156E+03  0.30208907697E+03  0.84002533712E+02 0.  0.
        254    2    1    2    0    0 -0.15764504541E+03  0.19120338930E+03  0.38658396245E+03  0.10046892721E+04  0.89361215131E+03 0.  0.
         23    2    4    4    0    0 -0.15947266875E+03 -0.30770944560E+03 -0.13468847969E+02  0.35882841239E+03  0.91977087799E+02 0.  0.
         23    2    4    4    0    0  0.18276233446E+01  0.49891283490E+03  0.40005281042E+03  0.64586085968E+03  0.90424785953E+02 0.  0.
          3    1    3    3  502    0  0.10701977444E+03 -0.17663030846E+03 -0.13615557819E+03  0.24736580091E+03  0.00000000000E+00 0. -1.
         -4    1    3    3    0  502  0.50625270968E+02 -0.14573080834E+02 -0.14810273368E+02  0.54723276061E+02  0.00000000000E+00 0.  1.
         11    1    5    5    0    0 -0.85813025366E+02 -0.20514234383E+03 -0.48889168379E+02  0.22767829791E+03  0.00000000000E+00 0.  1.
        -11    1    5    5    0    0 -0.73659643384E+02 -0.10256710177E+03  0.35420320410E+02  0.13115011447E+03  0.00000000000E+00 0. -1.
          3    1    6    6  503    0  0.30197030489E+02  0.19983466363E+03  0.11937829479E+03  0.23472735397E+03  0.00000000000E+00 0. -1.
         -3    1    6    6    0  503 -0.28369407144E+02  0.29907817127E+03  0.28067451563E+03  0.41113350571E+03  0.00000000000E+00 0.  1.
<mgrwt>
<rscale>  0 0.12853613E+04</rscale>
<asrwt>0</asrwt>
<pdfrwt beam="1">  1        1 0.82396941E-01 0.12853613E+04</pdfrwt>
<pdfrwt beam="2">  1       -2 0.11864588E+00 0.12853613E+04</pdfrwt>
<totfact> 0.18919414E+01</totfact>
</mgrwt>
</event>
<event>
12    4  0.4486176E-008  0.1468403E+04  0.7818608E-02  0.8905741E-01
         -2   -1    0    0    0  501 -0.00000000000E+00  0.00000000000E+00  0.43182116915E+03  0.43182116915E+03  0.00000000000E+00 0.  1.
          1   -1    0    0  501    0  0.00000000000E+00 -0.00000000000E+00 -0.12483220776E+04  0.12483220776E+04  0.00000000000E+00 0. -1.
        -24    2    1    2    0    0 -0.37099206356E+03  0.25908195285E+03 -0.22103102424E+03  0.50997679746E+03  0.80393101412E+02 0.  0.
        254    2    1    2    0    0  0.37099206356E+03 -0.25908195285E+03 -0.59546988421E+03  0.11701664493E+04  0.89997031425E+03 0.  0.
         23    2    4    4    0    0  0.32938971005E+03  0.17388806486E+03 -0.61659828099E+03  0.72576021985E+03  0.88316569336E+02 0.  0.
         23    2    4    4    0    0  0.41602353514E+02 -0.43297001771E+03  0.21128396777E+02  0.44440622944E+03  0.88638002927E+02 0.  0.
          3    1    3    3  502    0 -0.13441810618E+03  0.91865278394E+02 -0.37640705391E+02  0.16710559340E+03  0.00000000000E+00 0. -1.
         -4    1    3    3    0  502 -0.23657395738E+03  0.16721667445E+03 -0.18339031885E+03  0.34287120406E+03  0.00000000000E+00 0.  1.
         11    1    5    5    0    0  0.12185057886E+03  0.54084030946E+02 -0.14630852086E+03  0.19793642729E+03  0.00000000000E+00 0.  1.
        -11    1    5    5    0    0  0.20753913119E+03  0.11980403392E+03 -0.47028976013E+03  0.52782379256E+03  0.00000000000E+00 0. -1.
          3    1    6    6  503    0  0.38133783342E+02 -0.13126018123E+03  0.39016164836E+02  0.14214669087E+03  0.00000000000E+00 0. -1.
         -3    1    6    6    0  503  0.34685701720E+01 -0.30170983648E+03 -0.17887768060E+02  0.30225953857E+03  0.00000000000E+00 0.  1.
<mgrwt>
<rscale>  0 0.14684031E+04</rscale>
<asrwt>0</asrwt>
<pdfrwt beam="1">  1        1 0.19204955E+00 0.14684031E+04</pdfrwt>
<pdfrwt beam="2">  1       -2 0.66434026E-01 0.14684031E+04</pdfrwt>
<totfact> 0.17458673E+01</totfact>
</mgrwt>
</event>
<event>
12    4  0.4486176E-008  0.1191068E+04  0.7818608E-02  0.9120711E-01
         -2   -1    0    0    0  501 -0.00000000000E+00  0.00000000000E+00  0.10092240696E+04  0.10092240696E+04  0.00000000000E+00 0.  1.
          1   -1    0    0  501    0  0.00000000000E+00 -0.00000000000E+00 -0.35141942071E+03  0.35141942071E+03  0.00000000000E+00 0. -1.
        -24    2    1    2    0    0 -0.14625049319E+03 -0.21685455932E+03  0.32442696836E+03  0.42431650260E+03  0.79853177255E+02 0.  0.
        254    2    1    2    0    0  0.14625049319E+03  0.21685455932E+03  0.33337768052E+03  0.93632698770E+03  0.83495655179E+03 0.  0.
         23    2    4    4    0    0  0.33602058081E+03  0.44409329820E+03  0.23853118253E+03  0.61249235700E+03  0.90117002316E+02 0.  0.
         23    2    4    4    0    0 -0.18977008762E+03 -0.22723873888E+03  0.94846497981E+02  0.32383463070E+03  0.90680092955E+02 0.  0.
          1    1    3    3  502    0 -0.23277577992E+02 -0.40588136118E+01  0.11123109918E+02  0.26115956413E+02  0.00000000000E+00 0. -1.
         -2    1    3    3    0  502 -0.12297291520E+03 -0.21279574570E+03  0.31330385845E+03  0.39820054618E+03  0.00000000000E+00 0.  1.
         11    1    5    5    0    0  0.34337416021E+02  0.86990788021E+02  0.16500549730E+02  0.94966959943E+02  0.00000000000E+00 0. -1.
        -11    1    5    5    0    0  0.30168316479E+03  0.35710251018E+03  0.22203063280E+03  0.51752539706E+03  0.00000000000E+00 0.  1.
          3    1    6    6  503    0 -0.88082853764E+02 -0.57206006800E+02  0.64903657653E+02  0.12346497932E+03  0.00000000000E+00 0. -1.
         -3    1    6    6    0  503 -0.10168723385E+03 -0.17003273208E+03  0.29942840328E+02  0.20036965138E+03  0.00000000000E+00 0.  1.
<mgrwt>
<rscale>  0 0.11910683E+04</rscale>
<asrwt>0</asrwt>
<pdfrwt beam="1">  1        1 0.54064526E-01 0.11910683E+04</pdfrwt>
<pdfrwt beam="2">  1       -2 0.15526524E+00 0.11910683E+04</pdfrwt>
<totfact> 0.16816211E+01</totfact>
</mgrwt>
</event>
<event>
12    4  0.4486176E-008  0.2425489E+04  0.7818608E-02  0.8430022E-01
         -4   -1    0    0    0  501 -0.00000000000E+00  0.00000000000E+00  0.14930651121E+04  0.14930651121E+04  0.00000000000E+00 0.  1.
          3   -1    0    0  501    0  0.00000000000E+00 -0.00000000000E+00 -0.98505391413E+03  0.98505391413E+03  0.00000000000E+00 0. -1.
        -24    2    1    2    0    0  0.21866661137E+03 -0.23888322443E+03  0.12321419414E+04  0.12763725064E+04  0.77927720560E+02 0.  0.
        254    2    1    2    0    0 -0.21866661137E+03  0.23888322443E+03 -0.72413074336E+03  0.12017465198E+04  0.90274530331E+03 0.  0.
         23    2    4    4    0    0 -0.55145423516E+03  0.24790110981E+03 -0.42590383176E+03  0.74517237409E+03  0.91274637656E+02 0.  0.
         23    2    4    4    0    0  0.33278762380E+03 -0.90178853895E+01 -0.29822691160E+03  0.45657414576E+03  0.93229474735E+02 0.  0.
          3    1    3    3  502    0 -0.33367853599E+00  0.33758407668E+01  0.45089205169E+02  0.45216634827E+02  0.00000000000E+00 0. -1.
         -4    1    3    3    0  502  0.21900028990E+03 -0.24225906519E+03  0.11870527362E+04  0.12311558716E+04  0.00000000000E+00 0.  1.
         11    1    5    5    0    0 -0.12752363761E+03  0.62689322393E+02 -0.14953834615E+03  0.20628607869E+03  0.00000000000E+00 0.  1.
        -11    1    5    5    0    0 -0.42393059755E+03  0.18521178742E+03 -0.27636548561E+03  0.53888629540E+03  0.00000000000E+00 0. -1.
          1    1    6    6  503    0  0.31187887183E+03 -0.18889426301E+02 -0.30029277682E+03  0.43336011922E+03  0.00000000000E+00 0. -1.
         -1    1    6    6    0  503  0.20908751964E+02  0.98715409116E+01  0.20658652219E+01  0.23214026531E+02  0.00000000000E+00 0.  1.
<mgrwt>
<rscale>  0 0.24254893E+04</rscale>
<asrwt>0</asrwt>
<pdfrwt beam="1">  1        3 0.15154676E+00 0.24254893E+04</pdfrwt>
<pdfrwt beam="2">  1       -4 0.22970232E+00 0.24254893E+04</pdfrwt>
<totfact> 0.54534246E-02</totfact>
</mgrwt>
</event>
<event>
12    4  0.4486176E-008  0.1829307E+04  0.7818608E-02  0.8690868E-01
          1   -1    0    0  501    0  0.00000000000E+00  0.00000000000E+00  0.17189222178E+04  0.17189222178E+04  0.00000000000E+00 0. -1.
         -2   -1    0    0    0  501 -0.00000000000E+00 -0.00000000000E+00 -0.48669509955E+03  0.48669509955E+03  0.00000000000E+00 0.  1.
        -24    2    1    2    0    0  0.63010136650E+03 -0.17305325701E+03  0.73977914392E+03  0.99029145250E+03  0.80179905759E+02 0.  0.
        254    2    1    2    0    0 -0.63010136650E+03  0.17305325701E+03  0.49244797430E+03  0.12153258648E+04  0.89863050721E+03 0.  0.
         23    2    4    4    0    0 -0.84693076710E+03  0.88631659984E+02  0.33240107947E+03  0.91860860909E+03  0.90575955129E+02 0.  0.
         23    2    4    4    0    0  0.21682940060E+03  0.84421597028E+02  0.16004689483E+03  0.29671725573E+03  0.91017175827E+02 0.  0.
          1    1    3    3  502    0  0.54413329560E+03 -0.12221527207E+03  0.64401641347E+03  0.85192414975E+03  0.00000000000E+00 0. -1.
         -2    1    3    3    0  502  0.85968070893E+02 -0.50837984942E+02  0.95762730455E+02  0.13836730275E+03  0.00000000000E+00 0.  1.
         11    1    5    5    0    0 -0.77971334037E+03  0.58681157124E+02  0.31505180145E+03  0.84300297090E+03  0.00000000000E+00 0.  1.
        -11    1    5    5    0    0 -0.67217426732E+02  0.29950502860E+02  0.17349278015E+02  0.75605638187E+02  0.00000000000E+00 0. -1.
          1    1    6    6  503    0  0.14829098643E+03  0.33926135739E+02  0.14521078000E+03  0.21030304318E+03  0.00000000000E+00 0. -1.
         -1    1    6    6    0  503  0.68538414176E+02  0.50495461289E+02  0.14836114830E+02  0.86414212557E+02  0.00000000000E+00 0.  1.
<mgrwt>
<rscale>  0 0.18293070E+04</rscale>
<asrwt>0</asrwt>
<pdfrwt beam="1">  1        1 0.26444957E+00 0.18293070E+04</pdfrwt>
<pdfrwt beam="2">  1       -2 0.74876170E-01 0.18293070E+04</pdfrwt>
<totfact> 0.61262450E+00</totfact>
</mgrwt>
</event>
<event>
12    4  0.4486176E-008  0.2425676E+04  0.7818608E-02  0.8429953E-01
          1   -1    0    0  501    0  0.00000000000E+00  0.00000000000E+00  0.11955658603E+04  0.11955658603E+04  0.00000000000E+00 0. -1.
         -2   -1    0    0    0  501 -0.00000000000E+00 -0.00000000000E+00 -0.12303598105E+04  0.12303598105E+04  0.00000000000E+00 0.  1.
        -24    2    1    2    0    0 -0.17350032677E+03  0.32947843848E+03  0.96832760219E+03  0.10423279627E+04  0.10065203317E+03 0.  0.
        254    2    1    2    0    0  0.17350032677E+03 -0.32947843848E+03 -0.10031215524E+04  0.13835977081E+04  0.87717236854E+03 0.  0.
         23    2    4    4    0    0  0.19329032600E+03 -0.58782646606E+03 -0.46454197812E+03  0.77930418787E+03  0.92815211450E+02 0.  0.
         23    2    4    4    0    0 -0.19789999221E+02  0.25834802758E+03 -0.53857957432E+03  0.60429352024E+03  0.89260032022E+02 0.  0.
          1    1    3    3  502    0 -0.10164561662E+03  0.18679018041E+03  0.41378874008E+03  0.46523491302E+03  0.00000000000E+00 0. -1.
         -2    1    3    3    0  502 -0.71854710159E+02  0.14268825808E+03  0.55453886211E+03  0.57709304965E+03  0.00000000000E+00 0.  1.
         11    1    5    5    0    0  0.15471214166E+03 -0.53558705838E+03 -0.43874844439E+03  0.70942902487E+03  0.00000000000E+00 0.  1.
        -11    1    5    5    0    0  0.38578184339E+02 -0.52239407679E+02 -0.25793533727E+02  0.69875162996E+02  0.00000000000E+00 0. -1.
          3    1    6    6  503    0  0.11129815983E+02  0.30379237664E+00 -0.46335479585E+02  0.47654399188E+02  0.00000000000E+00 0. -1.
         -3    1    6    6    0  503 -0.30919815204E+02  0.25804423520E+03 -0.49224409473E+03  0.55663912106E+03  0.00000000000E+00 0.  1.
<mgrwt>
<rscale>  0 0.24256761E+04</rscale>
<asrwt>0</asrwt>
<pdfrwt beam="1">  1        1 0.18393321E+00 0.24256761E+04</pdfrwt>
<pdfrwt beam="2">  1       -2 0.18928612E+00 0.24256761E+04</pdfrwt>
<totfact> 0.13236346E+00</totfact>
</mgrwt>
</event>
<event>
12    4  0.4486176E-008  0.2195764E+04  0.7818608E-02  0.8520193E-01
         -2   -1    0    0    0  501 -0.00000000000E+00  0.00000000000E+00  0.44559903794E+03  0.44559903794E+03  0.00000000000E+00 0.  1.
          1   -1    0    0  501    0  0.00000000000E+00 -0.00000000000E+00 -0.27049998230E+04  0.27049998230E+04  0.00000000000E+00 0. -1.
        -24    2    1    2    0    0 -0.48667618500E+02 -0.25821773072E+03 -0.22351422160E+04  0.22516788390E+04  0.71776980599E+02 0.  0.
        254    2    1    2    0    0  0.48667618500E+02  0.25821773072E+03 -0.24258569138E+02  0.89892002197E+03  0.85931588731E+03 0.  0.
         23    2    4    4    0    0 -0.17408501485E+03  0.50016170967E+03 -0.11236882751E+03  0.54845906659E+03  0.87825202049E+02 0.  0.
         23    2    4    4    0    0  0.22275263335E+03 -0.24194397895E+03  0.88110258368E+02  0.35046095538E+03  0.83089343493E+02 0.  0.
          1    1    3    3  502    0 -0.48169736866E+02 -0.21002324085E+03 -0.20049133956E+04  0.20164592258E+04  0.00000000000E+00 0. -1.
         -2    1    3    3    0  502 -0.49788163404E+00 -0.48194489876E+02 -0.23022882035E+03  0.23521961325E+03  0.00000000000E+00 0.  1.
         11    1    5    5    0    0 -0.64087346267E+02  0.10951519474E+03  0.16833316067E+01  0.12689995837E+03  0.00000000000E+00 0. -1.
        -11    1    5    5    0    0 -0.10999766859E+03  0.39064651493E+03 -0.11405215911E+03  0.42155910822E+03  0.00000000000E+00 0.  1.
          3    1    6    6  503    0  0.78523430266E+02 -0.14380329522E+03  0.29886512868E+02  0.16654885310E+03  0.00000000000E+00 0.  1.
         -3    1    6    6    0  503  0.14422920309E+03 -0.98140683725E+02  0.58223745501E+02  0.18391210228E+03  0.00000000000E+00 0. -1.
<mgrwt>
<rscale>  0 0.21957644E+04</rscale>
<asrwt>0</asrwt>
<pdfrwt beam="1">  1        1 0.41615382E+00 0.21957644E+04</pdfrwt>
<pdfrwt beam="2">  1       -2 0.68553699E-01 0.21957644E+04</pdfrwt>
<totfact> 0.15184268E+00</totfact>
</mgrwt>
</event>
<event>
12    4  0.4486176E-008  0.1723430E+04  0.7818608E-02  0.8748113E-01
         -2   -1    0    0    0  501 -0.00000000000E+00  0.00000000000E+00  0.88256901919E+03  0.88256901919E+03  0.00000000000E+00 0.  1.
          1   -1    0    0  501    0  0.00000000000E+00 -0.00000000000E+00 -0.84135363403E+03  0.84135363403E+03  0.00000000000E+00 0. -1.
        -24    2    1    2    0    0  0.11614878277E+03 -0.57115417702E+03 -0.25631607331E+03  0.64156680599E+03  0.78755339170E+02 0.  0.
        254    2    1    2    0    0 -0.11614878277E+03  0.57115417702E+03  0.29753145847E+03  0.10823558472E+04  0.86212619586E+03 0.  0.
         23    2    4    4    0    0 -0.28490810637E+03  0.61544130740E+03  0.46123192460E+03  0.82516055930E+03  0.90633484017E+02 0.  0.
         23    2    4    4    0    0  0.16875932360E+03 -0.44287130381E+02 -0.16370046613E+03  0.25719528793E+03  0.94395520564E+02 0.  0.
          1    1    3    3  502    0  0.44023052246E+02 -0.32298993355E+03 -0.17862344894E+03  0.37170803436E+03  0.00000000000E+00 0. -1.
         -2    1    3    3    0  502  0.72125730521E+02 -0.24816424347E+03 -0.77692624371E+02  0.26985877162E+03  0.00000000000E+00 0.  1.
         11    1    5    5    0    0 -0.23917562344E+03  0.44367853551E+03  0.37075392101E+03  0.62571086907E+03  0.00000000000E+00 0. -1.
        -11    1    5    5    0    0 -0.45732482930E+02  0.17176277188E+03  0.90478003591E+02  0.19944969023E+03  0.00000000000E+00 0.  1.
          3    1    6    6  503    0  0.16807600346E+03 -0.63050358194E+02 -0.15033318318E+03  0.23414729674E+03  0.00000000000E+00 0. -1.
         -3    1    6    6    0  503  0.68332014564E+00  0.18763227813E+02 -0.13367282947E+02  0.23047991187E+02  0.00000000000E+00 0.  1.
<mgrwt>
<rscale>  0 0.17234299E+04</rscale>
<asrwt>0</asrwt>
<pdfrwt beam="1">  1        1 0.12943902E+00 0.17234299E+04</pdfrwt>
<pdfrwt beam="2">  1       -2 0.13577985E+00 0.17234299E+04</pdfrwt>
<totfact> 0.65871413E+00</totfact>
</mgrwt>
</event>
<event>
12    4  0.4486176E-008  0.1401876E+04  0.7818608E-02  0.8952462E-01
          1   -1    0    0  501    0  0.00000000000E+00  0.00000000000E+00  0.21940414564E+04  0.21940414564E+04  0.00000000000E+00 0. -1.
         -2   -1    0    0    0  501 -0.00000000000E+00 -0.00000000000E+00 -0.22393115117E+03  0.22393115117E+03  0.00000000000E+00 0.  1.
        -24    2    1    2    0    0  0.17119515594E+02 -0.25877324377E+03  0.11360034333E+04  0.11679261775E+04  0.79316368239E+02 0.  0.
        254    2    1    2    0    0 -0.17119515594E+02  0.25877324377E+03  0.83410687197E+03  0.12500464300E+04  0.89421760991E+03 0.  0.
         23    2    4    4    0    0 -0.17204736063E+03  0.31278918622E+03 -0.26553753277E+02  0.36925675575E+03  0.90598457726E+02 0.  0.
         23    2    4    4    0    0  0.15492784503E+03 -0.54015942444E+02  0.86066062525E+03  0.88078967429E+03  0.90185249741E+02 0.  0.
          1    1    3    3  502    0  0.27890962143E+01 -0.24629126448E+03  0.10997374407E+04  0.11269825218E+04  0.00000000000E+00 0. -1.
         -2    1    3    3    0  502  0.14330419380E+02 -0.12481979295E+02  0.36265992629E+02  0.40943655773E+02  0.00000000000E+00 0.  1.
         11    1    5    5    0    0 -0.10063156484E+03  0.92934245100E+02 -0.46601312914E+01  0.13705912074E+03  0.00000000000E+00 0.  1.
        -11    1    5    5    0    0 -0.71415795788E+02  0.21985494112E+03 -0.21893621986E+02  0.23219763501E+03  0.00000000000E+00 0. -1.
          3    1    6    6  503    0  0.94020700374E+02 -0.45692871836E+02  0.71626703669E+03  0.72385509495E+03  0.00000000000E+00 0. -1.
         -3    1    6    6    0  503  0.60907144658E+02 -0.83230706083E+01  0.14439358856E+03  0.15693457934E+03  0.00000000000E+00 0.  1.
<mgrwt>
<rscale>  0 0.14018762E+04</rscale>
<asrwt>0</asrwt>
<pdfrwt beam="1">  1        1 0.33754482E+00 0.14018762E+04</pdfrwt>
<pdfrwt beam="2">  1       -2 0.34450948E-01 0.14018762E+04</pdfrwt>
<totfact> 0.14887699E+01</totfact>
</mgrwt>
</event>
<event>
12    4  0.4486176E-008  0.1510063E+04  0.7818608E-02  0.8877789E-01
          1   -1    0    0  501    0  0.00000000000E+00  0.00000000000E+00  0.12092210519E+04  0.12092210519E+04  0.00000000000E+00 0. -1.
         -2   -1    0    0    0  501 -0.00000000000E+00 -0.00000000000E+00 -0.47143772047E+03  0.47143772047E+03  0.00000000000E+00 0.  1.
        -24    2    1    2    0    0 -0.12780414701E+00 -0.10027981617E+03  0.76072946100E+03  0.77150121839E+03  0.80304167299E+02 0.  0.
        254    2    1    2    0    0  0.12780414701E+00  0.10027981617E+03 -0.22946129525E+02  0.90915755403E+03  0.90331881156E+03 0.  0.
         23    2    4    4    0    0 -0.46668622704E+02  0.44411696216E+03  0.18724855773E+03  0.49259947804E+03  0.90412316465E+02 0.  0.
         23    2    4    4    0    0  0.46796426851E+02 -0.34383714599E+03 -0.21019468725E+03  0.41655807599E+03  0.94471877273E+02 0.  0.
          1    1    3    3  502    0 -0.41409274629E+01 -0.11048607266E+03  0.73831518819E+03  0.74654781270E+03  0.00000000000E+00 0. -1.
         -2    1    3    3    0  502  0.40131233159E+01  0.10206256488E+02  0.22414272809E+02  0.24953405696E+02  0.00000000000E+00 0.  1.
         11    1    5    5    0    0  0.13737341452E+02  0.22446203820E+03  0.12092015304E+03  0.25533038313E+03  0.00000000000E+00 0. -1.
        -11    1    5    5    0    0 -0.60405964156E+02  0.21965492396E+03  0.66328404690E+02  0.23726909490E+03  0.00000000000E+00 0.  1.
          1    1    6    6  503    0  0.15872420360E+02 -0.62948147125E+02 -0.93215280577E+00  0.64925125055E+02  0.00000000000E+00 0. -1.
         -1    1    6    6    0  503  0.30924006491E+02 -0.28088899887E+03 -0.20926253445E+03  0.35163295094E+03  0.00000000000E+00 0.  1.
<mgrwt>
<rscale>  0 0.15100628E+04</rscale>
<asrwt>0</asrwt>
<pdfrwt beam="1">  1        1 0.18603401E+00 0.15100628E+04</pdfrwt>
<pdfrwt beam="2">  1       -2 0.72528880E-01 0.15100628E+04</pdfrwt>
<totfact> 0.15337588E+01</totfact>
</mgrwt>
</event>
<event>
12    4  0.4486176E-008  0.1950337E+04  0.7818608E-02  0.8630198E-01
         -2   -1    0    0    0  501 -0.00000000000E+00  0.00000000000E+00  0.13598147379E+04  0.13598147379E+04  0.00000000000E+00 0.  1.
          1   -1    0    0  501    0  0.00000000000E+00 -0.00000000000E+00 -0.69932611046E+03  0.69932611046E+03  0.00000000000E+00 0. -1.
        -24    2    1    2    0    0  0.74454441490E+03  0.13167328629E+03  0.12654737365E+03  0.77115920497E+03  0.83594506771E+02 0.  0.
        254    2    1    2    0    0 -0.74454441490E+03 -0.13167328629E+03  0.53394125384E+03  0.12879816434E+04  0.89561108257E+03 0.  0.
         23    2    4    4    0    0 -0.60149260985E+03  0.30458937467E+03  0.44218358200E+03  0.81079324569E+03  0.85389227669E+02 0.  0.
         23    2    4    4    0    0 -0.14305180505E+03 -0.43626266096E+03  0.91757671837E+02  0.47718839775E+03  0.92197442130E+02 0.  0.
          3    1    3    3  502    0  0.37019812237E+03  0.82947072758E+02  0.10204162454E+03  0.39286048391E+03  0.00000000000E+00 0. -1.
         -4    1    3    3    0  502  0.37434629253E+03  0.48726213527E+02  0.24505749113E+02  0.37829872106E+03  0.00000000000E+00 0.  1.
         11    1    5    5    0    0 -0.15338150378E+03  0.77805995154E+02  0.69989211157E+02  0.18568292399E+03  0.00000000000E+00 0. -1.
        -11    1    5    5    0    0 -0.44811110607E+03  0.22678337952E+03  0.37219437084E+03  0.62511032170E+03  0.00000000000E+00 0.  1.
          2    1    6    6  503    0 -0.36799794641E+01 -0.28036586495E+02  0.30343324561E+02  0.41476617227E+02  0.00000000000E+00 0. -1.
         -2    1    6    6    0  503 -0.13937182558E+03 -0.40822607446E+03  0.61414347276E+02  0.43571178052E+03  0.00000000000E+00 0.  1.
<mgrwt>
<rscale>  0 0.19503374E+04</rscale>
<asrwt>0</asrwt>
<pdfrwt beam="1">  1        1 0.10758863E+00 0.19503374E+04</pdfrwt>
<pdfrwt beam="2">  1       -2 0.20920227E+00 0.19503374E+04</pdfrwt>
<totfact> 0.25781718E+00</totfact>
</mgrwt>
</event>
<event>
12    4  0.4486176E-008  0.1698635E+04  0.7818608E-02  0.8762143E-01
         -2   -1    0    0    0  501 -0.00000000000E+00  0.00000000000E+00  0.84161408354E+03  0.84161408354E+03  0.00000000000E+00 0.  1.
          1   -1    0    0  501    0  0.00000000000E+00 -0.00000000000E+00 -0.85709120763E+03  0.85709120763E+03  0.00000000000E+00 0. -1.
        -24    2    1    2    0    0 -0.21298801707E+03 -0.54425528418E+03  0.30049825907E+01  0.58976371477E+03  0.78958847283E+02 0.  0.
        254    2    1    2    0    0  0.21298801707E+03  0.54425528418E+03 -0.18482106681E+02  0.11089415764E+04  0.94224843954E+03 0.  0.
         23    2    4    4    0    0  0.20257451983E+03  0.53204425432E+03  0.38455884042E+03  0.69302383830E+03  0.91044022710E+02 0.  0.
         23    2    4    4    0    0  0.10413497246E+02  0.12211029860E+02 -0.40304094710E+03  0.41591773810E+03  0.10142982624E+03 0.  0.
          3    1    3    3  502    0 -0.53773041672E+02 -0.72127318393E+02 -0.14896898216E+02  0.91191050250E+02  0.00000000000E+00 0. -1.
         -4    1    3    3    0  502 -0.15921497540E+03 -0.47212796579E+03  0.17901880807E+02  0.49857266452E+03  0.00000000000E+00 0.  1.
         11    1    5    5    0    0  0.38230914568E+01  0.66727762298E+02  0.72212348179E+02  0.98396308463E+02  0.00000000000E+00 0.  1.
        -11    1    5    5    0    0  0.19875142837E+03  0.46531649203E+03  0.31234649224E+03  0.59462752984E+03  0.00000000000E+00 0. -1.
          3    1    6    6  503    0 -0.32007585880E+02 -0.28274149934E+02 -0.13752683123E+03  0.14400535552E+03  0.00000000000E+00 0. -1.
         -3    1    6    6    0  503  0.42421083126E+02  0.40485179794E+02 -0.26551411587E+03  0.27191238258E+03  0.00000000000E+00 0.  1.
<mgrwt>
<rscale>  0 0.16986348E+04</rscale>
<asrwt>0</asrwt>
<pdfrwt beam="1">  1        1 0.13186019E+00 0.16986348E+04</pdfrwt>
<pdfrwt beam="2">  1       -2 0.12947909E+00 0.16986348E+04</pdfrwt>
<totfact> 0.72259295E+00</totfact>
</mgrwt>
</event>
<event>
12    4  0.4486176E-008  0.1231644E+04  0.7818608E-02  0.9085601E-01
          1   -1    0    0  501    0  0.00000000000E+00  0.00000000000E+00  0.85665916536E+03  0.85665916536E+03  0.00000000000E+00 0. -1.
         -2   -1    0    0    0  501 -0.00000000000E+00 -0.00000000000E+00 -0.44269254164E+03  0.44269254164E+03  0.00000000000E+00 0.  1.
        -24    2    1    2    0    0  0.50649798768E+01  0.13702506361E+03 -0.15582498492E+03  0.22050453356E+03  0.74426482642E+02 0.  0.
        254    2    1    2    0    0 -0.50649798768E+01 -0.13702506361E+03  0.56979160864E+03  0.10788471734E+04  0.90578541846E+03 0.  0.
         23    2    4    4    0    0 -0.19656806812E+03 -0.25321541594E+03  0.72010908186E+03  0.79422408176E+03  0.97353736397E+02 0.  0.
         23    2    4    4    0    0  0.19150308824E+03  0.11619035234E+03 -0.15031747323E+03  0.28462309168E+03  0.90781775584E+02 0.  0.
          3    1    3    3  502    0  0.20779297222E+02  0.10968046667E+03 -0.77020965867E+02  0.13562379269E+03  0.00000000000E+00 0. -1.
         -4    1    3    3    0  502 -0.15714317345E+02  0.27344596937E+02 -0.78804019050E+02  0.84880740865E+02  0.00000000000E+00 0.  1.
         11    1    5    5    0    0 -0.74234813921E+02 -0.75015424860E+02  0.35057993596E+03  0.36612076295E+03  0.00000000000E+00 0. -1.
        -11    1    5    5    0    0 -0.12233325420E+03 -0.17819999108E+03  0.36952914590E+03  0.42810331881E+03  0.00000000000E+00 0.  1.
          2    1    6    6  503    0 -0.98095210073E+01  0.20604341592E+01 -0.37669718507E+01  0.10708042223E+02  0.00000000000E+00 0. -1.
         -2    1    6    6    0  503  0.20131260925E+03  0.11412991818E+03 -0.14655050138E+03  0.27391504946E+03  0.00000000000E+00 0.  1.
<mgrwt>
<rscale>  0 0.12316438E+04</rscale>
<asrwt>0</asrwt>
<pdfrwt beam="1">  1        1 0.13179372E+00 0.12316438E+04</pdfrwt>
<pdfrwt beam="2">  1       -2 0.68106545E-01 0.12316438E+04</pdfrwt>
<totfact> 0.33767706E+01</totfact>
</mgrwt>
</event>
<event>
12    4  0.4486176E-008  0.1401160E+04  0.7818608E-02  0.8952979E-01
          1   -1    0    0  501    0  0.00000000000E+00  0.00000000000E+00  0.26073556601E+04  0.26073556601E+04  0.00000000000E+00 0. -1.
         -2   -1    0    0    0  501 -0.00000000000E+00 -0.00000000000E+00 -0.18824136688E+03  0.18824136688E+03  0.00000000000E+00 0.  1.
        -24    2    1    2    0    0  0.13855271237E+03 -0.18847138707E+03  0.13836151714E+04  0.14054875852E+04  0.79284876697E+02 0.  0.
        254    2    1    2    0    0 -0.13855271237E+03  0.18847138707E+03  0.10354991219E+04  0.13901094418E+04  0.89745613324E+03 0.  0.
         23    2    4    4    0    0  0.96514419708E+02  0.19106620731E+02 -0.12831582536E+03  0.18704958743E+03  0.94034573180E+02 0.  0.
         23    2    4    4    0    0 -0.23506713207E+03  0.16936476634E+03  0.11638149472E+04  0.12030598544E+04  0.94587532363E+02 0.  0.
          1    1    3    3  502    0  0.14303288325E+03 -0.14706050191E+03  0.11286578924E+04  0.11471503106E+04  0.00000000000E+00 0. -1.
         -2    1    3    3    0  502 -0.44801708855E+01 -0.41410885161E+02  0.25495727895E+03  0.25833727457E+03  0.00000000000E+00 0.  1.
         11    1    5    5    0    0  0.59859198846E+02 -0.35933903111E+02 -0.70310404242E+02  0.99085427910E+02  0.00000000000E+00 0. -1.
        -11    1    5    5    0    0  0.36655220863E+02  0.55040523843E+02 -0.58005421116E+02  0.87964159521E+02  0.00000000000E+00 0.  1.
          4    1    6    6  503    0  0.18072556550E+01 -0.40167361792E+01  0.82212835641E+02  0.82330739621E+02  0.00000000000E+00 0. -1.
         -4    1    6    6    0  503 -0.23687438773E+03  0.17338150252E+03  0.10816021116E+04  0.11207291148E+04  0.00000000000E+00 0.  1.
<mgrwt>
<rscale>  0 0.14011598E+04</rscale>
<asrwt>0</asrwt>
<pdfrwt beam="1">  1        1 0.40113161E+00 0.14011598E+04</pdfrwt>
<pdfrwt beam="2">  1       -2 0.28960212E-01 0.14011598E+04</pdfrwt>
<totfact> 0.10735614E+01</totfact>
</mgrwt>
</event>
<event>
12    4  0.4486176E-008  0.1811696E+04  0.7818608E-02  0.8700104E-01
          1   -1    0    0  501    0  0.00000000000E+00  0.00000000000E+00  0.59752882302E+03  0.59752882302E+03  0.00000000000E+00 0. -1.
         -2   -1    0    0    0  501 -0.00000000000E+00 -0.00000000000E+00 -0.13732563902E+04  0.13732563902E+04  0.00000000000E+00 0.  1.
        -24    2    1    2    0    0  0.61825590159E+03  0.27658613314E+03 -0.23597255164E+03  0.72153612632E+03  0.78683464318E+02 0.  0.
        254    2    1    2    0    0 -0.61825590159E+03 -0.27658613314E+03 -0.53975501553E+03  0.12492490869E+04  0.90030414605E+03 0.  0.
         23    2    4    4    0    0  0.99285206436E+02 -0.21780053508E+03 -0.45010334275E+03  0.51802946245E+03  0.92015648161E+02 0.  0.
         23    2    4    4    0    0 -0.71754110803E+03 -0.58785598063E+02 -0.89651672777E+02  0.73121962444E+03  0.91234469802E+02 0.  0.
          1    1    3    3  502    0  0.26775240171E+03  0.81579585189E+02 -0.11481855912E+03  0.30253905344E+03  0.00000000000E+00 0. -1.
         -2    1    3    3    0  502  0.35050349988E+03  0.19500654795E+03 -0.12115399252E+03  0.41899707288E+03  0.00000000000E+00 0.  1.
         11    1    5    5    0    0  0.73716257533E+02 -0.57959108671E+02 -0.14584034659E+03  0.17338613438E+03  0.00000000000E+00 0. -1.
        -11    1    5    5    0    0  0.25568948903E+02 -0.15984142641E+03 -0.30426299617E+03  0.34464332807E+03  0.00000000000E+00 0.  1.
          3    1    6    6  503    0 -0.62529134692E+03 -0.79643549513E+02 -0.89325109873E+02  0.63664066692E+03  0.00000000000E+00 0. -1.
         -3    1    6    6    0  503 -0.92249761102E+02  0.20857951450E+02 -0.32656290317E+00  0.94578957519E+02  0.00000000000E+00 0.  1.
<mgrwt>
<rscale>  0 0.18116956E+04</rscale>
<asrwt>0</asrwt>
<pdfrwt beam="1">  1        1 0.91927512E-01 0.18116956E+04</pdfrwt>
<pdfrwt beam="2">  1       -2 0.21127021E+00 0.18116956E+04</pdfrwt>
<totfact> 0.31927257E+00</totfact>
</mgrwt>
</event>
<event>
12    4  0.4486176E-008  0.2349071E+04  0.7818608E-02  0.8458821E-01
          1   -1    0    0  501    0  0.00000000000E+00  0.00000000000E+00  0.19645267684E+04  0.19645267684E+04  0.00000000000E+00 0. -1.
         -2   -1    0    0    0  501 -0.00000000000E+00 -0.00000000000E+00 -0.70222194000E+03  0.70222194000E+03  0.00000000000E+00 0.  1.
        -24    2    1    2    0    0 -0.10566850402E+03 -0.43810700635E+03  0.15468522988E+04  0.16133653075E+04  0.84214009361E+02 0.  0.
        254    2    1    2    0    0  0.10566850402E+03  0.43810700635E+03 -0.28454747036E+03  0.10533834009E+04  0.90859547915E+03 0.  0.
         23    2    4    4    0    0 -0.12083933894E+03  0.19425489692E+03 -0.56003271955E+03  0.61186311182E+03  0.91666295967E+02 0.  0.
         23    2    4    4    0    0  0.22650784296E+03  0.24385210942E+03  0.27548524919E+03  0.44152028912E+03  0.90985652688E+02 0.  0.
          3    1    3    3  502    0 -0.35570709050E+02 -0.10265069729E+03  0.50656304247E+03  0.51808161229E+03  0.00000000000E+00 0. -1.
         -4    1    3    3    0  502 -0.70097794971E+02 -0.33545630905E+03  0.10402892563E+04  0.10952836952E+04  0.00000000000E+00 0.  1.
         11    1    5    5    0    0 -0.10493850276E+03  0.18464399212E+03 -0.55232096979E+03  0.59174652247E+03  0.00000000000E+00 0. -1.
        -11    1    5    5    0    0 -0.15900836179E+02  0.96109048051E+01 -0.77117497606E+01  0.20116589342E+02  0.00000000000E+00 0.  1.
          1    1    6    6  503    0  0.13594631709E+03  0.19840895800E+03  0.16537081800E+03  0.29188186513E+03  0.00000000000E+00 0. -1.
         -1    1    6    6    0  503  0.90561525869E+02  0.45443151418E+02  0.11011443119E+03  0.14963842399E+03  0.00000000000E+00 0.  1.
<mgrwt>
<rscale>  0 0.23490711E+04</rscale>
<asrwt>0</asrwt>
<pdfrwt beam="1">  1        1 0.30223488E+00 0.23490711E+04</pdfrwt>
<pdfrwt beam="2">  1       -2 0.10803415E+00 0.23490711E+04</pdfrwt>
<totfact> 0.17094344E+00</totfact>
</mgrwt>
</event>
<event>
12    4  0.4486176E-008  0.1734169E+04  0.7818608E-02  0.8742113E-01
          1   -1    0    0  501    0  0.00000000000E+00  0.00000000000E+00  0.25288122646E+04  0.25288122646E+04  0.00000000000E+00 0. -1.
         -2   -1    0    0    0  501 -0.00000000000E+00 -0.00000000000E+00 -0.29730760194E+03  0.29730760194E+03  0.00000000000E+00 0.  1.
        -24    2    1    2    0    0 -0.28518355606E+03 -0.56311126558E+03  0.10194820507E+04  0.12016368957E+04  0.78508720783E+02 0.  0.
        254    2    1    2    0    0  0.28518355606E+03  0.56311126558E+03  0.12120226119E+04  0.16244829708E+04  0.87836333751E+03 0.  0.
         23    2    4    4    0    0 -0.17767200644E+03  0.47229927205E+03  0.94531384186E+03  0.10751486811E+04  0.87706799152E+02 0.  0.
         23    2    4    4    0    0  0.46285556250E+03  0.90811993531E+02  0.26670877006E+03  0.54933428974E+03  0.90291217454E+02 0.  0.
          1    1    3    3  502    0 -0.18495916381E+03 -0.43665507349E+03  0.78104913233E+03  0.91373699312E+03  0.00000000000E+00 0. -1.
         -2    1    3    3    0  502 -0.10022439225E+03 -0.12645619209E+03  0.23843291837E+03  0.28789990253E+03  0.00000000000E+00 0.  1.
         11    1    5    5    0    0  0.29841050186E+01  0.82458459383E+02  0.15201337577E+03  0.17296348985E+03  0.00000000000E+00 0.  1.
        -11    1    5    5    0    0 -0.18065611146E+03  0.38984081267E+03  0.79330046609E+03  0.90218519126E+03  0.00000000000E+00 0. -1.
          2    1    6    6  503    0  0.23015606502E+02 -0.11117785160E+02  0.30460178738E+02  0.39763623807E+02  0.00000000000E+00 0.  1.
         -2    1    6    6    0  503  0.43983995600E+03  0.10192977869E+03  0.23624859132E+03  0.50957066593E+03  0.00000000000E+00 0. -1.
<mgrwt>
<rscale>  0 0.17341685E+04</rscale>
<asrwt>0</asrwt>
<pdfrwt beam="1">  1        1 0.38904803E+00 0.17341685E+04</pdfrwt>
<pdfrwt beam="2">  1       -2 0.45739633E-01 0.17341685E+04</pdfrwt>
<totfact> 0.48935851E+00</totfact>
</mgrwt>
</event>
<event>
12    4  0.4486176E-008  0.3449485E+04  0.7818608E-02  0.8125867E-01
         -2   -1    0    0    0  501 -0.00000000000E+00  0.00000000000E+00  0.10701397675E+04  0.10701397675E+04  0.00000000000E+00 0.  1.
          1   -1    0    0  501    0  0.00000000000E+00 -0.00000000000E+00 -0.27797644105E+04  0.27797644105E+04  0.00000000000E+00 0. -1.
        -24    2    1    2    0    0  0.14480099297E+04 -0.70667499361E+02 -0.24836698958E+02  0.14521940370E+04  0.80771327937E+02 0.  0.
        254    2    1    2    0    0 -0.14480099297E+04  0.70667499361E+02 -0.16847879441E+04  0.23977101410E+04  0.89932021646E+03 0.  0.
         23    2    4    4    0    0 -0.15600326741E+03  0.11858875793E+02 -0.81921896225E+03  0.83883649814E+03  0.89717947618E+02 0.  0.
         23    2    4    4    0    0 -0.12920066623E+04  0.58808623568E+02 -0.86556898183E+03  0.15588736429E+04  0.90209214977E+02 0.  0.
          1    1    3    3  502    0  0.84773826781E+03 -0.59599556969E+02  0.20830845112E+02  0.85008599683E+03  0.00000000000E+00 0. -1.
         -2    1    3    3    0  502  0.60027166189E+03 -0.11067942392E+02 -0.45667544069E+02  0.60210804013E+03  0.00000000000E+00 0.  1.
         11    1    5    5    0    0 -0.72091414016E+02  0.24287471685E+02 -0.20262032600E+03  0.21643024226E+03  0.00000000000E+00 0.  1.
        -11    1    5    5    0    0 -0.83911853392E+02 -0.12428595891E+02 -0.61659863625E+03  0.62240625588E+03  0.00000000000E+00 0. -1.
          2    1    6    6  503    0 -0.10539395620E+04  0.25391449732E+02 -0.73638594933E+03  0.12859617384E+04  0.00000000000E+00 0. -1.
         -2    1    6    6    0  503 -0.23806710024E+03  0.33417173836E+02 -0.12918303250E+03  0.27291190448E+03  0.00000000000E+00 0.  1.
<mgrwt>
<rscale>  0 0.34494849E+04</rscale>
<asrwt>0</asrwt>
<pdfrwt beam="1">  1        1 0.42765606E+00 0.34494849E+04</pdfrwt>
<pdfrwt beam="2">  1       -2 0.16463689E+00 0.34494849E+04</pdfrwt>
<totfact> 0.14466484E-01</totfact>
</mgrwt>
</event>
<event>
12    4  0.4486176E-008  0.1324030E+04  0.7818608E-02  0.9010723E-01
         -2   -1    0    0    0  501 -0.00000000000E+00  0.00000000000E+00  0.23635791017E+03  0.23635791017E+03  0.00000000000E+00 0.  1.
          1   -1    0    0  501    0  0.00000000000E+00 -0.00000000000E+00 -0.18542391980E+04  0.18542391980E+04  0.00000000000E+00 0. -1.
        -24    2    1    2    0    0 -0.24073861955E+03  0.24406088258E+02 -0.38830881370E+02  0.25802180243E+03  0.80725913411E+02 0.  0.
        254    2    1    2    0    0  0.24073861955E+03 -0.24406088258E+02 -0.15790504064E+04  0.18325753057E+04  0.89798737461E+03 0.  0.
         23    2    4    4    0    0  0.76215450241E+02  0.25590201031E+03 -0.78879023941E+02  0.29435953949E+03  0.95556288840E+02 0.  0.
         23    2    4    4    0    0  0.16452316931E+03 -0.28030809857E+03 -0.15001713825E+04  0.15382157662E+04  0.99765040188E+02 0.  0.
          1    1    3    3  502    0 -0.27094630871E+02  0.24641688014E+02 -0.24158559255E+02  0.43874454931E+02  0.00000000000E+00 0. -1.
         -2    1    3    3    0  502 -0.21364398868E+03 -0.23559975614E+00 -0.14672322115E+02  0.21414734750E+03  0.00000000000E+00 0.  1.
         11    1    5    5    0    0  0.14727611217E+02  0.19351953661E+03 -0.70007630575E+02  0.20631961109E+03  0.00000000000E+00 0.  1.
        -11    1    5    5    0    0  0.61487839024E+02  0.62382473696E+02 -0.88713933664E+01  0.88039928399E+02  0.00000000000E+00 0. -1.
          2    1    6    6  503    0 -0.86957196336E+01 -0.12699710107E+02 -0.15618517795E+03  0.15694173437E+03  0.00000000000E+00 0. -1.
         -2    1    6    6    0  503  0.17321888894E+03 -0.26760838846E+03 -0.13439862045E+04  0.13812740318E+04  0.00000000000E+00 0.  1.
<mgrwt>
<rscale>  0 0.13240304E+04</rscale>
<asrwt>0</asrwt>
<pdfrwt beam="1">  1        1 0.28526758E+00 0.13240304E+04</pdfrwt>
<pdfrwt beam="2">  1       -2 0.36362755E-01 0.13240304E+04</pdfrwt>
<totfact> 0.22949681E+01</totfact>
</mgrwt>
</event>
<event>
12    4  0.4486176E-008  0.2014941E+04  0.7818608E-02  0.8599667E-01
         -2   -1    0    0    0  501 -0.00000000000E+00  0.00000000000E+00  0.80121415691E+03  0.80121415691E+03  0.00000000000E+00 0.  1.
          1   -1    0    0  501    0  0.00000000000E+00 -0.00000000000E+00 -0.12668234773E+04  0.12668234773E+04  0.00000000000E+00 0. -1.
        -24    2    1    2    0    0  0.18092767185E+03 -0.49942876449E+03  0.43341427928E+03  0.68992848471E+03  0.77391622879E+02 0.  0.
        254    2    1    2    0    0 -0.18092767185E+03  0.49942876449E+03 -0.89902359967E+03  0.13781091495E+04  0.89932056685E+03 0.  0.
         23    2    4    4    0    0 -0.46396706137E+03  0.36583865450E+02 -0.55087177773E+03  0.72693283456E+03  0.91475773893E+02 0.  0.
         23    2    4    4    0    0  0.28303938952E+03  0.46284489904E+03 -0.34815182194E+03  0.65117631495E+03  0.92109746728E+02 0.  0.
          3    1    3    3  502    0 -0.40582738915E+01 -0.42107539325E+02  0.22640943396E+02  0.47980483250E+02  0.00000000000E+00 0. -1.
         -4    1    3    3    0  502  0.18498594574E+03 -0.45732122517E+03  0.41077333588E+03  0.64194800146E+03  0.00000000000E+00 0.  1.
         11    1    5    5    0    0 -0.23228893435E+03  0.88644178420E+01 -0.34353277652E+03  0.41479090572E+03  0.00000000000E+00 0. -1.
        -11    1    5    5    0    0 -0.23167812702E+03  0.27719447608E+02 -0.20733900122E+03  0.31214192884E+03  0.00000000000E+00 0.  1.
          3    1    6    6  503    0  0.24436902683E+03  0.43974695822E+03 -0.30241189045E+03  0.58698088556E+03  0.00000000000E+00 0. -1.
         -3    1    6    6    0  503  0.38670362692E+02  0.23097940827E+02 -0.45739931494E+02  0.64195429387E+02  0.00000000000E+00 0.  1.
<mgrwt>
<rscale>  0 0.20149411E+04</rscale>
<asrwt>0</asrwt>
<pdfrwt beam="1">  1        1 0.19489592E+00 0.20149411E+04</pdfrwt>
<pdfrwt beam="2">  1       -2 0.12326372E+00 0.20149411E+04</pdfrwt>
<totfact> 0.38572628E+00</totfact>
</mgrwt>
</event>
<event>
12    4  0.4486176E-008  0.3982014E+04  0.7818608E-02  0.8008185E-01
          1   -1    0    0  501    0  0.00000000000E+00  0.00000000000E+00  0.21780150475E+04  0.21780150475E+04  0.00000000000E+00 0. -1.
         -2   -1    0    0    0  501 -0.00000000000E+00 -0.00000000000E+00 -0.18200559942E+04  0.18200559942E+04  0.00000000000E+00 0.  1.
        -24    2    1    2    0    0 -0.11277125128E+04 -0.89039294813E+03  0.13967229663E+04  0.20054300658E+04  0.79872338194E+02 0.  0.
        254    2    1    2    0    0  0.11277125128E+04  0.89039294813E+03 -0.10387639130E+04  0.19926409760E+04  0.90942425664E+03 0.  0.
         23    2    4    4    0    0  0.10333617661E+04  0.72071004277E+03 -0.40935842651E+03  0.13279577130E+04  0.92940092591E+02 0.  0.
         23    2    4    4    0    0  0.94350746689E+02  0.16968290536E+03 -0.62940548649E+03  0.66468326295E+03  0.89208866400E+02 0.  0.
          3    1    3    3  502    0 -0.77216666489E+03 -0.56345615755E+03  0.91342531033E+03  0.13221459819E+04  0.00000000000E+00 0. -1.
         -4    1    3    3    0  502 -0.35554584792E+03 -0.32693679058E+03  0.48329765601E+03  0.68328408390E+03  0.00000000000E+00 0.  1.
         11    1    5    5    0    0  0.38330840987E+03  0.24918918077E+03 -0.10447648958E+03  0.46897326338E+03  0.00000000000E+00 0. -1.
        -11    1    5    5    0    0  0.65005335624E+03  0.47152086200E+03 -0.30488193693E+03  0.85898444964E+03  0.00000000000E+00 0.  1.
          3    1    6    6  503    0  0.42962247117E+02  0.15407272644E+03 -0.47351714671E+03  0.49980260898E+03  0.00000000000E+00 0.  1.
         -3    1    6    6    0  503  0.51388499572E+02  0.15610178916E+02 -0.15588833978E+03  0.16488065397E+03  0.00000000000E+00 0. -1.
<mgrwt>
<rscale>  0 0.39820142E+04</rscale>
<asrwt>0</asrwt>
<pdfrwt beam="1">  1        1 0.33507924E+00 0.39820142E+04</pdfrwt>
<pdfrwt beam="2">  1       -2 0.28000861E+00 0.39820142E+04</pdfrwt>
<totfact> 0.65445285E-02</totfact>
</mgrwt>
</event>
<event>
12    4  0.4486176E-008  0.1686469E+04  0.7818608E-02  0.8769119E-01
          1   -1    0    0  501    0  0.00000000000E+00  0.00000000000E+00  0.83420951316E+03  0.83420951316E+03  0.00000000000E+00 0. -1.
         -2   -1    0    0    0  501 -0.00000000000E+00 -0.00000000000E+00 -0.85235716917E+03  0.85235716917E+03  0.00000000000E+00 0.  1.
        -24    2    1    2    0    0 -0.10384743615E+03  0.15872498903E+03  0.56652967639E+03  0.60278258125E+03  0.80081545254E+02 0.  0.
        254    2    1    2    0    0  0.10384743615E+03 -0.15872498903E+03 -0.58467733240E+03  0.10837841011E+04  0.89261552898E+03 0.  0.
         23    2    4    4    0    0  0.49763424856E+01  0.33958017156E+03 -0.80859220551E+02  0.36139161219E+03  0.93414275743E+02 0.  0.
         23    2    4    4    0    0  0.98871093662E+02 -0.49830516059E+03 -0.50381811185E+03  0.72239248888E+03  0.99672924781E+02 0.  0.
          1    1    3    3  502    0 -0.52426541215E+02  0.90626814968E+02  0.42334331099E+03  0.43609783395E+03  0.00000000000E+00 0. -1.
         -2    1    3    3    0  502 -0.51420894932E+02  0.68098174065E+02  0.14318636540E+03  0.16668474731E+03  0.00000000000E+00 0.  1.
         11    1    5    5    0    0 -0.24252305443E+01 -0.55628813787E+01 -0.51631504356E+01  0.79677797941E+01  0.00000000000E+00 0. -1.
        -11    1    5    5    0    0  0.74015730298E+01  0.34514305294E+03 -0.75696070115E+02  0.35342383240E+03  0.00000000000E+00 0.  1.
          3    1    6    6  503    0  0.41134871530E+02 -0.75455574681E+02 -0.49998050499E+02  0.99425481945E+02  0.00000000000E+00 0. -1.
         -3    1    6    6    0  503  0.57736222132E+02 -0.42284958591E+03 -0.45382006135E+03  0.62296700694E+03  0.00000000000E+00 0.  1.
<mgrwt>
<rscale>  0 0.16864690E+04</rscale>
<asrwt>0</asrwt>
<pdfrwt beam="1">  1        1 0.12833993E+00 0.16864690E+04</pdfrwt>
<pdfrwt beam="2">  1       -2 0.13113187E+00 0.16864690E+04</pdfrwt>
<totfact> 0.73232535E+00</totfact>
</mgrwt>
</event>
<event>
12    4  0.4486176E-008  0.1934012E+04  0.7818608E-02  0.8638109E-01
          3   -1    0    0  501    0  0.00000000000E+00  0.00000000000E+00  0.64656001188E+03  0.64656001188E+03  0.00000000000E+00 0. -1.
         -4   -1    0    0    0  501 -0.00000000000E+00 -0.00000000000E+00 -0.14462707573E+04  0.14462707573E+04  0.00000000000E+00 0.  1.
        -24    2    1    2    0    0 -0.24612602665E+03  0.47945958864E+03  0.20322250254E+03  0.58143318004E+03  0.79408054860E+02 0.  0.
        254    2    1    2    0    0  0.24612602665E+03 -0.47945958864E+03 -0.10029332479E+04  0.15113975891E+04  0.99397588224E+03 0.  0.
         23    2    4    4    0    0  0.52233327711E+02 -0.43286756341E+02  0.19122768541E+03  0.22172278508E+03  0.89391845040E+02 0.  0.
         23    2    4    4    0    0  0.19389269894E+03 -0.43617283230E+03 -0.11941609334E+04  0.12896748041E+04  0.96951777405E+02 0.  0.
          1    1    3    3  502    0 -0.17088193861E+03  0.28101175762E+03  0.15599003022E+03  0.36400705267E+03  0.00000000000E+00 0. -1.
         -2    1    3    3    0  502 -0.75244088045E+02  0.19844783102E+03  0.47232472317E+02  0.21742612737E+03  0.00000000000E+00 0.  1.
         11    1    5    5    0    0 -0.32819221562E+01 -0.58062009840E+01  0.13241928577E+03  0.13258714201E+03  0.00000000000E+00 0.  1.
        -11    1    5    5    0    0  0.55515249867E+02 -0.37480555357E+02  0.58808399639E+02  0.89135643071E+02  0.00000000000E+00 0. -1.
          3    1    6    6  503    0  0.40844763936E+02 -0.73122655991E+02 -0.12724938892E+03  0.15234048884E+03  0.00000000000E+00 0. -1.
         -3    1    6    6    0  503  0.15304793501E+03 -0.36305017631E+03 -0.10669115444E+04  0.11373343152E+04  0.00000000000E+00 0.  1.
<mgrwt>
<rscale>  0 0.19340122E+04</rscale>
<asrwt>0</asrwt>
<pdfrwt beam="1">  1        3 0.99470771E-01 0.19340122E+04</pdfrwt>
<pdfrwt beam="2">  1       -4 0.22250319E+00 0.19340122E+04</pdfrwt>
<totfact> 0.17776087E-01</totfact>
</mgrwt>
</event>
<event>
12    4  0.4486176E-008  0.1518870E+04  0.7818608E-02  0.8872000E-01
         -2   -1    0    0    0  501 -0.00000000000E+00  0.00000000000E+00  0.36863292987E+03  0.36863292987E+03  0.00000000000E+00 0.  1.
          1   -1    0    0  501    0  0.00000000000E+00 -0.00000000000E+00 -0.15645422172E+04  0.15645422172E+04  0.00000000000E+00 0. -1.
        -24    2    1    2    0    0 -0.44858208023E+03  0.23218432845E+03 -0.42441338344E+03  0.66413211350E+03  0.76218757921E+02 0.  0.
        254    2    1    2    0    0  0.44858208023E+03 -0.23218432845E+03 -0.77149590388E+03  0.12690430336E+04  0.87185368398E+03 0.  0.
         23    2    4    4    0    0  0.17976511740E+03  0.31397793505E+03 -0.17873042447E+03  0.41467950126E+03  0.95482370115E+02 0.  0.
         23    2    4    4    0    0  0.26881696283E+03 -0.54616226351E+03 -0.59276547941E+03  0.85436353231E+03  0.89500581985E+02 0.  0.
          1    1    3    3  502    0 -0.19373261934E+03  0.12517850546E+03 -0.23344549885E+03  0.32817493347E+03  0.00000000000E+00 0. -1.
         -2    1    3    3    0  502 -0.25484946088E+03  0.10700582300E+03 -0.19096788459E+03  0.33595718003E+03  0.00000000000E+00 0.  1.
         11    1    5    5    0    0  0.18923674872E+03  0.30266536042E+03 -0.18018396480E+03  0.39985388410E+03  0.00000000000E+00 0. -1.
        -11    1    5    5    0    0 -0.94716313206E+01  0.11312574637E+02  0.14535403221E+01  0.14825617163E+02  0.00000000000E+00 0.  1.
          3    1    6    6  503    0  0.27357923051E+03 -0.50951623506E+03 -0.55793773086E+03  0.80358378572E+03  0.00000000000E+00 0. -1.
         -3    1    6    6    0  503 -0.47622676830E+01 -0.36646028447E+02 -0.34827748547E+02  0.50779746585E+02  0.00000000000E+00 0.  1.
<mgrwt>
<rscale>  0 0.15188703E+04</rscale>
<asrwt>0</asrwt>
<pdfrwt beam="1">  1        1 0.24069880E+00 0.15188703E+04</pdfrwt>
<pdfrwt beam="2">  1       -2 0.56712758E-01 0.15188703E+04</pdfrwt>
<totfact> 0.14589691E+01</totfact>
</mgrwt>
</event>
<event>
12    4  0.4486176E-008  0.2333708E+04  0.7818608E-02  0.8464748E-01
         -2   -1    0    0    0  501 -0.00000000000E+00  0.00000000000E+00  0.73713152111E+03  0.73713152111E+03  0.00000000000E+00 0.  1.
          1   -1    0    0  501    0  0.00000000000E+00 -0.00000000000E+00 -0.18470895197E+04  0.18470895197E+04  0.00000000000E+00 0. -1.
        -24    2    1    2    0    0  0.21362360396E+03 -0.72348361647E+03  0.23963163491E+03  0.79570869592E+03  0.81642028740E+02 0.  0.
        254    2    1    2    0    0 -0.21362360396E+03  0.72348361647E+03 -0.13495896335E+04  0.17885123449E+04  0.89906653898E+03 0.  0.
         23    2    4    4    0    0 -0.25156710238E+03  0.25558828736E+03 -0.13558167489E+02  0.36945915683E+03  0.87777360551E+02 0.  0.
         23    2    4    4    0    0  0.37943498419E+02  0.46789532911E+03 -0.13360314660E+04  0.14190531880E+04  0.91466520218E+02 0.  0.
          1    1    3    3  502    0 -0.17072189546E+00 -0.45882421268E+02  0.74792102157E-01  0.45882799841E+02  0.00000000000E+00 0. -1.
         -2    1    3    3    0  502  0.21379432585E+03 -0.67760119520E+03  0.23955684280E+03  0.74982589608E+03  0.00000000000E+00 0.  1.
         11    1    5    5    0    0 -0.19999867190E+03  0.24038437892E+03  0.45226389043E+01  0.31273722621E+03  0.00000000000E+00 0. -1.
        -11    1    5    5    0    0 -0.51568430478E+02  0.15203908432E+02 -0.18080806393E+02  0.56721930621E+02  0.00000000000E+00 0.  1.
          1    1    6    6  503    0  0.29046238473E+02  0.46488774477E+03 -0.13254057257E+04  0.14048717511E+04  0.00000000000E+00 0. -1.
         -1    1    6    6    0  503  0.88972599469E+01  0.30075843387E+01 -0.10625740246E+02  0.14181436948E+02  0.00000000000E+00 0.  1.
<mgrwt>
<rscale>  0 0.23337077E+04</rscale>
<asrwt>0</asrwt>
<pdfrwt beam="1">  1        1 0.28416762E+00 0.23337077E+04</pdfrwt>
<pdfrwt beam="2">  1       -2 0.11340485E+00 0.23337077E+04</pdfrwt>
<totfact> 0.18279837E+00</totfact>
</mgrwt>
</event>
<event>
12    4  0.4486176E-008  0.2535018E+04  0.7818608E-02  0.8390615E-01
         -4   -1    0    0    0  501 -0.00000000000E+00  0.00000000000E+00  0.43135243699E+03  0.43135243699E+03  0.00000000000E+00 0.  1.
          3   -1    0    0  501    0  0.00000000000E+00 -0.00000000000E+00 -0.37245149422E+04  0.37245149422E+04  0.00000000000E+00 0. -1.
        -24    2    1    2    0    0  0.23520368217E+03  0.10897882900E+04 -0.13620899099E+04  0.17620456792E+04  0.80973847466E+02 0.  0.
        254    2    1    2    0    0 -0.23520368217E+03 -0.10897882900E+04 -0.19310725954E+04  0.23938217000E+04  0.87085112020E+03 0.  0.
         23    2    4    4    0    0 -0.52327455722E+03 -0.43240794125E+03 -0.10545309510E+04  0.12574974119E+04  0.92039798474E+02 0.  0.
         23    2    4    4    0    0  0.28807087505E+03 -0.65738034877E+03 -0.87654164441E+03  0.11363242881E+04  0.88169616699E+02 0.  0.
          3    1    3    3  502    0  0.12156176851E+01  0.66052703982E+02 -0.59878228202E+02  0.89161873254E+02  0.00000000000E+00 0. -1.
         -4    1    3    3    0  502  0.23398806448E+03  0.10237355860E+04 -0.13022116816E+04  0.16728838060E+04  0.00000000000E+00 0.  1.
         11    1    5    5    0    0 -0.26070738348E+01 -0.70546767949E+01 -0.81845470474E+00  0.75653927039E+01  0.00000000000E+00 0.  1.
        -11    1    5    5    0    0 -0.52066748338E+03 -0.42535326446E+03 -0.10537124963E+04  0.12499320192E+04  0.00000000000E+00 0. -1.
          3    1    6    6  503    0  0.18884949012E+03 -0.49171605937E+03 -0.59156935220E+03  0.79208781800E+03  0.00000000000E+00 0. -1.
         -3    1    6    6    0  503  0.99221384928E+02 -0.16566428939E+03 -0.28497229221E+03  0.34423647008E+03  0.00000000000E+00 0.  1.
<mgrwt>
<rscale>  0 0.25350176E+04</rscale>
<asrwt>0</asrwt>
<pdfrwt beam="1">  1        3 0.57300229E+00 0.25350176E+04</pdfrwt>
<pdfrwt beam="2">  1       -4 0.66361914E-01 0.25350176E+04</pdfrwt>
<totfact> 0.65466548E-03</totfact>
</mgrwt>
</event>
<event>
12    4  0.4486176E-008  0.1586894E+04  0.7818608E-02  0.8828640E-01
          1   -1    0    0  501    0  0.00000000000E+00  0.00000000000E+00  0.33132736314E+04  0.33132736314E+04  0.00000000000E+00 0. -1.
         -2   -1    0    0    0  501 -0.00000000000E+00 -0.00000000000E+00 -0.19001089239E+03  0.19001089239E+03  0.00000000000E+00 0.  1.
        -24    2    1    2    0    0  0.17078342135E+03 -0.57415843456E+02  0.21694852246E+04  0.21784080608E+04  0.79573760773E+02 0.  0.
        254    2    1    2    0    0 -0.17078342135E+03  0.57415843456E+02  0.95377751435E+03  0.13248764629E+04  0.90174416500E+03 0.  0.
         23    2    4    4    0    0 -0.21178848978E+02  0.41296615610E+03  0.19103931930E+03  0.46536467218E+03  0.95282038485E+02 0.  0.
         23    2    4    4    0    0 -0.14960457237E+03 -0.35555031265E+03  0.76273819505E+03  0.85951179077E+03  0.90517464591E+02 0.  0.
          3    1    3    3  502    0  0.14693269858E+03 -0.14987488400E+02  0.17017508138E+04  0.17081480249E+04  0.00000000000E+00 0. -1.
         -4    1    3    3    0  502  0.23850722774E+02 -0.42428355056E+02  0.46773441085E+03  0.47026003591E+03  0.00000000000E+00 0.  1.
         11    1    5    5    0    0 -0.27160019874E+02  0.27970562320E+03  0.17488602720E+03  0.33099550577E+03  0.00000000000E+00 0. -1.
        -11    1    5    5    0    0  0.59811708962E+01  0.13326053291E+03  0.16153292105E+02  0.13436916641E+03  0.00000000000E+00 0.  1.
          1    1    6    6  503    0 -0.58660285655E+02 -0.10479530732E+03  0.32995730560E+03  0.35113374812E+03  0.00000000000E+00 0.  1.
         -1    1    6    6    0  503 -0.90944286719E+02 -0.25075500532E+03  0.43278088945E+03  0.50837804266E+03  0.00000000000E+00 0. -1.
<mgrwt>
<rscale>  0 0.15868939E+04</rscale>
<asrwt>0</asrwt>
<pdfrwt beam="1">  1        1 0.50973436E+00 0.15868939E+04</pdfrwt>
<pdfrwt beam="2">  1       -2 0.29232447E-01 0.15868939E+04</pdfrwt>
<totfact> 0.31926905E+00</totfact>
</mgrwt>
</event>
<event>
12    4  0.4486176E-008  0.1650001E+04  0.7818608E-02  0.8790406E-01
         -2   -1    0    0    0  501 -0.00000000000E+00  0.00000000000E+00  0.68626914718E+03  0.68626914718E+03  0.00000000000E+00 0.  1.
          1   -1    0    0  501    0  0.00000000000E+00 -0.00000000000E+00 -0.99177657141E+03  0.99177657141E+03  0.00000000000E+00 0. -1.
        -24    2    1    2    0    0 -0.39956621604E+03 -0.87037129678E+02 -0.51682372484E+03  0.66341797805E+03  0.76079091100E+02 0.  0.
        254    2    1    2    0    0  0.39956621604E+03  0.87037129678E+02  0.21131630062E+03  0.10146277405E+04  0.90420476112E+03 0.  0.
         23    2    4    4    0    0  0.58280556723E+03 -0.57187349081E+02  0.38675947234E+03  0.70789283620E+03  0.92718153612E+02 0.  0.
         23    2    4    4    0    0 -0.18323935119E+03  0.14422447876E+03 -0.17544317172E+03  0.30673490435E+03  0.94491454339E+02 0.  0.
          3    1    3    3  502    0 -0.21209384470E+03 -0.74625945873E+01 -0.25781747046E+03  0.33393013843E+03  0.00000000000E+00 0. -1.
         -4    1    3    3    0  502 -0.18747237133E+03 -0.79574535090E+02 -0.25900625438E+03  0.32948783962E+03  0.00000000000E+00 0.  1.
         11    1    5    5    0    0  0.19134690430E+03 -0.56376423836E+02  0.15818067217E+03  0.25458410005E+03  0.00000000000E+00 0.  1.
        -11    1    5    5    0    0  0.39145866293E+03 -0.81092524493E+00  0.22857880017E+03  0.45330873615E+03  0.00000000000E+00 0. -1.
          2    1    6    6  503    0 -0.16400207742E+03  0.78461901955E+02 -0.14083174485E+03  0.22997071947E+03  0.00000000000E+00 0. -1.
         -2    1    6    6    0  503 -0.19237273774E+02  0.65762576804E+02 -0.34611426876E+02  0.76764184881E+02  0.00000000000E+00 0.  1.
<mgrwt>
<rscale>  0 0.16500008E+04</rscale>
<asrwt>0</asrwt>
<pdfrwt beam="1">  1        1 0.15258101E+00 0.16500008E+04</pdfrwt>
<pdfrwt beam="2">  1       -2 0.10557987E+00 0.16500008E+04</pdfrwt>
<totfact> 0.93322163E+00</totfact>
</mgrwt>
</event>
<event>
12    4  0.4486176E-008  0.2585722E+04  0.7818608E-02  0.8373067E-01
         -2   -1    0    0    0  501 -0.00000000000E+00  0.00000000000E+00  0.12722217395E+04  0.12722217395E+04  0.00000000000E+00 0.  1.
          1   -1    0    0  501    0  0.00000000000E+00 -0.00000000000E+00 -0.13138351652E+04  0.13138351652E+04  0.00000000000E+00 0. -1.
        -24    2    1    2    0    0  0.56020731571E+03 -0.88183300986E+03 -0.49349639994E+03  0.11583424131E+04  0.82199485479E+02 0.  0.
        254    2    1    2    0    0 -0.56020731571E+03  0.88183300986E+03  0.45188297419E+03  0.14277144915E+04  0.86180551932E+03 0.  0.
         23    2    4    4    0    0  0.12653422200E+03  0.57535990876E+03  0.17406226459E+03  0.62076450850E+03  0.89448136440E+02 0.  0.
         23    2    4    4    0    0 -0.68674153771E+03  0.30647310111E+03  0.27782070961E+03  0.80694998304E+03  0.91892475932E+02 0.  0.
          3    1    3    3  502    0  0.33816551769E+03 -0.45594289200E+03 -0.26799560284E+03  0.62774316505E+03  0.00000000000E+00 0. -1.
         -4    1    3    3    0  502  0.22204179802E+03 -0.42589011786E+03 -0.22550079710E+03  0.53059924807E+03  0.00000000000E+00 0.  1.
         11    1    5    5    0    0  0.32302095939E+02  0.29749365372E+03  0.12004797297E+03  0.32242427828E+03  0.00000000000E+00 0. -1.
        -11    1    5    5    0    0  0.94232126060E+02  0.27786625503E+03  0.54014291616E+02  0.29834023022E+03  0.00000000000E+00 0.  1.
          2    1    6    6  503    0 -0.68874574398E+03  0.30619085357E+03  0.27288767329E+03  0.80161787711E+03  0.00000000000E+00 0. -1.
         -2    1    6    6    0  503  0.20042062716E+01  0.28224753357E+00  0.49330363146E+01  0.53321059377E+01  0.00000000000E+00 0.  1.
<mgrwt>
<rscale>  0 0.25857221E+04</rscale>
<asrwt>0</asrwt>
<pdfrwt beam="1">  1        1 0.20212849E+00 0.25857221E+04</pdfrwt>
<pdfrwt beam="2">  1       -2 0.19572642E+00 0.25857221E+04</pdfrwt>
<totfact> 0.97137477E-01</totfact>
</mgrwt>
</event>
<event>
12    4  0.4486176E-008  0.1927458E+04  0.7818608E-02  0.8641308E-01
          1   -1    0    0  501    0  0.00000000000E+00  0.00000000000E+00  0.18077311620E+04  0.18077311620E+04  0.00000000000E+00 0. -1.
         -2   -1    0    0    0  501 -0.00000000000E+00 -0.00000000000E+00 -0.51377855892E+03  0.51377855892E+03  0.00000000000E+00 0.  1.
        -24    2    1    2    0    0  0.30449098705E+03 -0.42860816580E+03 -0.14428676525E+03  0.55120209519E+03  0.81150219527E+02 0.  0.
        254    2    1    2    0    0 -0.30449098705E+03  0.42860816580E+03  0.14382393683E+04  0.17703076257E+04  0.88827748371E+03 0.  0.
         23    2    4    4    0    0  0.10557494053E+03 -0.19745547166E+03  0.17180197377E+03  0.29643476926E+03  0.90680333464E+02 0.  0.
         23    2    4    4    0    0 -0.41006592758E+03  0.62606363746E+03  0.12664373945E+04  0.14738728564E+04  0.91256668534E+02 0.  0.
          3    1    3    3  502    0  0.40502925240E+02 -0.91437650367E+02 -0.53669179567E+02  0.11349762858E+03  0.00000000000E+00 0. -1.
         -4    1    3    3    0  502  0.26398806181E+03 -0.33717051544E+03 -0.90617585684E+02  0.43770446661E+03  0.00000000000E+00 0.  1.
         11    1    5    5    0    0  0.12014870187E+03 -0.17560491095E+03  0.16513523495E+03  0.26933704003E+03  0.00000000000E+00 0. -1.
        -11    1    5    5    0    0 -0.14573761337E+02 -0.21850560707E+02  0.66667388215E+01  0.27097729226E+02  0.00000000000E+00 0.  1.
          3    1    6    6  503    0 -0.40015723690E+03  0.57460558169E+03  0.11987356719E+04  0.13882595578E+04  0.00000000000E+00 0. -1.
         -3    1    6    6    0  503 -0.99086906854E+01  0.51458055774E+02  0.67701722623E+02  0.85613298623E+02  0.00000000000E+00 0.  1.
<mgrwt>
<rscale>  0 0.19274579E+04</rscale>
<asrwt>0</asrwt>
<pdfrwt beam="1">  1        1 0.27811248E+00 0.19274579E+04</pdfrwt>
<pdfrwt beam="2">  1       -2 0.79042856E-01 0.19274579E+04</pdfrwt>
<totfact> 0.46847130E+00</totfact>
</mgrwt>
</event>
<event>
12    4  0.4486176E-008  0.1137317E+04  0.7818608E-02  0.9169564E-01
         -2   -1    0    0    0  501 -0.00000000000E+00  0.00000000000E+00  0.43866857667E+03  0.43866857667E+03  0.00000000000E+00 0.  1.
          1   -1    0    0  501    0  0.00000000000E+00 -0.00000000000E+00 -0.73716846602E+03  0.73716846602E+03  0.00000000000E+00 0. -1.
        -24    2    1    2    0    0 -0.16988312728E+03 -0.27359119527E+02 -0.15858481355E+03  0.24656894554E+03  0.77706521360E+02 0.  0.
        254    2    1    2    0    0  0.16988312728E+03  0.27359119527E+02 -0.13991507580E+03  0.92926809715E+03  0.90241574100E+03 0.  0.
         23    2    4    4    0    0 -0.42526725175E+02 -0.28217297814E+03  0.24297805473E+03  0.38541540669E+03  0.89869843035E+02 0.  0.
         23    2    4    4    0    0  0.21240985245E+03  0.30953209766E+03 -0.38289313053E+03  0.54385269047E+03  0.90777390492E+02 0.  0.
          1    1    3    3  502    0 -0.16363137792E+03 -0.30208184858E+01 -0.13858117114E+03  0.21445068007E+03  0.00000000000E+00 0. -1.
         -2    1    3    3    0  502 -0.62517493523E+01 -0.24338301041E+02 -0.20003642407E+02  0.32118265474E+02  0.00000000000E+00 0.  1.
         11    1    5    5    0    0  0.19830444864E+02 -0.37381895650E+02  0.14280279649E+02  0.44660710393E+02  0.00000000000E+00 0. -1.
        -11    1    5    5    0    0 -0.62357170039E+02 -0.24479108248E+03  0.22869777508E+03  0.34075469629E+03  0.00000000000E+00 0.  1.
          3    1    6    6  503    0  0.25069715663E+02  0.21556891565E+01 -0.36152890060E+02  0.44047350645E+02  0.00000000000E+00 0. -1.
         -3    1    6    6    0  503  0.18734013679E+03  0.30737640851E+03 -0.34674024047E+03  0.49980533982E+03  0.00000000000E+00 0.  1.
<mgrwt>
<rscale>  0 0.11373173E+04</rscale>
<asrwt>0</asrwt>
<pdfrwt beam="1">  1        1 0.11341053E+00 0.11373173E+04</pdfrwt>
<pdfrwt beam="2">  1       -2 0.67487473E-01 0.11373173E+04</pdfrwt>
<totfact> 0.44109988E+01</totfact>
</mgrwt>
</event>
<event>
12    4  0.4486176E-008  0.1125587E+04  0.7818608E-02  0.9180606E-01
         -2   -1    0    0    0  501 -0.00000000000E+00  0.00000000000E+00  0.23872549139E+03  0.23872549139E+03  0.00000000000E+00 0.  1.
          1   -1    0    0  501    0  0.00000000000E+00 -0.00000000000E+00 -0.13267816368E+04  0.13267816368E+04  0.00000000000E+00 0. -1.
        -24    2    1    2    0    0 -0.39210473361E+02 -0.83667888336E+02 -0.42148953314E+03  0.43867288664E+03  0.79010747202E+02 0.  0.
        254    2    1    2    0    0  0.39210473361E+02  0.83667888336E+02 -0.66656661223E+03  0.11268342415E+04  0.90382884582E+03 0.  0.
         23    2    4    4    0    0  0.31304713212E+03 -0.19757930409E+03 -0.42437044178E+02  0.38365266480E+03  0.91391335225E+02 0.  0.
         23    2    4    4    0    0 -0.27383665876E+03  0.28124719242E+03 -0.62412956806E+03  0.74318157672E+03  0.93245049862E+02 0.  0.
          3    1    3    3  502    0 -0.54894437484E+02 -0.75102948616E+02 -0.40023705334E+03  0.41090576903E+03  0.00000000000E+00 0. -1.
         -4    1    3    3    0  502  0.15683964123E+02 -0.85649397198E+01 -0.21252479800E+02  0.27767117615E+02  0.00000000000E+00 0.  1.
         11    1    5    5    0    0  0.26536025002E+03 -0.17835609656E+03 -0.66995158623E+02  0.32667309463E+03  0.00000000000E+00 0. -1.
        -11    1    5    5    0    0  0.47686882096E+02 -0.19223207524E+02  0.24558114445E+02  0.56979570169E+02  0.00000000000E+00 0.  1.
          3    1    6    6  503    0 -0.26665248050E+03  0.23460640440E+03 -0.53188176998E+03  0.63956385731E+03  0.00000000000E+00 0. -1.
         -3    1    6    6    0  503 -0.71841782561E+01  0.46640788026E+02 -0.92247798074E+02  0.10361771940E+03  0.00000000000E+00 0.  1.
<mgrwt>
<rscale>  0 0.11255871E+04</rscale>
<asrwt>0</asrwt>
<pdfrwt beam="1">  1        1 0.20412025E+00 0.11255871E+04</pdfrwt>
<pdfrwt beam="2">  1       -2 0.36726999E-01 0.11255871E+04</pdfrwt>
<totfact> 0.52730347E+01</totfact>
</mgrwt>
</event>
<event>
12    4  0.4486176E-008  0.1386569E+04  0.7818608E-02  0.8963598E-01
          1   -1    0    0  501    0  0.00000000000E+00  0.00000000000E+00  0.83616615587E+03  0.83616615587E+03  0.00000000000E+00 0. -1.
         -2   -1    0    0    0  501 -0.00000000000E+00 -0.00000000000E+00 -0.57481818945E+03  0.57481818945E+03  0.00000000000E+00 0.  1.
        -24    2    1    2    0    0  0.77356368238E+02 -0.27823460483E+02  0.48440291148E+03  0.49808572124E+03  0.81762169684E+02 0.  0.
        254    2    1    2    0    0 -0.77356368238E+02  0.27823460483E+02 -0.22305494506E+03  0.91289862408E+03  0.88140356062E+03 0.  0.
         23    2    4    4    0    0 -0.16154388585E+03  0.24853029016E+03 -0.46594956464E+03  0.55959933946E+03  0.90436119741E+02 0.  0.
         23    2    4    4    0    0  0.84187517609E+02 -0.22070682968E+03  0.24289461958E+03  0.35329928462E+03  0.10011765829E+03 0.  0.
          3    1    3    3  502    0  0.82810497270E+02 -0.40011778815E+02  0.46791999106E+03  0.47687277017E+03  0.00000000000E+00 0. -1.
         -4    1    3    3    0  502 -0.54541290321E+01  0.12188318332E+02  0.16482920427E+02  0.21212951069E+02  0.00000000000E+00 0.  1.
         11    1    5    5    0    0 -0.16483496495E+03  0.23315208202E+03 -0.39786046540E+03  0.48971768290E+03  0.00000000000E+00 0. -1.
        -11    1    5    5    0    0  0.32910791056E+01  0.15378208137E+02 -0.68089099247E+02  0.69881656559E+02  0.00000000000E+00 0.  1.
          1    1    6    6  503    0  0.82543351638E+02 -0.88262747411E+02  0.87983975927E+02  0.14948209759E+03  0.00000000000E+00 0. -1.
         -1    1    6    6    0  503  0.16441659710E+01 -0.13244408227E+03  0.15491064366E+03  0.20381718702E+03  0.00000000000E+00 0.  1.
<mgrwt>
<rscale>  0 0.13865692E+04</rscale>
<asrwt>0</asrwt>
<pdfrwt beam="1">  1        1 0.12864095E+00 0.13865692E+04</pdfrwt>
<pdfrwt beam="2">  1       -2 0.88433568E-01 0.13865692E+04</pdfrwt>
<totfact> 0.19367719E+01</totfact>
</mgrwt>
</event>
<event>
12    4  0.4486176E-008  0.2396012E+04  0.7818608E-02  0.8440998E-01
         -2   -1    0    0    0  501 -0.00000000000E+00  0.00000000000E+00  0.93949449705E+03  0.93949449705E+03  0.00000000000E+00 0.  1.
          1   -1    0    0  501    0  0.00000000000E+00 -0.00000000000E+00 -0.15276501899E+04  0.15276501899E+04  0.00000000000E+00 0. -1.
        -24    2    1    2    0    0  0.70239003844E+03  0.33323672780E+03  0.43828489065E+03  0.89576131144E+03  0.76786710103E+02 0.  0.
        254    2    1    2    0    0 -0.70239003844E+03 -0.33323672780E+03 -0.10264405835E+04  0.15713833755E+04  0.90070359084E+03 0.  0.
         23    2    4    4    0    0 -0.64663388560E+03 -0.15747068198E+03 -0.17443661739E+03  0.69384915906E+03  0.89811604736E+02 0.  0.
         23    2    4    4    0    0 -0.55756152837E+02 -0.17576604581E+03 -0.85200396614E+03  0.87753421649E+03  0.10076254929E+03 0.  0.
          3    1    3    3  502    0  0.19694103088E+03  0.11576100084E+03  0.16192143676E+03  0.28000880458E+03  0.00000000000E+00 0. -1.
         -4    1    3    3    0  502  0.50544900756E+03  0.21747572696E+03  0.27636345389E+03  0.61575250686E+03  0.00000000000E+00 0.  1.
         11    1    5    5    0    0 -0.49117273490E+03 -0.14303059980E+03 -0.10160420396E+03  0.52156669972E+03  0.00000000000E+00 0. -1.
        -11    1    5    5    0    0 -0.15546115070E+03 -0.14440082183E+02 -0.72832413434E+02  0.17228245934E+03  0.00000000000E+00 0.  1.
          4    1    6    6  503    0 -0.53303516567E+02 -0.18696535591E+03 -0.83259351121E+03  0.85499079766E+03  0.00000000000E+00 0. -1.
         -4    1    6    6    0  503 -0.24526362701E+01  0.11199310096E+02 -0.19410454939E+02  0.22543418823E+02  0.00000000000E+00 0.  1.
<mgrwt>
<rscale>  0 0.23960125E+04</rscale>
<asrwt>0</asrwt>
<pdfrwt beam="1">  1        1 0.23502311E+00 0.23960125E+04</pdfrwt>
<pdfrwt beam="2">  1       -2 0.14453762E+00 0.23960125E+04</pdfrwt>
<totfact> 0.16280874E+00</totfact>
</mgrwt>
</event>
<event>
12    4  0.4486176E-008  0.1720392E+04  0.7818608E-02  0.8749819E-01
         -4   -1    0    0    0  501 -0.00000000000E+00  0.00000000000E+00  0.30018478345E+03  0.30018478345E+03  0.00000000000E+00 0.  1.
          3   -1    0    0  501    0  0.00000000000E+00 -0.00000000000E+00 -0.24649388273E+04  0.24649388273E+04  0.00000000000E+00 0. -1.
        -24    2    1    2    0    0 -0.10920973616E+03 -0.48803755287E+03 -0.13695466087E+04  0.14605695440E+04  0.86591338555E+02 0.  0.
        254    2    1    2    0    0  0.10920973616E+03  0.48803755287E+03 -0.79520743512E+03  0.13045540668E+04  0.90520662211E+03 0.  0.
         23    2    4    4    0    0  0.19084990851E+02  0.35290310024E+03  0.10955662448E+03  0.38132030570E+03  0.92182897185E+02 0.  0.
         23    2    4    4    0    0  0.90124745311E+02  0.13513445263E+03 -0.90476405961E+03  0.92323376105E+03  0.85899848564E+02 0.  0.
          3    1    3    3  502    0 -0.25286006910E+02 -0.13970513178E+03 -0.28565210414E+03  0.31898907598E+03  0.00000000000E+00 0. -1.
         -4    1    3    3    0  502 -0.83923729252E+02 -0.34833242109E+03 -0.10838945046E+04  0.11415804680E+04  0.00000000000E+00 0.  1.
         11    1    5    5    0    0 -0.14662490737E+02  0.14899929031E+02  0.22388092808E+02  0.30630429631E+02  0.00000000000E+00 0. -1.
        -11    1    5    5    0    0  0.33747481588E+02  0.33800317121E+03  0.87168531676E+02  0.35068987607E+03  0.00000000000E+00 0.  1.
          3    1    6    6  503    0  0.21582600698E+01  0.70984568810E+02 -0.45318866068E+03  0.45871933605E+03  0.00000000000E+00 0. -1.
         -3    1    6    6    0  503  0.87966485241E+02  0.64149883821E+02 -0.45157539893E+03  0.46451442500E+03  0.00000000000E+00 0.  1.
<mgrwt>
<rscale>  0 0.17203920E+04</rscale>
<asrwt>0</asrwt>
<pdfrwt beam="1">  1        3 0.37922136E+00 0.17203920E+04</pdfrwt>
<pdfrwt beam="2">  1       -4 0.46182274E-01 0.17203920E+04</pdfrwt>
<totfact> 0.14319732E-01</totfact>
</mgrwt>
</event>
<event>
12    4  0.4486176E-008  0.2633888E+04  0.7818608E-02  0.8356781E-01
         -2   -1    0    0    0  501 -0.00000000000E+00  0.00000000000E+00  0.18296122086E+04  0.18296122086E+04  0.00000000000E+00 0.  1.
          1   -1    0    0  501    0  0.00000000000E+00 -0.00000000000E+00 -0.94792819549E+03  0.94792819549E+03  0.00000000000E+00 0. -1.
        -24    2    1    2    0    0  0.74029284693E+03  0.83916553526E+03  0.71835857534E+03  0.13321013421E+04  0.78883762888E+02 0.  0.
        254    2    1    2    0    0 -0.74029284693E+03 -0.83916553526E+03  0.16332543780E+03  0.14454390620E+04  0.90021474582E+03 0.  0.
         23    2    4    4    0    0 -0.13869239161E+03 -0.58085614436E+03  0.42175909185E+03  0.73704722204E+03  0.93426099291E+02 0.  0.
         23    2    4    4    0    0 -0.60160045531E+03 -0.25830939091E+03 -0.25843365405E+03  0.70839183998E+03  0.79901164829E+02 0.  0.
          1    1    3    3  502    0  0.33252247876E+03  0.34398906931E+03  0.34550641879E+03  0.59014774770E+03  0.00000000000E+00 0. -1.
         -2    1    3    3    0  502  0.40777036817E+03  0.49517646595E+03  0.37285215654E+03  0.74195359439E+03  0.00000000000E+00 0.  1.
         11    1    5    5    0    0  0.12831254594E+02 -0.31125640669E+02  0.16610512179E+02  0.37541386714E+02  0.00000000000E+00 0. -1.
        -11    1    5    5    0    0 -0.15152364621E+03 -0.54973050369E+03  0.40514857967E+03  0.69950583533E+03  0.00000000000E+00 0.  1.
          4    1    6    6  503    0 -0.13406721226E+03 -0.89289000383E+02 -0.44076509284E+02  0.16700084330E+03  0.00000000000E+00 0. -1.
         -4    1    6    6    0  503 -0.46753324306E+03 -0.16902039053E+03 -0.21435714477E+03  0.54139099668E+03  0.00000000000E+00 0.  1.
<mgrwt>
<rscale>  0 0.26338876E+04</rscale>
<asrwt>0</asrwt>
<pdfrwt beam="1">  1        1 0.14583511E+00 0.26338876E+04</pdfrwt>
<pdfrwt beam="2">  1       -2 0.28147880E+00 0.26338876E+04</pdfrwt>
<totfact> 0.52860709E-01</totfact>
</mgrwt>
</event>
<event>
12    4  0.4486176E-008  0.1579175E+04  0.7818608E-02  0.8833445E-01
          1   -1    0    0  501    0  0.00000000000E+00  0.00000000000E+00  0.11977789908E+04  0.11977789908E+04  0.00000000000E+00 0. -1.
         -2   -1    0    0    0  501 -0.00000000000E+00 -0.00000000000E+00 -0.52050347264E+03  0.52050347264E+03  0.00000000000E+00 0.  1.
        -24    2    1    2    0    0 -0.10869885780E+02 -0.47642707851E+03 -0.25063136314E+02  0.48382461698E+03  0.79731948692E+02 0.  0.
        254    2    1    2    0    0  0.10869885780E+02  0.47642707851E+03  0.70233865444E+03  0.12344578464E+04  0.89638477986E+03 0.  0.
         23    2    4    4    0    0  0.24778012848E+03  0.59994880868E+03  0.25052860048E+03  0.70156844355E+03  0.90000756793E+02 0.  0.
         23    2    4    4    0    0 -0.23691024270E+03 -0.12352173017E+03  0.45181005397E+03  0.53288940289E+03  0.91949496610E+02 0.  0.
          1    1    3    3  502    0 -0.73790312887E+01 -0.14151813148E+02 -0.14271437000E+02  0.21410227280E+02  0.00000000000E+00 0. -1.
         -2    1    3    3    0  502 -0.34908544915E+01 -0.46227526536E+03 -0.10791699314E+02  0.46241438970E+03  0.00000000000E+00 0.  1.
         11    1    5    5    0    0  0.91411464149E+01  0.10667826852E+03  0.33452096286E+02  0.11217333141E+03  0.00000000000E+00 0. -1.
        -11    1    5    5    0    0  0.23863898207E+03  0.49327054015E+03  0.21707650419E+03  0.58939511214E+03  0.00000000000E+00 0.  1.
          3    1    6    6  503    0 -0.81016747473E+02 -0.65925276571E+02  0.25332831657E+03  0.27401658972E+03  0.00000000000E+00 0. -1.
         -3    1    6    6    0  503 -0.15589349523E+03 -0.57596453599E+02  0.19848173739E+03  0.25887281317E+03  0.00000000000E+00 0.  1.
<mgrwt>
<rscale>  0 0.15791746E+04</rscale>
<asrwt>0</asrwt>
<pdfrwt beam="1">  1        1 0.18427369E+00 0.15791746E+04</pdfrwt>
<pdfrwt beam="2">  1       -2 0.80077458E-01 0.15791746E+04</pdfrwt>
<totfact> 0.12471548E+01</totfact>
</mgrwt>
</event>
<event>
12    4  0.4486176E-008  0.1032519E+04  0.7818608E-02  0.9273580E-01
          1   -1    0    0  501    0  0.00000000000E+00  0.00000000000E+00  0.33314580441E+03  0.33314580441E+03  0.00000000000E+00 0. -1.
         -2   -1    0    0    0  501 -0.00000000000E+00 -0.00000000000E+00 -0.80002236086E+03  0.80002236086E+03  0.00000000000E+00 0.  1.
        -24    2    1    2    0    0  0.42371312342E+02 -0.19362506151E+02  0.33093776558E+02  0.97271303961E+02  0.78716413621E+02 0.  0.
        254    2    1    2    0    0 -0.42371312342E+02  0.19362506151E+02 -0.49997033301E+03  0.10358968613E+04  0.90605835277E+03 0.  0.
         23    2    4    4    0    0 -0.17059910849E+03 -0.84453059962E+02 -0.71775534122E+03  0.74802755090E+03  0.90200398619E+02 0.  0.
         23    2    4    4    0    0  0.12822779615E+03  0.10381556611E+03  0.21778500820E+03  0.28786931041E+03  0.90655339635E+02 0.  0.
          3    1    3    3  502    0  0.11261375691E+02 -0.55286624689E+01  0.55245702377E+02  0.56652204919E+02  0.00000000000E+00 0. -1.
         -4    1    3    3    0  502  0.31109936651E+02 -0.13833843682E+02 -0.22151925818E+02  0.40619099041E+02  0.00000000000E+00 0.  1.
         11    1    5    5    0    0 -0.10493283588E+03 -0.78034565654E+02 -0.33483612301E+03  0.35946560720E+03  0.00000000000E+00 0. -1.
        -11    1    5    5    0    0 -0.65666272608E+02 -0.64184943076E+01 -0.38291921820E+03  0.38856194370E+03  0.00000000000E+00 0.  1.
          4    1    6    6  503    0  0.14135694174E+03  0.89854905500E+02  0.18248342432E+03  0.24770120947E+03  0.00000000000E+00 0. -1.
         -4    1    6    6    0  503 -0.13129145589E+02  0.13960660613E+02  0.35301583876E+02  0.40168100936E+02  0.00000000000E+00 0.  1.
<mgrwt>
<rscale>  0 0.10325194E+04</rscale>
<asrwt>0</asrwt>
<pdfrwt beam="1">  1        1 0.51253201E-01 0.10325194E+04</pdfrwt>
<pdfrwt beam="2">  1       -2 0.12308036E+00 0.10325194E+04</pdfrwt>
<totfact> 0.33261318E+01</totfact>
</mgrwt>
</event>
<event>
12    4  0.4486176E-008  0.3836943E+04  0.7818608E-02  0.8038273E-01
         -2   -1    0    0    0  501 -0.00000000000E+00  0.00000000000E+00  0.22629613264E+04  0.22629613264E+04  0.00000000000E+00 0.  1.
          1   -1    0    0  501    0  0.00000000000E+00 -0.00000000000E+00 -0.16264234298E+04  0.16264234298E+04  0.00000000000E+00 0. -1.
        -24    2    1    2    0    0 -0.16868649451E+04  0.57979969803E+03 -0.21012342869E+02  0.17856769631E+04  0.80744444213E+02 0.  0.
        254    2    1    2    0    0  0.16868649451E+04 -0.57979969803E+03  0.65755023943E+03  0.21037077930E+04  0.90085133532E+03 0.  0.
         23    2    4    4    0    0  0.29976308151E+03 -0.35188121411E+03 -0.13170399705E+03  0.48905293091E+03  0.90269222395E+02 0.  0.
         23    2    4    4    0    0  0.13871018636E+04 -0.22791848392E+03  0.78925423649E+03  0.16146548621E+04  0.90496733439E+02 0.  0.
          3    1    3    3  502    0 -0.16771353066E+04  0.57760718022E+03 -0.27047911072E+02  0.17740193012E+04  0.00000000000E+00 0. -1.
         -4    1    3    3    0  502 -0.97296384302E+01  0.21925178050E+01  0.60355682027E+01  0.11657661937E+02  0.00000000000E+00 0.  1.
         11    1    5    5    0    0 -0.61568721276E+01 -0.54440716845E+01  0.80363312889E+00  0.82577731325E+01  0.00000000000E+00 0. -1.
        -11    1    5    5    0    0  0.30591995364E+03 -0.34643714242E+03 -0.13250763018E+03  0.48079515778E+03  0.00000000000E+00 0.  1.
          3    1    6    6  503    0  0.20915951413E+03 -0.46891997531E+02  0.15583012415E+03  0.26500865906E+03  0.00000000000E+00 0. -1.
         -3    1    6    6    0  503  0.11779423494E+04 -0.18102648639E+03  0.63342411233E+03  0.13496462031E+04  0.00000000000E+00 0.  1.
<mgrwt>
<rscale>  0 0.38369432E+04</rscale>
<asrwt>0</asrwt>
<pdfrwt beam="1">  1        1 0.25021899E+00 0.38369432E+04</pdfrwt>
<pdfrwt beam="2">  1       -2 0.34814790E+00 0.38369432E+04</pdfrwt>
<totfact> 0.59574314E-02</totfact>
</mgrwt>
</event>
<event>
12    4  0.4486176E-008  0.1291114E+04  0.7818608E-02  0.9036641E-01
          1   -1    0    0  501    0  0.00000000000E+00  0.00000000000E+00  0.58469297387E+03  0.58469297387E+03  0.00000000000E+00 0. -1.
         -2   -1    0    0    0  501 -0.00000000000E+00 -0.00000000000E+00 -0.71275721958E+03  0.71275721958E+03  0.00000000000E+00 0.  1.
        -24    2    1    2    0    0  0.18375632069E+03 -0.80319648913E+02  0.17111159923E+03  0.27515174251E+03  0.78814152407E+02 0.  0.
        254    2    1    2    0    0 -0.18375632069E+03  0.80319648913E+02 -0.29917584494E+03  0.10222984509E+04  0.95674986554E+03 0.  0.
         23    2    4    4    0    0  0.74386333808E+02 -0.11212261068E+03  0.29785545382E+03  0.33805397636E+03  0.86358630583E+02 0.  0.
         23    2    4    4    0    0 -0.25814265450E+03  0.19244225959E+03 -0.59703129876E+03  0.68424447459E+03  0.89846958485E+02 0.  0.
          1    1    3    3  502    0  0.18984709960E+03 -0.81776086810E+02  0.17189022952E+03  0.26884103222E+03  0.00000000000E+00 0. -1.
         -2    1    3    3    0  502 -0.60907789164E+01  0.14564378971E+01 -0.77863029160E+00  0.63107102839E+01  0.00000000000E+00 0.  1.
         11    1    5    5    0    0 -0.83708635735E+01 -0.18736907603E+01  0.78572258524E+02  0.79039116162E+02  0.00000000000E+00 0. -1.
        -11    1    5    5    0    0  0.82757197381E+02 -0.11024891992E+03  0.21928319530E+03  0.25901486019E+03  0.00000000000E+00 0.  1.
          1    1    6    6  503    0 -0.37100588394E+02  0.10090537888E+02 -0.13676470810E+03  0.14206638587E+03  0.00000000000E+00 0. -1.
         -1    1    6    6    0  503 -0.22104206610E+03  0.18235172171E+03 -0.46026659067E+03  0.54217808871E+03  0.00000000000E+00 0.  1.
<mgrwt>
<rscale>  0 0.12911145E+04</rscale>
<asrwt>0</asrwt>
<pdfrwt beam="1">  1        1 0.89952766E-01 0.12911145E+04</pdfrwt>
<pdfrwt beam="2">  1       -2 0.10965496E+00 0.12911145E+04</pdfrwt>
<totfact> 0.20246452E+01</totfact>
</mgrwt>
</event>
<event>
12    4  0.4486176E-008  0.3195494E+04  0.7818608E-02  0.8190008E-01
          1   -1    0    0  501    0  0.00000000000E+00  0.00000000000E+00  0.26569398120E+04  0.26569398120E+04  0.00000000000E+00 0. -1.
         -2   -1    0    0    0  501 -0.00000000000E+00 -0.00000000000E+00 -0.96080298268E+03  0.96080298268E+03  0.00000000000E+00 0.  1.
        -24    2    1    2    0    0  0.79503395234E+03 -0.81298912688E+03 -0.24667431656E+03  0.11664377199E+04  0.81843938246E+02 0.  0.
        254    2    1    2    0    0 -0.79503395234E+03  0.81298912688E+03  0.19428111459E+04  0.24513050748E+04  0.97023250573E+03 0.  0.
         23    2    4    4    0    0 -0.90230607093E+03  0.51906830456E+03  0.97243152791E+03  0.14277255647E+04  0.95859591293E+02 0.  0.
         23    2    4    4    0    0  0.10727211859E+03  0.29392082232E+03  0.97037961799E+03  0.10235795101E+04  0.90452491234E+02 0.  0.
          3    1    3    3  502    0  0.15750161524E+03 -0.20451237479E+03 -0.39805488626E+02  0.26118297642E+03  0.00000000000E+00 0. -1.
         -4    1    3    3    0  502  0.63753233709E+03 -0.60847675209E+03 -0.20686882794E+03  0.90525474351E+03  0.00000000000E+00 0.  1.
         11    1    5    5    0    0 -0.55805384475E+03  0.28513748010E+03  0.53586414512E+03  0.82454706247E+03  0.00000000000E+00 0.  1.
        -11    1    5    5    0    0 -0.34425222618E+03  0.23393082446E+03  0.43656738279E+03  0.60317850225E+03  0.00000000000E+00 0. -1.
          1    1    6    6  503    0  0.62904747571E+02  0.15210865253E+03  0.36785169496E+03  0.40299989941E+03  0.00000000000E+00 0. -1.
         -1    1    6    6    0  503  0.44367371023E+02  0.14181216979E+03  0.60252792303E+03  0.62057961064E+03  0.00000000000E+00 0.  1.
<mgrwt>
<rscale>  0 0.31954941E+04</rscale>
<asrwt>0</asrwt>
<pdfrwt beam="1">  1        1 0.40875997E+00 0.31954941E+04</pdfrwt>
<pdfrwt beam="2">  1       -2 0.14781584E+00 0.31954941E+04</pdfrwt>
<totfact> 0.24135868E-01</totfact>
</mgrwt>
</event>
<event>
12    4  0.4486176E-008  0.1463975E+04  0.7818608E-02  0.8908769E-01
         -2   -1    0    0    0  501 -0.00000000000E+00  0.00000000000E+00  0.61900456182E+03  0.61900456182E+03  0.00000000000E+00 0.  1.
          1   -1    0    0  501    0  0.00000000000E+00 -0.00000000000E+00 -0.86559273478E+03  0.86559273478E+03  0.00000000000E+00 0. -1.
        -24    2    1    2    0    0 -0.40819397833E+03 -0.20630605082E+02  0.87204449113E+02  0.42538170270E+03  0.79353835681E+02 0.  0.
        254    2    1    2    0    0  0.40819397833E+03  0.20630605082E+02 -0.33379262206E+03  0.10592155939E+04  0.91840743355E+03 0.  0.
         23    2    4    4    0    0  0.66486550178E+03 -0.94567031047E+02 -0.10559346354E+03  0.68590685358E+03  0.91264305277E+02 0.  0.
         23    2    4    4    0    0 -0.25667152345E+03  0.11519763613E+03 -0.22819915852E+03  0.37330874032E+03  0.90187545322E+02 0.  0.
          3    1    3    3  502    0 -0.10074239466E+03 -0.45198111429E+01 -0.12847762447E+02  0.10165885979E+03  0.00000000000E+00 0. -1.
         -4    1    3    3    0  502 -0.30745158367E+03 -0.16110793940E+02  0.10005221156E+03  0.32372284291E+03  0.00000000000E+00 0.  1.
         11    1    5    5    0    0  0.34481633783E+03 -0.62633472240E+01 -0.70960033619E+02  0.35209780278E+03  0.00000000000E+00 0. -1.
        -11    1    5    5    0    0  0.32004916396E+03 -0.88303683823E+02 -0.34633429925E+02  0.33380905080E+03  0.00000000000E+00 0.  1.
          1    1    6    6  503    0 -0.14378067339E+03  0.19873729232E+02 -0.13751829957E+03  0.19994781787E+03  0.00000000000E+00 0. -1.
         -1    1    6    6    0  503 -0.11289085006E+03  0.95323906897E+02 -0.90680858948E+02  0.17336092245E+03  0.00000000000E+00 0.  1.
<mgrwt>
<rscale>  0 0.14639752E+04</rscale>
<asrwt>0</asrwt>
<pdfrwt beam="1">  1        1 0.13316811E+00 0.14639752E+04</pdfrwt>
<pdfrwt beam="2">  1       -2 0.95231471E-01 0.14639752E+04</pdfrwt>
<totfact> 0.15309669E+01</totfact>
</mgrwt>
</event>
<event>
12    4  0.4486176E-008  0.1342747E+04  0.7818608E-02  0.8996337E-01
         -2   -1    0    0    0  501 -0.00000000000E+00  0.00000000000E+00  0.20512487234E+03  0.20512487234E+03  0.00000000000E+00 0.  1.
          1   -1    0    0  501    0  0.00000000000E+00 -0.00000000000E+00 -0.21974048952E+04  0.21974048952E+04  0.00000000000E+00 0. -1.
        -24    2    1    2    0    0 -0.26400883037E+03 -0.21385603118E+03 -0.32412308431E+03  0.47824661476E+03  0.90713759493E+02 0.  0.
        254    2    1    2    0    0  0.26400883037E+03  0.21385603118E+03 -0.16681569386E+04  0.19242831528E+04  0.89704125651E+03 0.  0.
         23    2    4    4    0    0 -0.25597403497E+02 -0.11122212330E+03 -0.13951378510E+04  0.14027380542E+04  0.90768043812E+02 0.  0.
         23    2    4    4    0    0  0.28960623386E+03  0.32507815447E+03 -0.27301908761E+03  0.52154509860E+03  0.89007249483E+02 0.  0.
          3    1    3    3  502    0 -0.92810600398E+02 -0.83331632137E+02 -0.18068975962E+03  0.21956037368E+03  0.00000000000E+00 0. -1.
         -4    1    3    3    0  502 -0.17119822997E+03 -0.13052439904E+03 -0.14343332469E+03  0.25868624108E+03  0.00000000000E+00 0.  1.
         11    1    5    5    0    0 -0.13978808013E+02 -0.24559925408E+01 -0.29607094536E+02  0.32833199961E+02  0.00000000000E+00 0. -1.
        -11    1    5    5    0    0 -0.11618595484E+02 -0.10876613075E+03 -0.13655307564E+04  0.13699048542E+04  0.00000000000E+00 0.  1.
          1    1    6    6  503    0  0.21125864979E+03  0.17480759120E+03 -0.15438197981E+03  0.31467714684E+03  0.00000000000E+00 0. -1.
         -1    1    6    6    0  503  0.78347584070E+02  0.15027056327E+03 -0.11863710780E+03  0.20686795175E+03  0.00000000000E+00 0.  1.
<mgrwt>
<rscale>  0 0.13427470E+04</rscale>
<asrwt>0</asrwt>
<pdfrwt beam="1">  1        1 0.33806227E+00 0.13427470E+04</pdfrwt>
<pdfrwt beam="2">  1       -2 0.31557675E-01 0.13427470E+04</pdfrwt>
<totfact> 0.17576382E+01</totfact>
</mgrwt>
</event>
<event>
12    4  0.4486176E-008  0.1407175E+04  0.7818608E-02  0.8948641E-01
          1   -1    0    0  501    0  0.00000000000E+00  0.00000000000E+00  0.17919127578E+04  0.17919127578E+04  0.00000000000E+00 0. -1.
         -2   -1    0    0    0  501 -0.00000000000E+00 -0.00000000000E+00 -0.27626077654E+03  0.27626077654E+03  0.00000000000E+00 0.  1.
        -24    2    1    2    0    0 -0.12180711300E+03 -0.51654320359E+01 -0.11985279551E+03  0.18902935676E+03  0.80645834733E+02 0.  0.
        254    2    1    2    0    0  0.12180711300E+03  0.51654320359E+01  0.16355047768E+04  0.18791441776E+04  0.91730219167E+03 0.  0.
         23    2    4    4    0    0 -0.38005118460E+03  0.16656106862E+02  0.92578324334E+03  0.10052461656E+04  0.93428641609E+02 0.  0.
         23    2    4    4    0    0  0.50185829760E+03 -0.11490674826E+02  0.70972153341E+03  0.87389801193E+03  0.89438771159E+02 0.  0.
          1    1    3    3  502    0 -0.46969911171E+02 -0.21752013249E+02 -0.64675000066E+01  0.52164654625E+02  0.00000000000E+00 0. -1.
         -2    1    3    3    0  502 -0.74837201830E+02  0.16586581213E+02 -0.11338529550E+03  0.13686470214E+03  0.00000000000E+00 0.  1.
         11    1    5    5    0    0 -0.75692139853E+02 -0.31556762789E+02  0.16013092945E+03  0.17990843193E+03  0.00000000000E+00 0. -1.
        -11    1    5    5    0    0 -0.30435904475E+03  0.48212869651E+02  0.76565231388E+03  0.82533773370E+03  0.00000000000E+00 0.  1.
          2    1    6    6  503    0  0.77715638868E+02 -0.67056749510E+01  0.17321554584E+03  0.18996923941E+03  0.00000000000E+00 0. -1.
         -2    1    6    6    0  503  0.42414265873E+03 -0.47849998751E+01  0.53650598758E+03  0.68392877253E+03  0.00000000000E+00 0.  1.
<mgrwt>
<rscale>  0 0.14071748E+04</rscale>
<asrwt>0</asrwt>
<pdfrwt beam="1">  1        1 0.27567888E+00 0.14071748E+04</pdfrwt>
<pdfrwt beam="2">  1       -2 0.42501659E-01 0.14071748E+04</pdfrwt>
<totfact> 0.18526157E+01</totfact>
</mgrwt>
</event>
<event>
12    4  0.4486176E-008  0.3330371E+04  0.7818608E-02  0.8155210E-01
          1   -1    0    0  501    0  0.00000000000E+00  0.00000000000E+00  0.22342554700E+04  0.22342554700E+04  0.00000000000E+00 0. -1.
         -2   -1    0    0    0  501 -0.00000000000E+00 -0.00000000000E+00 -0.12410589164E+04  0.12410589164E+04  0.00000000000E+00 0.  1.
        -24    2    1    2    0    0  0.74046894492E+02  0.15100126350E+04  0.78238575759E+03  0.17039926590E+04  0.76435645078E+02 0.  0.
        254    2    1    2    0    0 -0.74046894492E+02 -0.15100126350E+04  0.21081079600E+03  0.17713217274E+04  0.89862025898E+03 0.  0.
         23    2    4    4    0    0  0.30400546398E+03 -0.10171166205E+04  0.36249826029E+03  0.11254539958E+04  0.91083292750E+02 0.  0.
         23    2    4    4    0    0 -0.37805235847E+03 -0.49289601447E+03 -0.15168746429E+03  0.64586773155E+03  0.90917396568E+02 0.  0.
          1    1    3    3  502    0  0.29390472363E+02  0.11897008631E+04  0.62865951235E+03  0.13459066558E+04  0.00000000000E+00 0. -1.
         -2    1    3    3    0  502  0.44656422129E+02  0.32031177186E+03  0.15372624524E+03  0.35808600322E+03  0.00000000000E+00 0.  1.
         11    1    5    5    0    0  0.46537945112E+02 -0.21010021084E+03  0.39030797885E+02  0.21870363992E+03  0.00000000000E+00 0. -1.
        -11    1    5    5    0    0  0.25746751887E+03 -0.80701640965E+03  0.32346746241E+03  0.90675035591E+03  0.00000000000E+00 0.  1.
          3    1    6    6  503    0 -0.13316351320E+03 -0.12511424668E+03 -0.74502943445E+02  0.19732405974E+03  0.00000000000E+00 0. -1.
         -3    1    6    6    0  503 -0.24488884527E+03 -0.36778176779E+03 -0.77184520849E+02  0.44854367181E+03  0.00000000000E+00 0.  1.
<mgrwt>
<rscale>  0 0.33303710E+04</rscale>
<asrwt>0</asrwt>
<pdfrwt beam="1">  1        1 0.34373161E+00 0.33303710E+04</pdfrwt>
<pdfrwt beam="2">  1       -2 0.19093214E+00 0.33303710E+04</pdfrwt>
<totfact> 0.22955786E-01</totfact>
</mgrwt>
</event>
<event>
12    4  0.4486176E-008  0.2359594E+04  0.7818608E-02  0.8454788E-01
         -2   -1    0    0    0  501 -0.00000000000E+00  0.00000000000E+00  0.20453583006E+04  0.20453583006E+04  0.00000000000E+00 0.  1.
          1   -1    0    0  501    0  0.00000000000E+00 -0.00000000000E+00 -0.68052645848E+03  0.68052645848E+03  0.00000000000E+00 0. -1.
        -24    2    1    2    0    0  0.65347703731E+03 -0.76265236334E+03  0.56761222167E+03  0.11568831899E+04  0.86742235196E+02 0.  0.
        254    2    1    2    0    0 -0.65347703731E+03  0.76265236334E+03  0.79721962041E+03  0.15690015691E+04  0.90417693794E+03 0.  0.
         23    2    4    4    0    0 -0.46241741957E+02  0.32591146478E+03 -0.13776666029E+03  0.36833374125E+03  0.91288064271E+02 0.  0.
         23    2    4    4    0    0 -0.60723529536E+03  0.43674089856E+03  0.93498628070E+03  0.12006678279E+04  0.89031294225E+02 0.  0.
          3    1    3    3  502    0  0.46216053619E+03 -0.53097654431E+03  0.35180685887E+03  0.78695394895E+03  0.00000000000E+00 0. -1.
         -4    1    3    3    0  502  0.19131650113E+03 -0.23167581903E+03  0.21580536280E+03  0.36992924099E+03  0.00000000000E+00 0.  1.
         11    1    5    5    0    0  0.16365213135E+02  0.45159930050E+02  0.29247093630E+01  0.48122691196E+02  0.00000000000E+00 0. -1.
        -11    1    5    5    0    0 -0.62606955091E+02  0.28075153473E+03 -0.14069136966E+03  0.32021105005E+03  0.00000000000E+00 0.  1.
          4    1    6    6  503    0 -0.49674978323E+03  0.37484393254E+03  0.82164931086E+03  0.10307162126E+04  0.00000000000E+00 0.  1.
         -4    1    6    6    0  503 -0.11048551213E+03  0.61896966017E+02  0.11333696984E+03  0.16995161525E+03  0.00000000000E+00 0. -1.
<mgrwt>
<rscale>  0 0.23595936E+04</rscale>
<asrwt>0</asrwt>
<pdfrwt beam="1">  1        1 0.10469638E+00 0.23595936E+04</pdfrwt>
<pdfrwt beam="2">  1       -2 0.31467051E+00 0.23595936E+04</pdfrwt>
<totfact> 0.57906096E-01</totfact>
</mgrwt>
</event>
<event>
12    4  0.4486176E-008  0.1745748E+04  0.7818608E-02  0.8735694E-01
         -2   -1    0    0    0  501 -0.00000000000E+00  0.00000000000E+00  0.75615938743E+03  0.75615938743E+03  0.00000000000E+00 0.  1.
          1   -1    0    0  501    0  0.00000000000E+00 -0.00000000000E+00 -0.10076036050E+04  0.10076036050E+04  0.00000000000E+00 0. -1.
        -24    2    1    2    0    0 -0.60609098377E+03  0.17679053848E+03 -0.16494802006E+03  0.65740046764E+03  0.79789413018E+02 0.  0.
        254    2    1    2    0    0  0.60609098377E+03 -0.17679053848E+03 -0.86496197494E+02  0.11063625248E+04  0.90440879527E+03 0.  0.
         23    2    4    4    0    0  0.95709133014E+02 -0.34411437500E+03 -0.34394083762E+03  0.50379012723E+03  0.89074414311E+02 0.  0.
         23    2    4    4    0    0  0.51038185075E+03  0.16732383652E+03  0.25744464012E+03  0.60257239756E+03  0.91262542828E+02 0.  0.
          1    1    3    3  502    0 -0.41285988345E+03  0.97490969971E+02 -0.78844933440E+02  0.43147919547E+03  0.00000000000E+00 0. -1.
         -2    1    3    3    0  502 -0.19323110031E+03  0.79299568511E+02 -0.86103086624E+02  0.22592127217E+03  0.00000000000E+00 0.  1.
         11    1    5    5    0    0  0.99857436195E+02 -0.27777037021E+03 -0.31377201557E+03  0.43079085863E+03  0.00000000000E+00 0.  1.
        -11    1    5    5    0    0 -0.41483031809E+01 -0.66344004790E+02 -0.30168822050E+02  0.72999268591E+02  0.00000000000E+00 0. -1.
          3    1    6    6  503    0  0.90852582595E+02  0.19358246412E+02  0.97425569982E+01  0.93401557189E+02  0.00000000000E+00 0. -1.
         -3    1    6    6    0  503  0.41952926816E+03  0.14796559010E+03  0.24770208313E+03  0.50917084037E+03  0.00000000000E+00 0.  1.
<mgrwt>
<rscale>  0 0.17457479E+04</rscale>
<asrwt>0</asrwt>
<pdfrwt beam="1">  1        1 0.15501594E+00 0.17457479E+04</pdfrwt>
<pdfrwt beam="2">  1       -2 0.11633221E+00 0.17457479E+04</pdfrwt>
<totfact> 0.71102962E+00</totfact>
</mgrwt>
</event>
<event>
12    4  0.4486176E-008  0.1117740E+04  0.7818608E-02  0.9188071E-01
          1   -1    0    0  501    0  0.00000000000E+00  0.00000000000E+00  0.63133979392E+03  0.63133979392E+03  0.00000000000E+00 0. -1.
         -2   -1    0    0    0  501 -0.00000000000E+00 -0.00000000000E+00 -0.49471923405E+03  0.49471923405E+03  0.00000000000E+00 0.  1.
        -24    2    1    2    0    0 -0.10942684300E+03  0.53161263232E+02  0.16108678329E+03  0.21723163271E+03  0.80251334085E+02 0.  0.
        254    2    1    2    0    0  0.10942684300E+03 -0.53161263232E+02 -0.24466223416E+02  0.90882739525E+03  0.90031565820E+03 0.  0.
         23    2    4    4    0    0 -0.18039839956E+03 -0.37078163121E+03 -0.15599723627E+03  0.45004850249E+03  0.90476053531E+02 0.  0.
         23    2    4    4    0    0  0.28982524256E+03  0.31762036798E+03  0.13153101286E+03  0.45877889276E+03  0.91084003653E+02 0.  0.
          3    1    3    3  502    0 -0.49233715513E+02  0.46993374872E+02  0.13530659165E+03  0.15146025805E+03  0.00000000000E+00 0. -1.
         -4    1    3    3    0  502 -0.60193127489E+02  0.61678883601E+01  0.25780191639E+02  0.65771374660E+02  0.00000000000E+00 0.  1.
         11    1    5    5    0    0 -0.13241462710E+02 -0.44261031825E-01  0.26794709342E+01  0.13509917032E+02  0.00000000000E+00 0.  1.
        -11    1    5    5    0    0 -0.16715693685E+03 -0.37073737018E+03 -0.15867670721E+03  0.43653858546E+03  0.00000000000E+00 0. -1.
          1    1    6    6  503    0  0.19703868660E+03  0.21014180023E+03  0.13180138226E+03  0.31678924317E+03  0.00000000000E+00 0. -1.
         -1    1    6    6    0  503  0.92786555955E+02  0.10747856775E+03 -0.27036940526E+00  0.14198964959E+03  0.00000000000E+00 0.  1.
<mgrwt>
<rscale>  0 0.11177405E+04</rscale>
<asrwt>0</asrwt>
<pdfrwt beam="1">  1        1 0.97129200E-01 0.11177405E+04</pdfrwt>
<pdfrwt beam="2">  1       -2 0.76110651E-01 0.11177405E+04</pdfrwt>
<totfact> 0.42833090E+01</totfact>
</mgrwt>
</event>
<event>
12    4  0.4486176E-008  0.1297379E+04  0.7818608E-02  0.9031646E-01
         -4   -1    0    0    0  501 -0.00000000000E+00  0.00000000000E+00  0.23428483618E+04  0.23428483618E+04  0.00000000000E+00 0.  1.
          3   -1    0    0  501    0  0.00000000000E+00 -0.00000000000E+00 -0.17960970382E+03  0.17960970382E+03  0.00000000000E+00 0. -1.
        -24    2    1    2    0    0  0.23316024403E+03 -0.94393219430E+02  0.15069377701E+03  0.30410552345E+03  0.80608781739E+02 0.  0.
        254    2    1    2    0    0 -0.23316024403E+03  0.94393219430E+02  0.20125448810E+04  0.22183525422E+04  0.89859742055E+03 0.  0.
         23    2    4    4    0    0  0.26547581248E+02  0.30145087841E+03  0.17658161073E+04  0.17938130641E+04  0.89896485157E+02 0.  0.
         23    2    4    4    0    0 -0.25970782528E+03 -0.20705765898E+03  0.24672877374E+03  0.42453947813E+03  0.95066566400E+02 0.  0.
          1    1    3    3  502    0  0.17538395935E+03 -0.10512783493E+03  0.10631166862E+03  0.23046380575E+03  0.00000000000E+00 0. -1.
         -2    1    3    3    0  502  0.57776284678E+02  0.10734615501E+02  0.44382108387E+02  0.73641717702E+02  0.00000000000E+00 0.  1.
         11    1    5    5    0    0  0.10517774914E+02  0.18094599897E+03  0.12919409728E+04  0.13045932529E+04  0.00000000000E+00 0. -1.
        -11    1    5    5    0    0  0.16029806335E+02  0.12050487944E+03  0.47387513445E+03  0.48921981124E+03  0.00000000000E+00 0.  1.
          4    1    6    6  503    0 -0.91279777744E+02 -0.41736590963E+02  0.12073922147E+03  0.15700923684E+03  0.00000000000E+00 0.  1.
         -4    1    6    6    0  503 -0.16842804753E+03 -0.16532106802E+03  0.12598955227E+03  0.26753024129E+03  0.00000000000E+00 0. -1.
<mgrwt>
<rscale>  0 0.12973794E+04</rscale>
<asrwt>0</asrwt>
<pdfrwt beam="1">  1        3 0.27632264E-01 0.12973794E+04</pdfrwt>
<pdfrwt beam="2">  1       -4 0.36043819E+00 0.12973794E+04</pdfrwt>
<totfact> 0.36578517E-01</totfact>
</mgrwt>
</event>
<event>
12    4  0.4486176E-008  0.1860367E+04  0.7818608E-02  0.8674840E-01
         -4   -1    0    0    0  501 -0.00000000000E+00  0.00000000000E+00  0.11670049484E+04  0.11670049484E+04  0.00000000000E+00 0.  1.
          1   -1    0    0  501    0  0.00000000000E+00 -0.00000000000E+00 -0.74142026377E+03  0.74142026377E+03  0.00000000000E+00 0. -1.
        -24    2    1    2    0    0  0.49269051183E+03 -0.23650120897E+03 -0.29228008106E+03  0.62502690814E+03  0.80958185636E+02 0.  0.
        254    2    1    2    0    0 -0.49269051183E+03  0.23650120897E+03  0.71786476566E+03  0.12833983040E+04  0.91274565059E+03 0.  0.
         23    2    4    4    0    0 -0.69431999883E+03  0.34844405979E+03  0.39587955239E+03  0.87674974389E+03  0.92065030478E+02 0.  0.
         23    2    4    4    0    0  0.20162948700E+03 -0.11194285082E+03  0.32198521326E+03  0.40664856011E+03  0.92211289989E+02 0.  0.
          1    1    3    3  502    0  0.86924540960E+02 -0.39486060491E+02 -0.88062572843E+02  0.12988472401E+03  0.00000000000E+00 0. -1.
         -2    1    3    3    0  502  0.40576597087E+03 -0.19701514847E+03 -0.20421750822E+03  0.49514218413E+03  0.00000000000E+00 0.  1.
         11    1    5    5    0    0 -0.38421681705E+03  0.14153176128E+03  0.21126962333E+03  0.46074793076E+03  0.00000000000E+00 0. -1.
        -11    1    5    5    0    0 -0.31010318178E+03  0.20691229851E+03  0.18460992906E+03  0.41600181313E+03  0.00000000000E+00 0.  1.
          1    1    6    6  503    0  0.62312513444E+02 -0.17900785437E+02  0.34020443468E+02  0.73216651281E+02  0.00000000000E+00 0. -1.
         -1    1    6    6    0  503  0.13931697356E+03 -0.94042065386E+02  0.28796476980E+03  0.33343190883E+03  0.00000000000E+00 0.  1.
<mgrwt>
<rscale>  0 0.18603668E+04</rscale>
<asrwt>0</asrwt>
<pdfrwt beam="1">  1        1 0.11406466E+00 0.18603668E+04</pdfrwt>
<pdfrwt beam="2">  1       -4 0.17953922E+00 0.18603668E+04</pdfrwt>
<totfact> 0.20411327E+00</totfact>
</mgrwt>
</event>
<event>
12    4  0.4486176E-008  0.1663084E+04  0.7818608E-02  0.8782703E-01
         -2   -1    0    0    0  501 -0.00000000000E+00  0.00000000000E+00  0.16040598633E+03  0.16040598633E+03  0.00000000000E+00 0.  1.
          1   -1    0    0  501    0  0.00000000000E+00 -0.00000000000E+00 -0.43107023328E+04  0.43107023328E+04  0.00000000000E+00 0. -1.
        -24    2    1    2    0    0  0.33577014317E+03 -0.31029516288E+03 -0.50557247215E+03  0.68602669569E+03  0.77488227811E+02 0.  0.
        254    2    1    2    0    0 -0.33577014317E+03  0.31029516288E+03 -0.36447238743E+04  0.37850816234E+04  0.91312983686E+03 0.  0.
         23    2    4    4    0    0 -0.33804495237E+03  0.15641384491E+03 -0.35719940790E+04  0.35922566630E+04  0.80165777551E+02 0.  0.
         23    2    4    4    0    0  0.22748091951E+01  0.15388131797E+03 -0.72729795305E+02  0.19282496041E+03  0.90593639155E+02 0.  0.
          3    1    3    3  502    0  0.68257424606E+02 -0.33595240530E+02 -0.11335289457E+03  0.13651591448E+03  0.00000000000E+00 0. -1.
         -4    1    3    3    0  502  0.26751271856E+03 -0.27669992235E+03 -0.39221957758E+03  0.54951078120E+03  0.00000000000E+00 0.  1.
         11    1    5    5    0    0 -0.12091011474E+03  0.16103764125E+02 -0.12331210454E+04  0.12391392576E+04  0.00000000000E+00 0.  1.
        -11    1    5    5    0    0 -0.21713483763E+03  0.14031008078E+03 -0.23388730336E+04  0.23531174054E+04  0.00000000000E+00 0. -1.
          1    1    6    6  503    0  0.48775357536E+01  0.10075098905E+03  0.22481285901E+01  0.10089403466E+03  0.00000000000E+00 0. -1.
         -1    1    6    6    0  503 -0.26027265585E+01  0.53130328927E+02 -0.74977923895E+02  0.91930925748E+02  0.00000000000E+00 0.  1.
<mgrwt>
<rscale>  0 0.16630844E+04</rscale>
<asrwt>0</asrwt>
<pdfrwt beam="1">  1        1 0.66318483E+00 0.16630844E+04</pdfrwt>
<pdfrwt beam="2">  1       -2 0.24677850E-01 0.16630844E+04</pdfrwt>
<totfact> 0.62401370E-01</totfact>
</mgrwt>
</event>
<event>
12    4  0.4486176E-008  0.3389656E+04  0.7818608E-02  0.8140450E-01
          1   -1    0    0  501    0  0.00000000000E+00  0.00000000000E+00  0.19896740776E+04  0.19896740776E+04  0.00000000000E+00 0. -1.
         -2   -1    0    0    0  501 -0.00000000000E+00 -0.00000000000E+00 -0.14436749420E+04  0.14436749420E+04  0.00000000000E+00 0.  1.
        -24    2    1    2    0    0  0.99678732644E+02 -0.15367767120E+04  0.61173530461E+03  0.16589785656E+04  0.79820335600E+02 0.  0.
        254    2    1    2    0    0 -0.99678732644E+02  0.15367767120E+04 -0.65736168949E+02  0.17743704540E+04  0.87889177484E+03 0.  0.
         23    2    4    4    0    0  0.27159635450E+03  0.84079432469E+03  0.24493901103E+03  0.92145249623E+03  0.91541834564E+02 0.  0.
         23    2    4    4    0    0 -0.37127508714E+03  0.69598238729E+03 -0.31067517998E+03  0.85291795777E+03  0.93345066710E+02 0.  0.
          3    1    3    3  502    0  0.10484723551E+03 -0.14990026623E+04  0.60670391563E+03  0.16205220041E+04  0.00000000000E+00 0. -1.
         -4    1    3    3    0  502 -0.51685028625E+01 -0.37774049631E+02  0.50313889865E+01  0.38456561501E+02  0.00000000000E+00 0.  1.
         11    1    5    5    0    0  0.23896711306E+03  0.76112376237E+03  0.24766535724E+03  0.83531598329E+03  0.00000000000E+00 0. -1.
        -11    1    5    5    0    0  0.32629241434E+02  0.79670562318E+02 -0.27263462091E+01  0.86136512933E+02  0.00000000000E+00 0.  1.
          1    1    6    6  503    0 -0.29151973486E+03  0.61260730663E+03 -0.27617039243E+03  0.73248996826E+03  0.00000000000E+00 0. -1.
         -1    1    6    6    0  503 -0.79755352283E+02  0.83375080656E+02 -0.34504787552E+02  0.12042798951E+03  0.00000000000E+00 0.  1.
<mgrwt>
<rscale>  0 0.33896564E+04</rscale>
<asrwt>0</asrwt>
<pdfrwt beam="1">  1        1 0.30610371E+00 0.33896564E+04</pdfrwt>
<pdfrwt beam="2">  1       -2 0.22210384E+00 0.33896564E+04</pdfrwt>
<totfact> 0.21015753E-01</totfact>
</mgrwt>
</event>
<event>
12    4  0.4486176E-008  0.2547540E+04  0.7818608E-02  0.8386242E-01
          1   -1    0    0  501    0  0.00000000000E+00  0.00000000000E+00  0.17512436561E+04  0.17512436561E+04  0.00000000000E+00 0. -1.
         -2   -1    0    0    0  501 -0.00000000000E+00 -0.00000000000E+00 -0.92647854948E+03  0.92647854948E+03  0.00000000000E+00 0.  1.
        -24    2    1    2    0    0 -0.46168795335E+03 -0.43253616470E+03 -0.60533408525E+03  0.87931667312E+03  0.80778442779E+02 0.  0.
        254    2    1    2    0    0  0.46168795335E+03  0.43253616470E+03  0.14300991918E+04  0.17984055324E+04  0.88816409549E+03 0.  0.
         23    2    4    4    0    0  0.14165414386E+03  0.60376127051E+03  0.52077417815E+03  0.81509073660E+03  0.92593714817E+02 0.  0.
         23    2    4    4    0    0  0.32003380948E+03 -0.17122510581E+03  0.90932501369E+03  0.98331479583E+03  0.91084197835E+02 0.  0.
          3    1    3    3  502    0 -0.14718937252E+03 -0.16350778036E+03 -0.25758897893E+03  0.33875003718E+03  0.00000000000E+00 0. -1.
         -4    1    3    3    0  502 -0.31449858082E+03 -0.26902838433E+03 -0.34774510632E+03  0.54056663594E+03  0.00000000000E+00 0.  1.
         11    1    5    5    0    0 -0.11828429127E+02  0.74429984082E+02  0.73920641904E+02  0.10556512476E+03  0.00000000000E+00 0. -1.
        -11    1    5    5    0    0  0.15348257299E+03  0.52933128642E+03  0.44685353625E+03  0.70952561184E+03  0.00000000000E+00 0.  1.
          1    1    6    6  503    0  0.15671554558E+03 -0.62192581394E+02  0.31348380932E+03  0.35594912293E+03  0.00000000000E+00 0. -1.
         -1    1    6    6    0  503  0.16331826390E+03 -0.10903252442E+03  0.59584120437E+03  0.62736567290E+03  0.00000000000E+00 0.  1.
<mgrwt>
<rscale>  0 0.25475397E+04</rscale>
<asrwt>0</asrwt>
<pdfrwt beam="1">  1        1 0.26942210E+00 0.25475397E+04</pdfrwt>
<pdfrwt beam="2">  1       -2 0.14253516E+00 0.25475397E+04</pdfrwt>
<totfact> 0.11715277E+00</totfact>
</mgrwt>
</event>
<event>
12    4  0.4486176E-008  0.2464249E+04  0.7818608E-02  0.8415834E-01
         -2   -1    0    0    0  501 -0.00000000000E+00  0.00000000000E+00  0.84537326877E+03  0.84537326877E+03  0.00000000000E+00 0.  1.
          1   -1    0    0  501    0  0.00000000000E+00 -0.00000000000E+00 -0.17958114416E+04  0.17958114416E+04  0.00000000000E+00 0. -1.
        -24    2    1    2    0    0 -0.26784556645E+02  0.10053825693E+04 -0.73926653314E+03  0.12509283407E+04  0.82432902673E+02 0.  0.
        254    2    1    2    0    0  0.26784556645E+02 -0.10053825693E+04 -0.21117163966E+03  0.13902563697E+04  0.93632675329E+03 0.  0.
         23    2    4    4    0    0 -0.14501791790E+03 -0.40994417577E+03  0.33633300537E+03  0.55714709816E+03  0.90601185008E+02 0.  0.
         23    2    4    4    0    0  0.17180247454E+03 -0.59543839349E+03 -0.54750464503E+03  0.83310927149E+03  0.10122623780E+03 0.  0.
          3    1    3    3  502    0 -0.29169235277E+02  0.93592582516E+03 -0.71176243735E+03  0.11761861084E+04  0.00000000000E+00 0. -1.
         -4    1    3    3    0  502  0.23846786322E+01  0.69456744102E+02 -0.27504095791E+02  0.74742232230E+02  0.00000000000E+00 0.  1.
         11    1    5    5    0    0 -0.67183847204E+00 -0.12168845100E+03  0.86696358366E+02  0.14941482198E+03  0.00000000000E+00 0. -1.
        -11    1    5    5    0    0 -0.14434607943E+03 -0.28825572477E+03  0.24963664701E+03  0.40773227618E+03  0.00000000000E+00 0.  1.
          2    1    6    6  503    0  0.16287743984E+03 -0.55812926149E+03 -0.54104303250E+03  0.79420708632E+03  0.00000000000E+00 0.  1.
         -2    1    6    6    0  503  0.89250347007E+01 -0.37309131994E+02 -0.64616125280E+01  0.38902185171E+02  0.00000000000E+00 0. -1.
<mgrwt>
<rscale>  0 0.24642492E+04</rscale>
<asrwt>0</asrwt>
<pdfrwt beam="1">  1        1 0.27627868E+00 0.24642492E+04</pdfrwt>
<pdfrwt beam="2">  1       -2 0.13005743E+00 0.24642492E+04</pdfrwt>
<totfact> 0.13927692E+00</totfact>
</mgrwt>
</event>
<event>
12    4  0.4486176E-008  0.1439179E+04  0.7818608E-02  0.8925937E-01
          1   -1    0    0  501    0  0.00000000000E+00  0.00000000000E+00  0.25294585942E+04  0.25294585942E+04  0.00000000000E+00 0. -1.
         -2   -1    0    0    0  501 -0.00000000000E+00 -0.00000000000E+00 -0.20471142679E+03  0.20471142679E+03  0.00000000000E+00 0.  1.
        -24    2    1    2    0    0 -0.23942945556E+02 -0.62801198480E+02  0.15718359090E+04  0.15753089830E+04  0.80081282538E+02 0.  0.
        254    2    1    2    0    0  0.23942945556E+02  0.62801198480E+02  0.75291125844E+03  0.11588610381E+04  0.87838846035E+03 0.  0.
         23    2    4    4    0    0  0.23661688607E+03  0.97000151185E+02  0.85862393303E+03  0.90059916772E+03  0.91908772321E+02 0.  0.
         23    2    4    4    0    0 -0.21267394051E+03 -0.34198952706E+02 -0.10571267458E+03  0.25826187034E+03  0.95520944125E+02 0.  0.
          1    1    3    3  502    0  0.25524700100E+02 -0.31526079860E+02  0.90541001246E+03  0.90631820830E+03  0.00000000000E+00 0. -1.
         -2    1    3    3    0  502 -0.49467645656E+02 -0.31275118619E+02  0.66642589653E+03  0.66899077466E+03  0.00000000000E+00 0.  1.
         11    1    5    5    0    0  0.15442913283E+03  0.56352706575E+02  0.39237161359E+03  0.42541681649E+03  0.00000000000E+00 0. -1.
        -11    1    5    5    0    0  0.82187753236E+02  0.40647444610E+02  0.46625231944E+03  0.47518235123E+03  0.00000000000E+00 0.  1.
          3    1    6    6  503    0 -0.53254923221E+02 -0.11121555236E+02  0.15614884126E+02  0.56600357282E+02  0.00000000000E+00 0. -1.
         -3    1    6    6    0  503 -0.15941901729E+03 -0.23077397470E+02 -0.12132755871E+03  0.20166151306E+03  0.00000000000E+00 0.  1.
<mgrwt>
<rscale>  0 0.14391790E+04</rscale>
<asrwt>0</asrwt>
<pdfrwt beam="1">  1        1 0.38914745E+00 0.14391790E+04</pdfrwt>
<pdfrwt beam="2">  1       -2 0.31494067E-01 0.14391790E+04</pdfrwt>
<totfact> 0.10360332E+01</totfact>
</mgrwt>
</event>
<event>
12    4  0.4486176E-008  0.3347973E+04  0.7818608E-02  0.8150795E-01
          1   -1    0    0  501    0  0.00000000000E+00  0.00000000000E+00  0.23007711865E+04  0.23007711865E+04  0.00000000000E+00 0. -1.
         -2   -1    0    0    0  501 -0.00000000000E+00 -0.00000000000E+00 -0.12179530065E+04  0.12179530065E+04  0.00000000000E+00 0.  1.
        -24    2    1    2    0    0  0.11836926741E+04  0.84119801341E+03 -0.26642210117E+02  0.14561401533E+04  0.10436423775E+03 0.  0.
        254    2    1    2    0    0 -0.11836926741E+04 -0.84119801341E+03  0.11094603900E+04  0.20625840397E+04  0.95635146232E+03 0.  0.
         23    2    4    4    0    0 -0.10097459776E+04 -0.98284022242E+03  0.67529399249E+03  0.15651378805E+04  0.89848575614E+02 0.  0.
         23    2    4    4    0    0 -0.17394669651E+03  0.14164220901E+03  0.43416639755E+03  0.49744615927E+03  0.92909913466E+02 0.  0.
          1    1    3    3  502    0  0.10634036040E+04  0.78229336018E+03 -0.31555170263E+01  0.13201591130E+04  0.00000000000E+00 0. -1.
         -2    1    3    3    0  502  0.12028907008E+03  0.58904653234E+02 -0.23486693091E+02  0.13598104024E+03  0.00000000000E+00 0.  1.
         11    1    5    5    0    0 -0.92900716669E+03 -0.92368760357E+03  0.60618071599E+03  0.14435055127E+04  0.00000000000E+00 0. -1.
        -11    1    5    5    0    0 -0.80738810894E+02 -0.59152618846E+02  0.69113276504E+02  0.12163236777E+03  0.00000000000E+00 0.  1.
          3    1    6    6  503    0 -0.18528748243E+03  0.13197558726E+03  0.39979990062E+03  0.45998800779E+03  0.00000000000E+00 0. -1.
         -3    1    6    6    0  503  0.11340785924E+02  0.96666217493E+01  0.34366496928E+02  0.37458151483E+02  0.00000000000E+00 0.  1.
<mgrwt>
<rscale>  0 0.33479732E+04</rscale>
<asrwt>0</asrwt>
<pdfrwt beam="1">  1        1 0.35396480E+00 0.33479732E+04</pdfrwt>
<pdfrwt beam="2">  1       -2 0.18737739E+00 0.33479732E+04</pdfrwt>
<totfact> 0.21811928E-01</totfact>
</mgrwt>
</event>
<event>
12    4  0.4486176E-008  0.1433186E+04  0.7818608E-02  0.8930141E-01
         -2   -1    0    0    0  501 -0.00000000000E+00  0.00000000000E+00  0.10099770735E+04  0.10099770735E+04  0.00000000000E+00 0.  1.
          1   -1    0    0  501    0  0.00000000000E+00 -0.00000000000E+00 -0.50843320159E+03  0.50843320159E+03  0.00000000000E+00 0. -1.
        -24    2    1    2    0    0  0.27456039625E+03 -0.26266700900E+03 -0.65816548096E+02  0.39360372590E+03  0.78833408106E+02 0.  0.
        254    2    1    2    0    0 -0.27456039625E+03  0.26266700900E+03  0.56736042002E+03  0.11248065492E+04  0.89382020459E+03 0.  0.
         23    2    4    4    0    0 -0.13643597943E+03  0.12852572054E+01 -0.22249142483E+03  0.27680195620E+03  0.92197941764E+02 0.  0.
         23    2    4    4    0    0 -0.13812441682E+03  0.26138175180E+03  0.78985184485E+03  0.84800459301E+03  0.88583735829E+02 0.  0.
          1    1    3    3  502    0  0.14753226831E+03 -0.14016040616E+03  0.47242769937E+01  0.20355104628E+03  0.00000000000E+00 0. -1.
         -2    1    3    3    0  502  0.12702812793E+03 -0.12250660284E+03 -0.70540825090E+02  0.19005267962E+03  0.00000000000E+00 0.  1.
         11    1    5    5    0    0  0.11198066621E+01  0.14275123760E+02  0.66519378542E+00  0.14334420396E+02  0.00000000000E+00 0. -1.
        -11    1    5    5    0    0 -0.13755578609E+03 -0.12989866554E+02 -0.22315661862E+03  0.26246753580E+03  0.00000000000E+00 0.  1.
          1    1    6    6  503    0 -0.13721512427E+03  0.24310390619E+03  0.65626218476E+03  0.71316726978E+03  0.00000000000E+00 0.  1.
         -1    1    6    6    0  503 -0.90929254770E+00  0.18277845605E+02  0.13358966009E+03  0.13483732323E+03  0.00000000000E+00 0. -1.
<mgrwt>
<rscale>  0 0.14331865E+04</rscale>
<asrwt>0</asrwt>
<pdfrwt beam="1">  1        1 0.78220492E-01 0.14331865E+04</pdfrwt>
<pdfrwt beam="2">  1       -2 0.15538109E+00 0.14331865E+04</pdfrwt>
<totfact> 0.10036466E+01</totfact>
</mgrwt>
</event>
<event>
12    4  0.4486176E-008  0.1092345E+04  0.7818608E-02  0.9212686E-01
         -2   -1    0    0    0  501 -0.00000000000E+00  0.00000000000E+00  0.21968862267E+03  0.21968862267E+03  0.00000000000E+00 0.  1.
          1   -1    0    0  501    0  0.00000000000E+00 -0.00000000000E+00 -0.13578500573E+04  0.13578500573E+04  0.00000000000E+00 0. -1.
        -24    2    1    2    0    0 -0.16681714473E+01  0.78829525611E+02 -0.37637256788E+03  0.39343337878E+03  0.83166319986E+02 0.  0.
        254    2    1    2    0    0  0.16681714473E+01 -0.78829525611E+02 -0.76178886673E+03  0.11841053012E+04  0.90308704446E+03 0.  0.
         23    2    4    4    0    0 -0.35055858037E+03 -0.74187082930E+02 -0.73233395486E+03  0.82031244341E+03  0.90578373957E+02 0.  0.
         23    2    4    4    0    0  0.35222675182E+03 -0.46424426810E+01 -0.29454911875E+02  0.36379285776E+03  0.85979151859E+02 0.  0.
          3    1    3    3  502    0  0.14943133038E+02  0.40155599002E+02 -0.32116754017E+03  0.32401289822E+03  0.00000000000E+00 0. -1.
         -4    1    3    3    0  502 -0.16611304485E+02  0.38673926609E+02 -0.55205027714E+02  0.69420480559E+02  0.00000000000E+00 0.  1.
         11    1    5    5    0    0 -0.55040911026E+01 -0.19452407477E+02 -0.41366121772E+02  0.46041798466E+02  0.00000000000E+00 0. -1.
        -11    1    5    5    0    0 -0.34505448927E+03 -0.54734675453E+02 -0.69096783308E+03  0.77427064494E+03  0.00000000000E+00 0.  1.
          1    1    6    6  503    0  0.17969412831E+02  0.55861000815E+01 -0.22466412762E+02  0.29306040572E+02  0.00000000000E+00 0. -1.
         -1    1    6    6    0  503  0.33425733899E+03 -0.10228542762E+02 -0.69884991124E+01  0.33448681719E+03  0.00000000000E+00 0.  1.
<mgrwt>
<rscale>  0 0.10923447E+04</rscale>
<asrwt>0</asrwt>
<pdfrwt beam="1">  1        1 0.20890001E+00 0.10923447E+04</pdfrwt>
<pdfrwt beam="2">  1       -2 0.33798249E-01 0.10923447E+04</pdfrwt>
<totfact> 0.58909294E+01</totfact>
</mgrwt>
</event>
<event>
12    4  0.4486176E-008  0.1308858E+04  0.7818608E-02  0.9022570E-01
         -2   -1    0    0    0  501 -0.00000000000E+00  0.00000000000E+00  0.59163170417E+03  0.59163170417E+03  0.00000000000E+00 0.  1.
          1   -1    0    0  501    0  0.00000000000E+00 -0.00000000000E+00 -0.72389210853E+03  0.72389210853E+03  0.00000000000E+00 0. -1.
        -24    2    1    2    0    0 -0.21895401517E+03 -0.19615452072E+03 -0.19916156026E+03  0.36825506213E+03  0.97616632502E+02 0.  0.
        254    2    1    2    0    0  0.21895401517E+03  0.19615452072E+03  0.66901155896E+02  0.94726875056E+03  0.89801161706E+03 0.  0.
         23    2    4    4    0    0 -0.35769646184E+02  0.45264919784E+03 -0.18549427125E+03  0.49933570175E+03  0.93580203481E+02 0.  0.
         23    2    4    4    0    0  0.25472366135E+03 -0.25649467712E+03  0.25239542714E+03  0.44793304881E+03  0.79163764002E+02 0.  0.
          1    1    3    3  502    0 -0.13830233305E+03 -0.17847122467E+03 -0.12992000159E+03  0.26049706366E+03  0.00000000000E+00 0. -1.
         -2    1    3    3    0  502 -0.80651682116E+02 -0.17683296056E+02 -0.69241558669E+02  0.10775799847E+03  0.00000000000E+00 0.  1.
         11    1    5    5    0    0 -0.65440561934E+02  0.24673770005E+03 -0.11107353180E+03  0.27838694157E+03  0.00000000000E+00 0.  1.
        -11    1    5    5    0    0  0.29670915750E+02  0.20591149780E+03 -0.74420739445E+02  0.22094876018E+03  0.00000000000E+00 0. -1.
          2    1    6    6  503    0  0.25769120469E+03 -0.24307292357E+03  0.23241688446E+03  0.42368244161E+03  0.00000000000E+00 0. -1.
         -2    1    6    6    0  503 -0.29675433380E+01 -0.13421753547E+02  0.19978542683E+02  0.24250607198E+02  0.00000000000E+00 0.  1.
<mgrwt>
<rscale>  0 0.13088583E+04</rscale>
<asrwt>0</asrwt>
<pdfrwt beam="1">  1        1 0.11136802E+00 0.13088583E+04</pdfrwt>
<pdfrwt beam="2">  1       -2 0.91020262E-01 0.13088583E+04</pdfrwt>
<totfact> 0.22915054E+01</totfact>
</mgrwt>
</event>
<event>
12    4  0.4486176E-008  0.2065633E+04  0.7818608E-02  0.8576535E-01
          1   -1    0    0  501    0  0.00000000000E+00  0.00000000000E+00  0.13999715660E+04  0.13999715660E+04  0.00000000000E+00 0. -1.
         -2   -1    0    0    0  501 -0.00000000000E+00 -0.00000000000E+00 -0.76195101593E+03  0.76195101593E+03  0.00000000000E+00 0.  1.
        -24    2    1    2    0    0 -0.41971933163E+03 -0.57471058621E+03 -0.22277761682E+03  0.75034882489E+03  0.83288157698E+02 0.  0.
        254    2    1    2    0    0  0.41971933163E+03  0.57471058621E+03  0.86079816688E+03  0.14115737570E+04  0.86319778276E+03 0.  0.
         23    2    4    4    0    0 -0.31990946277E+02  0.61171684368E+03  0.31080472163E+03  0.69299153572E+03  0.91742989466E+02 0.  0.
         23    2    4    4    0    0  0.45171027791E+03 -0.37006257465E+02  0.54999344525E+03  0.71858222130E+03  0.91956406475E+02 0.  0.
          1    1    3    3  502    0 -0.83525714316E+02 -0.81032510506E+02 -0.12099037662E+02  0.11700085223E+03  0.00000000000E+00 0. -1.
         -2    1    3    3    0  502 -0.33619361732E+03 -0.49367807571E+03 -0.21067857915E+03  0.63334797266E+03  0.00000000000E+00 0.  1.
         11    1    5    5    0    0 -0.18401084469E+02  0.31569570766E+03  0.10908715371E+03  0.33451814128E+03  0.00000000000E+00 0. -1.
        -11    1    5    5    0    0 -0.13589861808E+02  0.29602113602E+03  0.20171756792E+03  0.35847339444E+03  0.00000000000E+00 0.  1.
          1    1    6    6  503    0  0.18073500686E+03  0.16503361449E+02  0.26959614378E+03  0.32499166818E+03  0.00000000000E+00 0. -1.
         -1    1    6    6    0  503  0.27097527105E+03 -0.53509618914E+02  0.28039730147E+03  0.39359055312E+03  0.00000000000E+00 0.  1.
<mgrwt>
<rscale>  0 0.20656328E+04</rscale>
<asrwt>0</asrwt>
<pdfrwt beam="1">  1        1 0.21538024E+00 0.20656328E+04</pdfrwt>
<pdfrwt beam="2">  1       -2 0.11722323E+00 0.20656328E+04</pdfrwt>
<totfact> 0.34996335E+00</totfact>
</mgrwt>
</event>
<event>
12    4  0.4486176E-008  0.1613786E+04  0.7818608E-02  0.8812123E-01
          1   -1    0    0  501    0  0.00000000000E+00  0.00000000000E+00  0.14559141650E+04  0.14559141650E+04  0.00000000000E+00 0. -1.
         -4   -1    0    0    0  501 -0.00000000000E+00 -0.00000000000E+00 -0.44719435095E+03  0.44719435095E+03  0.00000000000E+00 0.  1.
        -24    2    1    2    0    0  0.28994021274E+03  0.40520732068E+03  0.42194195193E+02  0.50317482900E+03  0.56091521011E+02 0.  0.
        254    2    1    2    0    0 -0.28994021274E+03 -0.40520732068E+03  0.96652561890E+03  0.13999336870E+04  0.88169396976E+03 0.  0.
         23    2    4    4    0    0  0.15458797856E+03 -0.42976629971E+03  0.19710239880E+03  0.50598585004E+03  0.92605665863E+02 0.  0.
         23    2    4    4    0    0 -0.44452819130E+03  0.24558979024E+02  0.76942322010E+03  0.89394783696E+03  0.94457330393E+02 0.  0.
          1    1    3    3  502    0  0.98436392685E+02  0.12626982234E+03  0.39105166825E+02  0.16481203085E+03  0.00000000000E+00 0. -1.
         -2    1    3    3    0  502  0.19150382005E+03  0.27893749834E+03  0.30890283679E+01  0.33836279815E+03  0.00000000000E+00 0.  1.
         11    1    5    5    0    0  0.52049852246E+02 -0.14829389598E+03  0.21185287150E+02  0.15858462440E+03  0.00000000000E+00 0. -1.
        -11    1    5    5    0    0  0.10253812631E+03 -0.28147240373E+03  0.17591711165E+03  0.34740122565E+03  0.00000000000E+00 0.  1.
          4    1    6    6  503    0 -0.41992757597E+03  0.89962727993E+01  0.74779915615E+03  0.85768507037E+03  0.00000000000E+00 0. -1.
         -4    1    6    6    0  503 -0.24600615322E+02  0.15562706225E+02  0.21624063949E+02  0.36262766592E+02  0.00000000000E+00 0.  1.
<mgrwt>
<rscale>  0 0.16137863E+04</rscale>
<asrwt>0</asrwt>
<pdfrwt beam="1">  1        1 0.22398679E+00 0.16137863E+04</pdfrwt>
<pdfrwt beam="2">  1       -4 0.68799132E-01 0.16137863E+04</pdfrwt>
<totfact> 0.64183499E+00</totfact>
</mgrwt>
</event>
<event>
12    4  0.4486176E-008  0.1808723E+04  0.7818608E-02  0.8701674E-01
          3   -1    0    0  501    0  0.00000000000E+00  0.00000000000E+00  0.73660800448E+03  0.73660800448E+03  0.00000000000E+00 0. -1.
         -4   -1    0    0    0  501 -0.00000000000E+00 -0.00000000000E+00 -0.11103190425E+04  0.11103190425E+04  0.00000000000E+00 0.  1.
        -24    2    1    2    0    0 -0.65933372331E+03 -0.10955861602E+03 -0.26406728169E+03  0.72288641534E+03  0.78161315138E+02 0.  0.
        254    2    1    2    0    0  0.65933372331E+03  0.10955861602E+03 -0.10964375630E+03  0.11240406316E+04  0.89706272869E+03 0.  0.
         23    2    4    4    0    0  0.84473673462E+03 -0.23905828749E+02  0.11669976745E+02  0.85003273922E+03  0.90927608137E+02 0.  0.
         23    2    4    4    0    0 -0.18540301131E+03  0.13346444477E+03 -0.12131373304E+03  0.27400789240E+03  0.90422722014E+02 0.  0.
          1    1    3    3  502    0 -0.45495735046E+02  0.12233867934E+02 -0.19643164076E+02  0.51042955703E+02  0.00000000000E+00 0. -1.
         -2    1    3    3    0  502 -0.61383798826E+03 -0.12179248395E+03 -0.24442411762E+03  0.67184345964E+03  0.00000000000E+00 0.  1.
         11    1    5    5    0    0  0.25737209455E+03 -0.46271775556E+02  0.19104003263E+02  0.26219541416E+03  0.00000000000E+00 0. -1.
        -11    1    5    5    0    0  0.58736464006E+03  0.22365946807E+02 -0.74340265180E+01  0.58783732505E+03  0.00000000000E+00 0.  1.
          4    1    6    6  503    0 -0.62453820892E+02  0.24035153596E+02 -0.80017972582E+02  0.10431224419E+03  0.00000000000E+00 0. -1.
         -4    1    6    6    0  503 -0.12294919042E+03  0.10942929117E+03 -0.41295760461E+02  0.16969564821E+03  0.00000000000E+00 0.  1.
<mgrwt>
<rscale>  0 0.18087232E+04</rscale>
<asrwt>0</asrwt>
<pdfrwt beam="1">  1        3 0.11332431E+00 0.18087232E+04</pdfrwt>
<pdfrwt beam="2">  1       -4 0.17081831E+00 0.18087232E+04</pdfrwt>
<totfact> 0.29285042E-01</totfact>
</mgrwt>
</event>
<event>
12    4  0.4486176E-008  0.2253687E+04  0.7818608E-02  0.8496409E-01
          1   -1    0    0  501    0  0.00000000000E+00  0.00000000000E+00  0.16533653233E+04  0.16533653233E+04  0.00000000000E+00 0. -1.
         -2   -1    0    0    0  501 -0.00000000000E+00 -0.00000000000E+00 -0.76799508088E+03  0.76799508088E+03  0.00000000000E+00 0.  1.
        -24    2    1    2    0    0  0.65322418824E+02  0.67243075943E+03 -0.34155041469E+03  0.76119876962E+03  0.79603620902E+02 0.  0.
        254    2    1    2    0    0 -0.65322418824E+02 -0.67243075943E+03  0.12269206571E+04  0.16601616346E+04  0.89127560802E+03 0.  0.
         23    2    4    4    0    0  0.10985209650E+02 -0.35557175477E+03 -0.20736512947E+02  0.36751737441E+03  0.89928137456E+02 0.  0.
         23    2    4    4    0    0 -0.76307628474E+02 -0.31685900466E+03  0.12476571701E+04  0.12926442602E+04  0.89767958228E+02 0.  0.
          1    1    3    3  502    0 -0.18034421347E+02  0.17174894316E+03 -0.87727600876E+02  0.19369840419E+03  0.00000000000E+00 0. -1.
         -2    1    3    3    0  502  0.83356840171E+02  0.50068181627E+03 -0.25382281381E+03  0.56750036542E+03  0.00000000000E+00 0.  1.
         11    1    5    5    0    0 -0.27879104836E+02 -0.11899890545E+03  0.21453030405E+02  0.12408955032E+03  0.00000000000E+00 0.  1.
        -11    1    5    5    0    0  0.38864314486E+02 -0.23657284932E+03 -0.42189543351E+02  0.24342782409E+03  0.00000000000E+00 0. -1.
          3    1    6    6  503    0 -0.80572140527E+02 -0.28719479354E+03  0.10106132462E+04  0.10537133636E+04  0.00000000000E+00 0. -1.
         -3    1    6    6    0  503  0.42645120529E+01 -0.29664211126E+02  0.23704392391E+03  0.23893089660E+03  0.00000000000E+00 0.  1.
<mgrwt>
<rscale>  0 0.22536871E+04</rscale>
<asrwt>0</asrwt>
<pdfrwt beam="1">  1        1 0.25436390E+00 0.22536871E+04</pdfrwt>
<pdfrwt beam="2">  1       -2 0.11815309E+00 0.22536871E+04</pdfrwt>
<totfact> 0.22556103E+00</totfact>
</mgrwt>
</event>
<event>
12    4  0.4486176E-008  0.1800730E+04  0.7818608E-02  0.8705912E-01
         -2   -1    0    0    0  501 -0.00000000000E+00  0.00000000000E+00  0.16434008566E+04  0.16434008566E+04  0.00000000000E+00 0.  1.
          1   -1    0    0  501    0  0.00000000000E+00 -0.00000000000E+00 -0.49328002363E+03  0.49328002363E+03  0.00000000000E+00 0. -1.
        -24    2    1    2    0    0  0.63643273376E+03  0.10845816422E+02  0.18961887272E+03  0.67036614359E+03  0.90946100760E+02 0.  0.
        254    2    1    2    0    0 -0.63643273376E+03 -0.10845816422E+02  0.96050196028E+03  0.14663147367E+04  0.90683550598E+03 0.  0.
         23    2    4    4    0    0 -0.83070410802E+03  0.12828486542E+03  0.66372203881E+03  0.10744183438E+04  0.85565827983E+02 0.  0.
         23    2    4    4    0    0  0.19427137426E+03 -0.13913068184E+03  0.29677992146E+03  0.39189639286E+03  0.91682863540E+02 0.  0.
          1    1    3    3  502    0  0.53506205406E+03 -0.45186350813E+01  0.19007027385E+03  0.56783670959E+03  0.00000000000E+00 0. -1.
         -2    1    3    3    0  502  0.10137067971E+03  0.15364451503E+02 -0.45140113064E+00  0.10252943400E+03  0.00000000000E+00 0.  1.
         11    1    5    5    0    0 -0.77296258332E+03  0.13353151649E+03  0.59524176470E+03  0.98469009315E+03  0.00000000000E+00 0.  1.
        -11    1    5    5    0    0 -0.57741524702E+02 -0.52466510767E+01  0.68480274116E+02  0.89728250654E+02  0.00000000000E+00 0. -1.
          4    1    6    6  503    0  0.47328835808E+02  0.79570101064E+01  0.53170428172E+02  0.71627000083E+02  0.00000000000E+00 0. -1.
         -4    1    6    6    0  503  0.14694253845E+03 -0.14708769194E+03  0.24360949329E+03  0.32026939278E+03  0.00000000000E+00 0.  1.
<mgrwt>
<rscale>  0 0.18007296E+04</rscale>
<asrwt>0</asrwt>
<pdfrwt beam="1">  1        1 0.75889235E-01 0.18007296E+04</pdfrwt>
<pdfrwt beam="2">  1       -2 0.25283090E+00 0.18007296E+04</pdfrwt>
<totfact> 0.23018742E+00</totfact>
</mgrwt>
</event>
<event>
12    4  0.4486176E-008  0.1678462E+04  0.7818608E-02  0.8773744E-01
          1   -1    0    0  501    0  0.00000000000E+00  0.00000000000E+00  0.15952924429E+04  0.15952924429E+04  0.00000000000E+00 0. -1.
         -2   -1    0    0    0  501 -0.00000000000E+00 -0.00000000000E+00 -0.44149210029E+03  0.44149210029E+03  0.00000000000E+00 0.  1.
        -24    2    1    2    0    0 -0.36262461972E+02 -0.47036545522E+02 -0.30299643143E+03  0.31888771417E+03  0.79719094486E+02 0.  0.
        254    2    1    2    0    0  0.36262461972E+02  0.47036545522E+02  0.14567967740E+04  0.17178968290E+04  0.90850716647E+03 0.  0.
         23    2    4    4    0    0  0.32697056763E+03  0.12801073145E+03  0.13297804062E+04  0.13779498342E+04  0.84458969754E+02 0.  0.
         23    2    4    4    0    0 -0.29070810565E+03 -0.80974185928E+02  0.12701636781E+03  0.33994699473E+03  0.91448237014E+02 0.  0.
          3    1    3    3  502    0 -0.21878955264E+02  0.15179713374E+02 -0.38634422651E+02  0.46922606441E+02  0.00000000000E+00 0. -1.
         -4    1    3    3    0  502 -0.14383506708E+02 -0.62216258896E+02 -0.26436200878E+03  0.27196510773E+03  0.00000000000E+00 0.  1.
         11    1    5    5    0    0  0.21481388933E+03  0.80701191275E+02  0.70447983186E+03  0.74091127864E+03  0.00000000000E+00 0. -1.
        -11    1    5    5    0    0  0.11215667830E+03  0.47309540174E+02  0.62530057432E+03  0.63703855560E+03  0.00000000000E+00 0.  1.
          2    1    6    6  503    0 -0.10855658803E+03 -0.42862581124E+02  0.38335192183E+01  0.11677512378E+03  0.00000000000E+00 0.  1.
         -2    1    6    6    0  503 -0.18215151763E+03 -0.38111604805E+02  0.12318284859E+03  0.22317187094E+03  0.00000000000E+00 0. -1.
<mgrwt>
<rscale>  0 0.16784624E+04</rscale>
<asrwt>0</asrwt>
<pdfrwt beam="1">  1        1 0.24542960E+00 0.16784624E+04</pdfrwt>
<pdfrwt beam="2">  1       -2 0.67921862E-01 0.16784624E+04</pdfrwt>
<totfact> 0.93371153E+00</totfact>
</mgrwt>
</event>
<event>
12    4  0.4486176E-008  0.2344596E+04  0.7818608E-02  0.8460542E-01
         -2   -1    0    0    0  501 -0.00000000000E+00  0.00000000000E+00  0.47908604050E+03  0.47908604050E+03  0.00000000000E+00 0.  1.
          1   -1    0    0  501    0  0.00000000000E+00 -0.00000000000E+00 -0.28685515233E+04  0.28685515233E+04  0.00000000000E+00 0. -1.
        -24    2    1    2    0    0 -0.53272771111E+03 -0.72398503675E+03 -0.39989671135E+03  0.98702403624E+03  0.79661287581E+02 0.  0.
        254    2    1    2    0    0  0.53272771111E+03  0.72398503675E+03 -0.19895687715E+04  0.23606135276E+04  0.89786367703E+03 0.  0.
         23    2    4    4    0    0  0.29947175559E+03  0.19605556410E+03 -0.99766982331E+02  0.38237506593E+03  0.90200463812E+02 0.  0.
         23    2    4    4    0    0  0.23325595552E+03  0.52792947265E+03 -0.18898017891E+04  0.19782384616E+04  0.94650620852E+02 0.  0.
          1    1    3    3  502    0 -0.38056550067E+03 -0.55369697428E+03 -0.26835033218E+03  0.72347932963E+03  0.00000000000E+00 0. -1.
         -2    1    3    3    0  502 -0.15216221044E+03 -0.17028806247E+03 -0.13154637917E+03  0.26354470661E+03  0.00000000000E+00 0.  1.
         11    1    5    5    0    0  0.19679198585E+03  0.97278279383E+02 -0.23523227560E+02  0.22077928247E+03  0.00000000000E+00 0.  1.
        -11    1    5    5    0    0  0.10267976974E+03  0.98777284719E+02 -0.76243754771E+02  0.16159578346E+03  0.00000000000E+00 0. -1.
          2    1    6    6  503    0 -0.73929880990E+01  0.72280280386E+01 -0.21435406681E+02  0.23798683197E+02  0.00000000000E+00 0. -1.
         -2    1    6    6    0  503  0.24064894362E+03  0.52070144461E+03 -0.18683663824E+04  0.19544397784E+04  0.00000000000E+00 0.  1.
<mgrwt>
<rscale>  0 0.23445963E+04</rscale>
<asrwt>0</asrwt>
<pdfrwt beam="1">  1        1 0.44131562E+00 0.23445963E+04</pdfrwt>
<pdfrwt beam="2">  1       -2 0.73705545E-01 0.23445963E+04</pdfrwt>
<totfact> 0.97790728E-01</totfact>
</mgrwt>
</event>
<event>
12    4  0.4486176E-008  0.1614254E+04  0.7818608E-02  0.8811839E-01
          1   -1    0    0  501    0  0.00000000000E+00  0.00000000000E+00  0.22881425318E+04  0.22881425318E+04  0.00000000000E+00 0. -1.
         -2   -1    0    0    0  501 -0.00000000000E+00 -0.00000000000E+00 -0.28470879921E+03  0.28470879921E+03  0.00000000000E+00 0.  1.
        -24    2    1    2    0    0 -0.21238122130E+03  0.93818128491E+02 -0.10524506567E+03  0.26764454820E+03  0.81544196214E+02 0.  0.
        254    2    1    2    0    0  0.21238122130E+03 -0.93818128491E+02  0.21086787983E+04  0.23052067828E+04  0.90196696886E+03 0.  0.
         23    2    4    4    0    0 -0.80889462410E+02 -0.42794906581E+03  0.74064084084E+03  0.86390760274E+03  0.90022124459E+02 0.  0.
         23    2    4    4    0    0  0.29327068371E+03  0.33413093732E+03  0.13680379574E+04  0.14412991801E+04  0.90356495888E+02 0.  0.
          3    1    3    3  502    0 -0.16084256073E+01  0.15896721246E+02  0.57892031857E+01  0.16994341789E+02  0.00000000000E+00 0. -1.
         -4    1    3    3    0  502 -0.21077279570E+03  0.77921407245E+02 -0.11103426886E+03  0.25065020641E+03  0.00000000000E+00 0.  1.
         11    1    5    5    0    0  0.18754627652E+02 -0.95233041022E+02  0.17635189221E+03  0.20129843032E+03  0.00000000000E+00 0. -1.
        -11    1    5    5    0    0 -0.99644090062E+02 -0.33271602479E+03  0.56428894863E+03  0.66260917242E+03  0.00000000000E+00 0.  1.
          2    1    6    6  503    0  0.55522092974E+02  0.12569296224E+03  0.42677561570E+03  0.44835125707E+03  0.00000000000E+00 0. -1.
         -2    1    6    6    0  503  0.23774859074E+03  0.20843797509E+03  0.94126234171E+03  0.99294792300E+03  0.00000000000E+00 0.  1.
<mgrwt>
<rscale>  0 0.16142544E+04</rscale>
<asrwt>0</asrwt>
<pdfrwt beam="1">  1        1 0.35202192E+00 0.16142544E+04</pdfrwt>
<pdfrwt beam="2">  1       -2 0.43801355E-01 0.16142544E+04</pdfrwt>
<totfact> 0.78968399E+00</totfact>
</mgrwt>
</event>
<event>
12    4  0.4486176E-008  0.3882402E+04  0.7818608E-02  0.8028699E-01
          1   -1    0    0  501    0  0.00000000000E+00  0.00000000000E+00  0.26716387483E+04  0.26716387483E+04  0.00000000000E+00 0. -1.
         -2   -1    0    0    0  501 -0.00000000000E+00 -0.00000000000E+00 -0.14104683177E+04  0.14104683177E+04  0.00000000000E+00 0.  1.
        -24    2    1    2    0    0 -0.17348577616E+04  0.53999231779E+03  0.36520674094E+03  0.18549353306E+04  0.78012567959E+02 0.  0.
        254    2    1    2    0    0  0.17348577616E+04 -0.53999231779E+03  0.89596368958E+03  0.22271717355E+04  0.92532148468E+03 0.  0.
         23    2    4    4    0    0  0.48391080155E+03 -0.59841380188E+03  0.44356953440E+03  0.89248947457E+03  0.86687878233E+02 0.  0.
         23    2    4    4    0    0  0.12509469600E+04  0.58421484085E+02  0.45239415518E+03  0.13346822609E+04  0.91841707782E+02 0.  0.
          1    1    3    3  502    0 -0.80168937415E+03  0.25589259060E+03  0.20835985521E+03  0.86694907568E+03  0.00000000000E+00 0. -1.
         -2    1    3    3    0  502 -0.93316838742E+03  0.28409972719E+03  0.15684688573E+03  0.98798625488E+03  0.00000000000E+00 0.  1.
         11    1    5    5    0    0  0.82413396643E+02 -0.56809464605E+02  0.51173224038E+02  0.11241877990E+03  0.00000000000E+00 0. -1.
        -11    1    5    5    0    0  0.40149740490E+03 -0.54160433727E+03  0.39239631036E+03  0.78007069467E+03  0.00000000000E+00 0.  1.
          1    1    6    6  503    0  0.25642201704E+03  0.88853660573E+01  0.54075244555E+02  0.26221238076E+03  0.00000000000E+00 0. -1.
         -1    1    6    6    0  503  0.99452494299E+03  0.49536118028E+02  0.39831891063E+03  0.10724698801E+04  0.00000000000E+00 0.  1.
<mgrwt>
<rscale>  0 0.38824023E+04</rscale>
<asrwt>0</asrwt>
<pdfrwt beam="1">  1        1 0.41102134E+00 0.38824023E+04</pdfrwt>
<pdfrwt beam="2">  1       -2 0.21699513E+00 0.38824023E+04</pdfrwt>
<totfact> 0.73805859E-02</totfact>
</mgrwt>
</event>
<event>
12    4  0.4486176E-008  0.1211108E+04  0.7818608E-02  0.9103189E-01
         -4   -1    0    0    0  501 -0.00000000000E+00  0.00000000000E+00  0.77773735665E+03  0.77773735665E+03  0.00000000000E+00 0.  1.
          3   -1    0    0  501    0  0.00000000000E+00 -0.00000000000E+00 -0.47149030972E+03  0.47149030972E+03  0.00000000000E+00 0. -1.
        -24    2    1    2    0    0 -0.24416281875E+03 -0.50119822714E+02  0.14051734373E+02  0.26265272063E+03  0.81618145832E+02 0.  0.
        254    2    1    2    0    0  0.24416281875E+03  0.50119822714E+02  0.29219531256E+03  0.98657494574E+03  0.90874888951E+03 0.  0.
         23    2    4    4    0    0  0.51398603506E+03 -0.13309262812E+03  0.34956388927E+03  0.64317123595E+03  0.97872540463E+02 0.  0.
         23    2    4    4    0    0 -0.26982321632E+03  0.18321245083E+03 -0.57368576706E+02  0.34340370979E+03  0.90904257871E+02 0.  0.
          1    1    3    3  502    0 -0.44522334209E+02  0.22408871936E+02  0.41186246073E+01  0.50013586690E+02  0.00000000000E+00 0. -1.
         -2    1    3    3    0  502 -0.19964048454E+03 -0.72528694650E+02  0.99331097660E+01  0.21263913394E+03  0.00000000000E+00 0.  1.
         11    1    5    5    0    0  0.24842711069E+03 -0.45623628469E+02  0.22024383393E+03  0.33511921936E+03  0.00000000000E+00 0.  1.
        -11    1    5    5    0    0  0.26555892437E+03 -0.87468999651E+02  0.12932005534E+03  0.30805201659E+03  0.00000000000E+00 0. -1.
          2    1    6    6  503    0 -0.10004383894E+03  0.10696966354E+03  0.65815995565E+01  0.14661035462E+03  0.00000000000E+00 0. -1.
         -2    1    6    6    0  503 -0.16977937737E+03  0.76242787295E+02 -0.63950176263E+02  0.19679335517E+03  0.00000000000E+00 0.  1.
<mgrwt>
<rscale>  0 0.12111080E+04</rscale>
<asrwt>0</asrwt>
<pdfrwt beam="1">  1        3 0.72536971E-01 0.12111080E+04</pdfrwt>
<pdfrwt beam="2">  1       -4 0.11965190E+00 0.12111080E+04</pdfrwt>
<totfact> 0.21714501E+00</totfact>
</mgrwt>
</event>
<event>
12    4  0.4486176E-008  0.2327199E+04  0.7818608E-02  0.8467274E-01
          1   -1    0    0  501    0  0.00000000000E+00  0.00000000000E+00  0.48047592743E+03  0.48047592743E+03  0.00000000000E+00 0. -1.
         -2   -1    0    0    0  501 -0.00000000000E+00 -0.00000000000E+00 -0.28179633255E+04  0.28179633255E+04  0.00000000000E+00 0.  1.
        -24    2    1    2    0    0 -0.95958236429E+03 -0.21710864894E+03 -0.80507768667E+03  0.12737965806E+04  0.80455999263E+02 0.  0.
        254    2    1    2    0    0  0.95958236429E+03  0.21710864894E+03 -0.15324097114E+04  0.20246426723E+04  0.88485250061E+03 0.  0.
         23    2    4    4    0    0  0.93324669478E+03  0.45437266179E+03 -0.10529353169E+04  0.14814447594E+04  0.92746344111E+02 0.  0.
         23    2    4    4    0    0  0.26335669510E+02 -0.23726401285E+03 -0.47947439449E+03  0.54319791299E+03  0.90446107843E+02 0.  0.
          1    1    3    3  502    0 -0.80182674663E+02 -0.22997298450E+02 -0.98834464534E+02  0.12933053944E+03  0.00000000000E+00 0. -1.
         -2    1    3    3    0  502 -0.87939968963E+03 -0.19411135049E+03 -0.70624322214E+03  0.11444660411E+04  0.00000000000E+00 0.  1.
         11    1    5    5    0    0  0.25077193566E+03  0.10269454825E+03 -0.32868059985E+03  0.42598552872E+03  0.00000000000E+00 0. -1.
        -11    1    5    5    0    0  0.68247475912E+03  0.35167811354E+03 -0.72425471704E+03  0.10554592306E+04  0.00000000000E+00 0.  1.
          3    1    6    6  503    0  0.59592491328E+02 -0.14201917042E+03 -0.27504248564E+03  0.31522861339E+03  0.00000000000E+00 0. -1.
         -3    1    6    6    0  503 -0.33256821818E+02 -0.95244842435E+02 -0.20443190885E+03  0.22796929961E+03  0.00000000000E+00 0.  1.
<mgrwt>
<rscale>  0 0.23271988E+04</rscale>
<asrwt>0</asrwt>
<pdfrwt beam="1">  1        1 0.73919373E-01 0.23271988E+04</pdfrwt>
<pdfrwt beam="2">  1       -2 0.43353282E+00 0.23271988E+04</pdfrwt>
<totfact> 0.16504725E-01</totfact>
</mgrwt>
</event>
<event>
12    4  0.4486176E-008  0.1383958E+04  0.7818608E-02  0.8965513E-01
          1   -1    0    0  501    0  0.00000000000E+00  0.00000000000E+00  0.63942326147E+03  0.63942326147E+03  0.00000000000E+00 0. -1.
         -2   -1    0    0    0  501 -0.00000000000E+00 -0.00000000000E+00 -0.74885473316E+03  0.74885473316E+03  0.00000000000E+00 0.  1.
        -24    2    1    2    0    0 -0.35068693721E+03 -0.18673085965E+03 -0.52069027560E+02  0.40882543567E+03  0.81100624835E+02 0.  0.
        254    2    1    2    0    0  0.35068693721E+03  0.18673085965E+03 -0.57362444135E+02  0.97945255896E+03  0.89341318737E+03 0.  0.
         23    2    4    4    0    0  0.57136055920E+03  0.34227124621E+03 -0.13313896113E+03  0.68496910824E+03  0.88623933971E+02 0.  0.
         23    2    4    4    0    0 -0.22067362199E+03 -0.15554038656E+03  0.75776516993E+02  0.29448345072E+03  0.89937550128E+02 0.  0.
          1    1    3    3  502    0 -0.34442137224E+03 -0.16760675372E+03 -0.39431872623E+02  0.38506230422E+03  0.00000000000E+00 0. -1.
         -2    1    3    3    0  502 -0.62655649693E+01 -0.19124105924E+02 -0.12637154937E+02  0.23763131458E+02  0.00000000000E+00 0.  1.
         11    1    5    5    0    0  0.50224329864E+03  0.31698417810E+03 -0.93026228128E+02  0.60114988091E+03  0.00000000000E+00 0. -1.
        -11    1    5    5    0    0  0.69117260565E+02  0.25287068111E+02 -0.40112733001E+02  0.83819227331E+02  0.00000000000E+00 0.  1.
          1    1    6    6  503    0 -0.20066627286E+03 -0.15228718608E+03  0.42427387236E+02  0.25545728272E+03  0.00000000000E+00 0. -1.
         -1    1    6    6    0  503 -0.20007349132E+02 -0.32532004803E+01  0.33349129758E+02  0.39026167994E+02  0.00000000000E+00 0.  1.
<mgrwt>
<rscale>  0 0.13839583E+04</rscale>
<asrwt>0</asrwt>
<pdfrwt beam="1">  1        1 0.98372810E-01 0.13839583E+04</pdfrwt>
<pdfrwt beam="2">  1       -2 0.11520842E+00 0.13839583E+04</pdfrwt>
<totfact> 0.15651877E+01</totfact>
</mgrwt>
</event>
<event>
12    4  0.4486176E-008  0.1937333E+04  0.7818608E-02  0.8636493E-01
          1   -1    0    0  501    0  0.00000000000E+00  0.00000000000E+00  0.24809327606E+04  0.24809327606E+04  0.00000000000E+00 0. -1.
         -2   -1    0    0    0  501 -0.00000000000E+00 -0.00000000000E+00 -0.37821062363E+03  0.37821062363E+03  0.00000000000E+00 0.  1.
        -24    2    1    2    0    0 -0.46689190128E+03  0.13245284246E+03 -0.33342410141E+02  0.49283109700E+03  0.78987156531E+02 0.  0.
        254    2    1    2    0    0  0.46689190128E+03 -0.13245284246E+03  0.21360645471E+04  0.23663122872E+04  0.89505881835E+03 0.  0.
         23    2    4    4    0    0  0.65111936610E+03  0.57439741440E+02  0.18585866165E+04  0.19722520814E+04  0.90434002410E+02 0.  0.
         23    2    4    4    0    0 -0.18422746482E+03 -0.18989258390E+03  0.27747793061E+03  0.39406020582E+03  0.91052136811E+02 0.  0.
          1    1    3    3  502    0 -0.18803571271E+03  0.74295356429E+02 -0.47273856533E+02  0.20763440647E+03  0.00000000000E+00 0. -1.
         -2    1    3    3    0  502 -0.27885618857E+03  0.58157486028E+02  0.13931446392E+02  0.28519669052E+03  0.00000000000E+00 0.  1.
         11    1    5    5    0    0  0.23096933908E+03  0.61176897719E+02  0.62846280711E+03  0.67235031667E+03  0.00000000000E+00 0. -1.
        -11    1    5    5    0    0  0.42015002702E+03 -0.37371562788E+01  0.12301238094E+04  0.12999017647E+04  0.00000000000E+00 0.  1.
          3    1    6    6  503    0  0.96492526665E+01 -0.38300700748E+01  0.55937232352E+01  0.11792677959E+02  0.00000000000E+00 0. -1.
         -3    1    6    6    0  503 -0.19387671749E+03 -0.18606251382E+03  0.27188420738E+03  0.38226752786E+03  0.00000000000E+00 0.  1.
<mgrwt>
<rscale>  0 0.19373333E+04</rscale>
<asrwt>0</asrwt>
<pdfrwt beam="1">  1        1 0.38168195E+00 0.19373333E+04</pdfrwt>
<pdfrwt beam="2">  1       -2 0.58186251E-01 0.19373333E+04</pdfrwt>
<totfact> 0.31636419E+00</totfact>
</mgrwt>
</event>
<event>
12    4  0.4486176E-008  0.1214612E+04  0.7818608E-02  0.9100162E-01
         -2   -1    0    0    0  501 -0.00000000000E+00  0.00000000000E+00  0.62430576656E+03  0.62430576656E+03  0.00000000000E+00 0.  1.
          1   -1    0    0  501    0  0.00000000000E+00 -0.00000000000E+00 -0.59076960842E+03  0.59076960842E+03  0.00000000000E+00 0. -1.
        -24    2    1    2    0    0  0.15103454974E+03  0.21864381544E+03 -0.12300168311E+02  0.27753853771E+03  0.79118850662E+02 0.  0.
        254    2    1    2    0    0 -0.15103454974E+03 -0.21864381544E+03  0.45836326452E+02  0.93753683727E+03  0.89791859273E+03 0.  0.
         23    2    4    4    0    0  0.84589230204E+02  0.28081380912E+03 -0.15342297216E+03  0.34317610232E+03  0.90661433678E+02 0.  0.
         23    2    4    4    0    0 -0.23562377995E+03 -0.49945762456E+03  0.19925929861E+03  0.59436073495E+03  0.92649504929E+02 0.  0.
          3    1    3    3  502    0  0.54803488009E+02  0.72818283210E+02 -0.41944816275E+02  0.10032593025E+03  0.00000000000E+00 0. -1.
         -4    1    3    3    0  502  0.96231061733E+02  0.14582553223E+03  0.29644647964E+02  0.17721260746E+03  0.00000000000E+00 0.  1.
         11    1    5    5    0    0 -0.96779310264E+01  0.12128947636E+03 -0.60410392186E+02  0.13584629148E+03  0.00000000000E+00 0. -1.
        -11    1    5    5    0    0  0.94267161231E+02  0.15952433277E+03 -0.93012579972E+02  0.20732981084E+03  0.00000000000E+00 0.  1.
          1    1    6    6  503    0 -0.40335157147E+02 -0.18755132241E+03  0.74282453329E+02  0.20571899842E+03  0.00000000000E+00 0. -1.
         -1    1    6    6    0  503 -0.19528862280E+03 -0.31190630215E+03  0.12497684528E+03  0.38864173653E+03  0.00000000000E+00 0.  1.
<mgrwt>
<rscale>  0 0.12146125E+04</rscale>
<asrwt>0</asrwt>
<pdfrwt beam="1">  1        1 0.90887632E-01 0.12146125E+04</pdfrwt>
<pdfrwt beam="2">  1       -2 0.96047041E-01 0.12146125E+04</pdfrwt>
<totfact> 0.27531774E+01</totfact>
</mgrwt>
</event>
<event>
12    4  0.4486176E-008  0.1411931E+04  0.7818608E-02  0.8945227E-01
         -2   -1    0    0    0  501 -0.00000000000E+00  0.00000000000E+00  0.44209215464E+03  0.44209215464E+03  0.00000000000E+00 0.  1.
          1   -1    0    0  501    0  0.00000000000E+00 -0.00000000000E+00 -0.11273379762E+04  0.11273379762E+04  0.00000000000E+00 0. -1.
        -24    2    1    2    0    0 -0.11719365213E+03  0.84442893534E+02  0.22742118537E+03  0.28103477856E+03  0.79969974610E+02 0.  0.
        254    2    1    2    0    0  0.11719365213E+03 -0.84442893534E+02 -0.91266700697E+03  0.12883953523E+04  0.89785108113E+03 0.  0.
         23    2    4    4    0    0 -0.55023246033E+02 -0.20006399724E+03  0.10207997260E+03  0.24870983357E+03  0.91559269947E+02 0.  0.
         23    2    4    4    0    0  0.17221689817E+03  0.11562110371E+03 -0.10147469796E+04  0.10396855187E+04  0.90596057964E+02 0.  0.
          1    1    3    3  502    0 -0.13349086381E+02 -0.41182817509E+01 -0.19751472820E+01  0.14108846819E+02  0.00000000000E+00 0. -1.
         -2    1    3    3    0  502 -0.10384456575E+03  0.88561175285E+02  0.22939633265E+03  0.26692593174E+03  0.00000000000E+00 0.  1.
         11    1    5    5    0    0  0.19017531861E+02 -0.40384564692E+02 -0.11645254269E+01  0.44653507174E+02  0.00000000000E+00 0. -1.
        -11    1    5    5    0    0 -0.74040777894E+02 -0.15967943255E+03  0.10324449802E+03  0.20405632640E+03  0.00000000000E+00 0.  1.
          1    1    6    6  503    0  0.46458341984E+02  0.81277349521E+02 -0.49987880087E+03  0.50856975986E+03  0.00000000000E+00 0. -1.
         -1    1    6    6    0  503  0.12575855618E+03  0.34343754185E+02 -0.51486817870E+03  0.53111575889E+03  0.00000000000E+00 0.  1.
<mgrwt>
<rscale>  0 0.14119310E+04</rscale>
<asrwt>0</asrwt>
<pdfrwt beam="1">  1        1 0.17343661E+00 0.14119310E+04</pdfrwt>
<pdfrwt beam="2">  1       -2 0.68014178E-01 0.14119310E+04</pdfrwt>
<totfact> 0.20448247E+01</totfact>
</mgrwt>
</event>
<event>
12    4  0.4486176E-008  0.2021847E+04  0.7818608E-02  0.8596474E-01
         -2   -1    0    0    0  501 -0.00000000000E+00  0.00000000000E+00  0.20478510882E+04  0.20478510882E+04  0.00000000000E+00 0.  1.
          1   -1    0    0  501    0  0.00000000000E+00 -0.00000000000E+00 -0.49904347156E+03  0.49904347156E+03  0.00000000000E+00 0. -1.
        -24    2    1    2    0    0 -0.21640021036E+03 -0.77745382328E+03  0.62736574750E+03  0.10254890438E+04  0.82319495957E+02 0.  0.
        254    2    1    2    0    0  0.21640021036E+03  0.77745382328E+03  0.92144186911E+03  0.15214055159E+04  0.90241682577E+03 0.  0.
         23    2    4    4    0    0 -0.29949299305E+03  0.13754284931E+03  0.10100398147E+03  0.35647571853E+03  0.90879289970E+02 0.  0.
         23    2    4    4    0    0  0.51589320341E+03  0.63991097396E+03  0.82043788764E+03  0.11649297974E+04  0.91166076567E+02 0.  0.
          1    1    3    3  502    0 -0.67586199005E+02 -0.18146472819E+03  0.11236869956E+03  0.22388404703E+03  0.00000000000E+00 0. -1.
         -2    1    3    3    0  502 -0.14881401136E+03 -0.59598909508E+03  0.51499704794E+03  0.80160499675E+03  0.00000000000E+00 0.  1.
         11    1    5    5    0    0 -0.13794570542E+01  0.10340125095E+02  0.19738625865E+02  0.22325645339E+02  0.00000000000E+00 0.  1.
        -11    1    5    5    0    0 -0.29811353599E+03  0.12720272422E+03  0.81265355604E+02  0.33415007319E+03  0.00000000000E+00 0. -1.
          1    1    6    6  503    0  0.51036769944E+03  0.60858531745E+03  0.79872845199E+03  0.11264184024E+04  0.00000000000E+00 0. -1.
         -1    1    6    6    0  503  0.55255039733E+01  0.31325656517E+02  0.21709435655E+02  0.38511395026E+02  0.00000000000E+00 0.  1.
<mgrwt>
<rscale>  0 0.20218474E+04</rscale>
<asrwt>0</asrwt>
<pdfrwt beam="1">  1        1 0.76775920E-01 0.20218474E+04</pdfrwt>
<pdfrwt beam="2">  1       -2 0.31505401E+00 0.20218474E+04</pdfrwt>
<totfact> 0.92654732E-01</totfact>
</mgrwt>
</event>
<event>
12    4  0.4486176E-008  0.1146525E+04  0.7818608E-02  0.9160995E-01
         -2   -1    0    0    0  501 -0.00000000000E+00  0.00000000000E+00  0.49612087270E+03  0.49612087270E+03  0.00000000000E+00 0.  1.
          1   -1    0    0  501    0  0.00000000000E+00 -0.00000000000E+00 -0.66239924912E+03  0.66239924912E+03  0.00000000000E+00 0. -1.
        -24    2    1    2    0    0  0.20146221538E+03  0.50569345717E+02 -0.40808276524E+02  0.22936592022E+03  0.88312665984E+02 0.  0.
        254    2    1    2    0    0 -0.20146221538E+03 -0.50569345717E+02 -0.12547009989E+03  0.92915420159E+03  0.89690607168E+03 0.  0.
         23    2    4    4    0    0 -0.24260463626E+03  0.19554235391E+03 -0.42120915371E+03  0.53165779274E+03  0.90272009524E+02 0.  0.
         23    2    4    4    0    0  0.41142420879E+02 -0.24611169962E+03  0.29573905382E+03  0.39749640885E+03  0.90984282209E+02 0.  0.
          1    1    3    3  502    0  0.26435445600E+02 -0.13664163645E+02 -0.30542174561E+02  0.42642309730E+02  0.00000000000E+00 0. -1.
         -2    1    3    3    0  502  0.17502676979E+03  0.64233509362E+02 -0.10266101963E+02  0.18672361049E+03  0.00000000000E+00 0.  1.
         11    1    5    5    0    0 -0.24781846412E+03  0.17891887912E+03 -0.40800213519E+03  0.50979574221E+03  0.00000000000E+00 0. -1.
        -11    1    5    5    0    0  0.52138278545E+01  0.16623474787E+02 -0.13207018526E+02  0.21862050527E+02  0.00000000000E+00 0.  1.
          3    1    6    6  503    0  0.57759440898E+02 -0.19106214459E+03  0.18233186172E+03  0.27034386235E+03  0.00000000000E+00 0. -1.
         -3    1    6    6    0  503 -0.16617020019E+02 -0.55049555029E+02  0.11340719210E+03  0.12715254651E+03  0.00000000000E+00 0.  1.
<mgrwt>
<rscale>  0 0.11465253E+04</rscale>
<asrwt>0</asrwt>
<pdfrwt beam="1">  1        1 0.10190758E+00 0.11465253E+04</pdfrwt>
<pdfrwt beam="2">  1       -2 0.76326288E-01 0.11465253E+04</pdfrwt>
<totfact> 0.39567660E+01</totfact>
</mgrwt>
</event>
<event>
12    4  0.4486176E-008  0.1113347E+04  0.7818608E-02  0.9192280E-01
          1   -1    0    0  501    0  0.00000000000E+00  0.00000000000E+00  0.54132864303E+03  0.54132864303E+03  0.00000000000E+00 0. -1.
         -2   -1    0    0    0  501 -0.00000000000E+00 -0.00000000000E+00 -0.57245339615E+03  0.57245339615E+03  0.00000000000E+00 0.  1.
        -24    2    1    2    0    0 -0.64076233346E+02  0.15878152928E+03 -0.23439123725E+02  0.19860919024E+03  0.97871753889E+02 0.  0.
        254    2    1    2    0    0  0.64076233346E+02 -0.15878152928E+03 -0.76856293999E+01  0.91517284893E+03  0.89897994238E+03 0.  0.
         23    2    4    4    0    0  0.18242571102E+03  0.18897206211E+03  0.31450554524E+03  0.41851382576E+03  0.85149891750E+02 0.  0.
         23    2    4    4    0    0 -0.11834947767E+03 -0.34775359139E+03 -0.32219117464E+03  0.49665902318E+03  0.89016139518E+02 0.  0.
          1    1    3    3  502    0 -0.10364886639E+02  0.37627015021E+02 -0.50018441671E+02  0.63443420790E+02  0.00000000000E+00 0. -1.
         -4    1    3    3    0  502 -0.53711346707E+02  0.12115451426E+03  0.26579317945E+02  0.13516576945E+03  0.00000000000E+00 0.  1.
         11    1    5    5    0    0  0.89737656881E+02  0.34964111564E+02  0.11386661966E+03  0.14913397746E+03  0.00000000000E+00 0. -1.
        -11    1    5    5    0    0  0.92688054135E+02  0.15400795055E+03  0.20063892558E+03  0.26937984830E+03  0.00000000000E+00 0.  1.
          1    1    6    6  503    0 -0.22496556435E+02 -0.65801738505E+01 -0.16716000870E+02  0.28789206735E+02  0.00000000000E+00 0. -1.
         -1    1    6    6    0  503 -0.95852921236E+02 -0.34117341754E+03 -0.30547517377E+03  0.46786981644E+03  0.00000000000E+00 0.  1.
<mgrwt>
<rscale>  0 0.11133471E+04</rscale>
<asrwt>0</asrwt>
<pdfrwt beam="1">  1        1 0.83281330E-01 0.11133471E+04</pdfrwt>
<pdfrwt beam="2">  1       -2 0.88069753E-01 0.11133471E+04</pdfrwt>
<totfact> 0.38400112E+01</totfact>
</mgrwt>
</event>
<event>
12    4  0.4486176E-008  0.3021153E+04  0.7818608E-02  0.8237716E-01
          1   -1    0    0  501    0  0.00000000000E+00  0.00000000000E+00  0.15720795581E+04  0.15720795581E+04  0.00000000000E+00 0. -1.
         -2   -1    0    0    0  501 -0.00000000000E+00 -0.00000000000E+00 -0.14514795391E+04  0.14514795391E+04  0.00000000000E+00 0.  1.
        -24    2    1    2    0    0  0.11945205871E+04 -0.37712756073E+03 -0.50934768760E+03  0.13545711944E+04  0.79519959301E+02 0.  0.
        254    2    1    2    0    0 -0.11945205871E+04  0.37712756073E+03  0.62994770656E+03  0.16689879028E+04  0.90530761440E+03 0.  0.
         23    2    4    4    0    0 -0.66231949206E+02 -0.13503106505E+03 -0.12264343857E+03  0.21646885051E+03  0.95902505666E+02 0.  0.
         23    2    4    4    0    0 -0.11282886379E+04  0.51215862578E+03  0.75259114513E+03  0.14525190523E+04  0.89869111627E+02 0.  0.
          1    1    3    3  502    0  0.89471493678E+03 -0.27105763250E+03 -0.34413647648E+03  0.99620127117E+03  0.00000000000E+00 0. -1.
         -2    1    3    3    0  502  0.29980565028E+03 -0.10606992823E+03 -0.16521121112E+03  0.35836992326E+03  0.00000000000E+00 0.  1.
         11    1    5    5    0    0 -0.35021919891E+02 -0.22198477352E+02 -0.83153659703E+02  0.92918450222E+02  0.00000000000E+00 0.  1.
        -11    1    5    5    0    0 -0.31210029315E+02 -0.11283258770E+03 -0.39489778868E+02  0.12355040029E+03  0.00000000000E+00 0. -1.
          3    1    6    6  503    0 -0.27826170479E+02  0.29169216180E+02  0.29649530584E+02  0.50042318091E+02  0.00000000000E+00 0. -1.
         -3    1    6    6    0  503 -0.11004624674E+04  0.48298940960E+03  0.72294161455E+03  0.14024767342E+04  0.00000000000E+00 0.  1.
<mgrwt>
<rscale>  0 0.30211530E+04</rscale>
<asrwt>0</asrwt>
<pdfrwt beam="1">  1        1 0.24185839E+00 0.30211530E+04</pdfrwt>
<pdfrwt beam="2">  1       -2 0.22330454E+00 0.30211530E+04</pdfrwt>
<totfact> 0.40998066E-01</totfact>
</mgrwt>
</event>
<event>
12    4  0.4486176E-008  0.1296186E+04  0.7818608E-02  0.9032595E-01
          1   -1    0    0  501    0  0.00000000000E+00  0.00000000000E+00  0.87821663110E+03  0.87821663110E+03  0.00000000000E+00 0. -1.
         -2   -1    0    0    0  501 -0.00000000000E+00 -0.00000000000E+00 -0.47826980494E+03  0.47826980494E+03  0.00000000000E+00 0.  1.
        -24    2    1    2    0    0 -0.22271742647E+03 -0.21927296329E+03  0.23090857999E+03  0.39540520758E+03  0.73094605733E+02 0.  0.
        254    2    1    2    0    0  0.22271742647E+03  0.21927296329E+03  0.16903824617E+03  0.96108122845E+03  0.89298349063E+03 0.  0.
         23    2    4    4    0    0  0.27428455852E+03 -0.28129943870E+03 -0.46479942412E+02  0.40600226071E+03  0.91192419648E+02 0.  0.
         23    2    4    4    0    0 -0.51567132048E+02  0.50057240199E+03  0.21551818858E+03  0.55507896774E+03  0.91829581740E+02 0.  0.
          1    1    3    3  502    0 -0.20054808885E+03 -0.21113316334E+03  0.23114766913E+03  0.37178756508E+03  0.00000000000E+00 0. -1.
         -2    1    3    3    0  502 -0.22169337624E+02 -0.81397999437E+01 -0.23908913816E+00  0.23617642503E+02  0.00000000000E+00 0.  1.
         11    1    5    5    0    0  0.43721991048E+02 -0.96323007771E+02  0.52721741696E+01  0.10591284222E+03  0.00000000000E+00 0.  1.
        -11    1    5    5    0    0  0.23056256747E+03 -0.18497643093E+03 -0.51752116581E+02  0.30008941849E+03  0.00000000000E+00 0. -1.
          3    1    6    6  503    0 -0.74849513337E+02  0.41225164883E+03  0.16201717021E+03  0.44922537223E+03  0.00000000000E+00 0. -1.
         -3    1    6    6    0  503  0.23282381289E+02  0.88320753150E+02  0.53501018371E+02  0.10585359551E+03  0.00000000000E+00 0.  1.
<mgrwt>
<rscale>  0 0.12961859E+04</rscale>
<asrwt>0</asrwt>
<pdfrwt beam="1">  1        1 0.13511025E+00 0.12961859E+04</pdfrwt>
<pdfrwt beam="2">  1       -2 0.73579970E-01 0.12961859E+04</pdfrwt>
<totfact> 0.27217166E+01</totfact>
</mgrwt>
</event>
<event>
12    4  0.4486176E-008  0.1771800E+04  0.7818608E-02  0.8721441E-01
          1   -1    0    0  501    0  0.00000000000E+00  0.00000000000E+00  0.10182265973E+04  0.10182265973E+04  0.00000000000E+00 0. -1.
         -2   -1    0    0    0  501 -0.00000000000E+00 -0.00000000000E+00 -0.77077000256E+03  0.77077000256E+03  0.00000000000E+00 0.  1.
        -24    2    1    2    0    0  0.51342103648E+03  0.27521480955E+02 -0.31853825227E+03  0.61002809175E+03  0.79429603729E+02 0.  0.
        254    2    1    2    0    0 -0.51342103648E+03 -0.27521480955E+02  0.56599484697E+03  0.11789685081E+04  0.89736167936E+03 0.  0.
         23    2    4    4    0    0 -0.65512073098E+02  0.34899339718E+03  0.93618005909E+01  0.36667026782E+03  0.90946242355E+02 0.  0.
         23    2    4    4    0    0 -0.44790896338E+03 -0.37651487813E+03  0.55663304637E+03  0.81229824024E+03  0.87190537612E+02 0.  0.
          1    1    3    3  502    0  0.55436117037E+02 -0.21612861740E+02 -0.31938100763E+02  0.67530149896E+02  0.00000000000E+00 0. -1.
         -2    1    3    3    0  502  0.45798491944E+03  0.49134342694E+02 -0.28660015151E+03  0.54249794185E+03  0.00000000000E+00 0.  1.
         11    1    5    5    0    0 -0.55654394928E+02  0.25999617015E+03  0.46158255374E+02  0.26986293689E+03  0.00000000000E+00 0. -1.
        -11    1    5    5    0    0 -0.98576781699E+01  0.88997227024E+02 -0.36796454783E+02  0.96807330928E+02  0.00000000000E+00 0.  1.
          1    1    6    6  503    0 -0.24163173797E+03 -0.15145816094E+03  0.24375658803E+03  0.37515696117E+03  0.00000000000E+00 0. -1.
         -1    1    6    6    0  503 -0.20627722541E+03 -0.22505671719E+03  0.31287645835E+03  0.43714127907E+03  0.00000000000E+00 0.  1.
<mgrwt>
<rscale>  0 0.17717997E+04</rscale>
<asrwt>0</asrwt>
<pdfrwt beam="1">  1        1 0.15665025E+00 0.17717997E+04</pdfrwt>
<pdfrwt beam="2">  1       -2 0.11858000E+00 0.17717997E+04</pdfrwt>
<totfact> 0.66413276E+00</totfact>
</mgrwt>
</event>
<event>
12    4  0.4486176E-008  0.1990290E+04  0.7818608E-02  0.8611174E-01
          1   -1    0    0  501    0  0.00000000000E+00  0.00000000000E+00  0.74161914670E+03  0.74161914670E+03  0.00000000000E+00 0. -1.
         -2   -1    0    0    0  501 -0.00000000000E+00 -0.00000000000E+00 -0.13353397658E+04  0.13353397658E+04  0.00000000000E+00 0.  1.
        -24    2    1    2    0    0  0.36895679741E+03 -0.65476646617E+03  0.19511253059E+02  0.75587221153E+03  0.78191224528E+02 0.  0.
        254    2    1    2    0    0 -0.36895679741E+03  0.65476646617E+03 -0.61323187221E+03  0.13210867010E+04  0.89686593141E+03 0.  0.
         23    2    4    4    0    0  0.11909494456E+03  0.77250581209E+01  0.14442899343E+03  0.20792883061E+03  0.90174176527E+02 0.  0.
         23    2    4    4    0    0 -0.48805174198E+03  0.64704140805E+03 -0.75766086564E+03  0.11131578704E+04  0.90627647763E+02 0.  0.
          3    1    3    3  502    0  0.12603303331E+03 -0.21702590490E+03 -0.30218383277E+02  0.25277998254E+03  0.00000000000E+00 0. -1.
         -4    1    3    3    0  502  0.24292376410E+03 -0.43774056126E+03  0.49729636335E+02  0.50309222899E+03  0.00000000000E+00 0.  1.
         11    1    5    5    0    0  0.10897113452E+03  0.27022717211E+02  0.74645022783E+02  0.13482141830E+03  0.00000000000E+00 0. -1.
        -11    1    5    5    0    0  0.10123810040E+02 -0.19297659090E+02  0.69783970649E+02  0.73107412317E+02  0.00000000000E+00 0.  1.
          4    1    6    6  503    0 -0.29531510176E+03  0.44701538958E+03 -0.53524284594E+03  0.75731015573E+03  0.00000000000E+00 0.  1.
         -4    1    6    6    0  503 -0.19273664022E+03  0.20002601847E+03 -0.22241801970E+03  0.35584771467E+03  0.00000000000E+00 0. -1.
<mgrwt>
<rscale>  0 0.19902900E+04</rscale>
<asrwt>0</asrwt>
<pdfrwt beam="1">  1        1 0.11409525E+00 0.19902900E+04</pdfrwt>
<pdfrwt beam="2">  1       -2 0.20543689E+00 0.19902900E+04</pdfrwt>
<totfact> 0.24832286E+00</totfact>
</mgrwt>
</event>
<event>
12    4  0.4486176E-008  0.2216624E+04  0.7818608E-02  0.8511541E-01
         -2   -1    0    0    0  501 -0.00000000000E+00  0.00000000000E+00  0.42814940117E+03  0.42814940117E+03  0.00000000000E+00 0.  1.
          1   -1    0    0  501    0  0.00000000000E+00 -0.00000000000E+00 -0.28689875386E+04  0.28689875386E+04  0.00000000000E+00 0. -1.
        -24    2    1    2    0    0  0.42154672967E+03 -0.49313570089E+03 -0.41617970788E+02  0.65517635644E+03  0.81483358774E+02 0.  0.
        254    2    1    2    0    0 -0.42154672967E+03  0.49313570089E+03 -0.23992201667E+04  0.26419605834E+04  0.89599880081E+03 0.  0.
         23    2    4    4    0    0  0.20497501050E+03  0.40206450336E+03 -0.11454273867E+04  0.12342981175E+04  0.88415636515E+02 0.  0.
         23    2    4    4    0    0 -0.62652174017E+03  0.91071197536E+02 -0.12537927800E+04  0.14076624659E+04  0.93240703848E+02 0.  0.
          1    1    3    3  502    0  0.25003088904E+02 -0.55516299091E+02  0.12459221090E+02  0.62148580915E+02  0.00000000000E+00 0. -1.
         -2    1    3    3    0  502  0.39654364077E+03 -0.43761940180E+03 -0.54077191878E+02  0.59302777553E+03  0.00000000000E+00 0.  1.
         11    1    5    5    0    0  0.10059905097E+03  0.18152051787E+03 -0.41143035455E+03  0.46080885854E+03  0.00000000000E+00 0.  1.
        -11    1    5    5    0    0  0.10437595953E+03  0.22054398549E+03 -0.73399703218E+03  0.77348925895E+03  0.00000000000E+00 0. -1.
          2    1    6    6  503    0 -0.58183041734E+03  0.63645989380E+02 -0.11793930777E+04  0.13166417426E+04  0.00000000000E+00 0. -1.
         -2    1    6    6    0  503 -0.44691322832E+02  0.27425208156E+02 -0.74399702208E+02  0.91020723286E+02  0.00000000000E+00 0.  1.
<mgrwt>
<rscale>  0 0.22166238E+04</rscale>
<asrwt>0</asrwt>
<pdfrwt beam="1">  1        1 0.44138270E+00 0.22166238E+04</pdfrwt>
<pdfrwt beam="2">  1       -2 0.65869139E-01 0.22166238E+04</pdfrwt>
<totfact> 0.12632002E+00</totfact>
</mgrwt>
</event>
<event>
12    4  0.4486176E-008  0.1799687E+04  0.7818608E-02  0.8706466E-01
          3   -1    0    0  501    0  0.00000000000E+00  0.00000000000E+00  0.61661184267E+03  0.61661184267E+03  0.00000000000E+00 0. -1.
         -4   -1    0    0    0  501 -0.00000000000E+00 -0.00000000000E+00 -0.13131739457E+04  0.13131739457E+04  0.00000000000E+00 0.  1.
        -24    2    1    2    0    0 -0.24167416578E+03  0.30187485938E+03  0.32384375501E+03  0.51046346543E+03  0.78506934433E+02 0.  0.
        254    2    1    2    0    0  0.24167416578E+03 -0.30187485938E+03 -0.10204058580E+04  0.14193223229E+04  0.90758630893E+03 0.  0.
         23    2    4    4    0    0 -0.28258469870E+03 -0.14518543777E+03 -0.10066546687E+03  0.34535829194E+03  0.90586369339E+02 0.  0.
         23    2    4    4    0    0  0.52425886448E+03 -0.15668942160E+03 -0.91974039117E+03  0.10739640310E+04  0.89874473099E+02 0.  0.
          1    1    3    3  502    0 -0.17187597692E+03  0.19437943132E+03  0.25982208920E+03  0.36719508820E+03  0.00000000000E+00 0. -1.
         -2    1    3    3    0  502 -0.69798188863E+02  0.10749542806E+03  0.64021665806E+02  0.14326837723E+03  0.00000000000E+00 0.  1.
         11    1    5    5    0    0 -0.98439697180E+01  0.12017182760E+02 -0.56493337097E+01  0.16529712419E+02  0.00000000000E+00 0. -1.
        -11    1    5    5    0    0 -0.27274072898E+03 -0.15720262053E+03 -0.95016133160E+02  0.32882857952E+03  0.00000000000E+00 0.  1.
          4    1    6    6  503    0  0.15171843834E+02  0.10714204804E+02 -0.32774921865E+02  0.37671932963E+02  0.00000000000E+00 0. -1.
         -4    1    6    6    0  503  0.50908702065E+03 -0.16740362641E+03 -0.88696546931E+03  0.10362920980E+04  0.00000000000E+00 0.  1.
<mgrwt>
<rscale>  0 0.17996873E+04</rscale>
<asrwt>0</asrwt>
<pdfrwt beam="1">  1        3 0.94863361E-01 0.17996873E+04</pdfrwt>
<pdfrwt beam="2">  1       -4 0.20202676E+00 0.17996873E+04</pdfrwt>
<totfact> 0.27229690E-01</totfact>
</mgrwt>
</event>
<event>
12    4  0.4486176E-008  0.1570714E+04  0.7818608E-02  0.8838745E-01
          1   -1    0    0  501    0  0.00000000000E+00  0.00000000000E+00  0.32006859651E+03  0.32006859651E+03  0.00000000000E+00 0. -1.
         -2   -1    0    0    0  501 -0.00000000000E+00 -0.00000000000E+00 -0.19270410201E+04  0.19270410201E+04  0.00000000000E+00 0.  1.
        -24    2    1    2    0    0  0.42356119734E+03 -0.22411078244E+03 -0.23490528767E+03  0.53968144690E+03  0.80285984214E+02 0.  0.
        254    2    1    2    0    0 -0.42356119734E+03  0.22411078244E+03 -0.13720671360E+04  0.17074281697E+04  0.89616572046E+03 0.  0.
         23    2    4    4    0    0 -0.43634020725E+03 -0.52063459669E+02 -0.13410407547E+04  0.14141666115E+04  0.91506934456E+02 0.  0.
         23    2    4    4    0    0  0.12779009906E+02  0.27617424210E+03 -0.31026381289E+02  0.29326155825E+03  0.92758773802E+02 0.  0.
          3    1    3    3  502    0  0.13230527036E+03 -0.77547016718E+02 -0.35250605236E+02  0.15735574199E+03  0.00000000000E+00 0. -1.
         -4    1    3    3    0  502  0.29125592698E+03 -0.14656376572E+03 -0.19965468243E+03  0.38232570492E+03  0.00000000000E+00 0.  1.
         11    1    5    5    0    0 -0.31454288530E+03 -0.38957285272E+02 -0.82505132263E+03  0.88383515530E+03  0.00000000000E+00 0.  1.
        -11    1    5    5    0    0 -0.12179732194E+03 -0.13106174396E+02 -0.51598943203E+03  0.53033145617E+03  0.00000000000E+00 0. -1.
          4    1    6    6  503    0 -0.10870359742E+02  0.23233504719E+00  0.80994797387E+01  0.13558033506E+02  0.00000000000E+00 0. -1.
         -4    1    6    6    0  503  0.23649369649E+02  0.27594190706E+03 -0.39125861028E+02  0.27970352475E+03  0.00000000000E+00 0.  1.
<mgrwt>
<rscale>  0 0.15707136E+04</rscale>
<asrwt>0</asrwt>
<pdfrwt beam="1">  1        1 0.49241324E-01 0.15707136E+04</pdfrwt>
<pdfrwt beam="2">  1       -2 0.29646784E+00 0.15707136E+04</pdfrwt>
<totfact> 0.22675921E+00</totfact>
</mgrwt>
</event>
<event>
12    4  0.4486176E-008  0.2282781E+04  0.7818608E-02  0.8484742E-01
          1   -1    0    0  501    0  0.00000000000E+00  0.00000000000E+00  0.25684497724E+04  0.25684497724E+04  0.00000000000E+00 0. -1.
         -2   -1    0    0    0  501 -0.00000000000E+00 -0.00000000000E+00 -0.50722111140E+03  0.50722111140E+03  0.00000000000E+00 0.  1.
        -24    2    1    2    0    0 -0.28596478806E+03  0.78325180936E+03  0.15073160104E+04  0.17244680965E+04  0.80804724900E+02 0.  0.
        254    2    1    2    0    0  0.28596478806E+03 -0.78325180936E+03  0.55391265057E+03  0.13512027873E+04  0.90756294057E+03 0.  0.
         23    2    4    4    0    0  0.32373469944E+03 -0.95906396760E+03  0.38065124555E+03  0.10852068021E+04  0.90391277706E+02 0.  0.
         23    2    4    4    0    0 -0.37769911375E+02  0.17581215824E+03  0.17326140501E+03  0.26599598518E+03  0.91639884738E+02 0.  0.
          1    1    3    3  502    0 -0.28917331173E+03  0.75375280633E+03  0.14392112236E+04  0.16501798216E+04  0.00000000000E+00 0. -1.
         -2    1    3    3    0  502  0.32085236653E+01  0.29499003034E+02  0.68104786792E+02  0.74288274903E+02  0.00000000000E+00 0.  1.
         11    1    5    5    0    0  0.15203833743E+03 -0.58684524830E+03  0.21868441329E+03  0.64445781407E+03  0.00000000000E+00 0.  1.
        -11    1    5    5    0    0  0.17169636201E+03 -0.37221871930E+03  0.16196683226E+03  0.44074898806E+03  0.00000000000E+00 0. -1.
          1    1    6    6  503    0 -0.49201688875E+02  0.10559610442E+03  0.56993462015E+02  0.12969039351E+03  0.00000000000E+00 0. -1.
         -1    1    6    6    0  503  0.11431777499E+02  0.70216053816E+02  0.11626794300E+03  0.13630559167E+03  0.00000000000E+00 0.  1.
<mgrwt>
<rscale>  0 0.22827807E+04</rscale>
<asrwt>0</asrwt>
<pdfrwt beam="1">  1        1 0.39514611E+00 0.22827807E+04</pdfrwt>
<pdfrwt beam="2">  1       -2 0.78034019E-01 0.22827807E+04</pdfrwt>
<totfact> 0.14117101E+00</totfact>
</mgrwt>
</event>
<event>
12    4  0.4486176E-008  0.1146645E+04  0.7818608E-02  0.9160884E-01
          1   -1    0    0  501    0  0.00000000000E+00  0.00000000000E+00  0.25556371712E+04  0.25556371712E+04  0.00000000000E+00 0. -1.
         -2   -1    0    0    0  501 -0.00000000000E+00 -0.00000000000E+00 -0.12861718025E+03  0.12861718025E+03  0.00000000000E+00 0.  1.
        -24    2    1    2    0    0 -0.13648066349E+03  0.69951742843E+02  0.30092006352E+03  0.34989533127E+03  0.91398251538E+02 0.  0.
        254    2    1    2    0    0  0.13648066349E+03 -0.69951742843E+02  0.21260999274E+04  0.23343590201E+04  0.95153082758E+03 0.  0.
         23    2    4    4    0    0  0.19396629467E+03 -0.45685449965E+03  0.15680064528E+04  0.16471661164E+04  0.90404767406E+02 0.  0.
         23    2    4    4    0    0 -0.57485631183E+02  0.38690275681E+03  0.55809347464E+03  0.68719290370E+03  0.88132964561E+02 0.  0.
          1    1    3    3  502    0 -0.13463743412E+03  0.87400977709E+02  0.26305586949E+03  0.30816320359E+03  0.00000000000E+00 0. -1.
         -2    1    3    3    0  502 -0.18432293738E+01 -0.17449234866E+02  0.37864194026E+02  0.41732127686E+02  0.00000000000E+00 0.  1.
         11    1    5    5    0    0  0.14693246559E+03 -0.41342583734E+03  0.14098127566E+04  0.14765101019E+04  0.00000000000E+00 0. -1.
        -11    1    5    5    0    0  0.47033829088E+02 -0.43428662311E+02  0.15819369620E+03  0.17065601456E+03  0.00000000000E+00 0.  1.
          1    1    6    6  503    0 -0.75135248908E+02  0.35510537054E+03  0.52333356369E+03  0.63688550675E+03  0.00000000000E+00 0. -1.
         -1    1    6    6    0  503  0.17649617726E+02  0.31797386266E+02  0.34759910946E+02  0.50307396953E+02  0.00000000000E+00 0.  1.
<mgrwt>
<rscale>  0 0.11466453E+04</rscale>
<asrwt>0</asrwt>
<pdfrwt beam="1">  1        1 0.39317491E+00 0.11466453E+04</pdfrwt>
<pdfrwt beam="2">  1       -2 0.19787260E-01 0.11466453E+04</pdfrwt>
<totfact> 0.23735974E+01</totfact>
</mgrwt>
</event>
<event>
12    4  0.4486176E-008  0.2034394E+04  0.7818608E-02  0.8590707E-01
          1   -1    0    0  501    0  0.00000000000E+00  0.00000000000E+00  0.27492479367E+04  0.27492479367E+04  0.00000000000E+00 0. -1.
         -2   -1    0    0    0  501 -0.00000000000E+00 -0.00000000000E+00 -0.37635357348E+03  0.37635357348E+03  0.00000000000E+00 0.  1.
        -24    2    1    2    0    0 -0.73105387983E+03 -0.15914986775E+03  0.13696842660E+04  0.15627025653E+04  0.78967483016E+02 0.  0.
        254    2    1    2    0    0  0.73105387983E+03  0.15914986775E+03  0.10032100972E+04  0.15628989449E+04  0.93619130372E+03 0.  0.
         23    2    4    4    0    0  0.30870122345E+03 -0.64362981612E+02  0.10244966031E+04  0.10758606665E+04  0.91890396727E+02 0.  0.
         23    2    4    4    0    0  0.42235265638E+03  0.22351284936E+03 -0.21286505948E+02  0.48703827842E+03  0.91724637528E+02 0.  0.
          3    1    3    3  502    0 -0.42917921753E+03 -0.86755098640E+02  0.87989805152E+03  0.98282339664E+03  0.00000000000E+00 0. -1.
         -4    1    3    3    0  502 -0.30187466230E+03 -0.72394769111E+02  0.48978621451E+03  0.57987916867E+03  0.00000000000E+00 0.  1.
         11    1    5    5    0    0  0.20550230829E+03 -0.36422238566E+02  0.52321301357E+03  0.56330243719E+03  0.00000000000E+00 0.  1.
        -11    1    5    5    0    0  0.10319891516E+03 -0.27940743046E+02  0.50128358957E+03  0.51255822926E+03  0.00000000000E+00 0. -1.
          4    1    6    6  503    0  0.87545823469E+02  0.75924583992E+02  0.24034190396E+02  0.11834887397E+03  0.00000000000E+00 0.  1.
         -4    1    6    6    0  503  0.33480683291E+03  0.14758826537E+03 -0.45320696344E+02  0.36868940446E+03  0.00000000000E+00 0. -1.
<mgrwt>
<rscale>  0 0.20343936E+04</rscale>
<asrwt>0</asrwt>
<pdfrwt beam="1">  1        1 0.42296121E+00 0.20343936E+04</pdfrwt>
<pdfrwt beam="2">  1       -2 0.57900551E-01 0.20343936E+04</pdfrwt>
<totfact> 0.20567176E+00</totfact>
</mgrwt>
</event>
<event>
12    4  0.4486176E-008  0.2011889E+04  0.7818608E-02  0.8601082E-01
         -2   -1    0    0    0  501 -0.00000000000E+00  0.00000000000E+00  0.30052896099E+03  0.30052896099E+03  0.00000000000E+00 0.  1.
          1   -1    0    0  501    0  0.00000000000E+00 -0.00000000000E+00 -0.33671440901E+04  0.33671440901E+04  0.00000000000E+00 0. -1.
        -24    2    1    2    0    0 -0.38619118110E+03 -0.24498498005E+03 -0.24495004900E+04  0.24931811549E+04  0.82087465132E+02 0.  0.
        254    2    1    2    0    0  0.38619118110E+03  0.24498498005E+03 -0.61711463905E+03  0.11744918961E+04  0.88850406160E+03 0.  0.
         23    2    4    4    0    0  0.18800784625E+03  0.56690408562E+03 -0.31853386981E+03  0.68401045336E+03  0.98383339762E+02 0.  0.
         23    2    4    4    0    0  0.19818333485E+03 -0.32191910557E+03 -0.29858076924E+03  0.49048144275E+03  0.92266056442E+02 0.  0.
          3    1    3    3  502    0 -0.17654060536E+03 -0.82865194053E+02 -0.86894572166E+03  0.89056156043E+03  0.00000000000E+00 0. -1.
         -4    1    3    3    0  502 -0.20965057574E+03 -0.16211978599E+03 -0.15805547684E+04  0.16026195945E+04  0.00000000000E+00 0.  1.
         11    1    5    5    0    0  0.18882410918E+03  0.46561784894E+03 -0.24606647101E+03  0.55946691915E+03  0.00000000000E+00 0. -1.
        -11    1    5    5    0    0 -0.81626292979E+00  0.10128623668E+03 -0.72467398803E+02  0.12454353421E+03  0.00000000000E+00 0.  1.
          4    1    6    6  503    0  0.17645438811E+03 -0.29183895634E+03 -0.22647067923E+03  0.40938380045E+03  0.00000000000E+00 0. -1.
         -4    1    6    6    0  503  0.21728946734E+02 -0.30080149236E+02 -0.72110090010E+02  0.81097642293E+02  0.00000000000E+00 0.  1.
<mgrwt>
<rscale>  0 0.20118890E+04</rscale>
<asrwt>0</asrwt>
<pdfrwt beam="1">  1        1 0.51802219E+00 0.20118890E+04</pdfrwt>
<pdfrwt beam="2">  1       -2 0.46235223E-01 0.20118890E+04</pdfrwt>
<totfact> 0.11495997E+00</totfact>
</mgrwt>
</event>
<event>
12    4  0.4486176E-008  0.1660585E+04  0.7818608E-02  0.8784169E-01
          1   -1    0    0  501    0  0.00000000000E+00  0.00000000000E+00  0.20190329975E+04  0.20190329975E+04  0.00000000000E+00 0. -1.
         -2   -1    0    0    0  501 -0.00000000000E+00 -0.00000000000E+00 -0.34144341444E+03  0.34144341444E+03  0.00000000000E+00 0.  1.
        -24    2    1    2    0    0 -0.17098502855E+03 -0.55397737337E+03  0.73340930443E+03  0.93842565416E+03  0.81404486146E+02 0.  0.
        254    2    1    2    0    0  0.17098502855E+03  0.55397737337E+03  0.94418027860E+03  0.14220507577E+04  0.89141749416E+03 0.  0.
         23    2    4    4    0    0  0.46506673679E+03  0.29742601095E+03  0.23538393949E+03  0.60778936038E+03  0.96192546258E+02 0.  0.
         23    2    4    4    0    0 -0.29408170824E+03  0.25655136243E+03  0.70879633911E+03  0.81426139737E+03  0.91250864182E+02 0.  0.
          3    1    3    3  502    0 -0.48707044009E+02 -0.15088508396E+03  0.26197978047E+03  0.30622228867E+03  0.00000000000E+00 0. -1.
         -4    1    3    3    0  502 -0.12227798454E+03 -0.40309228941E+03  0.47142952395E+03  0.63220336549E+03  0.00000000000E+00 0.  1.
         11    1    5    5    0    0  0.45021603112E+03  0.29700139839E+03  0.21084350803E+03  0.57910214142E+03  0.00000000000E+00 0. -1.
        -11    1    5    5    0    0  0.14850705671E+02  0.42461255982E+00  0.24540431465E+02  0.28687218953E+02  0.00000000000E+00 0.  1.
          4    1    6    6  503    0 -0.15553602885E+03  0.13915604087E+03  0.47006987927E+03  0.51431658672E+03  0.00000000000E+00 0.  1.
         -4    1    6    6    0  503 -0.13854567940E+03  0.11739532156E+03  0.23872645984E+03  0.29994481065E+03  0.00000000000E+00 0. -1.
<mgrwt>
<rscale>  0 0.16605849E+04</rscale>
<asrwt>0</asrwt>
<pdfrwt beam="1">  1        1 0.31062045E+00 0.16605849E+04</pdfrwt>
<pdfrwt beam="2">  1       -2 0.52529757E-01 0.16605849E+04</pdfrwt>
<totfact> 0.82946226E+00</totfact>
</mgrwt>
</event>
<event>
12    4  0.4486176E-008  0.1897180E+04  0.7818608E-02  0.8656262E-01
          1   -1    0    0  501    0  0.00000000000E+00  0.00000000000E+00  0.80786511054E+03  0.80786511054E+03  0.00000000000E+00 0. -1.
         -2   -1    0    0    0  501 -0.00000000000E+00 -0.00000000000E+00 -0.11138278451E+04  0.11138278451E+04  0.00000000000E+00 0.  1.
        -24    2    1    2    0    0 -0.56982152547E+03  0.41995666903E+03 -0.30201296672E+03  0.77369733026E+03  0.79596181022E+02 0.  0.
        254    2    1    2    0    0  0.56982152547E+03 -0.41995666903E+03 -0.39497678519E+01  0.11479956254E+04  0.90377994031E+03 0.  0.
         23    2    4    4    0    0  0.25819777452E+03  0.69840733741E+02  0.35874224774E+03  0.45758588039E+03  0.95629591440E+02 0.  0.
         23    2    4    4    0    0  0.31162375094E+03 -0.48979740277E+03 -0.36269201559E+03  0.69040974500E+03  0.90051429244E+02 0.  0.
          3    1    3    3  502    0 -0.19620235183E+03  0.19114427377E+03 -0.12679309953E+03  0.30184099514E+03  0.00000000000E+00 0. -1.
         -4    1    3    3    0  502 -0.37361917363E+03  0.22881239526E+03 -0.17521986719E+03  0.47185633512E+03  0.00000000000E+00 0.  1.
         11    1    5    5    0    0  0.64932096849E+01 -0.99097697299E+01 -0.37072385457E+00  0.11853385351E+02  0.00000000000E+00 0.  1.
        -11    1    5    5    0    0  0.25170456484E+03  0.79750503471E+02  0.35911297160E+03  0.44573249504E+03  0.00000000000E+00 0. -1.
          3    1    6    6  503    0  0.28827331964E+03 -0.43743765731E+03 -0.29329949874E+03  0.60039804031E+03  0.00000000000E+00 0. -1.
         -3    1    6    6    0  503  0.23350431308E+02 -0.52359745464E+02 -0.69392516852E+02  0.90011704697E+02  0.00000000000E+00 0.  1.
<mgrwt>
<rscale>  0 0.18971796E+04</rscale>
<asrwt>0</asrwt>
<pdfrwt beam="1">  1        1 0.12428694E+00 0.18971796E+04</pdfrwt>
<pdfrwt beam="2">  1       -2 0.17135813E+00 0.18971796E+04</pdfrwt>
<totfact> 0.37179259E+00</totfact>
</mgrwt>
</event>
<event>
12    4  0.4486176E-008  0.1848901E+04  0.7818608E-02  0.8680718E-01
         -2   -1    0    0    0  501 -0.00000000000E+00  0.00000000000E+00  0.26220667011E+03  0.26220667011E+03  0.00000000000E+00 0.  1.
          1   -1    0    0  501    0  0.00000000000E+00 -0.00000000000E+00 -0.32592955143E+04  0.32592955143E+04  0.00000000000E+00 0. -1.
        -24    2    1    2    0    0  0.65821147352E+03 -0.24457350977E+03 -0.11848935894E+04  0.13794665890E+04  0.76790015164E+02 0.  0.
        254    2    1    2    0    0 -0.65821147352E+03  0.24457350977E+03 -0.18121952548E+04  0.21420355954E+04  0.90066992005E+03 0.  0.
         23    2    4    4    0    0 -0.34492807921E+02 -0.16815677371E+03 -0.10606227968E+04  0.10778085579E+04  0.85347032120E+02 0.  0.
         23    2    4    4    0    0 -0.62371866560E+03  0.41273028348E+03 -0.75157245792E+03  0.10642270375E+04  0.91360643216E+02 0.  0.
          3    1    3    3  502    0  0.27214791932E+02 -0.55844680981E+01 -0.81640844028E+02  0.86238382391E+02  0.00000000000E+00 0. -1.
         -4    1    3    3    0  502  0.63099668158E+03 -0.23898904168E+03 -0.11032527454E+04  0.12932282066E+04  0.00000000000E+00 0.  1.
         11    1    5    5    0    0  0.93206646609E+01  0.64476910817E+01 -0.80078776484E+02  0.80876807264E+02  0.00000000000E+00 0.  1.
        -11    1    5    5    0    0 -0.43813472582E+02 -0.17460446479E+03 -0.98054402034E+03  0.99693175059E+03  0.00000000000E+00 0. -1.
          1    1    6    6  503    0 -0.16186771432E+03  0.12641673827E+03 -0.26122610166E+03  0.33229719355E+03  0.00000000000E+00 0. -1.
         -1    1    6    6    0  503 -0.46185095127E+03  0.28631354522E+03 -0.49034635626E+03  0.73192984395E+03  0.00000000000E+00 0.  1.
<mgrwt>
<rscale>  0 0.18489013E+04</rscale>
<asrwt>0</asrwt>
<pdfrwt beam="1">  1        1 0.50143010E+00 0.18489013E+04</pdfrwt>
<pdfrwt beam="2">  1       -2 0.40339486E-01 0.18489013E+04</pdfrwt>
<totfact> 0.18491888E+00</totfact>
</mgrwt>
</event>
<event>
12    4  0.4486176E-008  0.1532855E+04  0.7818608E-02  0.8862894E-01
          1   -1    0    0  501    0  0.00000000000E+00  0.00000000000E+00  0.43583575443E+04  0.43583575443E+04  0.00000000000E+00 0. -1.
         -2   -1    0    0    0  501 -0.00000000000E+00 -0.00000000000E+00 -0.13477816176E+03  0.13477816176E+03  0.00000000000E+00 0.  1.
        -24    2    1    2    0    0  0.42937675030E+03 -0.24702585807E+03  0.12493919248E+04  0.13463718223E+04  0.79691491959E+02 0.  0.
        254    2    1    2    0    0 -0.42937675030E+03  0.24702585807E+03  0.29741874578E+04  0.31467638838E+04  0.90052525676E+03 0.  0.
         23    2    4    4    0    0 -0.52942356599E+03 -0.27912149310E+02  0.88783996645E+03  0.10380989069E+04  0.91220250755E+02 0.  0.
         23    2    4    4    0    0  0.10004681568E+03  0.27493800738E+03  0.20863474913E+04  0.21086649769E+04  0.89564820274E+02 0.  0.
          1    1    3    3  502    0  0.38716131595E+03 -0.24701401765E+03  0.11559163374E+04  0.12438056072E+04  0.00000000000E+00 0. -1.
         -2    1    3    3    0  502  0.42215434349E+02 -0.11840429144E-01  0.93475587370E+02  0.10256621506E+03  0.00000000000E+00 0.  1.
         11    1    5    5    0    0 -0.38222957781E+02  0.15477552173E+02  0.41002906276E+02  0.58153137885E+02  0.00000000000E+00 0. -1.
        -11    1    5    5    0    0 -0.49120060821E+03 -0.43389701483E+02  0.84683706017E+03  0.97994576900E+03  0.00000000000E+00 0.  1.
          4    1    6    6  503    0  0.78608508654E+02  0.11979264630E+03  0.78972696559E+03  0.80261962094E+03  0.00000000000E+00 0. -1.
         -4    1    6    6    0  503  0.21438307028E+02  0.15514536109E+03  0.12966205257E+04  0.13060453559E+04  0.00000000000E+00 0.  1.
<mgrwt>
<rscale>  0 0.15328554E+04</rscale>
<asrwt>0</asrwt>
<pdfrwt beam="1">  1        1 0.67051644E+00 0.15328554E+04</pdfrwt>
<pdfrwt beam="2">  1       -2 0.20735105E-01 0.15328554E+04</pdfrwt>
<totfact> 0.77849008E-01</totfact>
</mgrwt>
</event>
<event>
12    4  0.4486176E-008  0.1444834E+04  0.7818608E-02  0.8921990E-01
         -2   -1    0    0    0  501 -0.00000000000E+00  0.00000000000E+00  0.30691415615E+03  0.30691415615E+03  0.00000000000E+00 0.  1.
          1   -1    0    0  501    0  0.00000000000E+00 -0.00000000000E+00 -0.17004315610E+04  0.17004315610E+04  0.00000000000E+00 0. -1.
        -24    2    1    2    0    0 -0.38722801699E+03 -0.16567282251E+03 -0.54859983104E+03  0.69950943033E+03  0.10468355762E+03 0.  0.
        254    2    1    2    0    0  0.38722801699E+03  0.16567282251E+03 -0.84491757377E+03  0.13078362868E+04  0.90507293922E+03 0.  0.
         23    2    4    4    0    0  0.13698566661E+03  0.14571736056E+03  0.15857651520E+03  0.26961838068E+03  0.86884624677E+02 0.  0.
         23    2    4    4    0    0  0.25024235039E+03  0.19955461951E+02 -0.10034940890E+04  0.10382179061E+04  0.88750096141E+02 0.  0.
          3    1    3    3  502    0 -0.27418694667E+03 -0.13440093939E+03 -0.31843287459E+03  0.44118203709E+03  0.00000000000E+00 0. -1.
         -4    1    3    3    0  502 -0.11304107033E+03 -0.31271883127E+02 -0.23016695646E+03  0.25832739324E+03  0.00000000000E+00 0.  1.
         11    1    5    5    0    0  0.76625257747E+02  0.33178029720E+02  0.96546765438E+02  0.12764595449E+03  0.00000000000E+00 0.  1.
        -11    1    5    5    0    0  0.60360408861E+02  0.11253933084E+03  0.62029749759E+02  0.14197242620E+03  0.00000000000E+00 0. -1.
          3    1    6    6  503    0  0.17138534352E+03 -0.27931193619E+02 -0.62926782009E+03  0.65278716053E+03  0.00000000000E+00 0. -1.
         -3    1    6    6    0  503  0.78857006868E+02  0.47886655569E+02 -0.37422626888E+03  0.38543074557E+03  0.00000000000E+00 0.  1.
<mgrwt>
<rscale>  0 0.14448343E+04</rscale>
<asrwt>0</asrwt>
<pdfrwt beam="1">  1        1 0.26160486E+00 0.14448343E+04</pdfrwt>
<pdfrwt beam="2">  1       -2 0.47217562E-01 0.14448343E+04</pdfrwt>
<totfact> 0.17268631E+01</totfact>
</mgrwt>
</event>
<event>
12    4  0.4486176E-008  0.1480240E+04  0.7818608E-02  0.8897700E-01
         -2   -1    0    0    0  501 -0.00000000000E+00  0.00000000000E+00  0.60381690072E+03  0.60381690072E+03  0.00000000000E+00 0.  1.
          1   -1    0    0  501    0  0.00000000000E+00 -0.00000000000E+00 -0.90719177901E+03  0.90719177901E+03  0.00000000000E+00 0. -1.
        -24    2    1    2    0    0  0.32505752247E+02 -0.33907159818E+03 -0.42020882569E+03  0.54656498013E+03  0.78304838248E+02 0.  0.
        254    2    1    2    0    0 -0.32505752247E+02  0.33907159818E+03  0.11683394740E+03  0.96444369960E+03  0.89469285558E+03 0.  0.
         23    2    4    4    0    0 -0.29820712636E+03  0.64658479985E+01 -0.24562323200E+03  0.39805299952E+03  0.95635353957E+02 0.  0.
         23    2    4    4    0    0  0.26570137411E+03  0.33260575018E+03  0.36245717940E+03  0.56639070008E+03  0.90550610047E+02 0.  0.
          3    1    3    3  502    0  0.56254354836E+02 -0.27879283646E+03 -0.35097511112E+03  0.45174497974E+03  0.00000000000E+00 0. -1.
         -4    1    3    3    0  502 -0.23748602589E+02 -0.60278761719E+02 -0.69233714577E+02  0.94820000388E+02  0.00000000000E+00 0.  1.
         11    1    5    5    0    0 -0.24959015244E+03  0.41338250848E+02 -0.20648780700E+03  0.32655981017E+03  0.00000000000E+00 0. -1.
        -11    1    5    5    0    0 -0.48616973924E+02 -0.34872402849E+02 -0.39135424997E+02  0.71493189352E+02  0.00000000000E+00 0.  1.
          3    1    6    6  503    0  0.12699171691E+03  0.19838459779E+03  0.24778953781E+03  0.34188155822E+03  0.00000000000E+00 0. -1.
         -3    1    6    6    0  503  0.13870965720E+03  0.13422115239E+03  0.11466764159E+03  0.22450914186E+03  0.00000000000E+00 0.  1.
<mgrwt>
<rscale>  0 0.14802402E+04</rscale>
<asrwt>0</asrwt>
<pdfrwt beam="1">  1        1 0.13956797E+00 0.14802402E+04</pdfrwt>
<pdfrwt beam="2">  1       -2 0.92894908E-01 0.14802402E+04</pdfrwt>
<totfact> 0.14969917E+01</totfact>
</mgrwt>
</event>
<event>
12    4  0.4486176E-008  0.3191164E+04  0.7818608E-02  0.8191155E-01
         -2   -1    0    0    0  501 -0.00000000000E+00  0.00000000000E+00  0.22401914077E+04  0.22401914077E+04  0.00000000000E+00 0.  1.
          1   -1    0    0  501    0  0.00000000000E+00 -0.00000000000E+00 -0.11364571973E+04  0.11364571973E+04  0.00000000000E+00 0. -1.
        -24    2    1    2    0    0 -0.11182172228E+04  0.91364045512E+03  0.78256340956E+03  0.16443603251E+04  0.79791918204E+02 0.  0.
        254    2    1    2    0    0  0.11182172228E+04 -0.91364045512E+03  0.32117080087E+03  0.17322882799E+04  0.90140077816E+03 0.  0.
         23    2    4    4    0    0 -0.13511426767E+03 -0.36862509291E+02  0.64519299898E+02  0.17864475821E+03  0.90202547947E+02 0.  0.
         23    2    4    4    0    0  0.12533314905E+04 -0.87677794583E+03  0.25665150097E+03  0.15536435217E+04  0.91426518917E+02 0.  0.
          1    1    3    3  502    0 -0.42868132477E+02  0.53631575263E+02  0.47541642100E+02  0.83511857726E+02  0.00000000000E+00 0. -1.
         -2    1    3    3    0  502 -0.10753490903E+04  0.86000887986E+03  0.73502176746E+03  0.15608484674E+04  0.00000000000E+00 0.  1.
         11    1    5    5    0    0 -0.23173520258E+02 -0.44651054806E+02  0.23477297352E+01  0.50361101769E+02  0.00000000000E+00 0. -1.
        -11    1    5    5    0    0 -0.11194074741E+03  0.77885455152E+01  0.62171570162E+02  0.12828365644E+03  0.00000000000E+00 0.  1.
          4    1    6    6  503    0  0.46268692595E+03 -0.27048960210E+03  0.90807878413E+02  0.54358981510E+03  0.00000000000E+00 0. -1.
         -4    1    6    6    0  503  0.79064456450E+03 -0.60628834373E+03  0.16584362256E+03  0.10100537066E+04  0.00000000000E+00 0.  1.
<mgrwt>
<rscale>  0 0.31911638E+04</rscale>
<asrwt>0</asrwt>
<pdfrwt beam="1">  1        1 0.17483957E+00 0.31911638E+04</pdfrwt>
<pdfrwt beam="2">  1       -2 0.34464483E+00 0.31911638E+04</pdfrwt>
<totfact> 0.14706006E-01</totfact>
</mgrwt>
</event>
<event>
12    4  0.4486176E-008  0.1969952E+04  0.7818608E-02  0.8620799E-01
          1   -1    0    0  501    0  0.00000000000E+00  0.00000000000E+00  0.10189761943E+04  0.10189761943E+04  0.00000000000E+00 0. -1.
         -2   -1    0    0    0  501 -0.00000000000E+00 -0.00000000000E+00 -0.95211038309E+03  0.95211038309E+03  0.00000000000E+00 0.  1.
        -24    2    1    2    0    0  0.70658768016E+02  0.13325185022E+03 -0.73672344430E+03  0.75624384587E+03  0.79966267557E+02 0.  0.
        254    2    1    2    0    0 -0.70658768016E+02 -0.13325185022E+03  0.80358925547E+03  0.12148427315E+04  0.89852014648E+03 0.  0.
         23    2    4    4    0    0 -0.10908801513E+03 -0.30516481891E+03 -0.47850696570E+02  0.33991481160E+03  0.90700762045E+02 0.  0.
         23    2    4    4    0    0  0.38429247111E+02  0.17191296869E+03  0.85143995204E+03  0.87492791987E+03  0.97560223510E+02 0.  0.
          3    1    3    3  502    0  0.12504002816E+02 -0.42323235719E+01 -0.15896478341E+03  0.15951195884E+03  0.00000000000E+00 0. -1.
         -4    1    3    3    0  502  0.58154765200E+02  0.13748417380E+03 -0.57775866089E+03  0.59673188702E+03  0.00000000000E+00 0.  1.
         11    1    5    5    0    0  0.13525423721E+02 -0.67599285599E+02 -0.15114613068E+02  0.70576568551E+02  0.00000000000E+00 0. -1.
        -11    1    5    5    0    0 -0.12261343885E+03 -0.23756553332E+03 -0.32736083503E+02  0.26933824305E+03  0.00000000000E+00 0.  1.
          3    1    6    6  503    0  0.54789630493E+02  0.47042749067E+02  0.23891033140E+03  0.24958579747E+03  0.00000000000E+00 0. -1.
         -3    1    6    6    0  503 -0.16360383382E+02  0.12487021962E+03  0.61252962064E+03  0.62534212241E+03  0.00000000000E+00 0.  1.
<mgrwt>
<rscale>  0 0.19699521E+04</rscale>
<asrwt>0</asrwt>
<pdfrwt beam="1">  1        1 0.15676557E+00 0.19699521E+04</pdfrwt>
<pdfrwt beam="2">  1       -2 0.14647852E+00 0.19699521E+04</pdfrwt>
<totfact> 0.38040165E+00</totfact>
</mgrwt>
</event>
<event>
12    4  0.4561190E-008  0.1628368E+04  0.7818608E-02  0.8803307E-01
          1   -1    0    0  501    0  0.00000000000E+00  0.00000000000E+00  0.17321629825E+04  0.17321629825E+04  0.00000000000E+00 0. -1.
         -2   -1    0    0    0  501 -0.00000000000E+00 -0.00000000000E+00 -0.38269832512E+03  0.38269832512E+03  0.00000000000E+00 0.  1.
        -24    2    1    2    0    0  0.12657309772E+02  0.27730411150E+03 -0.17023000973E+03  0.33602704666E+03  0.82934565357E+02 0.  0.
        254    2    1    2    0    0 -0.12657309772E+02 -0.27730411150E+03  0.15196946671E+04  0.17788342610E+04  0.88188529244E+03 0.  0.
         23    2    4    4    0    0  0.25337702940E+03 -0.44030087023E+02  0.67498787600E+02  0.28135512022E+03  0.92011139312E+02 0.  0.
         23    2    4    4    0    0 -0.26603433917E+03 -0.23327402448E+03  0.14521958795E+04  0.14974791407E+04  0.91541599317E+02 0.  0.
          1    1    3    3  502    0 -0.15298292415E+02  0.37542485189E+02  0.19672999188E+00  0.40540284257E+02  0.00000000000E+00 0. -1.
         -2    1    3    3    0  502  0.27955602187E+02  0.23976162631E+03 -0.17042673972E+03  0.29548676240E+03  0.00000000000E+00 0.  1.
         11    1    5    5    0    0  0.31933899267E+02  0.20594618097E+02 -0.76135145349E+01  0.38754068439E+02  0.00000000000E+00 0. -1.
        -11    1    5    5    0    0  0.22144313013E+03 -0.64624705120E+02  0.75112302135E+02  0.24260105178E+03  0.00000000000E+00 0.  1.
          2    1    6    6  503    0 -0.11722168241E+02 -0.27385997340E+02  0.55737790439E+02  0.63198918991E+02  0.00000000000E+00 0. -1.
         -2    1    6    6    0  503 -0.25431217093E+03 -0.20588802714E+03  0.13964580891E+04  0.14342802218E+04  0.00000000000E+00 0.  1.
<mgrwt>
<rscale>  0 0.16283684E+04</rscale>
<asrwt>0</asrwt>
<pdfrwt beam="1">  1        1 0.26648661E+00 0.16283684E+04</pdfrwt>
<pdfrwt beam="2">  1       -2 0.58876666E-01 0.16283684E+04</pdfrwt>
<totfact> 0.10263192E+01</totfact>
</mgrwt>
</event>
<event>
12    4  0.4486176E-008  0.2504962E+04  0.7818608E-02  0.8401220E-01
          1   -1    0    0  501    0  0.00000000000E+00  0.00000000000E+00  0.22315691153E+04  0.22315691153E+04  0.00000000000E+00 0. -1.
         -2   -1    0    0    0  501 -0.00000000000E+00 -0.00000000000E+00 -0.70296212397E+03  0.70296212397E+03  0.00000000000E+00 0.  1.
        -24    2    1    2    0    0 -0.14286444094E+03 -0.80588287533E+03 -0.17817048671E+03  0.84129081592E+03  0.78536980944E+02 0.  0.
        254    2    1    2    0    0  0.14286444094E+03  0.80588287533E+03  0.17067774780E+04  0.20932404233E+04  0.89370501464E+03 0.  0.
         23    2    4    4    0    0 -0.14826320557E+03 -0.13677828143E+03  0.28789588777E+03  0.36270605982E+03  0.89338498047E+02 0.  0.
         23    2    4    4    0    0  0.29112764652E+03  0.94266115676E+03  0.14188815902E+04  0.17305343635E+04  0.90326370247E+02 0.  0.
          3    1    3    3  502    0 -0.24084980376E+01 -0.10031711815E+03 -0.84888502147E+00  0.10034961715E+03  0.00000000000E+00 0. -1.
         -4    1    3    3    0  502 -0.14045594291E+03 -0.70556575718E+03 -0.17732160169E+03  0.74094119876E+03  0.00000000000E+00 0.  1.
         11    1    5    5    0    0 -0.13367631223E+03 -0.10826400478E+03  0.17513505488E+03  0.24548470142E+03  0.00000000000E+00 0. -1.
        -11    1    5    5    0    0 -0.14586893341E+02 -0.28514276655E+02  0.11276083289E+03  0.11722135840E+03  0.00000000000E+00 0.  1.
          2    1    6    6  503    0  0.27651699671E+03  0.78309269348E+03  0.11911567959E+04  0.14520848214E+04  0.00000000000E+00 0. -1.
         -2    1    6    6    0  503  0.14610649803E+02  0.15956846328E+03  0.22772479432E+03  0.27844954213E+03  0.00000000000E+00 0.  1.
<mgrwt>
<rscale>  0 0.25049619E+04</rscale>
<asrwt>0</asrwt>
<pdfrwt beam="1">  1        1 0.34331832E+00 0.25049619E+04</pdfrwt>
<pdfrwt beam="2">  1       -2 0.10814802E+00 0.25049619E+04</pdfrwt>
<totfact> 0.11075601E+00</totfact>
</mgrwt>
</event>
<event>
12    4  0.4486176E-008  0.1298407E+04  0.7818608E-02  0.9030829E-01
          1   -1    0    0  501    0  0.00000000000E+00  0.00000000000E+00  0.24086379005E+04  0.24086379005E+04  0.00000000000E+00 0. -1.
         -2   -1    0    0    0  501 -0.00000000000E+00 -0.00000000000E+00 -0.17498075200E+03  0.17498075200E+03  0.00000000000E+00 0.  1.
        -24    2    1    2    0    0  0.16695265595E+03 -0.26166301248E+03  0.40449881952E+03  0.51590306415E+03  0.78714389932E+02 0.  0.
        254    2    1    2    0    0 -0.16695265595E+03  0.26166301248E+03  0.18291583290E+04  0.20677155883E+04  0.91284546357E+03 0.  0.
         23    2    4    4    0    0 -0.10362401951E+02  0.51975862911E+03  0.60191655700E+03  0.80074276142E+03  0.92892499523E+02 0.  0.
         23    2    4    4    0    0 -0.15659025400E+03 -0.25809561663E+03  0.12272417720E+04  0.12669728269E+04  0.89240810719E+02 0.  0.
          1    1    3    3  502    0  0.97123704382E+02 -0.14640765325E+03  0.29000276219E+03  0.33907199377E+03  0.00000000000E+00 0. -1.
         -2    1    3    3    0  502  0.69828951569E+02 -0.11525535923E+03  0.11449605733E+03  0.17683107038E+03  0.00000000000E+00 0.  1.
         11    1    5    5    0    0 -0.43405120659E+02  0.15813650754E+03  0.21028431744E+03  0.26666580897E+03  0.00000000000E+00 0. -1.
        -11    1    5    5    0    0  0.33042718707E+02  0.36162212157E+03  0.39163223957E+03  0.53407695245E+03  0.00000000000E+00 0.  1.
          4    1    6    6  503    0  0.33720172855E+01 -0.32409938940E+02  0.22142248219E+03  0.22380726142E+03  0.00000000000E+00 0. -1.
         -4    1    6    6    0  503 -0.15996227129E+03 -0.22568567769E+03  0.10058192898E+04  0.10431655655E+04  0.00000000000E+00 0.  1.
<mgrwt>
<rscale>  0 0.12984071E+04</rscale>
<asrwt>0</asrwt>
<pdfrwt beam="1">  1        1 0.37055965E+00 0.12984071E+04</pdfrwt>
<pdfrwt beam="2">  1       -2 0.26920117E-01 0.12984071E+04</pdfrwt>
<totfact> 0.17010480E+01</totfact>
</mgrwt>
</event>
<event>
12    4  0.4486176E-008  0.1490707E+04  0.7818608E-02  0.8890656E-01
          1   -1    0    0  501    0  0.00000000000E+00  0.00000000000E+00  0.14044201641E+04  0.14044201641E+04  0.00000000000E+00 0. -1.
         -2   -1    0    0    0  501 -0.00000000000E+00 -0.00000000000E+00 -0.39557367648E+03  0.39557367648E+03  0.00000000000E+00 0.  1.
        -24    2    1    2    0    0 -0.14852626836E+02  0.37421636610E+03  0.26071637097E+01  0.38256445749E+03  0.78040230944E+02 0.  0.
        254    2    1    2    0    0  0.14852626836E+02 -0.37421636610E+03  0.10062393240E+04  0.14174293831E+04  0.92538099718E+03 0.  0.
         23    2    4    4    0    0  0.23407620378E+03  0.22977500950E+03  0.44092653143E+03  0.55688709778E+03  0.90104435987E+02 0.  0.
         23    2    4    4    0    0 -0.21922357695E+03 -0.60399137561E+03  0.56531279253E+03  0.86054228537E+03  0.89943943727E+02 0.  0.
          3    1    3    3  502    0  0.87462639122E+01  0.54238998114E+02 -0.25342499386E+02  0.60502961282E+02  0.00000000000E+00 0. -1.
         -4    1    3    3    0  502 -0.23598890748E+02  0.31997736799E+03  0.27949663096E+02  0.32206149620E+03  0.00000000000E+00 0.  1.
         11    1    5    5    0    0  0.14391776326E+03  0.90032801548E+02  0.26575425476E+03  0.31534671690E+03  0.00000000000E+00 0.  1.
        -11    1    5    5    0    0  0.90158440525E+02  0.13974220795E+03  0.17517227666E+03  0.24154038087E+03  0.00000000000E+00 0. -1.
          4    1    6    6  503    0 -0.40121578004E+02 -0.23635457980E+03  0.20059798773E+03  0.31259043667E+03  0.00000000000E+00 0. -1.
         -4    1    6    6    0  503 -0.17910199894E+03 -0.36763679581E+03  0.36471480480E+03  0.54795184870E+03  0.00000000000E+00 0.  1.
<mgrwt>
<rscale>  0 0.14907067E+04</rscale>
<asrwt>0</asrwt>
<pdfrwt beam="1">  1        1 0.21606464E+00 0.14907067E+04</pdfrwt>
<pdfrwt beam="2">  1       -2 0.60857489E-01 0.14907067E+04</pdfrwt>
<totfact> 0.16282008E+01</totfact>
</mgrwt>
</event>
<event>
12    4  0.4486176E-008  0.1718952E+04  0.7818608E-02  0.8750629E-01
         -2   -1    0    0    0  501 -0.00000000000E+00  0.00000000000E+00  0.34493096227E+03  0.34493096227E+03  0.00000000000E+00 0.  1.
          1   -1    0    0  501    0  0.00000000000E+00 -0.00000000000E+00 -0.21415851823E+04  0.21415851823E+04  0.00000000000E+00 0. -1.
        -24    2    1    2    0    0 -0.33903698632E+03 -0.11254491603E+03 -0.13832845251E+04  0.14311273992E+04  0.83887538924E+02 0.  0.
        254    2    1    2    0    0  0.33903698632E+03  0.11254491603E+03 -0.41336969502E+03  0.10553887454E+04  0.90297201674E+03 0.  0.
         23    2    4    4    0    0 -0.28102295992E+03  0.12665857876E+03 -0.25158895746E+03  0.40779301991E+03  0.89341166283E+02 0.  0.
         23    2    4    4    0    0  0.62005994624E+03 -0.14113662726E+02 -0.16178073756E+03  0.64759572553E+03  0.92377942540E+02 0.  0.
          3    1    3    3  502    0 -0.24535359680E+03 -0.59712379768E+02 -0.10864231936E+04  0.11153830334E+04  0.00000000000E+00 0. -1.
         -4    1    3    3    0  502 -0.93683389525E+02 -0.52832536261E+02 -0.29686133149E+03  0.31574436573E+03  0.00000000000E+00 0.  1.
         11    1    5    5    0    0 -0.23978846769E+03  0.12818255321E+03 -0.18299434318E+03  0.32774411638E+03  0.00000000000E+00 0. -1.
        -11    1    5    5    0    0 -0.41234492225E+02 -0.15239744516E+01 -0.68594614282E+02  0.80048903526E+02  0.00000000000E+00 0.  1.
          3    1    6    6  503    0  0.38316260982E+03  0.29524479681E+01 -0.14429122144E+03  0.40944139885E+03  0.00000000000E+00 0. -1.
         -3    1    6    6    0  503  0.23689733643E+03 -0.17066110694E+02 -0.17489516118E+02  0.23815432668E+03  0.00000000000E+00 0.  1.
<mgrwt>
<rscale>  0 0.17189521E+04</rscale>
<asrwt>0</asrwt>
<pdfrwt beam="1">  1        1 0.32947463E+00 0.17189521E+04</pdfrwt>
<pdfrwt beam="2">  1       -2 0.53066304E-01 0.17189521E+04</pdfrwt>
<totfact> 0.66734412E+00</totfact>
</mgrwt>
</event>
<event>
12    4  0.4486176E-008  0.1262179E+04  0.7818608E-02  0.9060107E-01
         -2   -1    0    0    0  501 -0.00000000000E+00  0.00000000000E+00  0.15798872416E+03  0.15798872416E+03  0.00000000000E+00 0.  1.
          1   -1    0    0  501    0  0.00000000000E+00 -0.00000000000E+00 -0.25209006319E+04  0.25209006319E+04  0.00000000000E+00 0. -1.
        -24    2    1    2    0    0 -0.17868967145E+03 -0.58372653930E+02 -0.10960176675E+04  0.11153553487E+04  0.86171114245E+02 0.  0.
        254    2    1    2    0    0  0.17868967145E+03  0.58372653930E+02 -0.12668942402E+04  0.15635340074E+04  0.89681670974E+03 0.  0.
         23    2    4    4    0    0 -0.16276500170E+03  0.23898413964E+03 -0.82999535788E+02  0.31482325498E+03  0.92837999547E+02 0.  0.
         23    2    4    4    0    0  0.34145467314E+03 -0.18061148571E+03 -0.11838947045E+04  0.12487107524E+04  0.91978635234E+02 0.  0.
          3    1    3    3  502    0 -0.17564283522E+03 -0.56859852594E+02 -0.87279718856E+03  0.89210895117E+03  0.00000000000E+00 0. -1.
         -4    1    3    3    0  502 -0.30468362278E+01 -0.15128013363E+01 -0.22322047896E+03  0.22324639752E+03  0.00000000000E+00 0.  1.
         11    1    5    5    0    0 -0.82512134077E+02  0.81368822463E+02  0.75342586599E+01  0.11612881896E+03  0.00000000000E+00 0. -1.
        -11    1    5    5    0    0 -0.80252867618E+02  0.15761531718E+03 -0.90533794448E+02  0.19869443602E+03  0.00000000000E+00 0.  1.
          1    1    6    6  503    0  0.15712691781E+03 -0.34118086238E+02 -0.52074697618E+03  0.54500488558E+03  0.00000000000E+00 0. -1.
         -1    1    6    6    0  503  0.18432775533E+03 -0.14649339947E+03 -0.66314772828E+03  0.70370586682E+03  0.00000000000E+00 0.  1.
<mgrwt>
<rscale>  0 0.12621789E+04</rscale>
<asrwt>0</asrwt>
<pdfrwt beam="1">  1        1 0.38783086E+00 0.12621789E+04</pdfrwt>
<pdfrwt beam="2">  1       -2 0.24305958E-01 0.12621789E+04</pdfrwt>
<totfact> 0.17203074E+01</totfact>
</mgrwt>
</event>
<event>
12    4  0.4486176E-008  0.1831986E+04  0.7818608E-02  0.8689472E-01
         -2   -1    0    0    0  501 -0.00000000000E+00  0.00000000000E+00  0.72784345981E+03  0.72784345981E+03  0.00000000000E+00 0.  1.
          1   -1    0    0  501    0  0.00000000000E+00 -0.00000000000E+00 -0.11527803367E+04  0.11527803367E+04  0.00000000000E+00 0. -1.
        -24    2    1    2    0    0  0.53953847603E+02  0.66957195557E+03  0.29497499491E+02  0.67717606532E+03  0.80372256498E+02 0.  0.
        254    2    1    2    0    0 -0.53953847603E+02 -0.66957195557E+03 -0.45443437638E+03  0.12034477312E+04  0.88912216142E+03 0.  0.
         23    2    4    4    0    0 -0.30836998884E+03 -0.37258778464E+03  0.11538219047E+03  0.50550506004E+03  0.91151569202E+02 0.  0.
         23    2    4    4    0    0  0.25441614124E+03 -0.29698417093E+03 -0.56981656685E+03  0.69794267115E+03  0.97498111057E+02 0.  0.
          3    1    3    3  502    0  0.95543975804E+01  0.35673421696E+03  0.50926176665E+02  0.36047754927E+03  0.00000000000E+00 0. -1.
         -4    1    3    3    0  502  0.44399450023E+02  0.31283773861E+03 -0.21428677173E+02  0.31669851605E+03  0.00000000000E+00 0.  1.
         11    1    5    5    0    0 -0.14453439704E+03 -0.13861707206E+03  0.82080968287E+01  0.20043018098E+03  0.00000000000E+00 0.  1.
        -11    1    5    5    0    0 -0.16383559180E+03 -0.23397071258E+03  0.10717409364E+03  0.30507487906E+03  0.00000000000E+00 0. -1.
          2    1    6    6  503    0  0.37182568318E+02 -0.20566668801E+02 -0.24283933830E+02  0.48941196293E+02  0.00000000000E+00 0. -1.
         -2    1    6    6    0  503  0.21723357292E+03 -0.27641750213E+03 -0.54553263301E+03  0.64900147486E+03  0.00000000000E+00 0.  1.
<mgrwt>
<rscale>  0 0.18319865E+04</rscale>
<asrwt>0</asrwt>
<pdfrwt beam="1">  1        1 0.17735082E+00 0.18319865E+04</pdfrwt>
<pdfrwt beam="2">  1       -2 0.11197592E+00 0.18319865E+04</pdfrwt>
<totfact> 0.60123253E+00</totfact>
</mgrwt>
</event>
<event>
12    4  0.4486176E-008  0.1306722E+04  0.7818608E-02  0.9024252E-01
          1   -1    0    0  501    0  0.00000000000E+00  0.00000000000E+00  0.67875848262E+03  0.67875848262E+03  0.00000000000E+00 0. -1.
         -2   -1    0    0    0  501 -0.00000000000E+00 -0.00000000000E+00 -0.62891343647E+03  0.62891343647E+03  0.00000000000E+00 0.  1.
        -24    2    1    2    0    0  0.22140849397E+03  0.89502764157E+02 -0.23124050754E+03  0.34843971611E+03  0.10442986852E+03 0.  0.
        254    2    1    2    0    0 -0.22140849397E+03 -0.89502764157E+02  0.28108555369E+03  0.95923220298E+03  0.88548566603E+03 0.  0.
         23    2    4    4    0    0 -0.94946679647E+02 -0.41596107550E+03 -0.84355475359E+02  0.44476768170E+03  0.93080374710E+02 0.  0.
         23    2    4    4    0    0 -0.12646181433E+03  0.32645831134E+03  0.36544102905E+03  0.51446452128E+03  0.92514747021E+02 0.  0.
          3    1    3    3  502    0  0.15152933846E+02  0.47858101293E+02 -0.42410098248E+02  0.65716251391E+02  0.00000000000E+00 0. -1.
         -4    1    3    3    0  502  0.20625556013E+03  0.41644662864E+02 -0.18883040930E+03  0.28272346472E+03  0.00000000000E+00 0.  1.
         11    1    5    5    0    0  0.15429774615E+02 -0.52490545172E+02  0.36951404433E+01  0.54836022285E+02  0.00000000000E+00 0. -1.
        -11    1    5    5    0    0 -0.11037645426E+03 -0.36347053032E+03 -0.88050615803E+02  0.38993165941E+03  0.00000000000E+00 0.  1.
          4    1    6    6  503    0 -0.66012169949E+02  0.61449443109E+02  0.96622064840E+02  0.13217210013E+03  0.00000000000E+00 0. -1.
         -4    1    6    6    0  503 -0.60449644376E+02  0.26500886823E+03  0.26881896421E+03  0.38229242114E+03  0.00000000000E+00 0.  1.
<mgrwt>
<rscale>  0 0.13067216E+04</rscale>
<asrwt>0</asrwt>
<pdfrwt beam="1">  1        1 0.10442438E+00 0.13067216E+04</pdfrwt>
<pdfrwt beam="2">  1       -2 0.96755914E-01 0.13067216E+04</pdfrwt>
<totfact> 0.21917082E+01</totfact>
</mgrwt>
</event>
<event>
12    4  0.4486176E-008  0.1747548E+04  0.7818608E-02  0.8734701E-01
         -2   -1    0    0    0  501 -0.00000000000E+00  0.00000000000E+00  0.65273361048E+03  0.65273361048E+03  0.00000000000E+00 0.  1.
          1   -1    0    0  501    0  0.00000000000E+00 -0.00000000000E+00 -0.11696664317E+04  0.11696664317E+04  0.00000000000E+00 0. -1.
        -24    2    1    2    0    0 -0.25339774848E+03  0.41442870072E+03 -0.62020461674E+03  0.79178335675E+03  0.79407496402E+02 0.  0.
        254    2    1    2    0    0  0.25339774848E+03 -0.41442870072E+03  0.10327179550E+03  0.10306166855E+04  0.90307481511E+03 0.  0.
         23    2    4    4    0    0  0.31158784597E+03  0.14206549615E+03  0.26333207736E+03  0.44177752205E+03  0.92487864485E+02 0.  0.
         23    2    4    4    0    0 -0.58190097483E+02 -0.55649419686E+03 -0.16006028186E+03  0.58883916341E+03  0.89668210327E+02 0.  0.
          3    1    3    3  502    0 -0.13256933610E+03  0.14902974948E+03 -0.27859062959E+03  0.34263279761E+03  0.00000000000E+00 0. -1.
         -4    1    3    3    0  502 -0.12082841239E+03  0.26539895124E+03 -0.34161398716E+03  0.44915055915E+03  0.00000000000E+00 0.  1.
         11    1    5    5    0    0  0.12134319616E+03  0.21252534728E+02  0.13365629558E+03  0.18176866296E+03  0.00000000000E+00 0.  1.
        -11    1    5    5    0    0  0.19024464981E+03  0.12081296142E+03  0.12967578178E+03  0.26000885909E+03  0.00000000000E+00 0. -1.
          4    1    6    6  503    0  0.93994346144E+01 -0.83204500705E+02 -0.52392453069E+02  0.98774022127E+02  0.00000000000E+00 0.  1.
         -4    1    6    6    0  503 -0.67589532098E+02 -0.47328969616E+03 -0.10766782879E+03  0.49006514128E+03  0.00000000000E+00 0. -1.
<mgrwt>
<rscale>  0 0.17475475E+04</rscale>
<asrwt>0</asrwt>
<pdfrwt beam="1">  1        1 0.17994868E+00 0.17475475E+04</pdfrwt>
<pdfrwt beam="2">  1       -2 0.10042056E+00 0.17475475E+04</pdfrwt>
<totfact> 0.76474728E+00</totfact>
</mgrwt>
</event>
<event>
12    4  0.4486176E-008  0.1198492E+04  0.7818608E-02  0.9114177E-01
          1   -1    0    0  501    0  0.00000000000E+00  0.00000000000E+00  0.42428660650E+03  0.42428660650E+03  0.00000000000E+00 0. -1.
         -2   -1    0    0    0  501 -0.00000000000E+00 -0.00000000000E+00 -0.84635197587E+03  0.84635197587E+03  0.00000000000E+00 0.  1.
        -24    2    1    2    0    0  0.15788656948E+03 -0.21537432763E+02  0.10831338504E+03  0.20821378123E+03  0.78925024453E+02 0.  0.
        254    2    1    2    0    0 -0.15788656948E+03  0.21537432763E+02 -0.53037875441E+03  0.10624248011E+04  0.90667127731E+03 0.  0.
         23    2    4    4    0    0 -0.93956246943E+02 -0.26654036428E+03 -0.66070036556E+03  0.72465981745E+03  0.93463018623E+02 0.  0.
         23    2    4    4    0    0 -0.63930322533E+02  0.28807779704E+03  0.13032161115E+03  0.33776498368E+03  0.10012771136E+03 0.  0.
          3    1    3    3  502    0  0.10276117256E+03 -0.51586252503E+02  0.72581523157E+02  0.13597454738E+03  0.00000000000E+00 0. -1.
         -4    1    3    3    0  502  0.55125396921E+02  0.30048819739E+02  0.35731861881E+02  0.72239233848E+02  0.00000000000E+00 0.  1.
         11    1    5    5    0    0 -0.63797737707E+02 -0.23834965625E+03 -0.48477199482E+03  0.54395275248E+03  0.00000000000E+00 0. -1.
        -11    1    5    5    0    0 -0.30158509236E+02 -0.28190708023E+02 -0.17592837074E+03  0.18070706497E+03  0.00000000000E+00 0.  1.
          1    1    6    6  503    0 -0.35962797072E+02  0.26431090426E+03  0.13790818958E+03  0.30028693884E+03  0.00000000000E+00 0. -1.
         -1    1    6    6    0  503 -0.27967525461E+02  0.23766892780E+02 -0.75865784332E+01  0.37478044842E+02  0.00000000000E+00 0.  1.
<mgrwt>
<rscale>  0 0.11984921E+04</rscale>
<asrwt>0</asrwt>
<pdfrwt beam="1">  1        1 0.65274863E-01 0.11984921E+04</pdfrwt>
<pdfrwt beam="2">  1       -2 0.13020800E+00 0.11984921E+04</pdfrwt>
<totfact> 0.20730068E+01</totfact>
</mgrwt>
</event>
<event>
12    4  0.4486176E-008  0.1741396E+04  0.7818608E-02  0.8738101E-01
          1   -1    0    0  501    0  0.00000000000E+00  0.00000000000E+00  0.13884972161E+04  0.13884972161E+04  0.00000000000E+00 0. -1.
         -2   -1    0    0    0  501 -0.00000000000E+00 -0.00000000000E+00 -0.54599686876E+03  0.54599686876E+03  0.00000000000E+00 0.  1.
        -24    2    1    2    0    0  0.31779504975E+03 -0.15413837708E+03 -0.27672703166E+03  0.45712879459E+03  0.87387366713E+02 0.  0.
        254    2    1    2    0    0 -0.31779504975E+03  0.15413837708E+03  0.11192273790E+04  0.14773652903E+04  0.89732153773E+03 0.  0.
         23    2    4    4    0    0  0.86377151120E+01  0.42076577497E+03  0.89039914949E+03  0.98949772101E+03  0.95794816941E+02 0.  0.
         23    2    4    4    0    0 -0.32643276486E+03 -0.26662739789E+03  0.22882822948E+03  0.48786756924E+03  0.89464446748E+02 0.  0.
          1    1    3    3  502    0  0.24302647021E+02 -0.67636598507E+01  0.34215159440E+01  0.25457268474E+02  0.00000000000E+00 0. -1.
         -2    1    3    3    0  502  0.29349240273E+03 -0.14737471723E+03 -0.28014854760E+03  0.43167152612E+03  0.00000000000E+00 0.  1.
         11    1    5    5    0    0 -0.31819830250E+02  0.66279969135E+02  0.18296796341E+03  0.19718724995E+03  0.00000000000E+00 0. -1.
        -11    1    5    5    0    0  0.40457545362E+02  0.35448580584E+03  0.70743118608E+03  0.79231047106E+03  0.00000000000E+00 0.  1.
          2    1    6    6  503    0 -0.11158386103E+03 -0.14454608852E+03  0.11500221174E+03  0.21580092320E+03  0.00000000000E+00 0. -1.
         -2    1    6    6    0  503 -0.21484890383E+03 -0.12208130937E+03  0.11382601774E+03  0.27206664604E+03  0.00000000000E+00 0.  1.
<mgrwt>
<rscale>  0 0.17413961E+04</rscale>
<asrwt>0</asrwt>
<pdfrwt beam="1">  1        1 0.21361496E+00 0.17413961E+04</pdfrwt>
<pdfrwt beam="2">  1       -2 0.83999519E-01 0.17413961E+04</pdfrwt>
<totfact> 0.80617385E+00</totfact>
</mgrwt>
</event>
<event>
12    4  0.4486176E-008  0.1631780E+04  0.7818608E-02  0.8801259E-01
          3   -1    0    0  501    0  0.00000000000E+00  0.00000000000E+00  0.37972262847E+03  0.37972262847E+03  0.00000000000E+00 0. -1.
         -4   -1    0    0    0  501 -0.00000000000E+00 -0.00000000000E+00 -0.17530591577E+04  0.17530591577E+04  0.00000000000E+00 0.  1.
        -24    2    1    2    0    0  0.57648966205E+02  0.31011159744E+03 -0.11925768211E+04  0.12360026607E+04  0.77268990148E+02 0.  0.
        254    2    1    2    0    0 -0.57648966205E+02 -0.31011159744E+03 -0.18075970815E+03  0.89677912550E+03  0.81978419214E+03 0.  0.
         23    2    4    4    0    0 -0.17221040712E+03 -0.23935197711E+03 -0.47162336187E+03  0.56335230296E+03  0.89394790223E+02 0.  0.
         23    2    4    4    0    0  0.11456144092E+03 -0.70759620334E+02  0.29086365372E+03  0.33342682255E+03  0.91872375195E+02 0.  0.
          1    1    3    3  502    0  0.29404277206E+02  0.26720881480E+03 -0.91328000839E+03  0.95202181485E+03  0.00000000000E+00 0. -1.
         -2    1    3    3    0  502  0.28244688999E+02  0.42902782646E+02 -0.27929681272E+03  0.28398084586E+03  0.00000000000E+00 0.  1.
         11    1    5    5    0    0 -0.28912964096E+02 -0.87787791163E+02 -0.93237592546E+02  0.13128558350E+03  0.00000000000E+00 0. -1.
        -11    1    5    5    0    0 -0.14329744303E+03 -0.15156418594E+03 -0.37838576932E+03  0.43206671946E+03  0.00000000000E+00 0.  1.
          3    1    6    6  503    0  0.12774167965E+02  0.20705186506E+02  0.64228374836E+02  0.68681644196E+02  0.00000000000E+00 0. -1.
         -3    1    6    6    0  503  0.10178727295E+03 -0.91464806840E+02  0.22663527888E+03  0.26474517835E+03  0.00000000000E+00 0.  1.
<mgrwt>
<rscale>  0 0.16317797E+04</rscale>
<asrwt>0</asrwt>
<pdfrwt beam="1">  1        3 0.58418866E-01 0.16317797E+04</pdfrwt>
<pdfrwt beam="2">  1       -4 0.26970141E+00 0.16317797E+04</pdfrwt>
<totfact> 0.30011886E-01</totfact>
</mgrwt>
</event>
<event>
12    4  0.4486176E-008  0.1531087E+04  0.7818608E-02  0.8864040E-01
         -2   -1    0    0    0  501 -0.00000000000E+00  0.00000000000E+00  0.64397320830E+03  0.64397320830E+03  0.00000000000E+00 0.  1.
          1   -1    0    0  501    0  0.00000000000E+00 -0.00000000000E+00 -0.91006343972E+03  0.91006343972E+03  0.00000000000E+00 0. -1.
        -24    2    1    2    0    0  0.13739899633E+03 -0.39195647274E+03  0.21314771114E+03  0.47359320444E+03  0.79688241398E+02 0.  0.
        254    2    1    2    0    0 -0.13739899633E+03  0.39195647274E+03 -0.47923794256E+03  0.10804434436E+04  0.87474605942E+03 0.  0.
         23    2    4    4    0    0 -0.47510876517E+03  0.91994619825E+02 -0.34972386438E+03  0.60393110035E+03  0.90744938397E+02 0.  0.
         23    2    4    4    0    0  0.33770976884E+03  0.29996185291E+03 -0.12951407819E+03  0.47651234323E+03  0.79152483376E+02 0.  0.
          3    1    3    3  502    0  0.65326499199E+02 -0.16903890571E+03  0.13723661590E+03  0.22732266030E+03  0.00000000000E+00 0. -1.
         -4    1    3    3    0  502  0.72072497129E+02 -0.22291756703E+03  0.75911095237E+02  0.24627054415E+03  0.00000000000E+00 0.  1.
         11    1    5    5    0    0 -0.37259391736E+03  0.10882817006E+03 -0.26689665074E+03  0.47106647092E+03  0.00000000000E+00 0.  1.
        -11    1    5    5    0    0 -0.10251484781E+03 -0.16833550239E+02 -0.82827213637E+02  0.13286462943E+03  0.00000000000E+00 0. -1.
          2    1    6    6  503    0  0.31649192318E+03  0.27976219945E+03 -0.98294559476E+02  0.43370017996E+03  0.00000000000E+00 0. -1.
         -2    1    6    6    0  503  0.21217845662E+02  0.20199653464E+02 -0.31219518712E+02  0.42812163263E+02  0.00000000000E+00 0.  1.
<mgrwt>
<rscale>  0 0.15310865E+04</rscale>
<asrwt>0</asrwt>
<pdfrwt beam="1">  1        1 0.14000976E+00 0.15310865E+04</pdfrwt>
<pdfrwt beam="2">  1       -2 0.99072802E-01 0.15310865E+04</pdfrwt>
<totfact> 0.12750023E+01</totfact>
</mgrwt>
</event>
<event>
12    4  0.4486176E-008  0.1404444E+04  0.7818608E-02  0.8950608E-01
         -2   -1    0    0    0  501 -0.00000000000E+00  0.00000000000E+00  0.62102896216E+03  0.62102896216E+03  0.00000000000E+00 0.  1.
          1   -1    0    0  501    0  0.00000000000E+00 -0.00000000000E+00 -0.79403013135E+03  0.79403013135E+03  0.00000000000E+00 0. -1.
        -24    2    1    2    0    0 -0.18800322223E+03  0.59898908100E+02 -0.40847230041E+03  0.46040280646E+03  0.78664052991E+02 0.  0.
        254    2    1    2    0    0  0.18800322223E+03 -0.59898908100E+02  0.23547113122E+03  0.95465628706E+03  0.90387437292E+03 0.  0.
         23    2    4    4    0    0  0.42964323251E+02  0.35789338965E+03 -0.10887494002E+03  0.38735340043E+03  0.90858642066E+02 0.  0.
         23    2    4    4    0    0  0.14503889898E+03 -0.41779229775E+03  0.34434607124E+03  0.56730288663E+03  0.87588025011E+02 0.  0.
          3    1    3    3  502    0 -0.21719319935E+02  0.15206282754E+02 -0.13245467928E+03  0.13508220445E+03  0.00000000000E+00 0. -1.
         -4    1    3    3    0  502 -0.16628390229E+03  0.44692625346E+02 -0.27601762112E+03  0.32532060201E+03  0.00000000000E+00 0.  1.
         11    1    5    5    0    0  0.53253286595E+02  0.23686345959E+03 -0.10842135840E+03  0.26588606955E+03  0.00000000000E+00 0.  1.
        -11    1    5    5    0    0 -0.10288963344E+02  0.12102993005E+03 -0.45358161787E+00  0.12146733088E+03  0.00000000000E+00 0. -1.
          3    1    6    6  503    0  0.33178418716E+02 -0.21037988260E+03  0.19155987875E+03  0.28645364305E+03  0.00000000000E+00 0. -1.
         -3    1    6    6    0  503  0.11186048026E+03 -0.20741241515E+03  0.15278619248E+03  0.28084924357E+03  0.00000000000E+00 0.  1.
<mgrwt>
<rscale>  0 0.14044440E+04</rscale>
<asrwt>0</asrwt>
<pdfrwt beam="1">  1        1 0.12215848E+00 0.14044440E+04</pdfrwt>
<pdfrwt beam="2">  1       -2 0.95542918E-01 0.14044440E+04</pdfrwt>
<totfact> 0.17573581E+01</totfact>
</mgrwt>
</event>
<event>
12    4  0.4486176E-008  0.2167808E+04  0.7818608E-02  0.8531948E-01
         -2   -1    0    0    0  501 -0.00000000000E+00  0.00000000000E+00  0.23267406235E+03  0.23267406235E+03  0.00000000000E+00 0.  1.
          1   -1    0    0  501    0  0.00000000000E+00 -0.00000000000E+00 -0.50493308758E+04  0.50493308758E+04  0.00000000000E+00 0. -1.
        -24    2    1    2    0    0  0.65172440410E+03  0.60203176205E+03 -0.17242199657E+04  0.19411992044E+04  0.90182702594E+02 0.  0.
        254    2    1    2    0    0 -0.65172440410E+03 -0.60203176205E+03 -0.30924368477E+04  0.33408057337E+04  0.90035012718E+03 0.  0.
         23    2    4    4    0    0 -0.73399407234E+03 -0.32134935948E+03 -0.28131025509E+04  0.29261116621E+04  0.81060400483E+02 0.  0.
         23    2    4    4    0    0  0.82269668240E+02 -0.28068240258E+03 -0.27933429687E+03  0.41469407154E+03  0.91611211846E+02 0.  0.
          3    1    3    3  502    0  0.20464289386E+03  0.24071219857E+03 -0.65672960220E+03  0.72877626674E+03  0.00000000000E+00 0. -1.
         -4    1    3    3    0  502  0.44708151024E+03  0.36131956348E+03 -0.10674903635E+04  0.12124229377E+04  0.00000000000E+00 0.  1.
         11    1    5    5    0    0 -0.49003980956E+03 -0.25555486937E+03 -0.19342239931E+04  0.20116336053E+04  0.00000000000E+00 0. -1.
        -11    1    5    5    0    0 -0.24395426278E+03 -0.65794490104E+02 -0.87887855774E+03  0.91447805687E+03  0.00000000000E+00 0.  1.
          2    1    6    6  503    0 -0.14716019428E+02 -0.46140929723E+02 -0.72983586337E+02  0.87590812863E+02  0.00000000000E+00 0.  1.
         -2    1    6    6    0  503  0.96985687668E+02 -0.23454147285E+03 -0.20635071053E+03  0.32710325868E+03  0.00000000000E+00 0. -1.
<mgrwt>
<rscale>  0 0.21678084E+04</rscale>
<asrwt>0</asrwt>
<pdfrwt beam="1">  1        1 0.77682011E+00 0.21678084E+04</pdfrwt>
<pdfrwt beam="2">  1       -2 0.35796011E-01 0.21678084E+04</pdfrwt>
<totfact> 0.44727847E-02</totfact>
</mgrwt>
</event>
<event>
12    4  0.4486176E-008  0.3177265E+04  0.7818608E-02  0.8194847E-01
         -2   -1    0    0    0  501 -0.00000000000E+00  0.00000000000E+00  0.17453462501E+04  0.17453462501E+04  0.00000000000E+00 0.  1.
          1   -1    0    0  501    0  0.00000000000E+00 -0.00000000000E+00 -0.14459896109E+04  0.14459896109E+04  0.00000000000E+00 0. -1.
        -24    2    1    2    0    0  0.37000325419E+03 -0.13319728887E+04  0.71489544323E+03  0.15583309349E+04  0.79155691649E+02 0.  0.
        254    2    1    2    0    0 -0.37000325419E+03  0.13319728887E+04 -0.41553880404E+03  0.16330049262E+04  0.76353022664E+03 0.  0.
         23    2    4    4    0    0 -0.25182843432E+03  0.32324002294E+03 -0.44589848276E+03  0.61258046641E+03  0.92345536627E+02 0.  0.
         23    2    4    4    0    0 -0.11817481988E+03  0.10087328657E+04  0.30359678720E+02  0.10204244598E+04  0.94005773991E+02 0.  0.
          3    1    3    3  502    0  0.11839375309E+03 -0.35730512314E+03  0.16116268471E+03  0.40945994033E+03  0.00000000000E+00 0. -1.
         -4    1    3    3    0  502  0.25160950110E+03 -0.97466776555E+03  0.55373275852E+03  0.11488709945E+04  0.00000000000E+00 0.  1.
         11    1    5    5    0    0 -0.49460796888E+02  0.10412284504E+03 -0.79035349635E+02  0.13976596073E+03  0.00000000000E+00 0.  1.
        -11    1    5    5    0    0 -0.20236763743E+03  0.21911717791E+03 -0.36686313313E+03  0.47281450568E+03  0.00000000000E+00 0. -1.
          2    1    6    6  503    0 -0.30830404180E+02  0.46860931566E+03  0.54359643459E+02  0.47275805163E+03  0.00000000000E+00 0.  1.
         -2    1    6    6    0  503 -0.87344415697E+02  0.54012355008E+03 -0.23999964739E+02  0.54766640815E+03  0.00000000000E+00 0. -1.
<mgrwt>
<rscale>  0 0.31772646E+04</rscale>
<asrwt>0</asrwt>
<pdfrwt beam="1">  1        1 0.22245994E+00 0.31772646E+04</pdfrwt>
<pdfrwt beam="2">  1       -2 0.26851481E+00 0.31772646E+04</pdfrwt>
<totfact> 0.25989321E-01</totfact>
</mgrwt>
</event>
<event>
12    4  0.4486176E-008  0.2611424E+04  0.7818608E-02  0.8364331E-01
         -2   -1    0    0    0  501 -0.00000000000E+00  0.00000000000E+00  0.49738483775E+03  0.49738483775E+03  0.00000000000E+00 0.  1.
          1   -1    0    0  501    0  0.00000000000E+00 -0.00000000000E+00 -0.34276949492E+04  0.34276949492E+04  0.00000000000E+00 0. -1.
        -24    2    1    2    0    0 -0.50571445654E+03 -0.98186022557E+03 -0.78803423928E+03  0.13590486114E+04  0.78857794961E+02 0.  0.
        254    2    1    2    0    0  0.50571445654E+03  0.98186022557E+03 -0.21422758721E+04  0.25660311755E+04  0.88055293261E+03 0.  0.
         23    2    4    4    0    0  0.99195744671E+02  0.92741821690E+03 -0.17804664355E+04  0.20119862022E+04  0.89907759124E+02 0.  0.
         23    2    4    4    0    0  0.40651871187E+03  0.54442008665E+02 -0.36180943668E+03  0.55404497332E+03  0.88534561483E+02 0.  0.
          3    1    3    3  502    0 -0.13311594870E+03 -0.20843702770E+03 -0.14788707596E+03  0.28816043717E+03  0.00000000000E+00 0. -1.
         -4    1    3    3    0  502 -0.37259850784E+03 -0.77342319787E+03 -0.64014716332E+03  0.10708881742E+04  0.00000000000E+00 0.  1.
         11    1    5    5    0    0  0.26807341898E+02  0.37670943888E+03 -0.63174490111E+03  0.73602327069E+03  0.00000000000E+00 0.  1.
        -11    1    5    5    0    0  0.72388402773E+02  0.55070877802E+03 -0.11487215343E+04  0.12759629315E+04  0.00000000000E+00 0. -1.
          1    1    6    6  503    0  0.70426778971E+02  0.17694948044E+02 -0.24957976133E+02  0.76785043825E+02  0.00000000000E+00 0. -1.
         -1    1    6    6    0  503  0.33609193290E+03  0.36747060621E+02 -0.33685146055E+03  0.47725992949E+03  0.00000000000E+00 0.  1.
<mgrwt>
<rscale>  0 0.26114237E+04</rscale>
<asrwt>0</asrwt>
<pdfrwt beam="1">  1        1 0.52733769E+00 0.26114237E+04</pdfrwt>
<pdfrwt beam="2">  1       -2 0.76520744E-01 0.26114237E+04</pdfrwt>
<totfact> 0.33656960E-01</totfact>
</mgrwt>
</event>
<event>
12    4  0.4486176E-008  0.3050636E+04  0.7818608E-02  0.8229418E-01
         -2   -1    0    0    0  501 -0.00000000000E+00  0.00000000000E+00  0.59246982360E+03  0.59246982360E+03  0.00000000000E+00 0.  1.
          1   -1    0    0  501    0  0.00000000000E+00 -0.00000000000E+00 -0.39269415736E+04  0.39269415736E+04  0.00000000000E+00 0. -1.
        -24    2    1    2    0    0  0.73772096143E+03  0.29423868553E+03  0.17384119681E+03  0.81660249802E+03  0.76225042210E+02 0.  0.
        254    2    1    2    0    0 -0.73772096143E+03 -0.29423868553E+03 -0.35083129468E+04  0.37028088992E+04  0.87847902086E+03 0.  0.
         23    2    4    4    0    0 -0.53063113572E+03  0.94880599230E+01 -0.30985687799E+04  0.31450188691E+04  0.91409941917E+02 0.  0.
         23    2    4    4    0    0 -0.20708982571E+03 -0.30372674545E+03 -0.40974416688E+03  0.55779003010E+03  0.90018351250E+02 0.  0.
          1    1    3    3  502    0  0.26090136962E+03  0.13557695869E+03  0.41455766814E+02  0.29693301770E+03  0.00000000000E+00 0. -1.
         -2    1    3    3    0  502  0.47681959181E+03  0.15866172684E+03  0.13238543000E+03  0.51966948032E+03  0.00000000000E+00 0.  1.
         11    1    5    5    0    0 -0.23380705007E+03  0.27999431807E+02 -0.15987344193E+04  0.16159831213E+04  0.00000000000E+00 0. -1.
        -11    1    5    5    0    0 -0.29682408565E+03 -0.18511371884E+02 -0.14998343606E+04  0.15290357478E+04  0.00000000000E+00 0.  1.
          3    1    6    6  503    0 -0.89893499216E+02 -0.63599443872E+02 -0.13988563848E+03  0.17802730778E+03  0.00000000000E+00 0. -1.
         -3    1    6    6    0  503 -0.11719632650E+03 -0.24012730158E+03 -0.26985852840E+03  0.37976272231E+03  0.00000000000E+00 0.  1.
<mgrwt>
<rscale>  0 0.30506356E+04</rscale>
<asrwt>0</asrwt>
<pdfrwt beam="1">  1        1 0.60414484E+00 0.30506356E+04</pdfrwt>
<pdfrwt beam="2">  1       -2 0.91149206E-01 0.30506356E+04</pdfrwt>
<totfact> 0.84987581E-02</totfact>
</mgrwt>
</event>
<event>
12    4  0.4486176E-008  0.2451314E+04  0.7818608E-02  0.8420539E-01
          1   -1    0    0  501    0  0.00000000000E+00  0.00000000000E+00  0.30780984544E+04  0.30780984544E+04  0.00000000000E+00 0. -1.
         -2   -1    0    0    0  501 -0.00000000000E+00 -0.00000000000E+00 -0.48803981002E+03  0.48803981002E+03  0.00000000000E+00 0.  1.
        -24    2    1    2    0    0 -0.69706488184E+03 -0.11499441347E+03 -0.35057703828E+02  0.71199702940E+03  0.81163801410E+02 0.  0.
        254    2    1    2    0    0  0.69706488184E+03  0.11499441347E+03  0.26251163482E+04  0.28541412350E+04  0.86934641149E+03 0.  0.
         23    2    4    4    0    0  0.13422900792E+03 -0.17141196777E+03  0.11081834029E+03  0.26014526500E+03  0.89416805438E+02 0.  0.
         23    2    4    4    0    0  0.56283587392E+03  0.28640638123E+03  0.25142980079E+04  0.25939959700E+04  0.91147044216E+02 0.  0.
          1    1    3    3  502    0 -0.46978397890E+03 -0.98308117250E+02  0.82261969063E+01  0.48003035640E+03  0.00000000000E+00 0. -1.
         -2    1    3    3    0  502 -0.22728090294E+03 -0.16686296218E+02 -0.43283900734E+02  0.23196667300E+03  0.00000000000E+00 0.  1.
         11    1    5    5    0    0  0.57436909404E+02 -0.22930656766E+02  0.58126877018E+02  0.84873714503E+02  0.00000000000E+00 0.  1.
        -11    1    5    5    0    0  0.76792098517E+02 -0.14848131100E+03  0.52691463271E+02  0.17527155049E+03  0.00000000000E+00 0. -1.
          1    1    6    6  503    0  0.23654583518E+03  0.10103780572E+03  0.85853822428E+03  0.89624240743E+03  0.00000000000E+00 0. -1.
         -1    1    6    6    0  503  0.32629003873E+03  0.18536857552E+03  0.16557597836E+04  0.16977535626E+04  0.00000000000E+00 0.  1.
<mgrwt>
<rscale>  0 0.24513136E+04</rscale>
<asrwt>0</asrwt>
<pdfrwt beam="1">  1        1 0.47355360E+00 0.24513136E+04</pdfrwt>
<pdfrwt beam="2">  1       -2 0.75083049E-01 0.24513136E+04</pdfrwt>
<totfact> 0.65466366E-01</totfact>
</mgrwt>
</event>
<event>
12    4  0.4486176E-008  0.1214983E+04  0.7818608E-02  0.9099842E-01
          1   -1    0    0  501    0  0.00000000000E+00  0.00000000000E+00  0.17357317866E+04  0.17357317866E+04  0.00000000000E+00 0. -1.
         -2   -1    0    0    0  501 -0.00000000000E+00 -0.00000000000E+00 -0.21261692844E+03  0.21261692844E+03  0.00000000000E+00 0.  1.
        -24    2    1    2    0    0 -0.45072794114E+02 -0.27642407369E+02  0.84630692319E+03  0.85161270057E+03  0.78823372663E+02 0.  0.
        254    2    1    2    0    0  0.45072794114E+02  0.27642407369E+02  0.67680793494E+03  0.10967360144E+04  0.86137404484E+03 0.  0.
         23    2    4    4    0    0 -0.25627832388E+02  0.39294170977E+03  0.12135552158E+03  0.42207584934E+03  0.91437885490E+02 0.  0.
         23    2    4    4    0    0  0.70700626502E+02 -0.36529930241E+03  0.55545241336E+03  0.67466016511E+03  0.90536158222E+02 0.  0.
          1    1    3    3  502    0 -0.24520402522E+02 -0.91543396780E+01  0.77013362519E+03  0.77057825866E+03  0.00000000000E+00 0. -1.
         -2    1    3    3    0  502 -0.20552391592E+02 -0.18488067691E+02  0.76173298006E+02  0.81034441913E+02  0.00000000000E+00 0.  1.
         11    1    5    5    0    0 -0.56767455111E+02  0.26860070279E+03  0.99708320785E+02  0.29207983623E+03  0.00000000000E+00 0.  1.
        -11    1    5    5    0    0  0.31139622723E+02  0.12434100699E+03  0.21647200791E+02  0.12999601311E+03  0.00000000000E+00 0. -1.
          4    1    6    6  503    0  0.39457655785E+02 -0.50586546523E+02  0.67009238944E+02  0.92769301997E+02  0.00000000000E+00 0. -1.
         -4    1    6    6    0  503  0.31242970718E+02 -0.31471275588E+03  0.48844317442E+03  0.58189086311E+03  0.00000000000E+00 0.  1.
<mgrwt>
<rscale>  0 0.12149831E+04</rscale>
<asrwt>0</asrwt>
<pdfrwt beam="1">  1        1 0.26703565E+00 0.12149831E+04</pdfrwt>
<pdfrwt beam="2">  1       -2 0.32710298E-01 0.12149831E+04</pdfrwt>
<totfact> 0.34090270E+01</totfact>
</mgrwt>
</event>
<event>
12    4  0.4486176E-008  0.1869581E+04  0.7818608E-02  0.8670148E-01
         -2   -1    0    0    0  501 -0.00000000000E+00  0.00000000000E+00  0.38995985236E+03  0.38995985236E+03  0.00000000000E+00 0.  1.
          1   -1    0    0  501    0  0.00000000000E+00 -0.00000000000E+00 -0.22408292698E+04  0.22408292698E+04  0.00000000000E+00 0. -1.
        -24    2    1    2    0    0  0.19656929580E+03 -0.65561872578E+03 -0.40810609275E+03  0.80099297068E+03  0.81017001318E+02 0.  0.
        254    2    1    2    0    0 -0.19656929580E+03  0.65561872578E+03 -0.14427633247E+04  0.18297961515E+04  0.89337144755E+03 0.  0.
         23    2    4    4    0    0 -0.20835408298E+03  0.54035210506E+03 -0.26693369662E+03  0.64470787070E+03  0.94883185100E+02 0.  0.
         23    2    4    4    0    0  0.11784787178E+02  0.11526662072E+03 -0.11758296281E+04  0.11850882808E+04  0.91834873218E+02 0.  0.
          3    1    3    3  502    0  0.51171729209E+02 -0.19864781835E+03 -0.16550861036E+03  0.26357655759E+03  0.00000000000E+00 0. -1.
         -4    1    3    3    0  502  0.14539756659E+03 -0.45697090742E+03 -0.24259748240E+03  0.53741641310E+03  0.00000000000E+00 0.  1.
         11    1    5    5    0    0 -0.20513114299E+03  0.50718636937E+03 -0.27203270901E+03  0.61099803099E+03  0.00000000000E+00 0.  1.
        -11    1    5    5    0    0 -0.32229399923E+01  0.33165735686E+02  0.50990123945E+01  0.33709839709E+02  0.00000000000E+00 0. -1.
          3    1    6    6  503    0 -0.30325216723E+02  0.90862380000E+01 -0.18408032763E+03  0.18678261566E+03  0.00000000000E+00 0. -1.
         -3    1    6    6    0  503  0.42110003901E+02  0.10618038272E+03 -0.99174930045E+03  0.99830566514E+03  0.00000000000E+00 0.  1.
<mgrwt>
<rscale>  0 0.18695812E+04</rscale>
<asrwt>0</asrwt>
<pdfrwt beam="1">  1        1 0.34474297E+00 0.18695812E+04</pdfrwt>
<pdfrwt beam="2">  1       -2 0.59993822E-01 0.18695812E+04</pdfrwt>
<totfact> 0.43616012E+00</totfact>
</mgrwt>
</event>
<event>
12    4  0.4486176E-008  0.1803365E+04  0.7818608E-02  0.8704512E-01
         -2   -1    0    0    0  501 -0.00000000000E+00  0.00000000000E+00  0.24737863348E+03  0.24737863348E+03  0.00000000000E+00 0.  1.
          1   -1    0    0  501    0  0.00000000000E+00 -0.00000000000E+00 -0.32865882318E+04  0.32865882318E+04  0.00000000000E+00 0. -1.
        -24    2    1    2    0    0 -0.67484971878E+03 -0.68681935023E+01 -0.12077397404E+04  0.13859542585E+04  0.82247255760E+02 0.  0.
        254    2    1    2    0    0  0.67484971878E+03  0.68681935023E+01 -0.18314698579E+04  0.21480126068E+04  0.89677589365E+03 0.  0.
         23    2    4    4    0    0  0.86704428846E+03  0.39516589906E+02 -0.12138800326E+04  0.14950582916E+04  0.91472414056E+02 0.  0.
         23    2    4    4    0    0 -0.19219456968E+03 -0.32648396404E+02 -0.61758982529E+03  0.65295431522E+03  0.83231454788E+02 0.  0.
          1    1    3    3  502    0 -0.57855713663E+03 -0.29995439543E+02 -0.99682793373E+03  0.11529501360E+04  0.00000000000E+00 0. -1.
         -2    1    3    3    0  502 -0.96292582147E+02  0.23127246041E+02 -0.21091180666E+03  0.23300412244E+03  0.00000000000E+00 0.  1.
         11    1    5    5    0    0  0.41455530521E+03  0.46760389200E+02 -0.52035015570E+03  0.66693846764E+03  0.00000000000E+00 0. -1.
        -11    1    5    5    0    0  0.45248898324E+03 -0.72437992937E+01 -0.69352987693E+03  0.82811982392E+03  0.00000000000E+00 0.  1.
          1    1    6    6  503    0 -0.15232243805E+03 -0.42632879158E+01 -0.36273781855E+03  0.39344507338E+03  0.00000000000E+00 0. -1.
         -1    1    6    6    0  503 -0.39872131623E+02 -0.28385108488E+02 -0.25485200674E+03  0.25950924185E+03  0.00000000000E+00 0.  1.
<mgrwt>
<rscale>  0 0.18033654E+04</rscale>
<asrwt>0</asrwt>
<pdfrwt beam="1">  1        1 0.50562894E+00 0.18033654E+04</pdfrwt>
<pdfrwt beam="2">  1       -2 0.38058253E-01 0.18033654E+04</pdfrwt>
<totfact> 0.19842466E+00</totfact>
</mgrwt>
</event>
<event>
12    4  0.4486176E-008  0.1072524E+04  0.7818608E-02  0.9232394E-01
         -2   -1    0    0    0  501 -0.00000000000E+00  0.00000000000E+00  0.90813560568E+02  0.90813560568E+02  0.00000000000E+00 0.  1.
          1   -1    0    0  501    0  0.00000000000E+00 -0.00000000000E+00 -0.31666726176E+04  0.31666726176E+04  0.00000000000E+00 0. -1.
        -24    2    1    2    0    0 -0.86532632336E+02  0.10512001228E+03 -0.37581103668E+03  0.40798832413E+03  0.81746094065E+02 0.  0.
        254    2    1    2    0    0  0.86532632336E+02 -0.10512001228E+03 -0.27000480203E+04  0.28494978540E+04  0.90046687586E+03 0.  0.
         23    2    4    4    0    0  0.12028316029E+03 -0.48947929767E+03 -0.16135801084E+04  0.16929110174E+04  0.90823593189E+02 0.  0.
         23    2    4    4    0    0 -0.33750527950E+02  0.38435928539E+03 -0.10864679120E+04  0.11565868367E+04  0.91702936734E+02 0.  0.
          1    1    3    3  502    0 -0.92305290999E+00 -0.86317449941E+01 -0.71459701470E+02  0.71985053882E+02  0.00000000000E+00 0. -1.
         -2    1    3    3    0  502 -0.85609579426E+02  0.11375175728E+03 -0.30435133521E+03  0.33600327025E+03  0.00000000000E+00 0.  1.
         11    1    5    5    0    0  0.12155711279E+03 -0.48634621997E+03 -0.16134401570E+04  0.16895259446E+04  0.00000000000E+00 0. -1.
        -11    1    5    5    0    0 -0.12739525041E+01 -0.31330777050E+01 -0.13995134597E+00  0.33850727123E+01  0.00000000000E+00 0.  1.
          2    1    6    6  503    0 -0.53577434616E+02  0.35785248874E+03 -0.10210857269E+04  0.10833028233E+04  0.00000000000E+00 0. -1.
         -2    1    6    6    0  503  0.19826906666E+02  0.26506796648E+02 -0.65382185041E+02  0.73284013381E+02  0.00000000000E+00 0.  1.
<mgrwt>
<rscale>  0 0.10725238E+04</rscale>
<asrwt>0</asrwt>
<pdfrwt beam="1">  1        1 0.48718032E+00 0.10725238E+04</pdfrwt>
<pdfrwt beam="2">  1       -2 0.13971319E-01 0.10725238E+04</pdfrwt>
<totfact> 0.15971783E+01</totfact>
</mgrwt>
</event>
<event>
12    4  0.4486176E-008  0.2079916E+04  0.7818608E-02  0.8570143E-01
         -2   -1    0    0    0  501 -0.00000000000E+00  0.00000000000E+00  0.88486903943E+03  0.88486903943E+03  0.00000000000E+00 0.  1.
          1   -1    0    0  501    0  0.00000000000E+00 -0.00000000000E+00 -0.12222289844E+04  0.12222289844E+04  0.00000000000E+00 0. -1.
        -24    2    1    2    0    0  0.37577656465E+03 -0.24107436638E+03  0.58383771063E+03  0.73938308312E+03  0.80597733086E+02 0.  0.
        254    2    1    2    0    0 -0.37577656465E+03  0.24107436638E+03 -0.92119765565E+03  0.13677149408E+04  0.90703592085E+03 0.  0.
         23    2    4    4    0    0  0.16540025597E+03  0.33476890057E+03 -0.63391549387E+03  0.74130630125E+03  0.90877485892E+02 0.  0.
         23    2    4    4    0    0 -0.54117682063E+03 -0.93694534187E+02 -0.28728216178E+03  0.62640863950E+03  0.90585463748E+02 0.  0.
          3    1    3    3  502    0 -0.40298202940E+01 -0.53070897045E+00  0.61984629975E+01  0.74122902766E+01  0.00000000000E+00 0. -1.
         -4    1    3    3    0  502  0.37980638495E+03 -0.24054365741E+03  0.57763924764E+03  0.73197079285E+03  0.00000000000E+00 0.  1.
         11    1    5    5    0    0  0.16547834272E+03  0.33733278966E+03 -0.63551818726E+03  0.73828169369E+03  0.00000000000E+00 0.  1.
        -11    1    5    5    0    0 -0.78086746471E-01 -0.25638890940E+01  0.16026933906E+01  0.30246075664E+01  0.00000000000E+00 0. -1.
          2    1    6    6  503    0 -0.39254556273E+02 -0.17744336625E+02 -0.50166510985E+02  0.66124583136E+02  0.00000000000E+00 0. -1.
         -2    1    6    6    0  503 -0.50192226435E+03 -0.75950197562E+02 -0.23711565080E+03  0.56028405636E+03  0.00000000000E+00 0.  1.
<mgrwt>
<rscale>  0 0.20799159E+04</rscale>
<asrwt>0</asrwt>
<pdfrwt beam="1">  1        1 0.18803523E+00 0.20799159E+04</pdfrwt>
<pdfrwt beam="2">  1       -2 0.13613370E+00 0.20799159E+04</pdfrwt>
<totfact> 0.32126632E+00</totfact>
</mgrwt>
</event>
<event>
12    4  0.4486176E-008  0.1269867E+04  0.7818608E-02  0.9053808E-01
         -4   -1    0    0    0  501 -0.00000000000E+00  0.00000000000E+00  0.46072278429E+03  0.46072278429E+03  0.00000000000E+00 0.  1.
          3   -1    0    0  501    0  0.00000000000E+00 -0.00000000000E+00 -0.87501718912E+03  0.87501718912E+03  0.00000000000E+00 0. -1.
        -24    2    1    2    0    0 -0.13989119716E+03 -0.25511060371E+03 -0.60667395224E+01  0.30162908728E+03  0.79324232076E+02 0.  0.
        254    2    1    2    0    0  0.13989119716E+03  0.25511060371E+03 -0.40822766530E+03  0.10341108861E+04  0.90448025458E+03 0.  0.
         23    2    4    4    0    0  0.12167853883E+03 -0.32110810223E+03 -0.81413238220E+02  0.36444489376E+03  0.90971891811E+02 0.  0.
         23    2    4    4    0    0  0.18212658327E+02  0.57621870594E+03 -0.32681442708E+03  0.66966599237E+03  0.96359605554E+02 0.  0.
          1    1    3    3  502    0  0.43961068566E+01  0.23613264674E+01 -0.41301724976E+01  0.64776494996E+01  0.00000000000E+00 0. -1.
         -2    1    3    3    0  502 -0.14428730402E+03 -0.25747193018E+03 -0.19365670248E+01  0.29515143778E+03  0.00000000000E+00 0.  1.
         11    1    5    5    0    0  0.16925877755E+02 -0.14685165957E+03 -0.71784438622E+01  0.14799805847E+03  0.00000000000E+00 0. -1.
        -11    1    5    5    0    0  0.10475266108E+03 -0.17425644267E+03 -0.74234794358E+02  0.21644683529E+03  0.00000000000E+00 0.  1.
          3    1    6    6  503    0  0.56194343293E+02  0.27600118031E+03 -0.16693222303E+03  0.32741536744E+03  0.00000000000E+00 0. -1.
         -3    1    6    6    0  503 -0.37981684965E+02  0.30021752564E+03 -0.15988220405E+03  0.34225062493E+03  0.00000000000E+00 0.  1.
<mgrwt>
<rscale>  0 0.12698667E+04</rscale>
<asrwt>0</asrwt>
<pdfrwt beam="1">  1        3 0.13461803E+00 0.12698667E+04</pdfrwt>
<pdfrwt beam="2">  1       -4 0.70880430E-01 0.12698667E+04</pdfrwt>
<totfact> 0.17459455E+00</totfact>
</mgrwt>
</event>
<event>
12    4  0.4486176E-008  0.1801310E+04  0.7818608E-02  0.8705603E-01
          1   -1    0    0  501    0  0.00000000000E+00  0.00000000000E+00  0.19725643049E+04  0.19725643049E+04  0.00000000000E+00 0. -1.
         -2   -1    0    0    0  501 -0.00000000000E+00 -0.00000000000E+00 -0.41123110448E+03  0.41123110448E+03  0.00000000000E+00 0.  1.
        -24    2    1    2    0    0 -0.14642404107E+03 -0.28519344814E+03 -0.19680059802E+03  0.38463495150E+03  0.80238817711E+02 0.  0.
        254    2    1    2    0    0  0.14642404107E+03  0.28519344814E+03  0.17581337985E+04  0.19991604579E+04  0.89600936408E+03 0.  0.
         23    2    4    4    0    0  0.28331708388E+03 -0.17968508137E+03  0.12219510204E+04  0.12705513759E+04  0.92634789342E+02 0.  0.
         23    2    4    4    0    0 -0.13689304281E+03  0.46487852951E+03  0.53618277813E+03  0.72860908202E+03  0.92344303905E+02 0.  0.
          3    1    3    3  502    0 -0.30315558268E+02 -0.44833189942E+02 -0.19623515507E+01  0.54156244489E+02  0.00000000000E+00 0. -1.
         -4    1    3    3    0  502 -0.11610848280E+03 -0.24036025820E+03 -0.19483824647E+03  0.33047870701E+03  0.00000000000E+00 0.  1.
         11    1    5    5    0    0  0.14479398416E+03 -0.41945249981E+02  0.59974290047E+03  0.61839813107E+03  0.00000000000E+00 0. -1.
        -11    1    5    5    0    0  0.13852309973E+03 -0.13773983139E+03  0.62220811989E+03  0.65215324485E+03  0.00000000000E+00 0.  1.
          2    1    6    6  503    0 -0.13095260872E+03  0.28863751502E+03  0.34010076148E+03  0.46489647102E+03  0.00000000000E+00 0. -1.
         -2    1    6    6    0  503 -0.59404340984E+01  0.17624101450E+03  0.19608201665E+03  0.26371261100E+03  0.00000000000E+00 0.  1.
<mgrwt>
<rscale>  0 0.18013104E+04</rscale>
<asrwt>0</asrwt>
<pdfrwt beam="1">  1        1 0.30347142E+00 0.18013104E+04</pdfrwt>
<pdfrwt beam="2">  1       -2 0.63266325E-01 0.18013104E+04</pdfrwt>
<totfact> 0.59624623E+00</totfact>
</mgrwt>
</event>
<event>
12    4  0.4486176E-008  0.1327970E+04  0.7818608E-02  0.9007674E-01
          1   -1    0    0  501    0  0.00000000000E+00  0.00000000000E+00  0.32404510096E+04  0.32404510096E+04  0.00000000000E+00 0. -1.
         -2   -1    0    0    0  501 -0.00000000000E+00 -0.00000000000E+00 -0.13605399503E+03  0.13605399503E+03  0.00000000000E+00 0.  1.
        -24    2    1    2    0    0  0.31583623038E+02 -0.33445995628E+03  0.45459229653E+03  0.57089294211E+03  0.80022544864E+02 0.  0.
        254    2    1    2    0    0 -0.31583623038E+02  0.33445995628E+03  0.26498047180E+04  0.28056120625E+04  0.85856450774E+03 0.  0.
         23    2    4    4    0    0  0.20611914548E+03  0.35320897791E+03  0.55439594249E+03  0.69469862146E+03  0.89496532868E+02 0.  0.
         23    2    4    4    0    0 -0.23770276852E+03 -0.18749021629E+02  0.20954087755E+04  0.21109134410E+04  0.91452102126E+02 0.  0.
          1    1    3    3  502    0 -0.13329694837E+02 -0.48764062265E+02  0.35795657989E+02  0.61943067924E+02  0.00000000000E+00 0. -1.
         -2    1    3    3    0  502  0.44913317875E+02 -0.28569589402E+03  0.41879663854E+03  0.50894987418E+03  0.00000000000E+00 0.  1.
         11    1    5    5    0    0  0.30221661355E+02  0.16284480358E+02  0.22819531189E+02  0.41222131425E+02  0.00000000000E+00 0. -1.
        -11    1    5    5    0    0  0.17589748413E+03  0.33692449755E+03  0.53157641131E+03  0.65347649004E+03  0.00000000000E+00 0.  1.
          1    1    6    6  503    0 -0.23788901740E+03 -0.12691307421E+01  0.19489164237E+04  0.19633817820E+04  0.00000000000E+00 0. -1.
         -1    1    6    6    0  503  0.18624887798E+00 -0.17479890887E+02  0.14649235181E+03  0.14753165902E+03  0.00000000000E+00 0.  1.
<mgrwt>
<rscale>  0 0.13279703E+04</rscale>
<asrwt>0</asrwt>
<pdfrwt beam="1">  1        1 0.49853087E+00 0.13279703E+04</pdfrwt>
<pdfrwt beam="2">  1       -2 0.20931386E-01 0.13279703E+04</pdfrwt>
<totfact> 0.68156133E+00</totfact>
</mgrwt>
</event>
<event>
12    4  0.4486176E-008  0.1795757E+04  0.7818608E-02  0.8708559E-01
         -2   -1    0    0    0  501 -0.00000000000E+00  0.00000000000E+00  0.52963495029E+03  0.52963495029E+03  0.00000000000E+00 0.  1.
          1   -1    0    0  501    0  0.00000000000E+00 -0.00000000000E+00 -0.15221544473E+04  0.15221544473E+04  0.00000000000E+00 0. -1.
        -24    2    1    2    0    0 -0.76955418193E+02  0.24253879561E+03 -0.10626483808E+04  0.10955862880E+04  0.79627442306E+02 0.  0.
        254    2    1    2    0    0  0.76955418193E+02 -0.24253879561E+03  0.70128883750E+02  0.95620310958E+03  0.91905338402E+03 0.  0.
         23    2    4    4    0    0  0.41788215524E+03  0.87961864161E+02  0.15691536102E+03  0.46415961418E+03  0.91972450734E+02 0.  0.
         23    2    4    4    0    0 -0.34092673705E+03 -0.33050065977E+03 -0.86786477269E+02  0.49204349541E+03  0.95462990696E+02 0.  0.
          3    1    3    3  502    0 -0.55847980210E+02  0.20421420923E+03 -0.73024704504E+03  0.76031781969E+03  0.00000000000E+00 0. -1.
         -2    1    3    3    0  502 -0.21107437983E+02  0.38324586378E+02 -0.33240133572E+03  0.33526846831E+03  0.00000000000E+00 0.  1.
         11    1    5    5    0    0  0.41345829315E+03  0.97390078979E+02  0.15896685901E+03  0.45354498114E+03  0.00000000000E+00 0.  1.
        -11    1    5    5    0    0  0.44238620945E+01 -0.94282148186E+01 -0.20514979893E+01  0.10614633036E+02  0.00000000000E+00 0. -1.
          2    1    6    6  503    0 -0.48715984454E+02 -0.91308312614E+01 -0.15081323345E+02  0.51807967869E+02  0.00000000000E+00 0. -1.
         -2    1    6    6    0  503 -0.29221075259E+03 -0.32136982851E+03 -0.71705153924E+02  0.44023552754E+03  0.00000000000E+00 0.  1.
<mgrwt>
<rscale>  0 0.17957574E+04</rscale>
<asrwt>0</asrwt>
<pdfrwt beam="1">  1        1 0.23417761E+00 0.17957574E+04</pdfrwt>
<pdfrwt beam="2">  1       -2 0.81482300E-01 0.17957574E+04</pdfrwt>
<totfact> 0.69373005E+00</totfact>
</mgrwt>
</event>
<event>
12    4  0.4486176E-008  0.1689887E+04  0.7818608E-02  0.8767153E-01
          1   -1    0    0  501    0  0.00000000000E+00  0.00000000000E+00  0.35138249093E+03  0.35138249093E+03  0.00000000000E+00 0. -1.
         -2   -1    0    0    0  501 -0.00000000000E+00 -0.00000000000E+00 -0.20317739904E+04  0.20317739904E+04  0.00000000000E+00 0.  1.
        -24    2    1    2    0    0  0.56335332268E+03  0.19675224428E+03 -0.72624668453E+03  0.94319505207E+03  0.78129684931E+02 0.  0.
        254    2    1    2    0    0 -0.56335332268E+03 -0.19675224428E+03 -0.95414481499E+03  0.14399614293E+04  0.89834190489E+03 0.  0.
         23    2    4    4    0    0  0.10290457226E+03  0.23322475384E+03 -0.17074698020E+03  0.32173082546E+03  0.96814544389E+02 0.  0.
         23    2    4    4    0    0 -0.66625789494E+03 -0.42997699812E+03 -0.78339783479E+03  0.11182306038E+04  0.89149954174E+02 0.  0.
          1    1    3    3  502    0  0.30269680902E+03  0.11914002992E+03 -0.33740185236E+03  0.46867869047E+03  0.00000000000E+00 0. -1.
         -2    1    3    3    0  502  0.26065651366E+03  0.77612214356E+02 -0.38884483217E+03  0.47451636161E+03  0.00000000000E+00 0.  1.
         11    1    5    5    0    0 -0.18556706358E+02  0.26349672432E+02 -0.27160924329E+02  0.42147033093E+02  0.00000000000E+00 0. -1.
        -11    1    5    5    0    0  0.12146127862E+03  0.20687508141E+03 -0.14358605587E+03  0.27958379236E+03  0.00000000000E+00 0.  1.
          1    1    6    6  503    0 -0.29845312038E+03 -0.14937094442E+03 -0.29381487922E+03  0.44464944321E+03  0.00000000000E+00 0. -1.
         -1    1    6    6    0  503 -0.36780477456E+03 -0.28060605370E+03 -0.48958295557E+03  0.67358116062E+03  0.00000000000E+00 0.  1.
<mgrwt>
<rscale>  0 0.16898873E+04</rscale>
<asrwt>0</asrwt>
<pdfrwt beam="1">  1        1 0.54058844E-01 0.16898873E+04</pdfrwt>
<pdfrwt beam="2">  1       -2 0.31258062E+00 0.16898873E+04</pdfrwt>
<totfact> 0.15826707E+00</totfact>
</mgrwt>
</event>
<event>
12    4  0.4486176E-008  0.3108495E+04  0.7818608E-02  0.8213410E-01
         -2   -1    0    0    0  501 -0.00000000000E+00  0.00000000000E+00  0.24389691924E+04  0.24389691924E+04  0.00000000000E+00 0.  1.
          1   -1    0    0  501    0  0.00000000000E+00 -0.00000000000E+00 -0.99045348398E+03  0.99045348398E+03  0.00000000000E+00 0. -1.
        -24    2    1    2    0    0  0.44438003317E+03  0.28381389959E+03 -0.79037421586E+03  0.95349921734E+03  0.80283328797E+02 0.  0.
        254    2    1    2    0    0 -0.44438003317E+03 -0.28381389959E+03  0.22388899243E+04  0.24759234590E+04  0.91626684895E+03 0.  0.
         23    2    4    4    0    0  0.13693363763E+03  0.11544150482E+03  0.11994889567E+04  0.12165491312E+04  0.95605800344E+02 0.  0.
         23    2    4    4    0    0 -0.58131367080E+03 -0.39925540441E+03  0.10394009675E+04  0.12593743279E+04  0.91317383648E+02 0.  0.
          3    1    3    3  502    0  0.43699062685E+03  0.26025248397E+03 -0.75634420835E+03  0.91145418145E+03  0.00000000000E+00 0. -1.
         -4    1    3    3    0  502  0.73894063163E+01  0.23561415625E+02 -0.34030007509E+02  0.42045035890E+02  0.00000000000E+00 0.  1.
         11    1    5    5    0    0  0.14358367704E+03  0.12140348394E+03  0.11824960366E+04  0.11973520597E+04  0.00000000000E+00 0.  1.
        -11    1    5    5    0    0 -0.66500394089E+01 -0.59619791212E+01  0.16992920129E+02  0.19197071487E+02  0.00000000000E+00 0. -1.
          3    1    6    6  503    0 -0.37772876910E+03 -0.30317280337E+03  0.66895108135E+03  0.82588638501E+03  0.00000000000E+00 0. -1.
         -3    1    6    6    0  503 -0.20358490170E+03 -0.96082601048E+02  0.37044988619E+03  0.43348794285E+03  0.00000000000E+00 0.  1.
<mgrwt>
<rscale>  0 0.31084952E+04</rscale>
<asrwt>0</asrwt>
<pdfrwt beam="1">  1        1 0.15237746E+00 0.31084952E+04</pdfrwt>
<pdfrwt beam="2">  1       -2 0.37522603E+00 0.31084952E+04</pdfrwt>
<totfact> 0.12234700E-01</totfact>
</mgrwt>
</event>
<event>
12    4  0.4486176E-008  0.1386267E+04  0.7818608E-02  0.8963820E-01
          1   -1    0    0  501    0  0.00000000000E+00  0.00000000000E+00  0.14941987044E+04  0.14941987044E+04  0.00000000000E+00 0. -1.
         -2   -1    0    0    0  501 -0.00000000000E+00 -0.00000000000E+00 -0.32153268123E+03  0.32153268123E+03  0.00000000000E+00 0.  1.
        -24    2    1    2    0    0  0.56162630334E+02 -0.32633301938E+03  0.58391586050E+02  0.34558514134E+03  0.79825008683E+02 0.  0.
        254    2    1    2    0    0 -0.56162630334E+02  0.32633301938E+03  0.11142744371E+04  0.14701462442E+04  0.90004165334E+03 0.  0.
         23    2    4    4    0    0 -0.14341743540E+03 -0.24951191181E+03  0.14484839151E+03  0.33556620656E+03  0.93802279051E+02 0.  0.
         23    2    4    4    0    0  0.87254805062E+02  0.57584493119E+03  0.96942604559E+03  0.11345800377E+04  0.90962730153E+02 0.  0.
          3    1    3    3  502    0 -0.41050504716E+01  0.17492153158E+01  0.66735016846E+01  0.80278775732E+01  0.00000000000E+00 0. -1.
         -4    1    3    3    0  502  0.60267680805E+02 -0.32808223470E+03  0.51718084366E+02  0.33755726377E+03  0.00000000000E+00 0.  1.
         11    1    5    5    0    0 -0.17962424320E+02 -0.12459688666E+02  0.43812899280E+02  0.48963891516E+02  0.00000000000E+00 0. -1.
        -11    1    5    5    0    0 -0.12545501108E+03 -0.23705222314E+03  0.10103549223E+03  0.28660231505E+03  0.00000000000E+00 0.  1.
          4    1    6    6  503    0  0.22614733498E+02  0.12237268091E+03  0.28538888532E+03  0.31134115544E+03  0.00000000000E+00 0. -1.
         -4    1    6    6    0  503  0.64640071565E+02  0.45347225028E+03  0.68403716026E+03  0.82323888225E+03  0.00000000000E+00 0.  1.
<mgrwt>
<rscale>  0 0.13862665E+04</rscale>
<asrwt>0</asrwt>
<pdfrwt beam="1">  1        1 0.22987672E+00 0.13862665E+04</pdfrwt>
<pdfrwt beam="2">  1       -2 0.49466567E-01 0.13862665E+04</pdfrwt>
<totfact> 0.21872887E+01</totfact>
</mgrwt>
</event>
<event>
12    4  0.4486176E-008  0.3657420E+04  0.7818608E-02  0.8077464E-01
         -2   -1    0    0    0  501 -0.00000000000E+00  0.00000000000E+00  0.10319576471E+04  0.10319576471E+04  0.00000000000E+00 0.  1.
          1   -1    0    0  501    0  0.00000000000E+00 -0.00000000000E+00 -0.32406175653E+04  0.32406175653E+04  0.00000000000E+00 0. -1.
        -24    2    1    2    0    0  0.67435792879E+03  0.15462974714E+04 -0.66252319110E+03  0.18143960988E+04  0.85450209890E+02 0.  0.
        254    2    1    2    0    0 -0.67435792879E+03 -0.15462974714E+04 -0.15461367271E+04  0.24581791137E+04  0.89794837823E+03 0.  0.
         23    2    4    4    0    0 -0.15748435602E+03 -0.74621072728E+03 -0.12305345072E+04  0.14506925434E+04  0.93069384318E+02 0.  0.
         23    2    4    4    0    0 -0.51687357277E+03 -0.80008674408E+03 -0.31560221993E+03  0.10074865703E+04  0.90151759427E+02 0.  0.
          1    1    3    3  502    0  0.82006401965E+02  0.20045847076E+03 -0.11595213971E+03  0.24566958942E+03  0.00000000000E+00 0. -1.
         -2    1    3    3    0  502  0.59235152682E+03  0.13458390006E+04 -0.54657105139E+03  0.15687265093E+04  0.00000000000E+00 0.  1.
         11    1    5    5    0    0 -0.36539878907E+01 -0.15877757680E+03 -0.21222116960E+03  0.26506885021E+03  0.00000000000E+00 0.  1.
        -11    1    5    5    0    0 -0.15383036813E+03 -0.58743315048E+03 -0.10183133376E+04  0.11856236932E+04  0.00000000000E+00 0. -1.
          4    1    6    6  503    0 -0.38364652577E+03 -0.55223567204E+03 -0.25828632559E+03  0.72031987352E+03  0.00000000000E+00 0. -1.
         -4    1    6    6    0  503 -0.13322704700E+03 -0.24785107204E+03 -0.57315894343E+02  0.28716669673E+03  0.00000000000E+00 0.  1.
<mgrwt>
<rscale>  0 0.36574199E+04</rscale>
<asrwt>0</asrwt>
<pdfrwt beam="1">  1        1 0.49855654E+00 0.36574199E+04</pdfrwt>
<pdfrwt beam="2">  1       -2 0.15876272E+00 0.36574199E+04</pdfrwt>
<totfact> 0.72209735E-02</totfact>
</mgrwt>
</event>
<event>
12    4  0.4486176E-008  0.1756859E+04  0.7818608E-02  0.8729584E-01
         -2   -1    0    0    0  501 -0.00000000000E+00  0.00000000000E+00  0.47215993734E+03  0.47215993734E+03  0.00000000000E+00 0.  1.
          1   -1    0    0  501    0  0.00000000000E+00 -0.00000000000E+00 -0.16342736336E+04  0.16342736336E+04  0.00000000000E+00 0. -1.
        -24    2    1    2    0    0 -0.65884147653E+01  0.36564853678E+03  0.25748309671E+03  0.45440838710E+03  0.80294318111E+02 0.  0.
        254    2    1    2    0    0  0.65884147653E+01 -0.36564853678E+03 -0.14195967929E+04  0.16520251838E+04  0.76170197174E+03 0.  0.
         23    2    4    4    0    0 -0.29735496161E+03 -0.21784267827E+03 -0.11527078850E+04  0.12135729771E+04  0.90269025602E+02 0.  0.
         23    2    4    4    0    0  0.30394337638E+03 -0.14780585851E+03 -0.26688890791E+03  0.43845220666E+03  0.82355937925E+02 0.  0.
          3    1    3    3  502    0 -0.34780058173E+02  0.17547109674E+03  0.15416586256E+03  0.23615010357E+03  0.00000000000E+00 0. -1.
         -4    1    3    3    0  502  0.28191643408E+02  0.19017744004E+03  0.10331723415E+03  0.21825828353E+03  0.00000000000E+00 0.  1.
         11    1    5    5    0    0 -0.83333478449E+01 -0.34940037574E+02 -0.80963692311E+02  0.88574095449E+02  0.00000000000E+00 0. -1.
        -11    1    5    5    0    0 -0.28902161377E+03 -0.18290264070E+03 -0.10717441927E+04  0.11249988817E+04  0.00000000000E+00 0.  1.
          2    1    6    6  503    0  0.16440643579E+03 -0.72067295092E+02 -0.90149456150E+02  0.20087333221E+03  0.00000000000E+00 0. -1.
         -2    1    6    6    0  503  0.13953694059E+03 -0.75738563415E+02 -0.17673945176E+03  0.23757887445E+03  0.00000000000E+00 0.  1.
<mgrwt>
<rscale>  0 0.17568592E+04</rscale>
<asrwt>0</asrwt>
<pdfrwt beam="1">  1        1 0.25142671E+00 0.17568592E+04</pdfrwt>
<pdfrwt beam="2">  1       -2 0.72639991E-01 0.17568592E+04</pdfrwt>
<totfact> 0.75301815E+00</totfact>
</mgrwt>
</event>
<event>
12    4  0.4486176E-008  0.2066251E+04  0.7818608E-02  0.8576258E-01
          1   -1    0    0  501    0  0.00000000000E+00  0.00000000000E+00  0.76144519601E+03  0.76144519601E+03  0.00000000000E+00 0. -1.
         -2   -1    0    0    0  501 -0.00000000000E+00 -0.00000000000E+00 -0.14017397881E+04  0.14017397881E+04  0.00000000000E+00 0.  1.
        -24    2    1    2    0    0  0.10735917195E+03  0.31188343940E+03 -0.10627606398E+04  0.11157196960E+04  0.81073985143E+02 0.  0.
        254    2    1    2    0    0 -0.10735917195E+03 -0.31188343940E+03  0.42246604769E+03  0.10474652881E+04  0.89994927452E+03 0.  0.
         23    2    4    4    0    0 -0.46783144040E+03 -0.48011978740E+02  0.33147161662E+03  0.58242909571E+03  0.90436785501E+02 0.  0.
         23    2    4    4    0    0  0.36047226845E+03 -0.26387146067E+03  0.90994431064E+02  0.46503619237E+03  0.91707522386E+02 0.  0.
          1    1    3    3  502    0  0.53383874712E+01  0.25923371486E+02 -0.33971782392E+02  0.43065085265E+02  0.00000000000E+00 0. -1.
         -2    1    3    3    0  502  0.10202078448E+03  0.28596006792E+03 -0.10287888574E+04  0.10726546108E+04  0.00000000000E+00 0.  1.
         11    1    5    5    0    0 -0.27167749499E+03 -0.72472938862E+02  0.19031976580E+03  0.33953291653E+03  0.00000000000E+00 0. -1.
        -11    1    5    5    0    0 -0.19615394541E+03  0.24460960123E+02  0.14115185082E+03  0.24289617918E+03  0.00000000000E+00 0.  1.
          1    1    6    6  503    0  0.16476145340E+03 -0.80723360938E+02  0.50121742105E+01  0.18354214616E+03  0.00000000000E+00 0. -1.
         -1    1    6    6    0  503  0.19571081505E+03 -0.18314809973E+03  0.85982256853E+02  0.28149404621E+03  0.00000000000E+00 0.  1.
<mgrwt>
<rscale>  0 0.20662507E+04</rscale>
<asrwt>0</asrwt>
<pdfrwt beam="1">  1        1 0.11714541E+00 0.20662507E+04</pdfrwt>
<pdfrwt beam="2">  1       -2 0.21565228E+00 0.20662507E+04</pdfrwt>
<totfact> 0.20350988E+00</totfact>
</mgrwt>
</event>
<event>
12    4  0.4486176E-008  0.1971561E+04  0.7818608E-02  0.8620034E-01
          1   -1    0    0  501    0  0.00000000000E+00  0.00000000000E+00  0.60144495995E+03  0.60144495995E+03  0.00000000000E+00 0. -1.
         -2   -1    0    0    0  501 -0.00000000000E+00 -0.00000000000E+00 -0.16157134764E+04  0.16157134764E+04  0.00000000000E+00 0.  1.
        -24    2    1    2    0    0  0.38687547574E+03 -0.64354365307E+03 -0.64355266795E+03  0.99186574651E+03  0.76266346037E+02 0.  0.
        254    2    1    2    0    0 -0.38687547574E+03  0.64354365307E+03 -0.37071584846E+03  0.12252926898E+04  0.89447798646E+03 0.  0.
         23    2    4    4    0    0 -0.13642512193E+03  0.60673055036E+03  0.14330775197E+03  0.64484968874E+03  0.92521536192E+02 0.  0.
         23    2    4    4    0    0 -0.25045035381E+03  0.36813102710E+02 -0.51402360043E+03  0.58044300107E+03  0.92807496644E+02 0.  0.
          3    1    3    3  502    0  0.54820759249E+02 -0.66265961084E+02 -0.48234066994E+02  0.98605367307E+02  0.00000000000E+00 0. -1.
         -4    1    3    3    0  502  0.33205471649E+03 -0.57727769198E+03 -0.59531860095E+03  0.89326037920E+03  0.00000000000E+00 0.  1.
         11    1    5    5    0    0 -0.13659328844E+03  0.54107172581E+03  0.10204136774E+03  0.56729955019E+03  0.00000000000E+00 0.  1.
        -11    1    5    5    0    0  0.16816650598E+00  0.65658824548E+02  0.41266384234E+02  0.77550138548E+02  0.00000000000E+00 0. -1.
          4    1    6    6  503    0 -0.66911088246E+02  0.17208350791E+02 -0.64578261801E+02  0.94570465604E+02  0.00000000000E+00 0. -1.
         -4    1    6    6    0  503 -0.18353926556E+03  0.19604751919E+02 -0.44944533863E+03  0.48587253546E+03  0.00000000000E+00 0.  1.
<mgrwt>
<rscale>  0 0.19715605E+04</rscale>
<asrwt>0</asrwt>
<pdfrwt beam="1">  1        1 0.92529994E-01 0.19715605E+04</pdfrwt>
<pdfrwt beam="2">  1       -2 0.24857130E+00 0.19715605E+04</pdfrwt>
<totfact> 0.18220849E+00</totfact>
</mgrwt>
</event>
<event>
12    4  0.4486176E-008  0.1480495E+04  0.7818608E-02  0.8897528E-01
         -2   -1    0    0    0  501 -0.00000000000E+00  0.00000000000E+00  0.40075345072E+03  0.40075345072E+03  0.00000000000E+00 0.  1.
          1   -1    0    0  501    0  0.00000000000E+00 -0.00000000000E+00 -0.13673397580E+04  0.13673397580E+04  0.00000000000E+00 0. -1.
        -24    2    1    2    0    0  0.30723558508E+03 -0.33693858520E+03 -0.73410333860E+02  0.46863801673E+03  0.79443053009E+02 0.  0.
        254    2    1    2    0    0 -0.30723558508E+03  0.33693858520E+03 -0.89317597341E+03  0.12994551920E+04  0.82637713034E+03 0.  0.
         23    2    4    4    0    0 -0.13283639523E+03 -0.13162341447E+03 -0.74160061547E+03  0.77008882981E+03  0.89972783704E+02 0.  0.
         23    2    4    4    0    0 -0.17439918985E+03  0.46856199967E+03 -0.15157535794E+03  0.52936636216E+03  0.85371138581E+02 0.  0.
          3    1    3    3  502    0  0.46579306557E+02 -0.56218229514E+02  0.17172337923E+02  0.75000068792E+02  0.00000000000E+00 0. -1.
         -4    1    3    3    0  502  0.26065627852E+03 -0.28072035569E+03 -0.90582671783E+02  0.39363794794E+03  0.00000000000E+00 0.  1.
         11    1    5    5    0    0 -0.27062906794E+02 -0.99115402982E+01 -0.35082262518E+02  0.45402694838E+02  0.00000000000E+00 0.  1.
        -11    1    5    5    0    0 -0.10577348843E+03 -0.12171187417E+03 -0.70651835295E+03  0.72468613498E+03  0.00000000000E+00 0. -1.
          2    1    6    6  503    0 -0.94602182210E+02  0.35761794421E+03 -0.12223501925E+03  0.38959153845E+03  0.00000000000E+00 0. -1.
         -2    1    6    6    0  503 -0.79797007644E+02  0.11094405546E+03 -0.29340338690E+02  0.13977482371E+03  0.00000000000E+00 0.  1.
<mgrwt>
<rscale>  0 0.14804947E+04</rscale>
<asrwt>0</asrwt>
<pdfrwt beam="1">  1        1 0.21035996E+00 0.14804947E+04</pdfrwt>
<pdfrwt beam="2">  1       -2 0.61654377E-01 0.14804947E+04</pdfrwt>
<totfact> 0.16832989E+01</totfact>
</mgrwt>
</event>
<event>
12    4  0.4486176E-008  0.2027641E+04  0.7818608E-02  0.8593806E-01
          1   -1    0    0  501    0  0.00000000000E+00  0.00000000000E+00  0.27962072049E+04  0.27962072049E+04  0.00000000000E+00 0. -1.
         -2   -1    0    0    0  501 -0.00000000000E+00 -0.00000000000E+00 -0.36758063899E+03  0.36758063899E+03  0.00000000000E+00 0.  1.
        -24    2    1    2    0    0  0.43987980544E+03 -0.23908070193E+03 -0.24466693185E+02  0.50736818657E+03  0.78549553774E+02 0.  0.
        254    2    1    2    0    0 -0.43987980544E+03  0.23908070193E+03  0.24530932590E+04  0.26564196573E+04  0.88783164659E+03 0.  0.
         23    2    4    4    0    0  0.11597960422E+03 -0.21106369808E+03  0.35681292934E+03  0.43964682812E+03  0.89301252470E+02 0.  0.
         23    2    4    4    0    0 -0.55585940966E+03  0.45014440001E+03  0.20962803297E+04  0.22167728291E+04  0.89893777094E+02 0.  0.
          3    1    3    3  502    0  0.12532382011E+03 -0.83723018903E+02 -0.40854350211E+02  0.15615595318E+03  0.00000000000E+00 0. -1.
         -4    1    3    3    0  502  0.31455598533E+03 -0.15535768303E+03  0.16387657026E+02  0.35121223340E+03  0.00000000000E+00 0.  1.
         11    1    5    5    0    0  0.10529083211E+03 -0.18403532761E+03  0.24447418090E+03  0.32360900213E+03  0.00000000000E+00 0. -1.
        -11    1    5    5    0    0  0.10688772116E+02 -0.27028370467E+02  0.11233874844E+03  0.11603782599E+03  0.00000000000E+00 0.  1.
          1    1    6    6  503    0 -0.34379221767E+03  0.25658671525E+03  0.13781051372E+04  0.14433307315E+04  0.00000000000E+00 0. -1.
         -1    1    6    6    0  503 -0.21206719199E+03  0.19355768476E+03  0.71817519248E+03  0.77344209760E+03  0.00000000000E+00 0.  1.
<mgrwt>
<rscale>  0 0.20276406E+04</rscale>
<asrwt>0</asrwt>
<pdfrwt beam="1">  1        1 0.43018571E+00 0.20276406E+04</pdfrwt>
<pdfrwt beam="2">  1       -2 0.56550869E-01 0.20276406E+04</pdfrwt>
<totfact> 0.20024833E+00</totfact>
</mgrwt>
</event>
<event>
12    4  0.4486176E-008  0.2279055E+04  0.7818608E-02  0.8486226E-01
          1   -1    0    0  501    0  0.00000000000E+00  0.00000000000E+00  0.23578382548E+04  0.23578382548E+04  0.00000000000E+00 0. -1.
         -2   -1    0    0    0  501 -0.00000000000E+00 -0.00000000000E+00 -0.55072581488E+03  0.55072581488E+03  0.00000000000E+00 0.  1.
        -24    2    1    2    0    0  0.62627467332E+03  0.30999123578E+03 -0.73181416354E+02  0.70895142269E+03  0.94562504888E+02 0.  0.
        254    2    1    2    0    0 -0.62627467332E+03 -0.30999123578E+03  0.18802938563E+04  0.21996126470E+04  0.90248339494E+03 0.  0.
         23    2    4    4    0    0 -0.51433286866E+03 -0.51605289141E+03  0.78278064780E+03  0.10734024859E+04  0.92727922514E+02 0.  0.
         23    2    4    4    0    0 -0.11194180466E+03  0.20606165563E+03  0.10975132085E+04  0.11262101611E+04  0.93923962039E+02 0.  0.
          1    1    3    3  502    0  0.25141450381E+03  0.13892682838E+03  0.14758268884E+02  0.28762427378E+03  0.00000000000E+00 0. -1.
         -2    1    3    3    0  502  0.37486016952E+03  0.17106440740E+03 -0.87939685238E+02  0.42132714891E+03  0.00000000000E+00 0.  1.
         11    1    5    5    0    0 -0.14373022568E+03 -0.18163391895E+03  0.29940002511E+03  0.37853617175E+03  0.00000000000E+00 0.  1.
        -11    1    5    5    0    0 -0.37060264298E+03 -0.33441897246E+03  0.48338062269E+03  0.69486631414E+03  0.00000000000E+00 0. -1.
          4    1    6    6  503    0 -0.40059934478E+02  0.12398464099E+03  0.77149335435E+03  0.78241867652E+03  0.00000000000E+00 0. -1.
         -4    1    6    6    0  503 -0.71881870182E+02  0.82077014635E+02  0.32601985413E+03  0.34379148460E+03  0.00000000000E+00 0.  1.
<mgrwt>
<rscale>  0 0.22790545E+04</rscale>
<asrwt>0</asrwt>
<pdfrwt beam="1">  1        1 0.36274434E+00 0.22790545E+04</pdfrwt>
<pdfrwt beam="2">  1       -2 0.84727050E-01 0.22790545E+04</pdfrwt>
<totfact> 0.16403722E+00</totfact>
</mgrwt>
</event>
<event>
12    4  0.4486176E-008  0.1273358E+04  0.7818608E-02  0.9050963E-01
         -2   -1    0    0    0  501 -0.00000000000E+00  0.00000000000E+00  0.64142560220E+03  0.64142560220E+03  0.00000000000E+00 0.  1.
          1   -1    0    0  501    0  0.00000000000E+00 -0.00000000000E+00 -0.63196766340E+03  0.63196766340E+03  0.00000000000E+00 0. -1.
        -24    2    1    2    0    0  0.24823138932E+03  0.16935988959E+03 -0.90226537748E+02  0.32406755022E+03  0.81100888681E+02 0.  0.
        254    2    1    2    0    0 -0.24823138932E+03 -0.16935988959E+03  0.99684476549E+02  0.94932571537E+03  0.89497526455E+03 0.  0.
         23    2    4    4    0    0 -0.22039883630E+03 -0.13684634373E+03  0.48191975122E+03  0.55454139506E+03  0.89257735754E+02 0.  0.
         23    2    4    4    0    0 -0.27832553022E+02 -0.32513545858E+02 -0.38223527467E+03  0.39478432031E+03  0.88989171765E+02 0.  0.
          3    1    3    3  502    0  0.54770266801E+02  0.40147355989E+02 -0.57797003997E+02  0.89174469381E+02  0.00000000000E+00 0. -1.
         -4    1    3    3    0  502  0.19346112252E+03  0.12921253360E+03 -0.32429533751E+02  0.23489308084E+03  0.00000000000E+00 0.  1.
         11    1    5    5    0    0 -0.98514057922E+01 -0.41668884282E+02  0.64053689795E+02  0.77046877223E+02  0.00000000000E+00 0.  1.
        -11    1    5    5    0    0 -0.21054743051E+03 -0.95177459448E+02  0.41786606142E+03  0.47749451784E+03  0.00000000000E+00 0. -1.
          1    1    6    6  503    0  0.15129637225E+02  0.18931743164E+02 -0.18252574173E+03  0.18412757321E+03  0.00000000000E+00 0. -1.
         -1    1    6    6    0  503 -0.42962190247E+02 -0.51445289022E+02 -0.19970953293E+03  0.21065674710E+03  0.00000000000E+00 0.  1.
<mgrwt>
<rscale>  0 0.12733581E+04</rscale>
<asrwt>0</asrwt>
<pdfrwt beam="1">  1        1 0.97225794E-01 0.12733581E+04</pdfrwt>
<pdfrwt beam="2">  1       -2 0.98680862E-01 0.12733581E+04</pdfrwt>
<totfact> 0.23322622E+01</totfact>
</mgrwt>
</event>
<event>
12    4  0.4486176E-008  0.2613709E+04  0.7818608E-02  0.8363559E-01
          1   -1    0    0  501    0  0.00000000000E+00  0.00000000000E+00  0.11325699358E+04  0.11325699358E+04  0.00000000000E+00 0. -1.
         -2   -1    0    0    0  501 -0.00000000000E+00 -0.00000000000E+00 -0.15079585243E+04  0.15079585243E+04  0.00000000000E+00 0.  1.
        -24    2    1    2    0    0  0.87750757710E+02 -0.61560819684E+03 -0.11496245480E+04  0.13096931198E+04  0.83581213000E+02 0.  0.
        254    2    1    2    0    0 -0.87750757710E+02  0.61560819684E+03  0.77423595953E+03  0.13308353403E+04  0.88600662216E+03 0.  0.
         23    2    4    4    0    0 -0.13819928942E+03  0.62722765537E+03  0.93648591916E+03  0.11393484049E+04  0.92711032846E+02 0.  0.
         23    2    4    4    0    0  0.50448531709E+02 -0.11619458529E+02 -0.16224995962E+03  0.19148693547E+03  0.87533598628E+02 0.  0.
          3    1    3    3  502    0  0.77013547064E+02 -0.49457120760E+03 -0.98726114998E+03  0.11068949110E+04  0.00000000000E+00 0. -1.
         -4    1    3    3    0  502  0.10737210646E+02 -0.12103698924E+03 -0.16236339801E+03  0.20279820875E+03  0.00000000000E+00 0.  1.
         11    1    5    5    0    0 -0.13750646020E+03  0.61568919613E+03  0.88657238357E+03  0.10881138746E+04  0.00000000000E+00 0.  1.
        -11    1    5    5    0    0 -0.69282921402E+00  0.11538459244E+02  0.49913535586E+02  0.51234530239E+02  0.00000000000E+00 0. -1.
          2    1    6    6  503    0  0.10291605304E+02  0.16223678478E+00  0.99251918962E+01  0.14298702552E+02  0.00000000000E+00 0. -1.
         -2    1    6    6    0  503  0.40156926405E+02 -0.11781695314E+02 -0.17217515152E+03  0.17718823291E+03  0.00000000000E+00 0.  1.
<mgrwt>
<rscale>  0 0.26137089E+04</rscale>
<asrwt>0</asrwt>
<pdfrwt beam="1">  1        1 0.17424153E+00 0.26137089E+04</pdfrwt>
<pdfrwt beam="2">  1       -2 0.23199362E+00 0.26137089E+04</pdfrwt>
<totfact> 0.76849085E-01</totfact>
</mgrwt>
</event>
<event>
12    4  0.4486176E-008  0.3707542E+04  0.7818608E-02  0.8066292E-01
          1   -1    0    0  501    0  0.00000000000E+00  0.00000000000E+00  0.18084491614E+04  0.18084491614E+04  0.00000000000E+00 0. -1.
         -2   -1    0    0    0  501 -0.00000000000E+00 -0.00000000000E+00 -0.19002287900E+04  0.19002287900E+04  0.00000000000E+00 0.  1.
        -24    2    1    2    0    0  0.21921001309E+01 -0.32349965889E+03  0.16657140613E+04  0.16987024560E+04  0.79560449947E+02 0.  0.
        254    2    1    2    0    0 -0.21921001309E+01  0.32349965889E+03 -0.17574936899E+04  0.20099754955E+04  0.92008727180E+03 0.  0.
         23    2    4    4    0    0 -0.23271942472E+03  0.36731766929E+03 -0.16931430319E+04  0.17500875586E+04  0.83621380930E+02 0.  0.
         23    2    4    4    0    0  0.23052732458E+03 -0.43818010399E+02 -0.64350658030E+02  0.25988793693E+03  0.91311922312E+02 0.  0.
          1    1    3    3  502    0 -0.60711522760E+01 -0.17756612619E+03  0.71092046401E+03  0.73278543531E+03  0.00000000000E+00 0. -1.
         -2    1    3    3    0  502  0.82632524070E+01 -0.14593353270E+03  0.95479359733E+03  0.96591702067E+03  0.00000000000E+00 0.  1.
         11    1    5    5    0    0 -0.13822544325E+03  0.28121787694E+03 -0.11322224547E+04  0.11747840033E+04  0.00000000000E+00 0.  1.
        -11    1    5    5    0    0 -0.94493981461E+02  0.86099792349E+02 -0.56092057718E+03  0.57530355525E+03  0.00000000000E+00 0. -1.
          4    1    6    6  503    0  0.16685005188E+03 -0.18832686233E+01 -0.74929692507E+02  0.18291239798E+03  0.00000000000E+00 0. -1.
         -4    1    6    6    0  503  0.63677272700E+02 -0.41934741776E+02  0.10579034477E+02  0.76975538951E+02  0.00000000000E+00 0.  1.
<mgrwt>
<rscale>  0 0.37075421E+04</rscale>
<asrwt>0</asrwt>
<pdfrwt beam="1">  1        1 0.27822295E+00 0.37075421E+04</pdfrwt>
<pdfrwt beam="2">  1       -2 0.29234289E+00 0.37075421E+04</pdfrwt>
<totfact> 0.10029241E-01</totfact>
</mgrwt>
</event>
<event>
12    4  0.4486176E-008  0.2084759E+04  0.7818608E-02  0.8567987E-01
          1   -1    0    0  501    0  0.00000000000E+00  0.00000000000E+00  0.79140834613E+03  0.79140834613E+03  0.00000000000E+00 0. -1.
         -2   -1    0    0    0  501 -0.00000000000E+00 -0.00000000000E+00 -0.13729381188E+04  0.13729381188E+04  0.00000000000E+00 0.  1.
        -24    2    1    2    0    0 -0.35765929697E+03 -0.57721972768E+03 -0.75558713885E+03  0.10190667348E+04  0.80512725309E+02 0.  0.
        254    2    1    2    0    0  0.35765929697E+03  0.57721972768E+03  0.17405736620E+03  0.11452797301E+04  0.90568587635E+03 0.  0.
         23    2    4    4    0    0 -0.25624805583E+03 -0.20704036163E+01  0.12098285835E+03  0.29459673178E+03  0.80517263185E+02 0.  0.
         23    2    4    4    0    0  0.61390735280E+03  0.57929013130E+03  0.53074507854E+02  0.85068299828E+03  0.91571644808E+02 0.  0.
          1    1    3    3  502    0 -0.88811676788E+01 -0.48494586156E+02 -0.40581598285E+02  0.63855040091E+02  0.00000000000E+00 0. -1.
         -2    1    3    3    0  502 -0.34877812929E+03 -0.52872514153E+03 -0.71500554056E+03  0.95521169475E+03  0.00000000000E+00 0.  1.
         11    1    5    5    0    0 -0.41872326164E+00 -0.12188836125E+02  0.89554425516E+01  0.15130862716E+02  0.00000000000E+00 0. -1.
        -11    1    5    5    0    0 -0.25582933257E+03  0.10118432509E+02  0.11202741580E+03  0.27946586906E+03  0.00000000000E+00 0.  1.
          4    1    6    6  503    0  0.21606786719E+03  0.25949825114E+03  0.18029768486E+01  0.33768019827E+03  0.00000000000E+00 0. -1.
         -4    1    6    6    0  503  0.39783948561E+03  0.31979188015E+03  0.51271531005E+02  0.51300280001E+03  0.00000000000E+00 0.  1.
<mgrwt>
<rscale>  0 0.20847587E+04</rscale>
<asrwt>0</asrwt>
<pdfrwt beam="1">  1        1 0.12175513E+00 0.20847587E+04</pdfrwt>
<pdfrwt beam="2">  1       -2 0.21122125E+00 0.20847587E+04</pdfrwt>
<totfact> 0.20404844E+00</totfact>
</mgrwt>
</event>
<event>
12    4  0.5059384E-008  0.1486035E+04  0.7818608E-02  0.8893793E-01
         -2   -1    0    0    0  501 -0.00000000000E+00  0.00000000000E+00  0.36933783227E+03  0.36933783227E+03  0.00000000000E+00 0.  1.
          1   -1    0    0  501    0  0.00000000000E+00 -0.00000000000E+00 -0.14947706527E+04  0.14947706527E+04  0.00000000000E+00 0. -1.
        -24    2    1    2    0    0 -0.32263186597E+03  0.24959183589E+03 -0.60262203618E+03  0.73199546052E+03  0.79225187020E+02 0.  0.
        254    2    1    2    0    0  0.32263186597E+03 -0.24959183589E+03 -0.52281078429E+03  0.11321130245E+04  0.91758453483E+03 0.  0.
         23    2    4    4    0    0  0.79198016112E+02  0.28535328732E+03 -0.42993083469E+03  0.52994702148E+03  0.91129021836E+02 0.  0.
         23    2    4    4    0    0  0.24343384986E+03 -0.53494512322E+03 -0.92879949598E+02  0.60216600300E+03  0.92471001001E+02 0.  0.
          3    1    3    3  502    0 -0.32478196210E+03  0.24609716689E+03 -0.57898404914E+03  0.70800400255E+03  0.00000000000E+00 0. -1.
         -4    1    3    3    0  502  0.21500961355E+01  0.34946689977E+01 -0.23637987032E+02  0.23991457974E+02  0.00000000000E+00 0.  1.
         11    1    5    5    0    0  0.51836802957E+02  0.26920456572E+03 -0.35481210465E+03  0.44838575128E+03  0.00000000000E+00 0.  1.
        -11    1    5    5    0    0  0.27361213155E+02  0.16148721608E+02 -0.75118730039E+02  0.81561270206E+02  0.00000000000E+00 0. -1.
          2    1    6    6  503    0  0.99380462110E+02 -0.22223154317E+03  0.74270211158E+01  0.24355388658E+03  0.00000000000E+00 0.  1.
         -2    1    6    6    0  503  0.14405338775E+03 -0.31271358005E+03 -0.10030697071E+03  0.35861211642E+03  0.00000000000E+00 0. -1.
<mgrwt>
<rscale>  0 0.14860355E+04</rscale>
<asrwt>0</asrwt>
<pdfrwt beam="1">  1        1 0.22996471E+00 0.14860355E+04</pdfrwt>
<pdfrwt beam="2">  1       -2 0.56821206E-01 0.14860355E+04</pdfrwt>
<totfact> 0.16280913E+01</totfact>
</mgrwt>
</event>
<event>
12    4  0.4486176E-008  0.1969479E+04  0.7818608E-02  0.8621025E-01
          1   -1    0    0  501    0  0.00000000000E+00  0.00000000000E+00  0.34779068669E+04  0.34779068669E+04  0.00000000000E+00 0. -1.
         -2   -1    0    0    0  501 -0.00000000000E+00 -0.00000000000E+00 -0.27882044327E+03  0.27882044327E+03  0.00000000000E+00 0.  1.
        -24    2    1    2    0    0 -0.43196942398E+03 -0.25399358438E+03  0.23879953938E+04  0.24412121220E+04  0.76709189094E+02 0.  0.
        254    2    1    2    0    0  0.43196942398E+03  0.25399358438E+03  0.81109102986E+03  0.13155151882E+04  0.90642221258E+03 0.  0.
         23    2    4    4    0    0  0.33568769801E+03  0.33074887000E+03  0.97709075349E+03  0.10893338445E+04  0.99301755783E+02 0.  0.
         23    2    4    4    0    0  0.96281725972E+02 -0.76755285620E+02 -0.16599972364E+03  0.22618134364E+03  0.91872451457E+02 0.  0.
          3    1    3    3  502    0 -0.37138792046E+03 -0.18441036347E+03  0.19642268026E+04  0.20075166504E+04  0.00000000000E+00 0. -1.
         -4    1    3    3    0  502 -0.60581503514E+02 -0.69583220915E+02  0.42376859117E+03  0.43369547158E+03  0.00000000000E+00 0.  1.
         11    1    5    5    0    0  0.28324632173E+03  0.27811966446E+03  0.72547390701E+03  0.82697727676E+03  0.00000000000E+00 0.  1.
        -11    1    5    5    0    0  0.52441376280E+02  0.52629205541E+02  0.25161684648E+03  0.26235656778E+03  0.00000000000E+00 0. -1.
          1    1    6    6  503    0  0.12300736764E+02 -0.22655395668E+02  0.67305596323E+01  0.26643489088E+02  0.00000000000E+00 0. -1.
         -1    1    6    6    0  503  0.83980989207E+02 -0.54099889952E+02 -0.17273028327E+03  0.19953785455E+03  0.00000000000E+00 0.  1.
<mgrwt>
<rscale>  0 0.19694786E+04</rscale>
<asrwt>0</asrwt>
<pdfrwt beam="1">  1        1 0.53506256E+00 0.19694786E+04</pdfrwt>
<pdfrwt beam="2">  1       -2 0.42895455E-01 0.19694786E+04</pdfrwt>
<totfact> 0.11001501E+00</totfact>
</mgrwt>
</event>
<event>
12    4  0.4486176E-008  0.1291825E+04  0.7818608E-02  0.9036073E-01
          1   -1    0    0  501    0  0.00000000000E+00  0.00000000000E+00  0.12301014530E+04  0.12301014530E+04  0.00000000000E+00 0. -1.
         -2   -1    0    0    0  501 -0.00000000000E+00 -0.00000000000E+00 -0.33916145977E+03  0.33916145977E+03  0.00000000000E+00 0.  1.
        -24    2    1    2    0    0 -0.79302204965E+01 -0.23523351145E+03 -0.38716717551E+02  0.25249455443E+03  0.82805932719E+02 0.  0.
        254    2    1    2    0    0  0.79302204965E+01  0.23523351145E+03  0.92965671073E+03  0.13167683583E+04  0.90234118619E+03 0.  0.
         23    2    4    4    0    0 -0.27338197730E+03  0.46409944493E+03  0.64999648035E+03  0.84943224626E+03  0.94412479159E+02 0.  0.
         23    2    4    4    0    0  0.28131219780E+03 -0.22886593348E+03  0.27966023038E+03  0.46733611203E+03  0.93150571734E+02 0.  0.
          3    1    3    3  502    0  0.77140053980E+01 -0.48940310537E+01 -0.18633614489E+02  0.20752566303E+02  0.00000000000E+00 0. -1.
         -4    1    3    3    0  502 -0.15644225895E+02 -0.23033948040E+03 -0.20083103061E+02  0.23174198813E+03  0.00000000000E+00 0.  1.
         11    1    5    5    0    0 -0.12046558290E+02  0.86899248681E+02  0.11353643295E+03  0.14348212640E+03  0.00000000000E+00 0. -1.
        -11    1    5    5    0    0 -0.26133541901E+03  0.37720019625E+03  0.53646004740E+03  0.70595011987E+03  0.00000000000E+00 0.  1.
          4    1    6    6  503    0  0.20656176013E+03 -0.21495363255E+03  0.22990626485E+03  0.37647007253E+03  0.00000000000E+00 0.  1.
         -4    1    6    6    0  503  0.74750437669E+02 -0.13912300937E+02  0.49753965526E+02  0.90866039501E+02  0.00000000000E+00 0. -1.
<mgrwt>
<rscale>  0 0.12918251E+04</rscale>
<asrwt>0</asrwt>
<pdfrwt beam="1">  1        1 0.18924637E+00 0.12918251E+04</pdfrwt>
<pdfrwt beam="2">  1       -2 0.52178687E-01 0.12918251E+04</pdfrwt>
<totfact> 0.30369103E+01</totfact>
</mgrwt>
</event>
<event>
12    4  0.4486176E-008  0.1527267E+04  0.7818608E-02  0.8866521E-01
         -4   -1    0    0    0  501 -0.00000000000E+00  0.00000000000E+00  0.23425662966E+03  0.23425662966E+03  0.00000000000E+00 0.  1.
          1   -1    0    0  501    0  0.00000000000E+00 -0.00000000000E+00 -0.24893039565E+04  0.24893039565E+04  0.00000000000E+00 0. -1.
        -24    2    1    2    0    0 -0.47816701479E+03 -0.78026129085E+02 -0.57288246721E+03  0.75455914132E+03  0.80208513644E+02 0.  0.
        254    2    1    2    0    0  0.47816701479E+03  0.78026129085E+02 -0.16821648597E+04  0.19690014449E+04  0.90141905016E+03 0.  0.
         23    2    4    4    0    0  0.55445424792E+03 -0.20462564346E+01 -0.42780852855E+03  0.70643814533E+03  0.92795559531E+02 0.  0.
         23    2    4    4    0    0 -0.76287233132E+02  0.80072385520E+02 -0.12543563311E+04  0.12625632996E+04  0.91787532425E+02 0.  0.
          1    1    3    3  502    0 -0.20194929905E+03 -0.30353653339E+02 -0.18190765607E+03  0.27348721907E+03  0.00000000000E+00 0. -1.
         -2    1    3    3    0  502 -0.27621771574E+03 -0.47672475745E+02 -0.39097481114E+03  0.48107192225E+03  0.00000000000E+00 0.  1.
         11    1    5    5    0    0  0.45995807160E+03 -0.17979912807E+02 -0.31181704185E+03  0.55598073031E+03  0.00000000000E+00 0. -1.
        -11    1    5    5    0    0  0.94496176327E+02  0.15933656372E+02 -0.11599148671E+03  0.15045741502E+03  0.00000000000E+00 0.  1.
          3    1    6    6  503    0 -0.45011024104E+02  0.83639777839E+02 -0.11401061117E+04  0.11440557464E+04  0.00000000000E+00 0. -1.
         -3    1    6    6    0  503 -0.31276209029E+02 -0.35673923199E+01 -0.11425021938E+03  0.11850755321E+03  0.00000000000E+00 0.  1.
<mgrwt>
<rscale>  0 0.15272668E+04</rscale>
<asrwt>0</asrwt>
<pdfrwt beam="1">  1        1 0.38296984E+00 0.15272668E+04</pdfrwt>
<pdfrwt beam="2">  1       -4 0.36039482E-01 0.15272668E+04</pdfrwt>
<totfact> 0.49825261E+00</totfact>
</mgrwt>
</event>
<event>
12    4  0.4486176E-008  0.1503482E+04  0.7818608E-02  0.8882140E-01
          1   -1    0    0  501    0  0.00000000000E+00  0.00000000000E+00  0.21188337595E+04  0.21188337595E+04  0.00000000000E+00 0. -1.
         -2   -1    0    0    0  501 -0.00000000000E+00 -0.00000000000E+00 -0.26671034323E+03  0.26671034323E+03  0.00000000000E+00 0.  1.
        -24    2    1    2    0    0  0.34083674641E+03  0.93110812097E+02  0.19918568242E+03  0.41336418088E+03  0.79722637454E+02 0.  0.
        254    2    1    2    0    0 -0.34083674641E+03 -0.93110812097E+02  0.16529377339E+04  0.19721799219E+04  0.10160960492E+04 0.  0.
         23    2    4    4    0    0 -0.40935533430E+03  0.12095726009E+03  0.16654821768E+03  0.46658383389E+03  0.88089254422E+02 0.  0.
         23    2    4    4    0    0  0.68518587890E+02 -0.21406807219E+03  0.14863895162E+04  0.15055960880E+04  0.83341765425E+02 0.  0.
          1    1    3    3  502    0  0.18759579242E+03  0.19909185998E+02  0.75161718544E+02  0.20307102441E+03  0.00000000000E+00 0. -1.
         -2    1    3    3    0  502  0.15324095399E+03  0.73201626099E+02  0.12402396388E+03  0.21029315647E+03  0.00000000000E+00 0.  1.
         11    1    5    5    0    0 -0.21619496919E+03  0.17968178433E+02  0.81774928180E+02  0.23184102100E+03  0.00000000000E+00 0. -1.
        -11    1    5    5    0    0 -0.19316036511E+03  0.10298908166E+03  0.84773289499E+02  0.23474281289E+03  0.00000000000E+00 0.  1.
          4    1    6    6  503    0  0.67083208437E+02 -0.85584385052E+02  0.79037658671E+03  0.79782203068E+03  0.00000000000E+00 0. -1.
         -4    1    6    6    0  503  0.14353794531E+01 -0.12848368714E+03  0.69601292948E+03  0.70777405730E+03  0.00000000000E+00 0.  1.
<mgrwt>
<rscale>  0 0.15034825E+04</rscale>
<asrwt>0</asrwt>
<pdfrwt beam="1">  1        1 0.32597441E+00 0.15034825E+04</pdfrwt>
<pdfrwt beam="2">  1       -2 0.41032362E-01 0.15034825E+04</pdfrwt>
<totfact> 0.11829676E+01</totfact>
</mgrwt>
</event>
<event>
12    4  0.4486176E-008  0.1606660E+04  0.7818608E-02  0.8816467E-01
         -2   -1    0    0    0  501 -0.00000000000E+00  0.00000000000E+00  0.16857629965E+03  0.16857629965E+03  0.00000000000E+00 0.  1.
          1   -1    0    0  501    0  0.00000000000E+00 -0.00000000000E+00 -0.38281702131E+04  0.38281702131E+04  0.00000000000E+00 0. -1.
        -24    2    1    2    0    0 -0.50746110579E+03  0.14912125623E+03 -0.16157309203E+04  0.17019960456E+04  0.80313196384E+02 0.  0.
        254    2    1    2    0    0  0.50746110579E+03 -0.14912125623E+03 -0.20438629931E+04  0.22947504671E+04  0.89930520333E+03 0.  0.
         23    2    4    4    0    0 -0.53035826075E+02 -0.38001264561E+03 -0.11079307954E+04  0.11759984680E+04  0.90770808320E+02 0.  0.
         23    2    4    4    0    0  0.56049693186E+03  0.23089138938E+03 -0.93593219773E+03  0.11187519991E+04  0.90384249211E+02 0.  0.
          1    1    3    3  502    0 -0.47915590567E+03  0.13778014071E+03 -0.15680000938E+04  0.16453565095E+04  0.00000000000E+00 0. -1.
         -2    1    3    3    0  502 -0.28305200120E+02  0.11341115524E+02 -0.47730826475E+02  0.56639536113E+02  0.00000000000E+00 0.  1.
         11    1    5    5    0    0  0.13207550725E+01  0.17170901991E+01  0.66186846459E+00  0.22651407413E+01  0.00000000000E+00 0.  1.
        -11    1    5    5    0    0 -0.54356581148E+02 -0.38172973581E+03 -0.11085926638E+04  0.11737333272E+04  0.00000000000E+00 0. -1.
          1    1    6    6  503    0  0.39382309688E+03  0.15976848108E+03 -0.72764538087E+03  0.84266861784E+03  0.00000000000E+00 0. -1.
         -1    1    6    6    0  503  0.16667383498E+03  0.71122908300E+02 -0.20828681686E+03  0.27608338130E+03  0.00000000000E+00 0.  1.
<mgrwt>
<rscale>  0 0.16066596E+04</rscale>
<asrwt>0</asrwt>
<pdfrwt beam="1">  1        1 0.58894926E+00 0.16066596E+04</pdfrwt>
<pdfrwt beam="2">  1       -2 0.25934816E-01 0.16066596E+04</pdfrwt>
<totfact> 0.15461955E+00</totfact>
</mgrwt>
</event>
<event>
12    4  0.4486176E-008  0.2139764E+04  0.7818608E-02  0.8543927E-01
          1   -1    0    0  501    0  0.00000000000E+00  0.00000000000E+00  0.11083999967E+04  0.11083999967E+04  0.00000000000E+00 0. -1.
         -2   -1    0    0    0  501 -0.00000000000E+00 -0.00000000000E+00 -0.10327022882E+04  0.10327022882E+04  0.00000000000E+00 0.  1.
        -24    2    1    2    0    0 -0.63296259988E+02 -0.87230821450E+03  0.96709274775E+02  0.88354326793E+03  0.79799654569E+02 0.  0.
        254    2    1    2    0    0  0.63296259988E+02  0.87230821450E+03 -0.21011566276E+02  0.12575590171E+04  0.90337431769E+03 0.  0.
         23    2    4    4    0    0 -0.15273325662E+03  0.73904231643E+03  0.31832845192E+03  0.82413884018E+03  0.91437582230E+02 0.  0.
         23    2    4    4    0    0  0.21602951660E+03  0.13326589807E+03 -0.33934001820E+03  0.43342017688E+03  0.90955209517E+02 0.  0.
          1    1    3    3  502    0 -0.45215338792E+02 -0.17761847392E+03  0.22966841905E+02  0.18471660718E+03  0.00000000000E+00 0. -1.
         -2    1    3    3    0  502 -0.18080921196E+02 -0.69468974057E+03  0.73742432869E+02  0.69882666075E+03  0.00000000000E+00 0.  1.
         11    1    5    5    0    0 -0.10279011975E+03  0.31564617833E+03  0.16823798900E+03  0.37215902455E+03  0.00000000000E+00 0. -1.
        -11    1    5    5    0    0 -0.49943136867E+02  0.42339613810E+03  0.15009046293E+03  0.45197981564E+03  0.00000000000E+00 0.  1.
          4    1    6    6  503    0  0.84917921794E+02  0.95355067120E+02 -0.12086457418E+03  0.17581776804E+03  0.00000000000E+00 0. -1.
         -4    1    6    6    0  503  0.13111159481E+03  0.37910830947E+02 -0.21847544403E+03  0.25760240884E+03  0.00000000000E+00 0.  1.
<mgrwt>
<rscale>  0 0.21397637E+04</rscale>
<asrwt>0</asrwt>
<pdfrwt beam="1">  1        1 0.17052308E+00 0.21397637E+04</pdfrwt>
<pdfrwt beam="2">  1       -2 0.15887727E+00 0.21397637E+04</pdfrwt>
<totfact> 0.25788045E+00</totfact>
</mgrwt>
</event>
<event>
12    4  0.4486176E-008  0.3405148E+04  0.7818608E-02  0.8136644E-01
          1   -1    0    0  501    0  0.00000000000E+00  0.00000000000E+00  0.15570190223E+04  0.15570190223E+04  0.00000000000E+00 0. -1.
         -2   -1    0    0    0  501 -0.00000000000E+00 -0.00000000000E+00 -0.18617355251E+04  0.18617355251E+04  0.00000000000E+00 0.  1.
        -24    2    1    2    0    0  0.10203060352E+04 -0.75555597656E+03  0.80612745033E+03  0.15060968483E+04  0.81221986591E+02 0.  0.
        254    2    1    2    0    0 -0.10203060352E+04  0.75555597656E+03 -0.11108439531E+04  0.19126576990E+04  0.90133009844E+03 0.  0.
         23    2    4    4    0    0  0.14349513446E+03  0.83931522903E+02 -0.41663725913E+02  0.19290931645E+03  0.88559495064E+02 0.  0.
         23    2    4    4    0    0 -0.11638011696E+04  0.67162445365E+03 -0.10691802272E+04  0.17197483826E+04  0.94210253868E+02 0.  0.
          1    1    3    3  502    0  0.35683114436E+03 -0.30627065705E+03  0.32180554241E+03  0.56981487176E+03  0.00000000000E+00 0. -1.
         -2    1    3    3    0  502  0.66347489082E+03 -0.44928531951E+03  0.48432190792E+03  0.93628197653E+03  0.00000000000E+00 0.  1.
         11    1    5    5    0    0  0.11228794144E+03  0.39107679561E+02 -0.62650008530E+02  0.13439872009E+03  0.00000000000E+00 0. -1.
        -11    1    5    5    0    0  0.31207193017E+02  0.44823843342E+02  0.20986282617E+02  0.58510596357E+02  0.00000000000E+00 0.  1.
          3    1    6    6  503    0 -0.95253147484E+03  0.50978421016E+03 -0.83914839610E+03  0.13679788676E+04  0.00000000000E+00 0. -1.
         -3    1    6    6    0  503 -0.21126969480E+03  0.16184024350E+03 -0.23003183111E+03  0.35176951500E+03  0.00000000000E+00 0.  1.
<mgrwt>
<rscale>  0 0.34051476E+04</rscale>
<asrwt>0</asrwt>
<pdfrwt beam="1">  1        1 0.23954139E+00 0.34051476E+04</pdfrwt>
<pdfrwt beam="2">  1       -2 0.28642085E+00 0.34051476E+04</pdfrwt>
<totfact> 0.16603310E-01</totfact>
</mgrwt>
</event>
<event>
12    4  0.4486176E-008  0.2561406E+04  0.7818608E-02  0.8381430E-01
         -2   -1    0    0    0  501 -0.00000000000E+00  0.00000000000E+00  0.18921955633E+04  0.18921955633E+04  0.00000000000E+00 0.  1.
          1   -1    0    0  501    0  0.00000000000E+00 -0.00000000000E+00 -0.86682379117E+03  0.86682379117E+03  0.00000000000E+00 0. -1.
        -24    2    1    2    0    0  0.10045444952E+04 -0.49009556951E+03  0.49067381743E+03  0.12235755066E+04  0.84100624607E+02 0.  0.
        254    2    1    2    0    0 -0.10045444952E+04  0.49009556951E+03  0.53469795468E+03  0.15354438479E+04  0.90685312883E+03 0.  0.
         23    2    4    4    0    0 -0.76898308029E+03  0.70330685282E+03  0.59047804109E+03  0.12013126233E+04  0.92261557122E+02 0.  0.
         23    2    4    4    0    0 -0.23556141490E+03 -0.21321128331E+03 -0.55780086401E+02  0.33413122460E+03  0.87086311754E+02 0.  0.
          1    1    3    3  502    0  0.10682240642E+02 -0.16785781272E+02  0.11642521125E+02  0.23052570707E+02  0.00000000000E+00 0. -1.
         -2    1    3    3    0  502  0.99386225455E+03 -0.47330978823E+03  0.47903129631E+03  0.12005229358E+04  0.00000000000E+00 0.  1.
         11    1    5    5    0    0 -0.53646225462E+03  0.44388063884E+03  0.42367777850E+03  0.81506112174E+03  0.00000000000E+00 0. -1.
        -11    1    5    5    0    0 -0.23252082567E+03  0.25942621398E+03  0.16680026259E+03  0.38625150157E+03  0.00000000000E+00 0.  1.
          4    1    6    6  503    0 -0.40142597282E+02 -0.83395418079E+02  0.17598901339E+01  0.92570627557E+02  0.00000000000E+00 0.  1.
         -4    1    6    6    0  503 -0.19541881762E+03 -0.12981586523E+03 -0.57539976535E+02  0.24156059705E+03  0.00000000000E+00 0. -1.
<mgrwt>
<rscale>  0 0.25614060E+04</rscale>
<asrwt>0</asrwt>
<pdfrwt beam="1">  1        1 0.13335751E+00 0.25614060E+04</pdfrwt>
<pdfrwt beam="2">  1       -2 0.29110701E+00 0.25614060E+04</pdfrwt>
<totfact> 0.54123190E-01</totfact>
</mgrwt>
</event>
<event>
12    4  0.4486176E-008  0.1578889E+04  0.7818608E-02  0.8833623E-01
          1   -1    0    0  501    0  0.00000000000E+00  0.00000000000E+00  0.48010146472E+03  0.48010146472E+03  0.00000000000E+00 0. -1.
         -2   -1    0    0    0  501 -0.00000000000E+00 -0.00000000000E+00 -0.12981057483E+04  0.12981057483E+04  0.00000000000E+00 0.  1.
        -24    2    1    2    0    0 -0.10557474682E+03  0.44200509994E+03  0.57065228229E+02  0.46490127946E+03  0.79763549527E+02 0.  0.
        254    2    1    2    0    0  0.10557474682E+03 -0.44200509994E+03 -0.87506951184E+03  0.13133059336E+04  0.86747408554E+03 0.  0.
         23    2    4    4    0    0  0.13000347264E+03 -0.62197842122E+03 -0.90348108091E+03  0.11080275501E+04  0.87686537209E+02 0.  0.
         23    2    4    4    0    0 -0.24428725820E+02  0.17997332127E+03  0.28411569073E+02  0.20527838350E+03  0.91350087357E+02 0.  0.
          1    1    3    3  502    0 -0.10934275018E+03  0.38262214039E+03  0.69896799251E+02  0.40403106548E+03  0.00000000000E+00 0. -1.
         -2    1    3    3    0  502  0.37680033628E+01  0.59382959556E+02 -0.12831571022E+02  0.60870213979E+02  0.00000000000E+00 0.  1.
         11    1    5    5    0    0  0.67378970061E+02 -0.35435195751E+03 -0.43744611043E+03  0.56697824908E+03  0.00000000000E+00 0. -1.
        -11    1    5    5    0    0  0.62624502574E+02 -0.26762646370E+03 -0.46603497048E+03  0.54104930099E+03  0.00000000000E+00 0.  1.
          3    1    6    6  503    0 -0.30467115851E+01  0.13035989157E+03 -0.20987307862E+02  0.13207365700E+03  0.00000000000E+00 0. -1.
         -3    1    6    6    0  503 -0.21382014235E+02  0.49613429700E+02  0.49398876935E+02  0.73204726499E+02  0.00000000000E+00 0.  1.
<mgrwt>
<rscale>  0 0.15788888E+04</rscale>
<asrwt>0</asrwt>
<pdfrwt beam="1">  1        1 0.73861765E-01 0.15788888E+04</pdfrwt>
<pdfrwt beam="2">  1       -2 0.19970857E+00 0.15788888E+04</pdfrwt>
<totfact> 0.52591073E+00</totfact>
</mgrwt>
</event>
<event>
12    4  0.4486176E-008  0.1891981E+04  0.7818608E-02  0.8658858E-01
          1   -1    0    0  501    0  0.00000000000E+00  0.00000000000E+00  0.12900373290E+04  0.12900373290E+04  0.00000000000E+00 0. -1.
         -2   -1    0    0    0  501 -0.00000000000E+00 -0.00000000000E+00 -0.69369963918E+03  0.69369963918E+03  0.00000000000E+00 0.  1.
        -24    2    1    2    0    0  0.53775028130E+03  0.44819953967E+03  0.17877170518E+02  0.70427609504E+03  0.75013548224E+02 0.  0.
        254    2    1    2    0    0 -0.53775028130E+03 -0.44819953967E+03  0.57846051935E+03  0.12794608732E+04  0.90130203659E+03 0.  0.
         23    2    4    4    0    0 -0.19998735791E+03 -0.33394872564E+03  0.76764795222E+03  0.86561431512E+03  0.92130718585E+02 0.  0.
         23    2    4    4    0    0 -0.33776292339E+03 -0.11425081404E+03 -0.18918743288E+03  0.41384655807E+03  0.91323862919E+02 0.  0.
          3    1    3    3  502    0  0.45432898695E+03  0.40003141226E+03  0.35354631889E+02  0.60637439686E+03  0.00000000000E+00 0. -1.
         -4    1    3    3    0  502  0.83421294350E+02  0.48168127416E+02 -0.17477461372E+02  0.97901698176E+02  0.00000000000E+00 0.  1.
         11    1    5    5    0    0 -0.44342168935E+02 -0.80839514030E+02  0.10715688557E+03  0.14136425680E+03  0.00000000000E+00 0.  1.
        -11    1    5    5    0    0 -0.15564518897E+03 -0.25310921161E+03  0.66049106665E+03  0.72425005832E+03  0.00000000000E+00 0. -1.
          3    1    6    6  503    0  0.74978273823E+00  0.38671951097E+01 -0.14499465112E+02  0.15025041122E+02  0.00000000000E+00 0.  1.
         -3    1    6    6    0  503 -0.33851270613E+03 -0.11811800915E+03 -0.17468796777E+03  0.39882151694E+03  0.00000000000E+00 0. -1.
<mgrwt>
<rscale>  0 0.18919814E+04</rscale>
<asrwt>0</asrwt>
<pdfrwt beam="1">  1        1 0.19846728E+00 0.18919814E+04</pdfrwt>
<pdfrwt beam="2">  1       -2 0.10672302E+00 0.18919814E+04</pdfrwt>
<totfact> 0.53391590E+00</totfact>
</mgrwt>
</event>
<event>
12    4  0.4486176E-008  0.2574858E+04  0.7818608E-02  0.8376792E-01
         -2   -1    0    0    0  501 -0.00000000000E+00  0.00000000000E+00  0.36340839964E+03  0.36340839964E+03  0.00000000000E+00 0.  1.
          1   -1    0    0  501    0  0.00000000000E+00 -0.00000000000E+00 -0.45609110019E+04  0.45609110019E+04  0.00000000000E+00 0. -1.
        -24    2    1    2    0    0  0.83023501725E+03  0.31471642284E+03 -0.31655273500E+04  0.32886920858E+04  0.81213427280E+02 0.  0.
        254    2    1    2    0    0 -0.83023501725E+03 -0.31471642284E+03 -0.10319752523E+04  0.16356273158E+04  0.90662405886E+03 0.  0.
         23    2    4    4    0    0 -0.54005499312E+03  0.25411187378E+03 -0.35107994969E+03  0.69839791233E+03  0.90941040739E+02 0.  0.
         23    2    4    4    0    0 -0.29018002414E+03 -0.56882829661E+03 -0.68089530259E+03  0.93722940344E+03  0.83728514527E+02 0.  0.
          3    1    3    3  502    0  0.26647803837E+03  0.12772830005E+03 -0.11610836222E+04  0.11980985942E+04  0.00000000000E+00 0. -1.
         -4    1    3    3    0  502  0.56375697889E+03  0.18698812279E+03 -0.20044437278E+04  0.20905934916E+04  0.00000000000E+00 0.  1.
         11    1    5    5    0    0 -0.50656928464E+03  0.21620806402E+03 -0.33776234950E+03  0.64609733928E+03  0.00000000000E+00 0.  1.
        -11    1    5    5    0    0 -0.33485708474E+02  0.37903809760E+02 -0.13317600187E+02  0.52300573047E+02  0.00000000000E+00 0. -1.
          4    1    6    6  503    0 -0.23349085817E+02 -0.10009732796E+03 -0.83959053410E+02  0.13271690745E+03  0.00000000000E+00 0.  1.
         -4    1    6    6    0  503 -0.26683093832E+03 -0.46873096865E+03 -0.59693624918E+03  0.80451249599E+03  0.00000000000E+00 0. -1.
<mgrwt>
<rscale>  0 0.25748580E+04</rscale>
<asrwt>0</asrwt>
<pdfrwt beam="1">  1        1 0.70167858E+00 0.25748580E+04</pdfrwt>
<pdfrwt beam="2">  1       -2 0.55908988E-01 0.25748580E+04</pdfrwt>
<totfact> 0.65218178E-02</totfact>
</mgrwt>
</event>
<event>
12    4  0.4486176E-008  0.1565519E+04  0.7818608E-02  0.8842015E-01
          1   -1    0    0  501    0  0.00000000000E+00  0.00000000000E+00  0.14196058815E+04  0.14196058815E+04  0.00000000000E+00 0. -1.
         -2   -1    0    0    0  501 -0.00000000000E+00 -0.00000000000E+00 -0.43160757900E+03  0.43160757900E+03  0.00000000000E+00 0.  1.
        -24    2    1    2    0    0  0.32416722213E+03  0.31196941746E+03  0.32631853126E+02  0.45901552886E+03  0.84977129674E+02 0.  0.
        254    2    1    2    0    0 -0.32416722213E+03 -0.31196941746E+03  0.95536644937E+03  0.13921979316E+04  0.90723796377E+03 0.  0.
         23    2    4    4    0    0  0.28698212344E+03 -0.60988223928E+01  0.16556566557E+03  0.34330466894E+03  0.89722746796E+02 0.  0.
         23    2    4    4    0    0 -0.61114934557E+03 -0.30587059507E+03  0.78980078380E+03  0.10488932627E+04  0.96599456024E+02 0.  0.
          1    1    3    3  502    0  0.16644940719E+02  0.23440698760E+02 -0.18581369208E+02  0.34231384598E+02  0.00000000000E+00 0. -1.
         -2    1    3    3    0  502  0.30752228141E+03  0.28852871870E+03  0.51213222334E+02  0.42478414427E+03  0.00000000000E+00 0.  1.
         11    1    5    5    0    0  0.26711627576E+03 -0.25704862639E+02  0.16571299345E+03  0.31539283590E+03  0.00000000000E+00 0. -1.
        -11    1    5    5    0    0  0.19865847681E+02  0.19606040246E+02 -0.14732788073E+00  0.27911833041E+02  0.00000000000E+00 0.  1.
          4    1    6    6  503    0 -0.35267984231E+03 -0.19957067672E+03  0.53128372829E+03  0.66818704427E+03  0.00000000000E+00 0. -1.
         -4    1    6    6    0  503 -0.25846950326E+03 -0.10629991834E+03  0.25851705551E+03  0.38070621842E+03  0.00000000000E+00 0.  1.
<mgrwt>
<rscale>  0 0.15655193E+04</rscale>
<asrwt>0</asrwt>
<pdfrwt beam="1">  1        1 0.21840090E+00 0.15655193E+04</pdfrwt>
<pdfrwt beam="2">  1       -2 0.66401167E-01 0.15655193E+04</pdfrwt>
<totfact> 0.13101401E+01</totfact>
</mgrwt>
</event>
<event>
12    4  0.4486176E-008  0.1418212E+04  0.7818608E-02  0.8940740E-01
          3   -1    0    0  501    0  0.00000000000E+00  0.00000000000E+00  0.32315727744E+03  0.32315727744E+03  0.00000000000E+00 0. -1.
         -4   -1    0    0    0  501 -0.00000000000E+00 -0.00000000000E+00 -0.15559966210E+04  0.15559966210E+04  0.00000000000E+00 0.  1.
        -24    2    1    2    0    0 -0.24925877278E+03  0.20381242558E+03 -0.16773050245E+02  0.33263837876E+03  0.81838347844E+02 0.  0.
        254    2    1    2    0    0  0.24925877278E+03 -0.20381242558E+03 -0.12160662933E+04  0.15465155197E+04  0.89956855338E+03 0.  0.
         23    2    4    4    0    0  0.52346508422E+03 -0.20430397900E+02 -0.41115194088E+03  0.67206273249E+03  0.90494764280E+02 0.  0.
         23    2    4    4    0    0 -0.27420631144E+03 -0.18338202768E+03 -0.80491435243E+03  0.87445278718E+03  0.89232801964E+02 0.  0.
          3    1    3    3  502    0 -0.23159477010E+03  0.19119435512E+03 -0.37467239589E+02  0.30264701057E+03  0.00000000000E+00 0. -1.
         -4    1    3    3    0  502 -0.17664002686E+02  0.12618070463E+02  0.20694189344E+02  0.29991368187E+02  0.00000000000E+00 0.  1.
         11    1    5    5    0    0  0.13991229885E+03 -0.84350825340E+01 -0.62050694532E+02  0.15328695534E+03  0.00000000000E+00 0. -1.
        -11    1    5    5    0    0  0.38355278537E+03 -0.11995315366E+02 -0.34910124635E+03  0.51877577715E+03  0.00000000000E+00 0.  1.
          2    1    6    6  503    0 -0.27589290814E+03 -0.16145526886E+03 -0.75749790575E+03  0.82218475893E+03  0.00000000000E+00 0.  1.
         -2    1    6    6    0  503  0.16865967032E+01 -0.21926758824E+02 -0.47416446682E+02  0.52268028248E+02  0.00000000000E+00 0. -1.
<mgrwt>
<rscale>  0 0.14182124E+04</rscale>
<asrwt>0</asrwt>
<pdfrwt beam="1">  1        3 0.49716504E-01 0.14182124E+04</pdfrwt>
<pdfrwt beam="2">  1       -4 0.23938410E+00 0.14182124E+04</pdfrwt>
<totfact> 0.65775496E-01</totfact>
</mgrwt>
</event>
<event>
12    4  0.4486176E-008  0.1199271E+04  0.7818608E-02  0.9113495E-01
         -4   -1    0    0    0  501 -0.00000000000E+00  0.00000000000E+00  0.25352814560E+03  0.25352814560E+03  0.00000000000E+00 0.  1.
          3   -1    0    0  501    0  0.00000000000E+00 -0.00000000000E+00 -0.14182351870E+04  0.14182351870E+04  0.00000000000E+00 0. -1.
        -24    2    1    2    0    0  0.13247810980E+03  0.14707328047E+03 -0.47197750112E+03  0.51836792754E+03  0.82228628412E+02 0.  0.
        254    2    1    2    0    0 -0.13247810980E+03 -0.14707328047E+03 -0.69272954026E+03  0.11533954051E+04  0.90070291719E+03 0.  0.
         23    2    4    4    0    0  0.35910414011E+03 -0.98035952621E+02 -0.46757905109E+03  0.60467883171E+03  0.91866691701E+02 0.  0.
         23    2    4    4    0    0 -0.49158224991E+03 -0.49037327851E+02 -0.22515048917E+03  0.54871657334E+03  0.79620142800E+02 0.  0.
          3    1    3    3  502    0  0.11522774039E+03  0.86188719606E+02 -0.38335347996E+03  0.40947016758E+03  0.00000000000E+00 0. -1.
         -4    1    3    3    0  502  0.17250369408E+02  0.60884560866E+02 -0.88624021168E+02  0.10889775996E+03  0.00000000000E+00 0.  1.
         11    1    5    5    0    0  0.29509510123E+03 -0.70081541107E+02 -0.42745239092E+03  0.52412602271E+03  0.00000000000E+00 0. -1.
        -11    1    5    5    0    0  0.64009038879E+02 -0.27954411514E+02 -0.40126660170E+02  0.80552808999E+02  0.00000000000E+00 0.  1.
          2    1    6    6  503    0 -0.25991050222E+03 -0.29424931951E+02 -0.75619547819E+02  0.27228222821E+03  0.00000000000E+00 0. -1.
         -2    1    6    6    0  503 -0.23167174769E+03 -0.19612395900E+02 -0.14953094135E+03  0.27643434514E+03  0.00000000000E+00 0.  1.
<mgrwt>
<rscale>  0 0.11992707E+04</rscale>
<asrwt>0</asrwt>
<pdfrwt beam="1">  1        3 0.21819003E+00 0.11992707E+04</pdfrwt>
<pdfrwt beam="2">  1       -4 0.39004329E-01 0.11992707E+04</pdfrwt>
<totfact> 0.16533221E+00</totfact>
</mgrwt>
</event>
<event>
12    4  0.4486176E-008  0.2294214E+04  0.7818608E-02  0.8480206E-01
         -2   -1    0    0    0  501 -0.00000000000E+00  0.00000000000E+00  0.95844458091E+03  0.95844458091E+03  0.00000000000E+00 0.  1.
          1   -1    0    0  501    0  0.00000000000E+00 -0.00000000000E+00 -0.13729065994E+04  0.13729065994E+04  0.00000000000E+00 0. -1.
        -24    2    1    2    0    0 -0.60868305458E+03 -0.42919110765E+03 -0.81192296991E+03  0.11046131408E+04  0.79064619068E+02 0.  0.
        254    2    1    2    0    0  0.60868305458E+03  0.42919110765E+03  0.39746095146E+03  0.12267380395E+04  0.89006232462E+03 0.  0.
         23    2    4    4    0    0  0.75206415093E+03  0.55675112364E+03  0.37880092538E+03  0.10135175753E+04  0.90307439495E+02 0.  0.
         23    2    4    4    0    0 -0.14338109635E+03 -0.12756001598E+03  0.18660026073E+02  0.21322046414E+03  0.91022377930E+02 0.  0.
          1    1    3    3  502    0 -0.11050554477E+03 -0.10367841401E+03 -0.20145956566E+03  0.25208459999E+03  0.00000000000E+00 0. -1.
         -2    1    3    3    0  502 -0.49817750981E+03 -0.32551269364E+03 -0.61046340426E+03  0.85252854083E+03  0.00000000000E+00 0.  1.
         11    1    5    5    0    0  0.31793461876E+03  0.26623875056E+03  0.20806274397E+03  0.46395646297E+03  0.00000000000E+00 0. -1.
        -11    1    5    5    0    0  0.43412953217E+03  0.29051237307E+03  0.17073818141E+03  0.54956111235E+03  0.00000000000E+00 0.  1.
          3    1    6    6  503    0 -0.17722901012E+02 -0.72251503292E+02 -0.17848081780E+01  0.74414827074E+02  0.00000000000E+00 0. -1.
         -3    1    6    6    0  503 -0.12565819534E+03 -0.55308512692E+02  0.20444834251E+02  0.13880563706E+03  0.00000000000E+00 0.  1.
<mgrwt>
<rscale>  0 0.22942144E+04</rscale>
<asrwt>0</asrwt>
<pdfrwt beam="1">  1        1 0.21121640E+00 0.22942144E+04</pdfrwt>
<pdfrwt beam="2">  1       -2 0.14745301E+00 0.22942144E+04</pdfrwt>
<totfact> 0.19978899E+00</totfact>
</mgrwt>
</event>
<event>
12    4  0.4486176E-008  0.1461168E+04  0.7818608E-02  0.8910694E-01
          1   -1    0    0  501    0  0.00000000000E+00  0.00000000000E+00  0.76746663899E+03  0.76746663899E+03  0.00000000000E+00 0. -1.
         -2   -1    0    0    0  501 -0.00000000000E+00 -0.00000000000E+00 -0.69547431086E+03  0.69547431086E+03  0.00000000000E+00 0.  1.
        -24    2    1    2    0    0  0.42952143242E+02 -0.41325618584E+03  0.20153863618E+03  0.46936558432E+03  0.84027781872E+02 0.  0.
        254    2    1    2    0    0 -0.42952143242E+02  0.41325618584E+03 -0.12954630805E+03  0.99357536553E+03  0.89318766186E+03 0.  0.
         23    2    4    4    0    0 -0.30071670306E+03  0.34906649021E+03  0.24230199065E+03  0.52852999710E+03  0.91409808431E+02 0.  0.
         23    2    4    4    0    0  0.25776455982E+03  0.64189695633E+02 -0.37184829870E+03  0.46504536842E+03  0.86215730150E+02 0.  0.
          1    1    3    3  502    0  0.30044072808E+02 -0.55136309001E+02  0.50098482873E+02  0.80327559825E+02  0.00000000000E+00 0. -1.
         -2    1    3    3    0  502  0.12908070435E+02 -0.35811987684E+03  0.15144015330E+03  0.38903802450E+03  0.00000000000E+00 0.  1.
         11    1    5    5    0    0 -0.12350980098E+03  0.12525933919E+03  0.14159947825E+03  0.22582069266E+03  0.00000000000E+00 0.  1.
        -11    1    5    5    0    0 -0.17720690208E+03  0.22380715102E+03  0.10070251240E+03  0.30270930444E+03  0.00000000000E+00 0. -1.
          1    1    6    6  503    0  0.21382235134E+03  0.32563711495E+02 -0.24316856813E+03  0.32544023379E+03  0.00000000000E+00 0. -1.
         -1    1    6    6    0  503  0.43942208473E+02  0.31625984139E+02 -0.12867973057E+03  0.13960513464E+03  0.00000000000E+00 0.  1.
<mgrwt>
<rscale>  0 0.14611685E+04</rscale>
<asrwt>0</asrwt>
<pdfrwt beam="1">  1        1 0.11807179E+00 0.14611685E+04</pdfrwt>
<pdfrwt beam="2">  1       -2 0.10699605E+00 0.14611685E+04</pdfrwt>
<totfact> 0.14104469E+01</totfact>
</mgrwt>
</event>
<event>
12    4  0.4486176E-008  0.2107962E+04  0.7818608E-02  0.8557744E-01
          1   -1    0    0  501    0  0.00000000000E+00  0.00000000000E+00  0.44857542131E+03  0.44857542131E+03  0.00000000000E+00 0. -1.
         -2   -1    0    0    0  501 -0.00000000000E+00 -0.00000000000E+00 -0.24764536867E+04  0.24764536867E+04  0.00000000000E+00 0.  1.
        -24    2    1    2    0    0 -0.21677015509E+03 -0.15102955298E+03 -0.19638277322E+04  0.19831902021E+04  0.81392811018E+02 0.  0.
        254    2    1    2    0    0  0.21677015509E+03  0.15102955298E+03 -0.64050533138E+02  0.94183890592E+03  0.90175319678E+03 0.  0.
         23    2    4    4    0    0  0.34821661138E+03  0.46139253792E+03 -0.72681722636E+01  0.58512090897E+03  0.90419960725E+02 0.  0.
         23    2    4    4    0    0 -0.13144645630E+03 -0.31036298494E+03 -0.56782360874E+02  0.35671799695E+03  0.10207908478E+03 0.  0.
          3    1    3    3  502    0 -0.27431099938E+02  0.41625477018E+01 -0.32440377867E+03  0.32558808894E+03  0.00000000000E+00 0. -1.
         -4    1    3    3    0  502 -0.18933905515E+03 -0.15519210068E+03 -0.16394239536E+04  0.16576021131E+04  0.00000000000E+00 0.  1.
         11    1    5    5    0    0  0.18123145598E+03  0.29761520000E+03  0.23326020223E+02  0.34923308997E+03  0.00000000000E+00 0. -1.
        -11    1    5    5    0    0  0.16698515541E+03  0.16377733792E+03 -0.30594192487E+02  0.23588781901E+03  0.00000000000E+00 0.  1.
          2    1    6    6  503    0 -0.11348493380E+03 -0.29588206441E+03 -0.25604530723E+02  0.31793178236E+03  0.00000000000E+00 0. -1.
         -2    1    6    6    0  503 -0.17961522492E+02 -0.14480920530E+02 -0.31177830151E+02  0.38786214594E+02  0.00000000000E+00 0.  1.
<mgrwt>
<rscale>  0 0.21079623E+04</rscale>
<asrwt>0</asrwt>
<pdfrwt beam="1">  1        1 0.69011602E-01 0.21079623E+04</pdfrwt>
<pdfrwt beam="2">  1       -2 0.38099288E+00 0.21079623E+04</pdfrwt>
<totfact> 0.40903497E-01</totfact>
</mgrwt>
</event>
<event>
12    4  0.4486176E-008  0.1836838E+04  0.7818608E-02  0.8686951E-01
          1   -1    0    0  501    0  0.00000000000E+00  0.00000000000E+00  0.20516599341E+04  0.20516599341E+04  0.00000000000E+00 0. -1.
         -2   -1    0    0    0  501 -0.00000000000E+00 -0.00000000000E+00 -0.41112727764E+03  0.41112727764E+03  0.00000000000E+00 0.  1.
        -24    2    1    2    0    0 -0.11152933197E+02 -0.56568443292E+03  0.11591314625E+04  0.12923947320E+04  0.81087178652E+02 0.  0.
        254    2    1    2    0    0  0.11152933197E+02  0.56568443292E+03  0.48140119402E+03  0.11703924797E+04  0.90440487696E+03 0.  0.
         23    2    4    4    0    0 -0.48708329434E+02  0.79984885987E+03  0.39297125626E+03  0.89752151343E+03  0.94803791187E+02 0.  0.
         23    2    4    4    0    0  0.59861262630E+02 -0.23416442695E+03  0.88429937761E+02  0.27287096632E+03  0.90677233929E+02 0.  0.
          3    1    3    3  502    0 -0.23673952579E+02 -0.51588412443E+03  0.10912437750E+04  0.12072737313E+04  0.00000000000E+00 0. -1.
         -4    1    3    3    0  502  0.12521019383E+02 -0.49800308491E+02  0.67887687462E+02  0.85121000705E+02  0.00000000000E+00 0.  1.
         11    1    5    5    0    0 -0.17742489633E+02  0.66149099035E+03  0.35407242862E+03  0.75050143968E+03  0.00000000000E+00 0. -1.
        -11    1    5    5    0    0 -0.30965839801E+02  0.13835786952E+03  0.38898827644E+02  0.14702007375E+03  0.00000000000E+00 0.  1.
          1    1    6    6  503    0  0.34288429962E+02 -0.22297244976E+03  0.60909720873E+02  0.23367157268E+03  0.00000000000E+00 0. -1.
         -1    1    6    6    0  503  0.25572832668E+02 -0.11191977193E+02  0.27520216888E+02  0.39199393639E+02  0.00000000000E+00 0.  1.
<mgrwt>
<rscale>  0 0.18368379E+04</rscale>
<asrwt>0</asrwt>
<pdfrwt beam="1">  1        1 0.31563998E+00 0.18368379E+04</pdfrwt>
<pdfrwt beam="2">  1       -2 0.63250352E-01 0.18368379E+04</pdfrwt>
<totfact> 0.52564133E+00</totfact>
</mgrwt>
</event>
<event>
12    4  0.4486176E-008  0.1350319E+04  0.7818608E-02  0.8990587E-01
         -2   -1    0    0    0  501 -0.00000000000E+00  0.00000000000E+00  0.89932029288E+03  0.89932029288E+03  0.00000000000E+00 0.  1.
          1   -1    0    0  501    0  0.00000000000E+00 -0.00000000000E+00 -0.50687200130E+03  0.50687200130E+03  0.00000000000E+00 0. -1.
        -24    2    1    2    0    0 -0.12512597648E+03  0.94448284108E+02  0.47806834709E+03  0.50941551655E+03  0.79861352663E+02 0.  0.
        254    2    1    2    0    0  0.12512597648E+03 -0.94448284108E+02 -0.85620055513E+02  0.89677677764E+03  0.87880646711E+03 0.  0.
         23    2    4    4    0    0  0.34311908649E+03  0.14265404110E+03 -0.31046482119E+03  0.49293339719E+03  0.92271587785E+02 0.  0.
         23    2    4    4    0    0 -0.21799311001E+03 -0.23710232521E+03  0.22484476568E+03  0.40384338044E+03  0.93785919208E+02 0.  0.
          1    1    3    3  502    0 -0.20464459377E+02 -0.14305450910E+02  0.71523541262E+02  0.75756563926E+02  0.00000000000E+00 0. -1.
         -4    1    3    3    0  502 -0.10466151710E+03  0.10875373502E+03  0.40654480583E+03  0.43365895262E+03  0.00000000000E+00 0.  1.
         11    1    5    5    0    0  0.29060826827E+03  0.14621403249E+03 -0.29203565529E+03  0.43716876929E+03  0.00000000000E+00 0.  1.
        -11    1    5    5    0    0  0.52510818222E+02 -0.35599913835E+01 -0.18429165897E+02  0.55764627899E+02  0.00000000000E+00 0. -1.
          3    1    6    6  503    0 -0.29716163690E+02  0.20240099730E+01  0.10469436992E+02  0.31571444562E+02  0.00000000000E+00 0. -1.
         -3    1    6    6    0  503 -0.18827694632E+03 -0.23912633519E+03  0.21437532869E+03  0.37227193588E+03  0.00000000000E+00 0.  1.
<mgrwt>
<rscale>  0 0.13503189E+04</rscale>
<asrwt>0</asrwt>
<pdfrwt beam="1">  1        1 0.77980308E-01 0.13503189E+04</pdfrwt>
<pdfrwt beam="2">  1       -2 0.13835697E+00 0.13503189E+04</pdfrwt>
<totfact> 0.13778092E+01</totfact>
</mgrwt>
</event>
<event>
12    4  0.4486176E-008  0.1866886E+04  0.7818608E-02  0.8671517E-01
         -2   -1    0    0    0  501 -0.00000000000E+00  0.00000000000E+00  0.70978059537E+03  0.70978059537E+03  0.00000000000E+00 0.  1.
          1   -1    0    0  501    0  0.00000000000E+00 -0.00000000000E+00 -0.12275853198E+04  0.12275853198E+04  0.00000000000E+00 0. -1.
        -24    2    1    2    0    0  0.52643170858E+02  0.14446062101E+03 -0.92562096786E+03  0.94165541805E+03  0.79376166156E+02 0.  0.
        254    2    1    2    0    0 -0.52643170858E+02 -0.14446062101E+03  0.40781624340E+03  0.99571049715E+03  0.89525701969E+03 0.  0.
         23    2    4    4    0    0 -0.29396483959E+02 -0.47023242742E+03  0.19648127496E+02  0.48066062816E+03  0.93090823846E+02 0.  0.
         23    2    4    4    0    0 -0.23246686898E+02  0.32577180641E+03  0.38816811590E+03  0.51504986899E+03  0.89074143530E+02 0.  0.
          3    1    3    3  502    0  0.47729240828E+02  0.15012002795E+03 -0.91606800879E+03  0.92951315212E+03  0.00000000000E+00 0. -1.
         -4    1    3    3    0  502  0.49139300300E+01 -0.56594069392E+01 -0.95529590624E+01  0.12142265937E+02  0.00000000000E+00 0.  1.
         11    1    5    5    0    0  0.21101737203E+02 -0.27854182156E+03  0.36502385062E+02  0.28171484481E+03  0.00000000000E+00 0. -1.
        -11    1    5    5    0    0 -0.50498221162E+02 -0.19169060586E+03 -0.16854257566E+02  0.19894578335E+03  0.00000000000E+00 0.  1.
          3    1    6    6  503    0 -0.32078266041E+02  0.25457040138E+03  0.24430314248E+03  0.35428679038E+03  0.00000000000E+00 0. -1.
         -3    1    6    6    0  503  0.88315791425E+01  0.71201405030E+02  0.14386497343E+03  0.16076307862E+03  0.00000000000E+00 0.  1.
<mgrwt>
<rscale>  0 0.18668864E+04</rscale>
<asrwt>0</asrwt>
<pdfrwt beam="1">  1        1 0.18885928E+00 0.18668864E+04</pdfrwt>
<pdfrwt beam="2">  1       -2 0.10919702E+00 0.18668864E+04</pdfrwt>
<totfact> 0.56155089E+00</totfact>
</mgrwt>
</event>
<event>
12    4  0.4486176E-008  0.2116304E+04  0.7818608E-02  0.8554095E-01
          1   -1    0    0  501    0  0.00000000000E+00  0.00000000000E+00  0.27395185414E+04  0.27395185414E+04  0.00000000000E+00 0. -1.
         -2   -1    0    0    0  501 -0.00000000000E+00 -0.00000000000E+00 -0.40871627606E+03  0.40871627606E+03  0.00000000000E+00 0.  1.
        -24    2    1    2    0    0 -0.67666323763E+03  0.51804285680E+03  0.11702734137E+04  0.14497195543E+04  0.76846501209E+02 0.  0.
        254    2    1    2    0    0  0.67666323763E+03 -0.51804285680E+03  0.11605288516E+04  0.16985152631E+04  0.90104680506E+03 0.  0.
         23    2    4    4    0    0  0.83706831047E+03 -0.21014845250E+03  0.69464523077E+03  0.11115672577E+04  0.90576174259E+02 0.  0.
         23    2    4    4    0    0 -0.16040507284E+03 -0.30789440430E+03  0.46588362081E+03  0.58694800534E+03  0.83256598792E+02 0.  0.
          1    1    3    3  502    0 -0.65635997451E+03  0.48217237606E+03  0.11151009573E+04  0.13808507382E+04  0.00000000000E+00 0. -1.
         -2    1    3    3    0  502 -0.20303263116E+02  0.35870480739E+02  0.55172456448E+02  0.68868816108E+02  0.00000000000E+00 0.  1.
         11    1    5    5    0    0  0.13584763316E+03 -0.17205816265E+02  0.75097562691E+02  0.15617382454E+03  0.00000000000E+00 0. -1.
        -11    1    5    5    0    0  0.70122067731E+03 -0.19294263623E+03  0.61954766808E+03  0.95539343319E+03  0.00000000000E+00 0.  1.
          2    1    6    6  503    0  0.34396037891E+01 -0.31411838359E+02  0.71692699561E+02  0.78347799163E+02  0.00000000000E+00 0. -1.
         -2    1    6    6    0  503 -0.16384467663E+03 -0.27648256594E+03  0.39419092125E+03  0.50860020618E+03  0.00000000000E+00 0.  1.
<mgrwt>
<rscale>  0 0.21163042E+04</rscale>
<asrwt>0</asrwt>
<pdfrwt beam="1">  1        1 0.42146438E+00 0.21163042E+04</pdfrwt>
<pdfrwt beam="2">  1       -2 0.62879429E-01 0.21163042E+04</pdfrwt>
<totfact> 0.17417232E+00</totfact>
</mgrwt>
</event>
<event>
12    4  0.4486176E-008  0.1463577E+04  0.7818608E-02  0.8909041E-01
          1   -1    0    0  501    0  0.00000000000E+00  0.00000000000E+00  0.15759486434E+04  0.15759486434E+04  0.00000000000E+00 0. -1.
         -2   -1    0    0    0  501 -0.00000000000E+00 -0.00000000000E+00 -0.33980467475E+03  0.33980467475E+03  0.00000000000E+00 0.  1.
        -24    2    1    2    0    0 -0.16639920139E+03 -0.22627024233E+03  0.84199263362E+03  0.89114301071E+03  0.79355867269E+02 0.  0.
        254    2    1    2    0    0  0.16639920139E+03  0.22627024233E+03  0.39415133502E+03  0.10246103074E+04  0.90309694409E+03 0.  0.
         23    2    4    4    0    0  0.17444494948E+02 -0.42649932120E+02 -0.26955997377E+03  0.28766086539E+03  0.89234897370E+02 0.  0.
         23    2    4    4    0    0  0.14895470645E+03  0.26892017445E+03  0.66371130878E+03  0.73694944204E+03  0.89867757948E+02 0.  0.
          1    1    3    3  502    0 -0.11536761271E+03 -0.20468254256E+03  0.71418672982E+03  0.75184261275E+03  0.00000000000E+00 0. -1.
         -2    1    3    3    0  502 -0.51031588685E+02 -0.21587699762E+02  0.12780590381E+03  0.13930039796E+03  0.00000000000E+00 0.  1.
         11    1    5    5    0    0  0.16602541019E+02 -0.14383428074E+01 -0.22975536119E+03  0.23035893556E+03  0.00000000000E+00 0.  1.
        -11    1    5    5    0    0  0.84195392960E+00 -0.41211589313E+02 -0.39804612580E+02  0.57301929834E+02  0.00000000000E+00 0. -1.
          2    1    6    6  503    0  0.76799615245E+02  0.14051264557E+03  0.24133918210E+03  0.28963180986E+03  0.00000000000E+00 0. -1.
         -2    1    6    6    0  503  0.72155091200E+02  0.12840752888E+03  0.42237212668E+03  0.44731763218E+03  0.00000000000E+00 0.  1.
<mgrwt>
<rscale>  0 0.14635774E+04</rscale>
<asrwt>0</asrwt>
<pdfrwt beam="1">  1        1 0.24245363E+00 0.14635774E+04</pdfrwt>
<pdfrwt beam="2">  1       -2 0.52277643E-01 0.14635774E+04</pdfrwt>
<totfact> 0.17045192E+01</totfact>
</mgrwt>
</event>
<event>
12    4  0.4486176E-008  0.1681195E+04  0.7818608E-02  0.8772163E-01
          1   -1    0    0  501    0  0.00000000000E+00  0.00000000000E+00  0.12614146235E+04  0.12614146235E+04  0.00000000000E+00 0. -1.
         -2   -1    0    0    0  501 -0.00000000000E+00 -0.00000000000E+00 -0.56016778209E+03  0.56016778209E+03  0.00000000000E+00 0.  1.
        -24    2    1    2    0    0 -0.37830359214E+03 -0.43437499103E+03  0.41800836484E+03  0.71613216384E+03  0.79492404359E+02 0.  0.
        254    2    1    2    0    0  0.37830359214E+03  0.43437499103E+03  0.28323847653E+03  0.11054502417E+04  0.90000053424E+03 0.  0.
         23    2    4    4    0    0  0.40787418808E+03  0.16125110510E+03  0.55183909395E+03  0.71087101343E+03  0.91912675593E+02 0.  0.
         23    2    4    4    0    0 -0.29570595938E+02  0.27312388593E+03 -0.26860061742E+03  0.39457922827E+03  0.89863221038E+02 0.  0.
          3    1    3    3  502    0 -0.19876446411E+03 -0.21185402500E+03  0.25775972451E+03  0.38836775829E+03  0.00000000000E+00 0. -1.
         -4    1    3    3    0  502 -0.17953912804E+03 -0.22252096602E+03  0.16024864033E+03  0.32776440555E+03  0.00000000000E+00 0.  1.
         11    1    5    5    0    0 -0.13651799135E+01  0.27142606661E+01 -0.24282205136E+01  0.38893678178E+01  0.00000000000E+00 0. -1.
        -11    1    5    5    0    0  0.40923936800E+03  0.15853684443E+03  0.55426731446E+03  0.70698164562E+03  0.00000000000E+00 0.  1.
          1    1    6    6  503    0 -0.38065322339E+02  0.38067052802E+02 -0.50136799082E+02  0.73564719099E+02  0.00000000000E+00 0. -1.
         -1    1    6    6    0  503  0.84947264019E+01  0.23505683313E+03 -0.21846381834E+03  0.32101450917E+03  0.00000000000E+00 0.  1.
<mgrwt>
<rscale>  0 0.16811946E+04</rscale>
<asrwt>0</asrwt>
<pdfrwt beam="1">  1        1 0.19406379E+00 0.16811946E+04</pdfrwt>
<pdfrwt beam="2">  1       -2 0.86179659E-01 0.16811946E+04</pdfrwt>
<totfact> 0.94123455E+00</totfact>
</mgrwt>
</event>
<event>
12    4  0.4486176E-008  0.1356184E+04  0.7818608E-02  0.8986160E-01
         -2   -1    0    0    0  501 -0.00000000000E+00  0.00000000000E+00  0.13114511359E+04  0.13114511359E+04  0.00000000000E+00 0.  1.
          1   -1    0    0  501    0  0.00000000000E+00 -0.00000000000E+00 -0.35061092720E+03  0.35061092720E+03  0.00000000000E+00 0. -1.
        -24    2    1    2    0    0  0.31174286605E+03  0.19268644635E+03  0.21188520294E+03  0.43072848633E+03  0.79498481560E+02 0.  0.
        254    2    1    2    0    0 -0.31174286605E+03 -0.19268644635E+03  0.74895500575E+03  0.12313335768E+04  0.90605579049E+03 0.  0.
         23    2    4    4    0    0  0.29390787824E+03 -0.13540426126E+03  0.13575016203E+03  0.36273535451E+03  0.91829603397E+02 0.  0.
         23    2    4    4    0    0 -0.60565074429E+03 -0.57282185091E+02  0.61320484372E+03  0.86859822226E+03  0.91370775142E+02 0.  0.
          3    1    3    3  502    0  0.22150588894E+03  0.17398869880E+03  0.14453748334E+03  0.31658807658E+03  0.00000000000E+00 0. -1.
         -2    1    3    3    0  502  0.90236977118E+02  0.18697747552E+02  0.67347719601E+02  0.11414040975E+03  0.00000000000E+00 0.  1.
         11    1    5    5    0    0  0.52409599939E+02 -0.60990436207E+02  0.11819795948E+02  0.81279191991E+02  0.00000000000E+00 0.  1.
        -11    1    5    5    0    0  0.24149827830E+03 -0.74413825050E+02  0.12393036608E+03  0.28145616251E+03  0.00000000000E+00 0. -1.
          4    1    6    6  503    0 -0.39893288743E+03 -0.64518110468E+02  0.45232701248E+03  0.60655565405E+03  0.00000000000E+00 0. -1.
         -4    1    6    6    0  503 -0.20671785687E+03  0.72359253762E+01  0.16087783125E+03  0.26204256820E+03  0.00000000000E+00 0.  1.
<mgrwt>
<rscale>  0 0.13561845E+04</rscale>
<asrwt>0</asrwt>
<pdfrwt beam="1">  1        1 0.53940143E-01 0.13561845E+04</pdfrwt>
<pdfrwt beam="2">  1       -2 0.20176171E+00 0.13561845E+04</pdfrwt>
<totfact> 0.79013683E+00</totfact>
</mgrwt>
</event>
<event>
12    4  0.4486176E-008  0.1255251E+04  0.7818608E-02  0.9065824E-01
          1   -1    0    0  501    0  0.00000000000E+00  0.00000000000E+00  0.16603856621E+04  0.16603856621E+04  0.00000000000E+00 0. -1.
         -2   -1    0    0    0  501 -0.00000000000E+00 -0.00000000000E+00 -0.23724242200E+03  0.23724242200E+03  0.00000000000E+00 0.  1.
        -24    2    1    2    0    0  0.16192843025E+02  0.23887193469E+03  0.76590431579E+02  0.26376987723E+03  0.79915233693E+02 0.  0.
        254    2    1    2    0    0 -0.16192843025E+02 -0.23887193469E+03  0.13465528086E+04  0.16338582069E+04  0.89384907266E+03 0.  0.
         23    2    4    4    0    0 -0.37398595002E+03 -0.21360393561E+03  0.32747645708E+03  0.55013921622E+03  0.99600176520E+02 0.  0.
         23    2    4    4    0    0  0.35779310699E+03 -0.25267999081E+02  0.10190763515E+04  0.10837189907E+04  0.85298660316E+02 0.  0.
          3    1    3    3  502    0  0.14509053591E+02  0.17696002215E+01  0.91993853630E+01  0.17270576485E+02  0.00000000000E+00 0. -1.
         -4    1    3    3    0  502  0.16837894337E+01  0.23710233447E+03  0.67391046216E+02  0.24649930074E+03  0.00000000000E+00 0.  1.
         11    1    5    5    0    0 -0.35039442375E+03 -0.16360164106E+03  0.28347711113E+03  0.47947994920E+03  0.00000000000E+00 0. -1.
        -11    1    5    5    0    0 -0.23591526272E+02 -0.50002294545E+02  0.43999345954E+02  0.70659267021E+02  0.00000000000E+00 0.  1.
          3    1    6    6  503    0  0.50886714326E+02 -0.34736185251E+02  0.16587509155E+03  0.17694803264E+03  0.00000000000E+00 0. -1.
         -3    1    6    6    0  503  0.30690639267E+03  0.94681861696E+01  0.85320125994E+03  0.90677095806E+03  0.00000000000E+00 0.  1.
<mgrwt>
<rscale>  0 0.12552512E+04</rscale>
<asrwt>0</asrwt>
<pdfrwt beam="1">  1        1 0.25544394E+00 0.12552512E+04</pdfrwt>
<pdfrwt beam="2">  1       -2 0.36498835E-01 0.12552512E+04</pdfrwt>
<totfact> 0.31021738E+01</totfact>
</mgrwt>
</event>
<event>
12    4  0.4486176E-008  0.1460297E+04  0.7818608E-02  0.8911293E-01
          1   -1    0    0  501    0  0.00000000000E+00  0.00000000000E+00  0.13815577375E+04  0.13815577375E+04  0.00000000000E+00 0. -1.
         -2   -1    0    0    0  501 -0.00000000000E+00 -0.00000000000E+00 -0.38588077577E+03  0.38588077577E+03  0.00000000000E+00 0.  1.
        -24    2    1    2    0    0 -0.26238146767E+03 -0.31917129510E+03  0.11851214732E+03  0.43749588987E+03  0.81505670966E+02 0.  0.
        254    2    1    2    0    0  0.26238146767E+03  0.31917129510E+03  0.87716481436E+03  0.13299426234E+04  0.91028287894E+03 0.  0.
         23    2    4    4    0    0  0.32873166484E+03 -0.24577611764E+03  0.42522660610E+03  0.59757397135E+03  0.88354837036E+02 0.  0.
         23    2    4    4    0    0 -0.66350197170E+02  0.56494741274E+03  0.45193820827E+03  0.73236865202E+03  0.92454153728E+02 0.  0.
          3    1    3    3  502    0 -0.24905742517E+02 -0.66883132534E+02  0.17315396156E+00  0.71370017585E+02  0.00000000000E+00 0. -1.
         -4    1    3    3    0  502 -0.23747572515E+03 -0.25228816257E+03  0.11833899336E+03  0.36612587229E+03  0.00000000000E+00 0.  1.
         11    1    5    5    0    0  0.28714961087E+03 -0.24152999481E+03  0.40137836806E+03  0.54945084563E+03  0.00000000000E+00 0. -1.
        -11    1    5    5    0    0  0.41582053970E+02 -0.42461228304E+01  0.23848238038E+02  0.48123125719E+02  0.00000000000E+00 0.  1.
          4    1    6    6  503    0 -0.44298192905E+02  0.18842387303E+03  0.20279108760E+03  0.28033927843E+03  0.00000000000E+00 0.  1.
         -4    1    6    6    0  503 -0.22052004265E+02  0.37652353971E+03  0.24914712067E+03  0.45202937359E+03  0.00000000000E+00 0. -1.
<mgrwt>
<rscale>  0 0.14602966E+04</rscale>
<asrwt>0</asrwt>
<pdfrwt beam="1">  1        1 0.21254734E+00 0.14602966E+04</pdfrwt>
<pdfrwt beam="2">  1       -2 0.59366274E-01 0.14602966E+04</pdfrwt>
<totfact> 0.17850966E+01</totfact>
</mgrwt>
</event>
<event>
12    4  0.4486176E-008  0.1279725E+04  0.7818608E-02  0.9045799E-01
         -2   -1    0    0    0  501 -0.00000000000E+00  0.00000000000E+00  0.27121248236E+03  0.27121248236E+03  0.00000000000E+00 0.  1.
          1   -1    0    0  501    0  0.00000000000E+00 -0.00000000000E+00 -0.15096072174E+04  0.15096072174E+04  0.00000000000E+00 0. -1.
        -24    2    1    2    0    0 -0.20107496377E+02  0.12682895200E+03 -0.70524400664E+03  0.72123971078E+03  0.79546948541E+02 0.  0.
        254    2    1    2    0    0  0.20107496377E+02 -0.12682895200E+03 -0.53315072838E+03  0.10595799890E+04  0.90662569970E+03 0.  0.
         23    2    4    4    0    0  0.30826675795E+03 -0.24793648522E+03  0.33155446639E+02  0.40752468465E+03  0.92066227281E+02 0.  0.
         23    2    4    4    0    0 -0.28815926157E+03  0.12110753321E+03 -0.56630617502E+03  0.65205530430E+03  0.82283907149E+02 0.  0.
          3    1    3    3  502    0 -0.35749685359E+02  0.10485424868E+03 -0.40793458532E+03  0.42270921372E+03  0.00000000000E+00 0. -1.
         -4    1    3    3    0  502  0.15642188981E+02  0.21974703318E+02 -0.29730942133E+03  0.29853049706E+03  0.00000000000E+00 0.  1.
         11    1    5    5    0    0  0.16902675947E+03 -0.19270599660E+03  0.17878143282E+02  0.25695383739E+03  0.00000000000E+00 0. -1.
        -11    1    5    5    0    0  0.13923999847E+03 -0.55230488615E+02  0.15277303357E+02  0.15057084726E+03  0.00000000000E+00 0.  1.
          2    1    6    6  503    0 -0.11945883276E+03  0.94008086453E+02 -0.25157090017E+03  0.29393171121E+03  0.00000000000E+00 0. -1.
         -2    1    6    6    0  503 -0.16870042881E+03  0.27099446762E+02 -0.31473527485E+03  0.35812359309E+03  0.00000000000E+00 0.  1.
<mgrwt>
<rscale>  0 0.12797255E+04</rscale>
<asrwt>0</asrwt>
<pdfrwt beam="1">  1        1 0.23224726E+00 0.12797255E+04</pdfrwt>
<pdfrwt beam="2">  1       -2 0.41724998E-01 0.12797255E+04</pdfrwt>
<totfact> 0.30271823E+01</totfact>
</mgrwt>
</event>
<event>
12    4  0.4486176E-008  0.1604626E+04  0.7818608E-02  0.8817711E-01
         -2   -1    0    0    0  501 -0.00000000000E+00  0.00000000000E+00  0.52307450996E+03  0.52307450996E+03  0.00000000000E+00 0.  1.
          1   -1    0    0  501    0  0.00000000000E+00 -0.00000000000E+00 -0.12306199076E+04  0.12306199076E+04  0.00000000000E+00 0. -1.
        -24    2    1    2    0    0 -0.57885586877E+02  0.49593173563E+03 -0.48608956625E+03  0.70111218439E+03  0.77305893148E+02 0.  0.
        254    2    1    2    0    0  0.57885586877E+02 -0.49593173563E+03 -0.22145583142E+03  0.10525822332E+04  0.89977088462E+03 0.  0.
         23    2    4    4    0    0  0.23013822187E+02  0.20140720007E+03 -0.26646933136E+03  0.34700790103E+03  0.91181591198E+02 0.  0.
         23    2    4    4    0    0  0.34871764690E+02 -0.69733893570E+03  0.45013499938E+02  0.70557433217E+03  0.91166286648E+02 0.  0.
          1    1    3    3  502    0 -0.64542396693E+02  0.44562084586E+03 -0.46132507326E+03  0.64464291080E+03  0.00000000000E+00 0. -1.
         -2    1    3    3    0  502  0.66568098160E+01  0.50310889771E+02 -0.24764492992E+02  0.56469273588E+02  0.00000000000E+00 0.  1.
         11    1    5    5    0    0  0.21115312671E+02  0.50185535667E+02 -0.20326716318E+02  0.58117293602E+02  0.00000000000E+00 0. -1.
        -11    1    5    5    0    0  0.18985095162E+01  0.15122166440E+03 -0.24614261504E+03  0.28889060743E+03  0.00000000000E+00 0.  1.
          2    1    6    6  503    0  0.19416881414E+02 -0.30227723545E+03  0.64651487742E+02  0.30972303308E+03  0.00000000000E+00 0. -1.
         -2    1    6    6    0  503  0.15454883276E+02 -0.39506170025E+03 -0.19637987804E+02  0.39585129909E+03  0.00000000000E+00 0.  1.
<mgrwt>
<rscale>  0 0.16046257E+04</rscale>
<asrwt>0</asrwt>
<pdfrwt beam="1">  1        1 0.18932614E+00 0.16046257E+04</pdfrwt>
<pdfrwt beam="2">  1       -2 0.80473002E-01 0.16046257E+04</pdfrwt>
<totfact> 0.11648210E+01</totfact>
</mgrwt>
</event>
<event>
12    4  0.4486176E-008  0.1976264E+04  0.7818608E-02  0.8617799E-01
          1   -1    0    0  501    0  0.00000000000E+00  0.00000000000E+00  0.21249160489E+04  0.21249160489E+04  0.00000000000E+00 0. -1.
         -2   -1    0    0    0  501 -0.00000000000E+00 -0.00000000000E+00 -0.45950285633E+03  0.45950285633E+03  0.00000000000E+00 0.  1.
        -24    2    1    2    0    0  0.72461472837E+03  0.22942323667E+03  0.44130150911E+03  0.88294581263E+03  0.84526682201E+02 0.  0.
        254    2    1    2    0    0 -0.72461472837E+03 -0.22942323667E+03  0.12241116834E+04  0.17014730926E+04  0.90490869438E+03 0.  0.
         23    2    4    4    0    0 -0.75315641743E+03 -0.42504227083E+03  0.12031748923E+04  0.14843526026E+04  0.88132323237E+02 0.  0.
         23    2    4    4    0    0  0.28541689068E+02  0.19561903415E+03  0.20936791159E+02  0.21712048996E+03  0.87301336743E+02 0.  0.
          1    1    3    3  502    0  0.19898387431E+03  0.10172146016E+03  0.11687069002E+03  0.25219158566E+03  0.00000000000E+00 0. -1.
         -2    1    3    3    0  502  0.52563085406E+03  0.12770177651E+03  0.32443081909E+03  0.63075422697E+03  0.00000000000E+00 0.  1.
         11    1    5    5    0    0 -0.54396172401E+03 -0.26073861575E+03  0.82646892060E+03  0.10231959048E+04  0.00000000000E+00 0. -1.
        -11    1    5    5    0    0 -0.20919469342E+03 -0.16430365508E+03  0.37670597168E+03  0.46115669780E+03  0.00000000000E+00 0.  1.
          1    1    6    6  503    0  0.13960502954E+02  0.17043216506E+03  0.47754196772E+02  0.17754571760E+03  0.00000000000E+00 0. -1.
         -1    1    6    6    0  503  0.14581186114E+02  0.25186869099E+02 -0.26817405613E+02  0.39574772359E+02  0.00000000000E+00 0.  1.
<mgrwt>
<rscale>  0 0.19762641E+04</rscale>
<asrwt>0</asrwt>
<pdfrwt beam="1">  1        1 0.32691016E+00 0.19762641E+04</pdfrwt>
<pdfrwt beam="2">  1       -2 0.70692748E-01 0.19762641E+04</pdfrwt>
<totfact> 0.36404594E+00</totfact>
</mgrwt>
</event>
<event>
12    4  0.4486176E-008  0.1799304E+04  0.7818608E-02  0.8706669E-01
         -2   -1    0    0    0  501 -0.00000000000E+00  0.00000000000E+00  0.64642121919E+03  0.64642121919E+03  0.00000000000E+00 0.  1.
          1   -1    0    0  501    0  0.00000000000E+00 -0.00000000000E+00 -0.12520847558E+04  0.12520847558E+04  0.00000000000E+00 0. -1.
        -24    2    1    2    0    0  0.81188027052E+02 -0.35938922640E+03 -0.83483707622E+03  0.91593622972E+03  0.78956451879E+02 0.  0.
        254    2    1    2    0    0 -0.81188027052E+02  0.35938922640E+03  0.22917353959E+03  0.98256974528E+03  0.88157284514E+03 0.  0.
         23    2    4    4    0    0 -0.10337054657E+03 -0.11944594133E+03  0.42070109189E+03  0.45837744411E+03  0.90375161157E+02 0.  0.
         23    2    4    4    0    0  0.22182519520E+02  0.47883516773E+03 -0.19152755229E+03  0.52419230117E+03  0.91211749739E+02 0.  0.
          3    1    3    3  502    0  0.74384118765E+02 -0.21389483525E+03 -0.57622838929E+03  0.61913096700E+03  0.00000000000E+00 0. -1.
         -4    1    3    3    0  502  0.68039082865E+01 -0.14549439115E+03 -0.25860868693E+03  0.29680526272E+03  0.00000000000E+00 0.  1.
         11    1    5    5    0    0 -0.71726181912E+02 -0.26308613200E+02  0.24943756758E+03  0.26087523535E+03  0.00000000000E+00 0.  1.
        -11    1    5    5    0    0 -0.31644364659E+02 -0.93137328126E+02  0.17126352431E+03  0.19750220876E+03  0.00000000000E+00 0. -1.
          2    1    6    6  503    0 -0.71281735149E+01  0.34648101864E+03 -0.10024133428E+03  0.36076063010E+03  0.00000000000E+00 0. -1.
         -2    1    6    6    0  503  0.29310693035E+02  0.13235414909E+03 -0.91286218018E+02  0.16343167107E+03  0.00000000000E+00 0.  1.
<mgrwt>
<rscale>  0 0.17993045E+04</rscale>
<asrwt>0</asrwt>
<pdfrwt beam="1">  1        1 0.19262842E+00 0.17993045E+04</pdfrwt>
<pdfrwt beam="2">  1       -2 0.99449420E-01 0.17993045E+04</pdfrwt>
<totfact> 0.67843699E+00</totfact>
</mgrwt>
</event>
<event>
12    4  0.4486176E-008  0.1609769E+04  0.7818608E-02  0.8814569E-01
         -4   -1    0    0    0  501 -0.00000000000E+00  0.00000000000E+00  0.10020575464E+04  0.10020575464E+04  0.00000000000E+00 0.  1.
          3   -1    0    0  501    0  0.00000000000E+00 -0.00000000000E+00 -0.64650920555E+03  0.64650920555E+03  0.00000000000E+00 0. -1.
        -24    2    1    2    0    0 -0.52730457826E+03  0.27943583189E+02 -0.43550584805E+02  0.53648214185E+03  0.84175251632E+02 0.  0.
        254    2    1    2    0    0  0.52730457826E+03 -0.27943583189E+02  0.39909892567E+03  0.11120846101E+04  0.89365612261E+03 0.  0.
         23    2    4    4    0    0  0.72104452034E+03  0.14599610853E+03  0.38570492026E+03  0.83563367838E+03  0.91078509643E+02 0.  0.
         23    2    4    4    0    0 -0.19373994208E+03 -0.17393969172E+03  0.13394005406E+02  0.27645093173E+03  0.91953992634E+02 0.  0.
          3    1    3    3  502    0 -0.43421353100E+03  0.35805538088E+02 -0.65320641627E+02  0.44055670836E+03  0.00000000000E+00 0. -1.
         -4    1    3    3    0  502 -0.93091047264E+02 -0.78619548992E+01  0.21770056822E+02  0.95925433487E+02  0.00000000000E+00 0.  1.
         11    1    5    5    0    0  0.34400835456E+03  0.46519718029E+02  0.13736154465E+03  0.37332830876E+03  0.00000000000E+00 0. -1.
        -11    1    5    5    0    0  0.37703616577E+03  0.99476390506E+02  0.24834337561E+03  0.46230536962E+03  0.00000000000E+00 0.  1.
          3    1    6    6  503    0  0.18165432613E+01 -0.28675715994E+02 -0.12771249165E+02  0.31443621331E+02  0.00000000000E+00 0. -1.
         -3    1    6    6    0  503 -0.19555648534E+03 -0.14526397573E+03  0.26165254571E+02  0.24500731040E+03  0.00000000000E+00 0.  1.
<mgrwt>
<rscale>  0 0.16097695E+04</rscale>
<asrwt>0</asrwt>
<pdfrwt beam="1">  1        3 0.99462955E-01 0.16097695E+04</pdfrwt>
<pdfrwt beam="2">  1       -4 0.15416270E+00 0.16097695E+04</pdfrwt>
<totfact> 0.53772616E-01</totfact>
</mgrwt>
</event>
<event>
12    4  0.4486176E-008  0.1487297E+04  0.7818608E-02  0.8892944E-01
         -2   -1    0    0    0  501 -0.00000000000E+00  0.00000000000E+00  0.81510063034E+03  0.81510063034E+03  0.00000000000E+00 0.  1.
          1   -1    0    0  501    0  0.00000000000E+00 -0.00000000000E+00 -0.67846028830E+03  0.67846028830E+03  0.00000000000E+00 0. -1.
        -24    2    1    2    0    0  0.84948167323E+02 -0.18160921940E+03 -0.37506572775E+03  0.43280337261E+03  0.80289224137E+02 0.  0.
        254    2    1    2    0    0 -0.84948167323E+02  0.18160921940E+03  0.51170606979E+03  0.10607575460E+04  0.90728461350E+03 0.  0.
         23    2    4    4    0    0 -0.36993498973E+02 -0.20236090335E+03  0.60898738605E+03  0.64979456763E+03  0.95125651501E+02 0.  0.
         23    2    4    4    0    0 -0.47954668350E+02  0.38397012275E+03 -0.97281316265E+02  0.41096297840E+03  0.98459178034E+02 0.  0.
          1    1    3    3  502    0  0.80224701228E+02 -0.18789702343E+03 -0.37190344255E+03  0.42432707276E+03  0.00000000000E+00 0. -1.
         -2    1    3    3    0  502  0.47234660952E+01  0.62878040310E+01 -0.31622852020E+01  0.84762998522E+01  0.00000000000E+00 0.  1.
         11    1    5    5    0    0  0.95089826367E+01 -0.11480268380E+02  0.14719444083E+03  0.14794735795E+03  0.00000000000E+00 0. -1.
        -11    1    5    5    0    0 -0.46502481610E+02 -0.19088063497E+03  0.46179294523E+03  0.50184720968E+03  0.00000000000E+00 0.  1.
          2    1    6    6  503    0  0.60320422972E+01  0.35977798149E+01  0.98717384749E+01  0.12115311568E+02  0.00000000000E+00 0. -1.
         -2    1    6    6    0  503 -0.53986710647E+02  0.38037234294E+03 -0.10715305474E+03  0.39884766683E+03  0.00000000000E+00 0.  1.
<mgrwt>
<rscale>  0 0.14872974E+04</rscale>
<asrwt>0</asrwt>
<pdfrwt beam="1">  1        1 0.10437851E+00 0.14872974E+04</pdfrwt>
<pdfrwt beam="2">  1       -2 0.12540010E+00 0.14872974E+04</pdfrwt>
<totfact> 0.11515400E+01</totfact>
</mgrwt>
</event>
<event>
12    4  0.4486176E-008  0.1881863E+04  0.7818608E-02  0.8663937E-01
         -2   -1    0    0    0  501 -0.00000000000E+00  0.00000000000E+00  0.34446118029E+03  0.34446118029E+03  0.00000000000E+00 0.  1.
          1   -1    0    0  501    0  0.00000000000E+00 -0.00000000000E+00 -0.25702518713E+04  0.25702518713E+04  0.00000000000E+00 0. -1.
        -24    2    1    2    0    0 -0.17611977688E+03  0.59488264700E+03 -0.14175352908E+04  0.15496718524E+04  0.84693624206E+02 0.  0.
        254    2    1    2    0    0  0.17611977688E+03 -0.59488264700E+03 -0.80825540028E+03  0.13650411992E+04  0.90838160706E+03 0.  0.
         23    2    4    4    0    0  0.16915943460E+03  0.21152581794E+03 -0.22478300073E+03  0.36480169248E+03  0.95889475173E+02 0.  0.
         23    2    4    4    0    0  0.69603422745E+01 -0.80640846494E+03 -0.58347239955E+03  0.10002395068E+04  0.98468122524E+02 0.  0.
          1    1    3    3  502    0 -0.16249466061E+03  0.44820173107E+03 -0.10265061997E+04  0.11318145981E+04  0.00000000000E+00 0. -1.
         -2    1    3    3    0  502 -0.13625116270E+02  0.14668091593E+03 -0.39102909102E+03  0.41785725423E+03  0.00000000000E+00 0.  1.
         11    1    5    5    0    0  0.76209888418E+02  0.12371969986E+03 -0.62454041935E+02  0.15816136880E+03  0.00000000000E+00 0.  1.
        -11    1    5    5    0    0  0.92949546182E+02  0.87806118085E+02 -0.16232895880E+03  0.20664032368E+03  0.00000000000E+00 0. -1.
          3    1    6    6  503    0  0.44317973365E+01 -0.17165661156E+03 -0.77007352384E+02  0.18819076875E+03  0.00000000000E+00 0. -1.
         -3    1    6    6    0  503  0.25285449380E+01 -0.63475185338E+03 -0.50646504716E+03  0.81204873801E+03  0.00000000000E+00 0.  1.
<mgrwt>
<rscale>  0 0.18818629E+04</rscale>
<asrwt>0</asrwt>
<pdfrwt beam="1">  1        1 0.39542337E+00 0.18818629E+04</pdfrwt>
<pdfrwt beam="2">  1       -2 0.52994027E-01 0.18818629E+04</pdfrwt>
<totfact> 0.33489048E+00</totfact>
</mgrwt>
</event>
<event>
12    4  0.4486176E-008  0.2894401E+04  0.7818608E-02  0.8274545E-01
         -2   -1    0    0    0  501 -0.00000000000E+00  0.00000000000E+00  0.17851633540E+04  0.17851633540E+04  0.00000000000E+00 0.  1.
          1   -1    0    0  501    0  0.00000000000E+00 -0.00000000000E+00 -0.11732198373E+04  0.11732198373E+04  0.00000000000E+00 0. -1.
        -24    2    1    2    0    0  0.10069637146E+04 -0.26766944773E+03  0.10806793833E+04  0.15035137332E+04  0.84040231498E+02 0.  0.
        254    2    1    2    0    0 -0.10069637146E+04  0.26766944773E+03 -0.46873586659E+03  0.14548694581E+04  0.90072691294E+03 0.  0.
         23    2    4    4    0    0  0.84142478564E+02 -0.15834482581E+03 -0.50770276125E+02  0.20778475750E+03  0.91890390975E+02 0.  0.
         23    2    4    4    0    0 -0.10911061932E+04  0.42601427354E+03 -0.41796559047E+03  0.12470847006E+04  0.92326213034E+02 0.  0.
          1    1    3    3  502    0  0.12959167068E+03 -0.64151765568E+02  0.14456213509E+03  0.20446921782E+03  0.00000000000E+00 0. -1.
         -2    1    3    3    0  502  0.87737204392E+03 -0.20351768216E+03  0.93611724825E+03  0.12990445154E+04  0.00000000000E+00 0.  1.
         11    1    5    5    0    0  0.62328352037E+02 -0.26527572328E+02 -0.20723805171E+02  0.70837925308E+02  0.00000000000E+00 0. -1.
        -11    1    5    5    0    0  0.21814126528E+02 -0.13181725348E+03 -0.30046470955E+02  0.13694683220E+03  0.00000000000E+00 0.  1.
          4    1    6    6  503    0 -0.13930798974E+03  0.28610758667E+02 -0.31751242178E+02  0.14571696160E+03  0.00000000000E+00 0. -1.
         -4    1    6    6    0  503 -0.95179820342E+03  0.39740351487E+03 -0.38621434829E+03  0.11013677390E+04  0.00000000000E+00 0.  1.
<mgrwt>
<rscale>  0 0.28944008E+04</rscale>
<asrwt>0</asrwt>
<pdfrwt beam="1">  1        1 0.18049536E+00 0.28944008E+04</pdfrwt>
<pdfrwt beam="2">  1       -2 0.27464052E+00 0.28944008E+04</pdfrwt>
<totfact> 0.38263383E-01</totfact>
</mgrwt>
</event>
<event>
12    4  0.4486176E-008  0.1279183E+04  0.7818608E-02  0.9046238E-01
          1   -1    0    0  501    0  0.00000000000E+00  0.00000000000E+00  0.17127628656E+04  0.17127628656E+04  0.00000000000E+00 0. -1.
         -2   -1    0    0    0  501 -0.00000000000E+00 -0.00000000000E+00 -0.23884064368E+03  0.23884064368E+03  0.00000000000E+00 0.  1.
        -24    2    1    2    0    0  0.62968806799E+02  0.28216661050E+02  0.81590635323E+03  0.82271271044E+03  0.79948584059E+02 0.  0.
        254    2    1    2    0    0 -0.62968806799E+02 -0.28216661050E+02  0.65801586868E+03  0.11288907988E+04  0.91468481000E+03 0.  0.
         23    2    4    4    0    0 -0.37925786155E+03 -0.28427211631E+03  0.24261468864E+03  0.54023363165E+03  0.91341819330E+02 0.  0.
         23    2    4    4    0    0  0.31628905475E+03  0.25605545526E+03  0.41540118004E+03  0.58865716718E+03  0.91410928088E+02 0.  0.
          3    1    3    3  502    0  0.63406798274E+02 -0.29387616665E+00  0.71642846201E+03  0.71922892713E+03  0.00000000000E+00 0. -1.
         -4    1    3    3    0  502 -0.43799147471E+00  0.28510537216E+02  0.99477891215E+02  0.10348378332E+03  0.00000000000E+00 0.  1.
         11    1    5    5    0    0 -0.36293837285E+02  0.98235948211E+00  0.23383474702E+02  0.43185582596E+02  0.00000000000E+00 0. -1.
        -11    1    5    5    0    0 -0.34296402426E+03 -0.28525447579E+03  0.21923121394E+03  0.49704804905E+03  0.00000000000E+00 0.  1.
          1    1    6    6  503    0  0.17963457555E+03  0.10324763302E+03  0.25372885948E+03  0.32757745434E+03  0.00000000000E+00 0. -1.
         -1    1    6    6    0  503  0.13665447920E+03  0.15280782224E+03  0.16167232055E+03  0.26107971284E+03  0.00000000000E+00 0.  1.
<mgrwt>
<rscale>  0 0.12791832E+04</rscale>
<asrwt>0</asrwt>
<pdfrwt beam="1">  1        1 0.26350197E+00 0.12791832E+04</pdfrwt>
<pdfrwt beam="2">  1       -2 0.36744715E-01 0.12791832E+04</pdfrwt>
<totfact> 0.28154603E+01</totfact>
</mgrwt>
</event>
<event>
12    4  0.4486176E-008  0.1448848E+04  0.7818608E-02  0.8919200E-01
          1   -1    0    0  501    0  0.00000000000E+00  0.00000000000E+00  0.13274082517E+04  0.13274082517E+04  0.00000000000E+00 0. -1.
         -2   -1    0    0    0  501 -0.00000000000E+00 -0.00000000000E+00 -0.39534931089E+03  0.39534931089E+03  0.00000000000E+00 0.  1.
        -24    2    1    2    0    0 -0.10817574737E+03 -0.52240457817E+01  0.76094265758E+03  0.77273792836E+03  0.79755218212E+02 0.  0.
        254    2    1    2    0    0  0.10817574737E+03  0.52240457817E+01  0.17111628322E+03  0.95001963421E+03  0.92818491694E+03 0.  0.
         23    2    4    4    0    0  0.14678807708E+03  0.26123860565E+01  0.54011545005E+03  0.56735813829E+03  0.92827762931E+02 0.  0.
         23    2    4    4    0    0 -0.38612329715E+02  0.26116597252E+01 -0.36899916683E+03  0.38266149592E+03  0.93657367920E+02 0.  0.
          3    1    3    3  502    0 -0.69602489644E+02  0.35544429747E+02  0.46457512442E+03  0.47110291793E+03  0.00000000000E+00 0. -1.
         -4    1    3    3    0  502 -0.38573257726E+02 -0.40768475528E+02  0.29636753316E+03  0.30163501043E+03  0.00000000000E+00 0.  1.
         11    1    5    5    0    0  0.14964232905E+01 -0.24115872444E+02  0.51270397778E+02  0.56678640375E+02  0.00000000000E+00 0.  1.
        -11    1    5    5    0    0  0.14529165379E+03  0.26728258500E+02  0.48884505227E+03  0.51067949792E+03  0.00000000000E+00 0. -1.
          1    1    6    6  503    0 -0.23057326724E+02 -0.10144486439E+02 -0.35955846794E+03  0.36043979080E+03  0.00000000000E+00 0. -1.
         -1    1    6    6    0  503 -0.15555002991E+02  0.12756146164E+02 -0.94406988847E+01  0.22221705120E+02  0.00000000000E+00 0.  1.
<mgrwt>
<rscale>  0 0.14488477E+04</rscale>
<asrwt>0</asrwt>
<pdfrwt beam="1">  1        1 0.20421665E+00 0.14488477E+04</pdfrwt>
<pdfrwt beam="2">  1       -2 0.60822972E-01 0.14488477E+04</pdfrwt>
<totfact> 0.18539199E+01</totfact>
</mgrwt>
</event>
<event>
12    4  0.4486176E-008  0.1299964E+04  0.7818608E-02  0.9029594E-01
         -2   -1    0    0    0  501 -0.00000000000E+00  0.00000000000E+00  0.23402851546E+03  0.23402851546E+03  0.00000000000E+00 0.  1.
          1   -1    0    0  501    0  0.00000000000E+00 -0.00000000000E+00 -0.18052358462E+04  0.18052358462E+04  0.00000000000E+00 0. -1.
        -24    2    1    2    0    0 -0.21131094279E+03  0.20502922445E+03 -0.23145606280E+03  0.38276152497E+03  0.79026442194E+02 0.  0.
        254    2    1    2    0    0  0.21131094279E+03 -0.20502922445E+03 -0.13397512680E+04  0.16565028367E+04  0.92864357566E+03 0.  0.
         23    2    4    4    0    0  0.39828533924E+02 -0.17661496074E+03  0.83257156767E+02  0.22001883027E+03  0.93259718260E+02 0.  0.
         23    2    4    4    0    0  0.17148240887E+03 -0.28414263710E+02 -0.14230084247E+04  0.14364840064E+04  0.91212592175E+02 0.  0.
          3    1    3    3  502    0 -0.40201084691E+02  0.45989238681E+02 -0.12019070283E+02  0.62254279654E+02  0.00000000000E+00 0. -1.
         -4    1    3    3    0  502 -0.17110985810E+03  0.15903998577E+03 -0.21943699252E+03  0.32050724532E+03  0.00000000000E+00 0.  1.
         11    1    5    5    0    0 -0.45993921534E+01  0.53597276766E+01 -0.88141650815E+01  0.11294715359E+02  0.00000000000E+00 0. -1.
        -11    1    5    5    0    0  0.44427926078E+02 -0.18197468841E+03  0.92071321848E+02  0.20872411491E+03  0.00000000000E+00 0.  1.
          3    1    6    6  503    0  0.29578205125E+02  0.21878557439E+02 -0.14319303245E+03  0.14784378931E+03  0.00000000000E+00 0. -1.
         -3    1    6    6    0  503  0.14190420374E+03 -0.50292821149E+02 -0.12798153923E+04  0.12886402171E+04  0.00000000000E+00 0.  1.
<mgrwt>
<rscale>  0 0.12999641E+04</rscale>
<asrwt>0</asrwt>
<pdfrwt beam="1">  1        1 0.27772861E+00 0.12999641E+04</pdfrwt>
<pdfrwt beam="2">  1       -2 0.36004385E-01 0.12999641E+04</pdfrwt>
<totfact> 0.25297888E+01</totfact>
</mgrwt>
</event>
<event>
12    4  0.4486176E-008  0.1904996E+04  0.7818608E-02  0.8652373E-01
          1   -1    0    0  501    0  0.00000000000E+00  0.00000000000E+00  0.27636222555E+04  0.27636222555E+04  0.00000000000E+00 0. -1.
         -2   -1    0    0    0  501 -0.00000000000E+00 -0.00000000000E+00 -0.32828390234E+03  0.32828390234E+03  0.00000000000E+00 0.  1.
        -24    2    1    2    0    0 -0.63099632904E+03  0.20741892684E+03  0.14516346031E+04  0.15983314570E+04  0.79002828906E+02 0.  0.
        254    2    1    2    0    0  0.63099632904E+03 -0.20741892684E+03  0.98370375006E+03  0.14935747009E+04  0.90659436391E+03 0.  0.
         23    2    4    4    0    0  0.57524024162E+03  0.11647548752E+03  0.98767607181E+03  0.11524431619E+04  0.90295867778E+02 0.  0.
         23    2    4    4    0    0  0.55756087423E+02 -0.32389441436E+03 -0.39723217562E+01  0.34113153898E+03  0.91316015078E+02 0.  0.
          3    1    3    3  502    0 -0.62926422602E+03  0.20939340847E+03  0.14272387924E+04  0.15737946614E+04  0.00000000000E+00 0. -1.
         -4    1    3    3    0  502 -0.17321030273E+01 -0.19744816273E+01  0.24395810710E+02  0.24536795610E+02  0.00000000000E+00 0.  1.
         11    1    5    5    0    0  0.95821644935E+02 -0.92657016895E+00  0.11346662613E+03  0.14851707449E+03  0.00000000000E+00 0. -1.
        -11    1    5    5    0    0  0.47941859669E+03  0.11740205769E+03  0.87420944568E+03  0.10039260874E+04  0.00000000000E+00 0.  1.
          2    1    6    6  503    0  0.67871167280E+00 -0.20690072258E+03  0.25610708027E+02  0.20848088166E+03  0.00000000000E+00 0. -1.
         -2    1    6    6    0  503  0.55077375750E+02 -0.11699369178E+03 -0.29583029783E+02  0.13265065732E+03  0.00000000000E+00 0.  1.
<mgrwt>
<rscale>  0 0.19049963E+04</rscale>
<asrwt>0</asrwt>
<pdfrwt beam="1">  1        1 0.42517264E+00 0.19049963E+04</pdfrwt>
<pdfrwt beam="2">  1       -2 0.50505217E-01 0.19049963E+04</pdfrwt>
<totfact> 0.26982361E+00</totfact>
</mgrwt>
</event>
<event>
12    4  0.4486176E-008  0.2952947E+04  0.7818608E-02  0.8257296E-01
          1   -1    0    0  501    0  0.00000000000E+00  0.00000000000E+00  0.14348956366E+04  0.14348956366E+04  0.00000000000E+00 0. -1.
         -2   -1    0    0    0  501 -0.00000000000E+00 -0.00000000000E+00 -0.15192564593E+04  0.15192564593E+04  0.00000000000E+00 0.  1.
        -24    2    1    2    0    0 -0.19134046875E+03  0.12962543964E+04  0.20953612774E+03  0.13294110974E+04  0.80881652924E+02 0.  0.
        254    2    1    2    0    0  0.19134046875E+03 -0.12962543964E+04 -0.29389695045E+03  0.16247409986E+04  0.91461536173E+03 0.  0.
         23    2    4    4    0    0  0.32750358925E+03 -0.13091785275E+04 -0.78977597054E+02  0.13547078644E+04  0.88254853492E+02 0.  0.
         23    2    4    4    0    0 -0.13616312050E+03  0.12924131112E+02 -0.21491935339E+03  0.27003313421E+03  0.89555215125E+02 0.  0.
          3    1    3    3  502    0 -0.78537689723E+02  0.68417681996E+03  0.14421010876E+03  0.70360688253E+03  0.00000000000E+00 0. -1.
         -4    1    3    3    0  502 -0.11280277903E+03  0.61207757645E+03  0.65326018979E+02  0.62580421484E+03  0.00000000000E+00 0.  1.
         11    1    5    5    0    0  0.27673975375E+03 -0.11280972119E+04 -0.37636057467E+02  0.11621551891E+04  0.00000000000E+00 0. -1.
        -11    1    5    5    0    0  0.50763835506E+02 -0.18108131562E+03 -0.41341539587E+02  0.19255267528E+03  0.00000000000E+00 0.  1.
          1    1    6    6  503    0 -0.27138364195E+02  0.31378005364E+02 -0.11016038409E+03  0.11771312695E+03  0.00000000000E+00 0. -1.
         -1    1    6    6    0  503 -0.10902475631E+03 -0.18453874252E+02 -0.10475896930E+03  0.15232000726E+03  0.00000000000E+00 0.  1.
<mgrwt>
<rscale>  0 0.29529473E+04</rscale>
<asrwt>0</asrwt>
<pdfrwt beam="1">  1        1 0.22075317E+00 0.29529473E+04</pdfrwt>
<pdfrwt beam="2">  1       -2 0.23373176E+00 0.29529473E+04</pdfrwt>
<totfact> 0.44152960E-01</totfact>
</mgrwt>
</event>
<event>
12    4  0.4486176E-008  0.1591825E+04  0.7818608E-02  0.8825586E-01
         -2   -1    0    0    0  501 -0.00000000000E+00  0.00000000000E+00  0.82917078122E+03  0.82917078122E+03  0.00000000000E+00 0.  1.
          1   -1    0    0  501    0  0.00000000000E+00 -0.00000000000E+00 -0.76398828985E+03  0.76398828985E+03  0.00000000000E+00 0. -1.
        -24    2    1    2    0    0  0.28288664000E+03  0.39913821869E+03 -0.19465816772E+03  0.53206956543E+03  0.76616261285E+02 0.  0.
        254    2    1    2    0    0 -0.28288664000E+03 -0.39913821869E+03  0.25984065909E+03  0.10610895056E+04  0.90501801207E+03 0.  0.
         23    2    4    4    0    0 -0.59150486015E+03 -0.35987390452E+03  0.11995147316E+03  0.70817579987E+03  0.87962383269E+02 0.  0.
         23    2    4    4    0    0  0.30861822015E+03 -0.39264314165E+02  0.13988918593E+03  0.35291370578E+03  0.90510812668E+02 0.  0.
          1    1    3    3  502    0  0.23253311339E+03  0.29155013007E+03 -0.17391147210E+03  0.41148308263E+03  0.00000000000E+00 0. -1.
         -2    1    3    3    0  502  0.50353526610E+02  0.10758808862E+03 -0.20746695615E+02  0.12058648280E+03  0.00000000000E+00 0.  1.
         11    1    5    5    0    0 -0.44010391758E+02 -0.35702091552E+02  0.34106632792E+02  0.66142394304E+02  0.00000000000E+00 0. -1.
        -11    1    5    5    0    0 -0.54749446839E+03 -0.32417181297E+03  0.85844840367E+02  0.64203340556E+03  0.00000000000E+00 0.  1.
          1    1    6    6  503    0  0.62242448072E+02  0.28332676174E+02  0.25391217841E+02  0.72949138615E+02  0.00000000000E+00 0. -1.
         -1    1    6    6    0  503  0.24637577208E+03 -0.67596990339E+02  0.11449796809E+03  0.27996456716E+03  0.00000000000E+00 0.  1.
<mgrwt>
<rscale>  0 0.15918251E+04</rscale>
<asrwt>0</asrwt>
<pdfrwt beam="1">  1        1 0.11753666E+00 0.15918251E+04</pdfrwt>
<pdfrwt beam="2">  1       -2 0.12756474E+00 0.15918251E+04</pdfrwt>
<totfact> 0.91133099E+00</totfact>
</mgrwt>
</event>
<event>
12    4  0.4486176E-008  0.2239495E+04  0.7818608E-02  0.8502167E-01
          1   -1    0    0  501    0  0.00000000000E+00  0.00000000000E+00  0.70394496165E+03  0.70394496165E+03  0.00000000000E+00 0. -1.
         -2   -1    0    0    0  501 -0.00000000000E+00 -0.00000000000E+00 -0.17811538038E+04  0.17811538038E+04  0.00000000000E+00 0.  1.
        -24    2    1    2    0    0  0.62141115210E+03  0.70090981820E+03 -0.44368958246E+03  0.10400429817E+04  0.86038159936E+02 0.  0.
        254    2    1    2    0    0 -0.62141115210E+03 -0.70090981820E+03 -0.63351925964E+03  0.14450557837E+04  0.89967392566E+03 0.  0.
         23    2    4    4    0    0 -0.58458676023E+03 -0.60073439515E+03 -0.49641658259E+02  0.84467388841E+03  0.91576141975E+02 0.  0.
         23    2    4    4    0    0 -0.36824391874E+02 -0.10017542305E+03 -0.58387760138E+03  0.60038189531E+03  0.90300695450E+02 0.  0.
          1    1    3    3  502    0  0.21747626150E+03  0.26387159347E+03 -0.20609872621E+03  0.39925033137E+03  0.00000000000E+00 0. -1.
         -2    1    3    3    0  502  0.40393489060E+03  0.43703822473E+03 -0.23759085625E+03  0.64079265031E+03  0.00000000000E+00 0.  1.
         11    1    5    5    0    0 -0.48975218406E+03 -0.53914955660E+03 -0.24268125116E+02  0.72878555699E+03  0.00000000000E+00 0.  1.
        -11    1    5    5    0    0 -0.94834576168E+02 -0.61584838542E+02 -0.25373533144E+02  0.11588833142E+03  0.00000000000E+00 0. -1.
          4    1    6    6  503    0  0.94881666802E+01  0.13745898824E+02 -0.78531715953E+02  0.80288264722E+02  0.00000000000E+00 0. -1.
         -4    1    6    6    0  503 -0.46312558555E+02 -0.11392132188E+03 -0.50534588543E+03  0.52009363058E+03  0.00000000000E+00 0.  1.
<mgrwt>
<rscale>  0 0.22394948E+04</rscale>
<asrwt>0</asrwt>
<pdfrwt beam="1">  1        1 0.10829922E+00 0.22394948E+04</pdfrwt>
<pdfrwt beam="2">  1       -2 0.27402367E+00 0.22394948E+04</pdfrwt>
<totfact> 0.98510585E-01</totfact>
</mgrwt>
</event>
<event>
12    4  0.4486176E-008  0.1576938E+04  0.7818608E-02  0.8834843E-01
          1   -1    0    0  501    0  0.00000000000E+00  0.00000000000E+00  0.42815542219E+03  0.42815542219E+03  0.00000000000E+00 0. -1.
         -2   -1    0    0    0  501 -0.00000000000E+00 -0.00000000000E+00 -0.14520036942E+04  0.14520036942E+04  0.00000000000E+00 0.  1.
        -24    2    1    2    0    0 -0.28801396108E+03  0.21391843690E+03 -0.78172388613E+03  0.86382035447E+03  0.79876349600E+02 0.  0.
        254    2    1    2    0    0  0.28801396108E+03 -0.21391843690E+03 -0.24212438587E+03  0.10163387619E+04  0.91956898669E+03 0.  0.
         23    2    4    4    0    0 -0.31880036049E+03 -0.15102522253E+03 -0.14807659318E+03  0.39227184508E+03  0.86650073867E+02 0.  0.
         23    2    4    4    0    0  0.60681432157E+03 -0.62893214370E+02 -0.94047792685E+02  0.62406691682E+03  0.91844172887E+02 0.  0.
          3    1    3    3  502    0 -0.14906320685E+02  0.22843270619E+02 -0.25246666959E+02  0.37167292093E+02  0.00000000000E+00 0. -1.
         -4    1    3    3    0  502 -0.27310764039E+03  0.19107516628E+03 -0.75647721917E+03  0.82665306237E+03  0.00000000000E+00 0.  1.
         11    1    5    5    0    0 -0.24707528880E+02  0.10522539418E+02 -0.41867394344E+01  0.27179304742E+02  0.00000000000E+00 0.  1.
        -11    1    5    5    0    0 -0.29409283161E+03 -0.16154776195E+03 -0.14388985375E+03  0.36509254033E+03  0.00000000000E+00 0. -1.
          4    1    6    6  503    0  0.54127866826E+03 -0.76324272895E+02 -0.10398269496E+03  0.55643543399E+03  0.00000000000E+00 0. -1.
         -4    1    6    6    0  503  0.65535653308E+02  0.13431058525E+02  0.99349022739E+01  0.67631482838E+02  0.00000000000E+00 0.  1.
<mgrwt>
<rscale>  0 0.15769379E+04</rscale>
<asrwt>0</asrwt>
<pdfrwt beam="1">  1        1 0.65870065E-01 0.15769379E+04</pdfrwt>
<pdfrwt beam="2">  1       -2 0.22338518E+00 0.15769379E+04</pdfrwt>
<totfact> 0.43286371E+00</totfact>
</mgrwt>
</event>
<event>
12    4  0.4486176E-008  0.1220176E+04  0.7818608E-02  0.9095377E-01
         -2   -1    0    0    0  501 -0.00000000000E+00  0.00000000000E+00  0.22141268562E+03  0.22141268562E+03  0.00000000000E+00 0.  1.
          1   -1    0    0  501    0  0.00000000000E+00 -0.00000000000E+00 -0.16810580841E+04  0.16810580841E+04  0.00000000000E+00 0. -1.
        -24    2    1    2    0    0 -0.90988249191E+02 -0.25181536003E+03 -0.31428936651E+03  0.42058716609E+03  0.80161844678E+02 0.  0.
        254    2    1    2    0    0  0.90988249191E+02  0.25181536003E+03 -0.11453560319E+04  0.14818836036E+04  0.90135938320E+03 0.  0.
         23    2    4    4    0    0 -0.20685492551E+03 -0.64261276567E+02  0.18455424147E+02  0.23537551987E+03  0.90236139104E+02 0.  0.
         23    2    4    4    0    0  0.29784317470E+03  0.31607663660E+03 -0.11638114561E+04  0.12465080837E+04  0.10349058198E+03 0.  0.
          3    1    3    3  502    0 -0.66246161581E+02 -0.11007918548E+03 -0.10155747219E+03  0.16376782699E+03  0.00000000000E+00 0. -1.
         -4    1    3    3    0  502 -0.24742087610E+02 -0.14173617455E+03 -0.21273189431E+03  0.25681933910E+03  0.00000000000E+00 0.  1.
         11    1    5    5    0    0 -0.75285797331E+02 -0.21146901692E+02 -0.36646569046E+02  0.86360371432E+02  0.00000000000E+00 0. -1.
        -11    1    5    5    0    0 -0.13156912818E+03 -0.43114374875E+02  0.55101993193E+02  0.14901514844E+03  0.00000000000E+00 0.  1.
          4    1    6    6  503    0  0.17830911602E+03  0.11559547268E+03 -0.52389476809E+03  0.56535137941E+03  0.00000000000E+00 0. -1.
         -4    1    6    6    0  503  0.11953405869E+03  0.20048116392E+03 -0.63991668800E+03  0.68115670433E+03  0.00000000000E+00 0.  1.
<mgrwt>
<rscale>  0 0.12201764E+04</rscale>
<asrwt>0</asrwt>
<pdfrwt beam="1">  1        1 0.25862432E+00 0.12201764E+04</pdfrwt>
<pdfrwt beam="2">  1       -2 0.34063490E-01 0.12201764E+04</pdfrwt>
<totfact> 0.34373026E+01</totfact>
</mgrwt>
</event>
<event>
12    4  0.4486176E-008  0.2151009E+04  0.7818608E-02  0.8539100E-01
          1   -1    0    0  501    0  0.00000000000E+00  0.00000000000E+00  0.20020297916E+04  0.20020297916E+04  0.00000000000E+00 0. -1.
         -2   -1    0    0    0  501 -0.00000000000E+00 -0.00000000000E+00 -0.57776865130E+03  0.57776865130E+03  0.00000000000E+00 0.  1.
        -24    2    1    2    0    0  0.27788732788E+03  0.64375133496E+03  0.12306132439E+04  0.14186250116E+04  0.80316991823E+02 0.  0.
        254    2    1    2    0    0 -0.27788732788E+03 -0.64375133496E+03  0.19364789642E+03  0.11611734313E+04  0.90508954339E+03 0.  0.
         23    2    4    4    0    0  0.30416460564E+03 -0.30581548060E+03 -0.39067263110E+02  0.44270488226E+03  0.91772252000E+02 0.  0.
         23    2    4    4    0    0 -0.58205193351E+03 -0.33793585437E+03  0.23271515953E+03  0.71846854906E+03  0.95160997989E+02 0.  0.
          3    1    3    3  502    0  0.26606748879E+03  0.61626413965E+03  0.11371156634E+04  0.13204565235E+04  0.00000000000E+00 0. -1.
         -4    1    3    3    0  502  0.11819839082E+02  0.27487195315E+02  0.93497580422E+02  0.98168488055E+02  0.00000000000E+00 0.  1.
         11    1    5    5    0    0  0.24515624971E+03 -0.23806868778E+03  0.68748739289E+01  0.34179752891E+03  0.00000000000E+00 0.  1.
        -11    1    5    5    0    0  0.59008355928E+02 -0.67746792813E+02 -0.45942137039E+02  0.10090735336E+03  0.00000000000E+00 0. -1.
          1    1    6    6  503    0 -0.10705981993E+03 -0.27903231819E+02  0.58195731770E+02  0.12500855405E+03  0.00000000000E+00 0. -1.
         -1    1    6    6    0  503 -0.47499211358E+03 -0.31003262255E+03  0.17451942776E+03  0.59345999501E+03  0.00000000000E+00 0.  1.
<mgrwt>
<rscale>  0 0.21510091E+04</rscale>
<asrwt>0</asrwt>
<pdfrwt beam="1">  1        1 0.30800458E+00 0.21510091E+04</pdfrwt>
<pdfrwt beam="2">  1       -2 0.88887486E-01 0.21510091E+04</pdfrwt>
<totfact> 0.25981606E+00</totfact>
</mgrwt>
</event>
<event>
12    4  0.4486176E-008  0.1283643E+04  0.7818608E-02  0.9042638E-01
          1   -1    0    0  501    0  0.00000000000E+00  0.00000000000E+00  0.16592258122E+04  0.16592258122E+04  0.00000000000E+00 0. -1.
         -4   -1    0    0    0  501 -0.00000000000E+00 -0.00000000000E+00 -0.24826916858E+03  0.24826916858E+03  0.00000000000E+00 0.  1.
        -24    2    1    2    0    0  0.12248247285E+03 -0.20542687767E+03  0.69591584104E+03  0.74026640203E+03  0.80581200935E+02 0.  0.
        254    2    1    2    0    0 -0.12248247285E+03  0.20542687767E+03  0.71504080257E+03  0.11672285787E+04  0.89103145144E+03 0.  0.
         23    2    4    4    0    0 -0.50065728280E+03  0.10388367826E+03  0.37886779788E+03  0.64309248711E+03  0.92615361965E+02 0.  0.
         23    2    4    4    0    0  0.37817480994E+03  0.10154319941E+03  0.33617300468E+03  0.52413609163E+03  0.91537671210E+02 0.  0.
          3    1    3    3  502    0  0.35112125828E+01 -0.52372185510E+02  0.22436594997E+03  0.23042407413E+03  0.00000000000E+00 0. -1.
         -4    1    3    3    0  502  0.11897126027E+03 -0.15305469216E+03  0.47154989107E+03  0.50984232791E+03  0.00000000000E+00 0.  1.
         11    1    5    5    0    0 -0.37362231135E+03  0.93441865546E+02  0.32792549607E+03  0.50582620014E+03  0.00000000000E+00 0.  1.
        -11    1    5    5    0    0 -0.12703497145E+03  0.10441812714E+02  0.50942301815E+02  0.13726628697E+03  0.00000000000E+00 0. -1.
          2    1    6    6  503    0  0.63158618045E+01  0.99204403911E+01  0.34992674009E+02  0.36916019316E+02  0.00000000000E+00 0. -1.
         -2    1    6    6    0  503  0.37185894814E+03  0.91622759017E+02  0.30118033067E+03  0.48722007231E+03  0.00000000000E+00 0.  1.
<mgrwt>
<rscale>  0 0.12836426E+04</rscale>
<asrwt>0</asrwt>
<pdfrwt beam="1">  1        1 0.25526550E+00 0.12836426E+04</pdfrwt>
<pdfrwt beam="2">  1       -4 0.38195258E-01 0.12836426E+04</pdfrwt>
<totfact> 0.16512189E+01</totfact>
</mgrwt>
</event>
<event>
12    4  0.5383461E-008  0.2073002E+04  0.7818608E-02  0.8573230E-01
         -2   -1    0    0    0  501 -0.00000000000E+00  0.00000000000E+00  0.66617352215E+03  0.66617352215E+03  0.00000000000E+00 0.  1.
          1   -1    0    0  501    0  0.00000000000E+00 -0.00000000000E+00 -0.16126947452E+04  0.16126947452E+04  0.00000000000E+00 0. -1.
        -24    2    1    2    0    0 -0.26994241607E+03  0.17948701761E+03 -0.12436514536E+04  0.12877884491E+04  0.81520881257E+02 0.  0.
        254    2    1    2    0    0  0.26994241607E+03 -0.17948701761E+03  0.29713023054E+03  0.99107981828E+03  0.88818260218E+03 0.  0.
         23    2    4    4    0    0 -0.27000452517E+03  0.88060096455E+02  0.23359906285E+03  0.37870989595E+03  0.90529768173E+02 0.  0.
         23    2    4    4    0    0  0.53994694124E+03 -0.26754711406E+03  0.63531167688E+02  0.61236992233E+03  0.88524318133E+02 0.  0.
          3    1    3    3  502    0 -0.26887697848E+03  0.17004473389E+03 -0.11356227483E+04  0.11793426421E+04  0.00000000000E+00 0. -1.
         -4    1    3    3    0  502 -0.10654375922E+01  0.94422837162E+01 -0.10802870529E+03  0.10844580695E+03  0.00000000000E+00 0.  1.
         11    1    5    5    0    0 -0.16135271500E+03  0.62243874440E+02  0.19478417600E+03  0.26048008323E+03  0.00000000000E+00 0. -1.
        -11    1    5    5    0    0 -0.10865181018E+03  0.25816222014E+02  0.38814886850E+02  0.11822981271E+03  0.00000000000E+00 0.  1.
          3    1    6    6  503    0  0.52447080462E+03 -0.26088448491E+03  0.76981995594E+02  0.59081009386E+03  0.00000000000E+00 0. -1.
         -3    1    6    6    0  503  0.15476136628E+02 -0.66626291511E+01 -0.13450827906E+02  0.21559828466E+02  0.00000000000E+00 0.  1.
<mgrwt>
<rscale>  0 0.20730022E+04</rscale>
<asrwt>0</asrwt>
<pdfrwt beam="1">  1        1 0.24810688E+00 0.20730022E+04</pdfrwt>
<pdfrwt beam="2">  1       -2 0.10248824E+00 0.20730022E+04</pdfrwt>
<totfact> 0.34480404E+00</totfact>
</mgrwt>
</event>
<event>
12    4  0.4486176E-008  0.1389780E+04  0.7818608E-02  0.8961250E-01
         -2   -1    0    0    0  501 -0.00000000000E+00  0.00000000000E+00  0.65959053453E+03  0.65959053453E+03  0.00000000000E+00 0.  1.
          1   -1    0    0  501    0  0.00000000000E+00 -0.00000000000E+00 -0.73207810452E+03  0.73207810452E+03  0.00000000000E+00 0. -1.
        -24    2    1    2    0    0 -0.33371046914E+02  0.10609897522E+03  0.34798756554E+03  0.37358627879E+03  0.78107250712E+02 0.  0.
        254    2    1    2    0    0  0.33371046914E+02 -0.10609897522E+03 -0.42047513553E+03  0.10180823603E+04  0.92050080574E+03 0.  0.
         23    2    4    4    0    0 -0.51960362125E+01 -0.22941217779E+03 -0.67534715427E+03  0.71859212510E+03  0.87315046634E+02 0.  0.
         23    2    4    4    0    0  0.38567083126E+02  0.12331320256E+03  0.25487201874E+03  0.29949023516E+03  0.89672120489E+02 0.  0.
          3    1    3    3  502    0 -0.14767988966E+02  0.11001693011E+02  0.16945075564E+03  0.17044849466E+03  0.00000000000E+00 0. -1.
         -4    1    3    3    0  502 -0.18603057948E+02  0.95097282212E+02  0.17853680990E+03  0.20313778412E+03  0.00000000000E+00 0.  1.
         11    1    5    5    0    0 -0.99748620900E+01 -0.46120589706E+01 -0.60709474199E+01  0.12554894035E+02  0.00000000000E+00 0.  1.
        -11    1    5    5    0    0  0.47788258776E+01 -0.22480011882E+03 -0.66927620685E+03  0.70603723107E+03  0.00000000000E+00 0. -1.
          2    1    6    6  503    0 -0.17446717080E+02  0.89541880427E+02  0.13495906975E+03  0.16289900797E+03  0.00000000000E+00 0. -1.
         -2    1    6    6    0  503  0.56013800206E+02  0.33771322137E+02  0.11991294898E+03  0.13659122719E+03  0.00000000000E+00 0.  1.
<mgrwt>
<rscale>  0 0.13897795E+04</rscale>
<asrwt>0</asrwt>
<pdfrwt beam="1">  1        1 0.11262740E+00 0.13897795E+04</pdfrwt>
<pdfrwt beam="2">  1       -2 0.10147547E+00 0.13897795E+04</pdfrwt>
<totfact> 0.17338178E+01</totfact>
</mgrwt>
</event>
<event>
12    4  0.5214556E-008  0.1472383E+04  0.7818608E-02  0.8903029E-01
         -2   -1    0    0    0  501 -0.00000000000E+00  0.00000000000E+00  0.19620344135E+03  0.19620344135E+03  0.00000000000E+00 0.  1.
          1   -1    0    0  501    0  0.00000000000E+00 -0.00000000000E+00 -0.27623246042E+04  0.27623246042E+04  0.00000000000E+00 0. -1.
        -24    2    1    2    0    0  0.29873729806E+03  0.22904721445E+03 -0.27749596373E+03  0.47445301182E+03  0.79969061747E+02 0.  0.
        254    2    1    2    0    0 -0.29873729806E+03 -0.22904721445E+03 -0.22886251991E+04  0.24840750337E+04  0.88944750910E+03 0.  0.
         23    2    4    4    0    0 -0.20490231089E+03  0.16164479275E+03 -0.18918109940E+04  0.19119101745E+04  0.91310910042E+02 0.  0.
         23    2    4    4    0    0 -0.93834987166E+02 -0.39069200720E+03 -0.39681420513E+03  0.57216485924E+03  0.92010126879E+02 0.  0.
          3    1    3    3  502    0  0.10077460441E+02  0.78915673357E+01  0.52388199054E+01  0.13830302887E+02  0.00000000000E+00 0. -1.
         -4    1    3    3    0  502  0.28865983762E+03  0.22115564711E+03 -0.28273478364E+03  0.46062270893E+03  0.00000000000E+00 0.  1.
         11    1    5    5    0    0 -0.21353529455E+03  0.14789157618E+03 -0.17498588899E+04  0.17690323272E+04  0.00000000000E+00 0. -1.
        -11    1    5    5    0    0  0.86329836596E+01  0.13753216572E+02 -0.14195210414E+03  0.14287784727E+03  0.00000000000E+00 0.  1.
          3    1    6    6  503    0 -0.96697970320E+02 -0.39503361236E+03 -0.39401155294E+03  0.56625714672E+03  0.00000000000E+00 0. -1.
         -3    1    6    6    0  503  0.28629831537E+01  0.43416051617E+01 -0.28026521882E+01  0.59077125190E+01  0.00000000000E+00 0.  1.
<mgrwt>
<rscale>  0 0.14723826E+04</rscale>
<asrwt>0</asrwt>
<pdfrwt beam="1">  1        1 0.42497302E+00 0.14723826E+04</pdfrwt>
<pdfrwt beam="2">  1       -2 0.30185145E-01 0.14723826E+04</pdfrwt>
<totfact> 0.76861641E+00</totfact>
</mgrwt>
</event>
<event>
12    4  0.4486176E-008  0.1233091E+04  0.7818608E-02  0.9084375E-01
         -2   -1    0    0    0  501 -0.00000000000E+00  0.00000000000E+00  0.36213909135E+03  0.36213909135E+03  0.00000000000E+00 0.  1.
          1   -1    0    0  501    0  0.00000000000E+00 -0.00000000000E+00 -0.10496752281E+04  0.10496752281E+04  0.00000000000E+00 0. -1.
        -24    2    1    2    0    0  0.25468189245E+03  0.50633216643E+02 -0.33809726853E+03  0.43357707295E+03  0.79074181844E+02 0.  0.
        254    2    1    2    0    0 -0.25468189245E+03 -0.50633216643E+02 -0.34943886826E+03  0.97823724655E+03  0.87602168861E+03 0.  0.
         23    2    4    4    0    0 -0.23422363203E+03  0.13386171067E+03  0.22850999059E+03  0.36434462753E+03  0.88037062800E+02 0.  0.
         23    2    4    4    0    0 -0.20458260420E+02 -0.18449492731E+03 -0.57794885885E+03  0.61389261902E+03  0.91555150694E+02 0.  0.
          1    1    3    3  502    0  0.16160557170E+03  0.78220220003E+00 -0.24076562930E+03  0.28997424179E+03  0.00000000000E+00 0. -1.
         -2    1    3    3    0  502  0.93076320746E+02  0.49851014443E+02 -0.97331639225E+02  0.14360283117E+03  0.00000000000E+00 0.  1.
         11    1    5    5    0    0 -0.23992811925E+03  0.12388252444E+03  0.22697812192E+03  0.35274842325E+03  0.00000000000E+00 0. -1.
        -11    1    5    5    0    0  0.57044872226E+01  0.99791862243E+01  0.15318686649E+01  0.11596204283E+02  0.00000000000E+00 0.  1.
          4    1    6    6  503    0 -0.50541287707E+02 -0.94679091509E+02 -0.23966895404E+03  0.26260190339E+03  0.00000000000E+00 0.  1.
         -4    1    6    6    0  503  0.30083027287E+02 -0.89815835801E+02 -0.33827990481E+03  0.35129071563E+03  0.00000000000E+00 0. -1.
<mgrwt>
<rscale>  0 0.12330911E+04</rscale>
<asrwt>0</asrwt>
<pdfrwt beam="1">  1        1 0.16148849E+00 0.12330911E+04</pdfrwt>
<pdfrwt beam="2">  1       -2 0.55713707E-01 0.12330911E+04</pdfrwt>
<totfact> 0.36280137E+01</totfact>
</mgrwt>
</event>
<event>
12    4  0.4486176E-008  0.1892329E+04  0.7818608E-02  0.8658684E-01
         -2   -1    0    0    0  501 -0.00000000000E+00  0.00000000000E+00  0.11030593891E+04  0.11030593891E+04  0.00000000000E+00 0.  1.
          1   -1    0    0  501    0  0.00000000000E+00 -0.00000000000E+00 -0.81158530680E+03  0.81158530680E+03  0.00000000000E+00 0. -1.
        -24    2    1    2    0    0  0.44716991600E+03  0.28002034306E+03 -0.41069209435E+03  0.67318516711E+03  0.78345048010E+02 0.  0.
        254    2    1    2    0    0 -0.44716991600E+03 -0.28002034306E+03  0.70216617671E+03  0.12414595288E+04  0.87738936381E+03 0.  0.
         23    2    4    4    0    0 -0.47839670369E+02  0.14014844823E+02 -0.18825239792E+03  0.21842177249E+03  0.98914384388E+02 0.  0.
         23    2    4    4    0    0 -0.39933024563E+03 -0.29403518788E+03  0.89041857463E+03  0.10230377563E+04  0.88541945364E+02 0.  0.
          3    1    3    3  502    0  0.44269123423E+03  0.27229567445E+03 -0.41313438208E+03  0.66392806902E+03  0.00000000000E+00 0. -1.
         -4    1    3    3    0  502  0.44786817694E+01  0.77246686145E+01  0.24422877230E+01  0.92570980829E+01  0.00000000000E+00 0.  1.
         11    1    5    5    0    0 -0.30168533318E+01 -0.38439188043E+02 -0.43905360551E+02  0.58432467572E+02  0.00000000000E+00 0.  1.
        -11    1    5    5    0    0 -0.44822817037E+02  0.52454032866E+02 -0.14434703737E+03  0.15998930492E+03  0.00000000000E+00 0. -1.
          1    1    6    6  503    0 -0.20168829186E+03 -0.19315324256E+03  0.54707960948E+03  0.61423321409E+03  0.00000000000E+00 0. -1.
         -1    1    6    6    0  503 -0.19764195377E+03 -0.10088194532E+03  0.34333896515E+03  0.40880454226E+03  0.00000000000E+00 0.  1.
<mgrwt>
<rscale>  0 0.18923285E+04</rscale>
<asrwt>0</asrwt>
<pdfrwt beam="1">  1        1 0.12485928E+00 0.18923285E+04</pdfrwt>
<pdfrwt beam="2">  1       -2 0.16970145E+00 0.18923285E+04</pdfrwt>
<totfact> 0.37934595E+00</totfact>
</mgrwt>
</event>
<event>
12    4  0.4486176E-008  0.2390583E+04  0.7818608E-02  0.8443037E-01
         -2   -1    0    0    0  501 -0.00000000000E+00  0.00000000000E+00  0.20981095873E+04  0.20981095873E+04  0.00000000000E+00 0.  1.
          1   -1    0    0  501    0  0.00000000000E+00 -0.00000000000E+00 -0.68095684690E+03  0.68095684690E+03  0.00000000000E+00 0. -1.
        -24    2    1    2    0    0  0.58874278206E+03  0.82644600285E+03  0.77505793569E+03  0.12793713672E+04  0.80282204912E+02 0.  0.
        254    2    1    2    0    0 -0.58874278206E+03 -0.82644600285E+03  0.64209480474E+03  0.14996950671E+04  0.89842556554E+03 0.  0.
         23    2    4    4    0    0  0.16003689875E+03 -0.35540319588E+03  0.42330782487E+03  0.58399098437E+03  0.99663005325E+02 0.  0.
         23    2    4    4    0    0 -0.74877968081E+03 -0.47104280698E+03  0.21878697987E+03  0.91570408269E+03  0.89966038487E+02 0.  0.
          1    1    3    3  502    0  0.30839390501E+03  0.48871687926E+03  0.46938498265E+03  0.74449529929E+03  0.00000000000E+00 0. -1.
         -2    1    3    3    0  502  0.28034887705E+03  0.33772912359E+03  0.30567295303E+03  0.53487606789E+03  0.00000000000E+00 0.  1.
         11    1    5    5    0    0  0.14962761675E+03 -0.27058732880E+03  0.37425170995E+03  0.48545882276E+03  0.00000000000E+00 0. -1.
        -11    1    5    5    0    0  0.10409282005E+02 -0.84815867076E+02  0.49056114919E+02  0.98532161606E+02  0.00000000000E+00 0.  1.
          3    1    6    6  503    0 -0.73873811272E+03 -0.46420471825E+03  0.20300055829E+03  0.89578415162E+03  0.00000000000E+00 0. -1.
         -3    1    6    6    0  503 -0.10041568096E+02 -0.68380887235E+01  0.15786421582E+02  0.19919931064E+02  0.00000000000E+00 0.  1.
<mgrwt>
<rscale>  0 0.23905833E+04</rscale>
<asrwt>0</asrwt>
<pdfrwt beam="1">  1        1 0.10476259E+00 0.23905833E+04</pdfrwt>
<pdfrwt beam="2">  1       -2 0.32278609E+00 0.23905833E+04</pdfrwt>
<totfact> 0.51411815E-01</totfact>
</mgrwt>
</event>
<event>
12    4  0.4486176E-008  0.2043983E+04  0.7818608E-02  0.8586329E-01
         -2   -1    0    0    0  501 -0.00000000000E+00  0.00000000000E+00  0.92656324401E+03  0.92656324401E+03  0.00000000000E+00 0.  1.
          1   -1    0    0  501    0  0.00000000000E+00 -0.00000000000E+00 -0.11272481064E+04  0.11272481064E+04  0.00000000000E+00 0. -1.
        -24    2    1    2    0    0 -0.30479136660E+03 -0.42612756473E+03  0.55750761988E+03  0.76930759068E+03  0.80851371488E+02 0.  0.
        254    2    1    2    0    0  0.30479136660E+03  0.42612756473E+03 -0.75819248229E+03  0.12845037597E+04  0.89476901489E+03 0.  0.
         23    2    4    4    0    0  0.26193708454E+03  0.60349819971E+03 -0.83487068325E+03  0.10668685292E+04  0.91532986080E+02 0.  0.
         23    2    4    4    0    0  0.42854282064E+02 -0.17737063499E+03  0.76678200957E+02  0.21763523054E+03  0.90491521278E+02 0.  0.
          1    1    3    3  502    0 -0.21923965847E+03 -0.24863033099E+03  0.32046585860E+03  0.46106554399E+03  0.00000000000E+00 0. -1.
         -2    1    3    3    0  502 -0.85551708132E+02 -0.17749723374E+03  0.23704176129E+03  0.30824204668E+03  0.00000000000E+00 0.  1.
         11    1    5    5    0    0  0.23835176837E+03  0.51358966873E+03 -0.66639880678E+03  0.87445599259E+03  0.00000000000E+00 0.  1.
        -11    1    5    5    0    0  0.23585316175E+02  0.89908530987E+02 -0.16847187647E+03  0.19241253661E+03  0.00000000000E+00 0. -1.
          2    1    6    6  503    0  0.35060213493E+02 -0.10514681162E+02  0.12153073136E+02  0.38567788072E+02  0.00000000000E+00 0. -1.
         -2    1    6    6    0  503  0.77940685710E+01 -0.16685595383E+03  0.64525127820E+02  0.17906744247E+03  0.00000000000E+00 0.  1.
<mgrwt>
<rscale>  0 0.20439830E+04</rscale>
<asrwt>0</asrwt>
<pdfrwt beam="1">  1        1 0.17342278E+00 0.20439830E+04</pdfrwt>
<pdfrwt beam="2">  1       -2 0.14254819E+00 0.20439830E+04</pdfrwt>
<totfact> 0.33590771E+00</totfact>
</mgrwt>
</event>
<event>
12    4  0.4486176E-008  0.2307188E+04  0.7818608E-02  0.8475093E-01
          1   -1    0    0  501    0  0.00000000000E+00  0.00000000000E+00  0.75370003022E+03  0.75370003022E+03  0.00000000000E+00 0. -1.
         -2   -1    0    0    0  501 -0.00000000000E+00 -0.00000000000E+00 -0.17656608792E+04  0.17656608792E+04  0.00000000000E+00 0.  1.
        -24    2    1    2    0    0 -0.33771710799E+03 -0.22111327104E+03 -0.13959359821E+04  0.14553281482E+04  0.79992682677E+02 0.  0.
        254    2    1    2    0    0  0.33771710799E+03  0.22111327104E+03  0.38397513309E+03  0.10640327612E+04  0.90652351896E+03 0.  0.
         23    2    4    4    0    0 -0.23583612705E+03 -0.47535962939E+02 -0.85061481788E+02  0.27042303963E+03  0.89525516381E+02 0.  0.
         23    2    4    4    0    0  0.57355323504E+03  0.26864923398E+03  0.46903661488E+03  0.79360972158E+03  0.93195062853E+02 0.  0.
          3    1    3    3  502    0 -0.11978338212E+02 -0.26426853083E+02 -0.61820893372E+02  0.68291156144E+02  0.00000000000E+00 0. -1.
         -4    1    3    3    0  502 -0.32573876978E+03 -0.19468641796E+03 -0.13341150887E+04  0.13870369921E+04  0.00000000000E+00 0.  1.
         11    1    5    5    0    0 -0.13676018695E+02  0.15226715447E+02  0.73666749133E+01  0.21752109092E+02  0.00000000000E+00 0. -1.
        -11    1    5    5    0    0 -0.22216010836E+03 -0.62762678386E+02 -0.92428156702E+02  0.24867093054E+03  0.00000000000E+00 0.  1.
          4    1    6    6  503    0  0.38389165836E+03  0.22648424312E+03  0.33473144584E+03  0.55741641398E+03  0.00000000000E+00 0.  1.
         -4    1    6    6    0  503  0.18966157668E+03  0.42164990865E+02  0.13430516904E+03  0.23619330760E+03  0.00000000000E+00 0. -1.
<mgrwt>
<rscale>  0 0.23071876E+04</rscale>
<asrwt>0</asrwt>
<pdfrwt beam="1">  1        1 0.11595385E+00 0.23071876E+04</pdfrwt>
<pdfrwt beam="2">  1       -2 0.27164014E+00 0.23071876E+04</pdfrwt>
<totfact> 0.91139576E-01</totfact>
</mgrwt>
</event>
<event>
12    4  0.4486176E-008  0.1661983E+04  0.7818608E-02  0.8783349E-01
          1   -1    0    0  501    0  0.00000000000E+00  0.00000000000E+00  0.84120712881E+03  0.84120712881E+03  0.00000000000E+00 0. -1.
         -2   -1    0    0    0  501 -0.00000000000E+00 -0.00000000000E+00 -0.82089962700E+03  0.82089962700E+03  0.00000000000E+00 0.  1.
        -24    2    1    2    0    0 -0.67535591245E+02  0.39536058081E+03  0.43233803486E+03  0.59521551996E+03  0.80587181806E+02 0.  0.
        254    2    1    2    0    0  0.67535591245E+02 -0.39536058081E+03 -0.41203053305E+03  0.10668912359E+04  0.89867497130E+03 0.  0.
         23    2    4    4    0    0  0.37614133207E+03 -0.40229585470E+03 -0.18674153411E+02  0.55851342320E+03  0.90907994652E+02 0.  0.
         23    2    4    4    0    0 -0.30860574082E+03  0.69352738969E+01 -0.39335637964E+03  0.50837781265E+03  0.91832225854E+02 0.  0.
          3    1    3    3  502    0 -0.39373295570E+02  0.34030631905E+03  0.39548614037E+03  0.52322837692E+03  0.00000000000E+00 0. -1.
         -4    1    3    3    0  502 -0.28162295675E+02  0.55054261752E+02  0.36851894487E+02  0.71987143033E+02  0.00000000000E+00 0.  1.
         11    1    5    5    0    0  0.35655351525E+03 -0.35534943572E+03  0.25391176463E+01  0.50339852783E+03  0.00000000000E+00 0.  1.
        -11    1    5    5    0    0  0.19587816817E+02 -0.46946418980E+02 -0.21213271057E+02  0.55114895370E+02  0.00000000000E+00 0. -1.
          4    1    6    6  503    0 -0.29620422950E+02  0.23882193206E+02 -0.79325177072E+02  0.87978476490E+02  0.00000000000E+00 0. -1.
         -4    1    6    6    0  503 -0.27898531787E+03 -0.16946919309E+02 -0.31403120257E+03  0.42039933616E+03  0.00000000000E+00 0.  1.
<mgrwt>
<rscale>  0 0.16619827E+04</rscale>
<asrwt>0</asrwt>
<pdfrwt beam="1">  1        1 0.12941648E+00 0.16619827E+04</pdfrwt>
<pdfrwt beam="2">  1       -2 0.12629225E+00 0.16619827E+04</pdfrwt>
<totfact> 0.79608304E+00</totfact>
</mgrwt>
</event>
<event>
12    4  0.4486176E-008  0.1391693E+04  0.7818608E-02  0.8959854E-01
          1   -1    0    0  501    0  0.00000000000E+00  0.00000000000E+00  0.15446375430E+04  0.15446375430E+04  0.00000000000E+00 0. -1.
         -2   -1    0    0    0  501 -0.00000000000E+00 -0.00000000000E+00 -0.31347291902E+03  0.31347291902E+03  0.00000000000E+00 0.  1.
        -24    2    1    2    0    0 -0.22528775200E+03  0.27869628609E+03  0.12233556223E+03  0.38685554499E+03  0.79151953988E+02 0.  0.
        254    2    1    2    0    0  0.22528775200E+03 -0.27869628609E+03  0.11088290618E+04  0.14712549171E+04  0.89814417087E+03 0.  0.
         23    2    4    4    0    0  0.25239054598E+03  0.23475707269E+03  0.16753921416E+03  0.39433478516E+03  0.92836757941E+02 0.  0.
         23    2    4    4    0    0 -0.27102793979E+02 -0.51345335878E+03  0.94128984761E+03  0.10769201319E+04  0.96754742572E+02 0.  0.
          3    1    3    3  502    0 -0.10337606341E+03  0.95834054435E+02  0.13501314420E+02  0.14160883436E+03  0.00000000000E+00 0. -1.
         -4    1    3    3    0  502 -0.12191168859E+03  0.18286223165E+03  0.10883424781E+03  0.24524671063E+03  0.00000000000E+00 0.  1.
         11    1    5    5    0    0  0.15330694866E+03  0.14189227766E+03  0.50145353947E+02  0.21482782754E+03  0.00000000000E+00 0. -1.
        -11    1    5    5    0    0  0.99083597327E+02  0.92864795033E+02  0.11739386022E+03  0.17950695762E+03  0.00000000000E+00 0.  1.
          4    1    6    6  503    0  0.14062447524E+02 -0.42231480851E+02  0.13469082235E+03  0.14185509519E+03  0.00000000000E+00 0.  1.
         -4    1    6    6    0  503 -0.41165241502E+02 -0.47122187793E+03  0.80659902526E+03  0.93506503672E+03  0.00000000000E+00 0. -1.
<mgrwt>
<rscale>  0 0.13916926E+04</rscale>
<asrwt>0</asrwt>
<pdfrwt beam="1">  1        1 0.23763654E+00 0.13916926E+04</pdfrwt>
<pdfrwt beam="2">  1       -2 0.48226604E-01 0.13916926E+04</pdfrwt>
<totfact> 0.21245206E+01</totfact>
</mgrwt>
</event>
<event>
12    4  0.4486176E-008  0.1881182E+04  0.7818608E-02  0.8664280E-01
          1   -1    0    0  501    0  0.00000000000E+00  0.00000000000E+00  0.94549593826E+03  0.94549593826E+03  0.00000000000E+00 0. -1.
         -2   -1    0    0    0  501 -0.00000000000E+00 -0.00000000000E+00 -0.93571163183E+03  0.93571163183E+03  0.00000000000E+00 0.  1.
        -24    2    1    2    0    0 -0.24547391901E+03  0.60296067893E+03 -0.26542649351E+03  0.70761902423E+03  0.80339496853E+02 0.  0.
        254    2    1    2    0    0  0.24547391901E+03 -0.60296067893E+03  0.27521079993E+03  0.11735885459E+04  0.93688316525E+03 0.  0.
         23    2    4    4    0    0 -0.48588125914E+02  0.19893850696E+03  0.21867036289E+03  0.31289802909E+03  0.90283517166E+02 0.  0.
         23    2    4    4    0    0  0.29406204493E+03 -0.80189918589E+03  0.56540437043E+02  0.86069051676E+03  0.89869650205E+02 0.  0.
          1    1    3    3  502    0 -0.12458697374E+03  0.20798476835E+03 -0.11081399211E+03  0.26656953828E+03  0.00000000000E+00 0. -1.
         -2    1    3    3    0  502 -0.12088694528E+03  0.39497591057E+03 -0.15461250140E+03  0.44104948595E+03  0.00000000000E+00 0.  1.
         11    1    5    5    0    0 -0.51051283622E+02  0.19784124576E+03  0.22624894316E+03  0.30485402468E+03  0.00000000000E+00 0. -1.
        -11    1    5    5    0    0  0.24631577078E+01  0.10972612086E+01 -0.75785802732E+01  0.80440044139E+01  0.00000000000E+00 0.  1.
          2    1    6    6  503    0  0.24437309467E+03 -0.64408553617E+03  0.80266174387E+02  0.69354671512E+03  0.00000000000E+00 0. -1.
         -2    1    6    6    0  503  0.49688950257E+02 -0.15781364972E+03 -0.23725737344E+02  0.16714380164E+03  0.00000000000E+00 0.  1.
<mgrwt>
<rscale>  0 0.18811821E+04</rscale>
<asrwt>0</asrwt>
<pdfrwt beam="1">  1        1 0.14546091E+00 0.18811821E+04</pdfrwt>
<pdfrwt beam="2">  1       -2 0.14395564E+00 0.18811821E+04</pdfrwt>
<totfact> 0.45837137E+00</totfact>
</mgrwt>
</event>
<event>
12    4  0.4486176E-008  0.2238412E+04  0.7818608E-02  0.8502608E-01
          1   -1    0    0  501    0  0.00000000000E+00  0.00000000000E+00  0.13292462450E+04  0.13292462450E+04  0.00000000000E+00 0. -1.
         -2   -1    0    0    0  501 -0.00000000000E+00 -0.00000000000E+00 -0.94235504937E+03  0.94235504937E+03  0.00000000000E+00 0.  1.
        -24    2    1    2    0    0  0.83016122976E+03  0.37889251627E+03  0.37206065156E+03  0.98870207617E+03  0.79846482049E+02 0.  0.
        254    2    1    2    0    0 -0.83016122976E+03 -0.37889251627E+03  0.14830544074E+02  0.12828992182E+04  0.90160038418E+03 0.  0.
         23    2    4    4    0    0  0.68233840838E+02  0.15945815530E+03 -0.10778587145E+03  0.22443209635E+03  0.93108600371E+02 0.  0.
         23    2    4    4    0    0 -0.89839507060E+03 -0.53835067156E+03  0.12261641552E+03  0.10584671219E+04  0.91557163764E+02 0.  0.
          3    1    3    3  502    0  0.65398024527E+03  0.33250464185E+03  0.30593589913E+03  0.79488758478E+03  0.00000000000E+00 0. -1.
         -4    1    3    3    0  502  0.17618098449E+03  0.46387874420E+02  0.66124752433E+02  0.19381449139E+03  0.00000000000E+00 0.  1.
         11    1    5    5    0    0 -0.15572668631E+02  0.35106091783E+01 -0.23356478610E+02  0.28290589922E+02  0.00000000000E+00 0. -1.
        -11    1    5    5    0    0  0.83806509469E+02  0.15594754612E+03 -0.84429392836E+02  0.19614150643E+03  0.00000000000E+00 0.  1.
          1    1    6    6  503    0 -0.51522518474E+03 -0.33522227794E+03  0.32614072173E+02  0.61554418552E+03  0.00000000000E+00 0. -1.
         -1    1    6    6    0  503 -0.38316988586E+03 -0.20312839362E+03  0.90002343347E+02  0.44292293634E+03  0.00000000000E+00 0.  1.
<mgrwt>
<rscale>  0 0.22384119E+04</rscale>
<asrwt>0</asrwt>
<pdfrwt beam="1">  1        1 0.20449942E+00 0.22384119E+04</pdfrwt>
<pdfrwt beam="2">  1       -2 0.14497770E+00 0.22384119E+04</pdfrwt>
<totfact> 0.22537982E+00</totfact>
</mgrwt>
</event>
<event>
12    4  0.4486176E-008  0.1785515E+04  0.7818608E-02  0.8714041E-01
          1   -1    0    0  501    0  0.00000000000E+00  0.00000000000E+00  0.11177149702E+04  0.11177149702E+04  0.00000000000E+00 0. -1.
         -2   -1    0    0    0  501 -0.00000000000E+00 -0.00000000000E+00 -0.71307626882E+03  0.71307626882E+03  0.00000000000E+00 0.  1.
        -24    2    1    2    0    0  0.10352366702E+03  0.54276692027E+03 -0.22029549373E+03  0.60017387121E+03  0.79784031946E+02 0.  0.
        254    2    1    2    0    0 -0.10352366702E+03 -0.54276692027E+03  0.62493419514E+03  0.12306173678E+04  0.90474486922E+03 0.  0.
         23    2    4    4    0    0  0.11250383698E+03 -0.61636391335E+03  0.86799560106E+02  0.63927070777E+03  0.92581246273E+02 0.  0.
         23    2    4    4    0    0 -0.21602750400E+03  0.73596993084E+02  0.53813463503E+03  0.59134666005E+03  0.89540979781E+02 0.  0.
          3    1    3    3  502    0  0.69752376522E+02  0.29120576579E+03 -0.79047588438E+02  0.30970100629E+03  0.00000000000E+00 0. -1.
         -4    1    3    3    0  502  0.33771290497E+02  0.25156115448E+03 -0.14124790529E+03  0.29047286492E+03  0.00000000000E+00 0.  1.
         11    1    5    5    0    0  0.96225416121E+02 -0.27408041198E+03  0.31843668889E+02  0.29222152930E+03  0.00000000000E+00 0.  1.
        -11    1    5    5    0    0  0.16278420861E+02 -0.34228350138E+03  0.54955891217E+02  0.34704917848E+03  0.00000000000E+00 0. -1.
          3    1    6    6  503    0 -0.19239847733E+03  0.30505816218E+02  0.45174797193E+03  0.49195935711E+03  0.00000000000E+00 0.  1.
         -3    1    6    6    0  503 -0.23629026668E+02  0.43091176866E+02  0.86386663100E+02  0.99387302945E+02  0.00000000000E+00 0. -1.
<mgrwt>
<rscale>  0 0.17855151E+04</rscale>
<asrwt>0</asrwt>
<pdfrwt beam="1">  1        1 0.17195615E+00 0.17855151E+04</pdfrwt>
<pdfrwt beam="2">  1       -2 0.10970404E+00 0.17855151E+04</pdfrwt>
<totfact> 0.67371301E+00</totfact>
</mgrwt>
</event>
<event>
12    4  0.4486176E-008  0.1822563E+04  0.7818608E-02  0.8694392E-01
         -2   -1    0    0    0  501 -0.00000000000E+00  0.00000000000E+00  0.39196345238E+03  0.39196345238E+03  0.00000000000E+00 0.  1.
          1   -1    0    0  501    0  0.00000000000E+00 -0.00000000000E+00 -0.21186515076E+04  0.21186515076E+04  0.00000000000E+00 0. -1.
        -24    2    1    2    0    0 -0.63886076768E+03  0.18594775542E+02 -0.29735100665E+03  0.70938660985E+03  0.79516632989E+02 0.  0.
        254    2    1    2    0    0  0.63886076768E+03 -0.18594775542E+02 -0.14293370486E+04  0.18012283501E+04  0.89046635239E+03 0.  0.
         23    2    4    4    0    0  0.28145128345E+03 -0.24637938901E+03 -0.93511192692E+02  0.39632144697E+03  0.91699061536E+02 0.  0.
         23    2    4    4    0    0  0.35740948423E+03  0.22778461347E+03 -0.13358258559E+04  0.14049069032E+04  0.98515581323E+02 0.  0.
          3    1    3    3  502    0 -0.63733717600E+03  0.19670104084E+02 -0.30113183916E+03  0.70517088245E+03  0.00000000000E+00 0. -1.
         -4    1    3    3    0  502 -0.15235916767E+01 -0.10753285415E+01  0.37808325024E+01  0.42157273964E+01  0.00000000000E+00 0.  1.
         11    1    5    5    0    0  0.13898108463E+02 -0.52883153731E+02 -0.18443042302E+02  0.57705555856E+02  0.00000000000E+00 0.  1.
        -11    1    5    5    0    0  0.26755317498E+03 -0.19349623528E+03 -0.75068150389E+02  0.33861589111E+03  0.00000000000E+00 0. -1.
          4    1    6    6  503    0  0.79237834484E+02  0.23556579781E+02 -0.37457419360E+03  0.38358750420E+03  0.00000000000E+00 0. -1.
         -4    1    6    6    0  503  0.27817164975E+03  0.20422803369E+03 -0.96125166227E+03  0.10213193990E+04  0.00000000000E+00 0.  1.
<mgrwt>
<rscale>  0 0.18225630E+04</rscale>
<asrwt>0</asrwt>
<pdfrwt beam="1">  1        1 0.32594639E+00 0.18225630E+04</pdfrwt>
<pdfrwt beam="2">  1       -2 0.60302069E-01 0.18225630E+04</pdfrwt>
<totfact> 0.52466679E+00</totfact>
</mgrwt>
</event>
<event>
12    4  0.4486176E-008  0.2643243E+04  0.7818608E-02  0.8353659E-01
         -2   -1    0    0    0  501 -0.00000000000E+00  0.00000000000E+00  0.81425336568E+03  0.81425336568E+03  0.00000000000E+00 0.  1.
          1   -1    0    0  501    0  0.00000000000E+00 -0.00000000000E+00 -0.21451352298E+04  0.21451352298E+04  0.00000000000E+00 0. -1.
        -24    2    1    2    0    0 -0.30620625127E+03 -0.83975668768E+03 -0.13210609783E+04  0.15971412302E+04  0.81880632609E+02 0.  0.
        254    2    1    2    0    0  0.30620625127E+03  0.83975668768E+03 -0.98208858861E+01  0.13622473654E+04  0.10279435159E+04 0.  0.
         23    2    4    4    0    0  0.92531976239E+01  0.10060335874E+04 -0.12008836176E+02  0.10101914774E+04  0.90296224245E+02 0.  0.
         23    2    4    4    0    0  0.29695305364E+03 -0.16627689977E+03  0.21879502899E+01  0.35205588796E+03  0.90052416151E+02 0.  0.
          3    1    3    3  502    0 -0.22691763835E+03 -0.68679132418E+03 -0.11070076211E+04  0.13223614524E+04  0.00000000000E+00 0. -1.
         -4    1    3    3    0  502 -0.79288612922E+02 -0.15296536350E+03 -0.21405335716E+03  0.27477977779E+03  0.00000000000E+00 0.  1.
         11    1    5    5    0    0  0.32338580009E+02  0.14741202827E+03 -0.10137527475E+02  0.15125759253E+03  0.00000000000E+00 0.  1.
        -11    1    5    5    0    0 -0.23085382386E+02  0.85862155918E+03 -0.18713087014E+01  0.85893388486E+03  0.00000000000E+00 0. -1.
          1    1    6    6  503    0  0.76174612060E+02 -0.67357824587E+01  0.20124919598E+02  0.79075626312E+02  0.00000000000E+00 0. -1.
         -1    1    6    6    0  503  0.22077844158E+03 -0.15954111731E+03 -0.17936969308E+02  0.27298026165E+03  0.00000000000E+00 0.  1.
<mgrwt>
<rscale>  0 0.26432431E+04</rscale>
<asrwt>0</asrwt>
<pdfrwt beam="1">  1        1 0.33002080E+00 0.26432431E+04</pdfrwt>
<pdfrwt beam="2">  1       -2 0.12526975E+00 0.26432431E+04</pdfrwt>
<totfact> 0.87331207E-01</totfact>
</mgrwt>
</event>
<event>
12    4  0.4486176E-008  0.1326278E+04  0.7818608E-02  0.9008982E-01
         -2   -1    0    0    0  501 -0.00000000000E+00  0.00000000000E+00  0.46967399433E+03  0.46967399433E+03  0.00000000000E+00 0.  1.
          1   -1    0    0  501    0  0.00000000000E+00 -0.00000000000E+00 -0.93629492135E+03  0.93629492135E+03  0.00000000000E+00 0. -1.
        -24    2    1    2    0    0  0.27554507906E+03 -0.67664339294E+02 -0.37203048539E+03  0.47464136101E+03  0.79838500216E+02 0.  0.
        254    2    1    2    0    0 -0.27554507906E+03  0.67664339294E+02 -0.94590441633E+02  0.93132755467E+03  0.88199779423E+03 0.  0.
         23    2    4    4    0    0 -0.75515812120E+02 -0.13221652517E+03  0.35261951947E+03  0.39509374125E+03  0.92599629917E+02 0.  0.
         23    2    4    4    0    0 -0.20002926694E+03  0.19988086447E+03 -0.44720996110E+03  0.53623381341E+03  0.87096990358E+02 0.  0.
          3    1    3    3  502    0  0.23225480327E+03 -0.67048062126E+02 -0.35180803394E+03  0.42685668440E+03  0.00000000000E+00 0. -1.
         -2    1    3    3    0  502  0.43290275792E+02 -0.61627716825E+00 -0.20222451448E+02  0.47784676606E+02  0.00000000000E+00 0.  1.
         11    1    5    5    0    0 -0.10600924631E+02 -0.86917656268E+02  0.25379562746E+03  0.26847584452E+03  0.00000000000E+00 0.  1.
        -11    1    5    5    0    0 -0.64914887489E+02 -0.45298868906E+02  0.98823892011E+02  0.12661789674E+03  0.00000000000E+00 0. -1.
          1    1    6    6  503    0 -0.14679471648E+03  0.17741931190E+03 -0.30071098986E+03  0.37875242632E+03  0.00000000000E+00 0. -1.
         -1    1    6    6    0  503 -0.53234550457E+02  0.22461552568E+02 -0.14649897124E+03  0.15748138709E+03  0.00000000000E+00 0.  1.
<mgrwt>
<rscale>  0 0.13262781E+04</rscale>
<asrwt>0</asrwt>
<pdfrwt beam="1">  1        1 0.14404537E+00 0.13262781E+04</pdfrwt>
<pdfrwt beam="2">  1       -2 0.72257537E-01 0.13262781E+04</pdfrwt>
<totfact> 0.25337848E+01</totfact>
</mgrwt>
</event>
<event>
12    4  0.4486176E-008  0.1389383E+04  0.7818608E-02  0.8961539E-01
         -2   -1    0    0    0  501 -0.00000000000E+00  0.00000000000E+00  0.99973420190E+03  0.99973420190E+03  0.00000000000E+00 0.  1.
          1   -1    0    0  501    0  0.00000000000E+00 -0.00000000000E+00 -0.48272480108E+03  0.48272480108E+03  0.00000000000E+00 0. -1.
        -24    2    1    2    0    0 -0.47826600471E+02 -0.27829008261E+03 -0.17425056801E+03  0.34109803911E+03  0.79068691914E+02 0.  0.
        254    2    1    2    0    0  0.47826600471E+02  0.27829008261E+03  0.69125996883E+03  0.11413609639E+04  0.86321014333E+03 0.  0.
         23    2    4    4    0    0 -0.27694997782E+02  0.57876059290E+03  0.45298302645E+03  0.73980798151E+03  0.79946172258E+02 0.  0.
         23    2    4    4    0    0  0.75521598253E+02 -0.30047051029E+03  0.23827694238E+03  0.40155298236E+03  0.92102426753E+02 0.  0.
          3    1    3    3  502    0 -0.63905920809E+02 -0.21267857267E+03 -0.15513333258E+03  0.27089203175E+03  0.00000000000E+00 0. -1.
         -4    1    3    3    0  502  0.16079320338E+02 -0.65611509936E+02 -0.19117235428E+02  0.70206007357E+02  0.00000000000E+00 0.  1.
         11    1    5    5    0    0 -0.34565430518E+02  0.35458518669E+03  0.32116368441E+03  0.47965772775E+03  0.00000000000E+00 0.  1.
        -11    1    5    5    0    0  0.68704327364E+01  0.22417540621E+03  0.13181934204E+03  0.26015025377E+03  0.00000000000E+00 0. -1.
          2    1    6    6  503    0  0.44334111590E+02 -0.27147103775E+03  0.22912300365E+03  0.35799355943E+03  0.00000000000E+00 0. -1.
         -2    1    6    6    0  503  0.31187486662E+02 -0.28999472540E+02  0.91539387266E+01  0.43559422931E+02  0.00000000000E+00 0.  1.
<mgrwt>
<rscale>  0 0.13893833E+04</rscale>
<asrwt>0</asrwt>
<pdfrwt beam="1">  1        1 0.74265354E-01 0.13893833E+04</pdfrwt>
<pdfrwt beam="2">  1       -2 0.15380526E+00 0.13893833E+04</pdfrwt>
<totfact> 0.11116360E+01</totfact>
</mgrwt>
</event>
<event>
12    4  0.4486176E-008  0.1560127E+04  0.7818608E-02  0.8845425E-01
         -2   -1    0    0    0  501 -0.00000000000E+00  0.00000000000E+00  0.53772766384E+03  0.53772766384E+03  0.00000000000E+00 0.  1.
          1   -1    0    0  501    0  0.00000000000E+00 -0.00000000000E+00 -0.11316117105E+04  0.11316117105E+04  0.00000000000E+00 0. -1.
        -24    2    1    2    0    0  0.20484387652E+03  0.32860696347E+03  0.13371138029E+03  0.41752591573E+03  0.80657342488E+02 0.  0.
        254    2    1    2    0    0 -0.20484387652E+03 -0.32860696347E+03 -0.72759542690E+03  0.12518134586E+04  0.94217741410E+03 0.  0.
         23    2    4    4    0    0  0.33259791193E+03  0.91805563446E+01 -0.41205931888E+03  0.53728978922E+03  0.90453201676E+02 0.  0.
         23    2    4    4    0    0 -0.53744178846E+03 -0.33778751981E+03 -0.31553610802E+03  0.71452366935E+03  0.89649060665E+02 0.  0.
          1    1    3    3  502    0  0.98163979601E+01  0.35417316939E+02 -0.85669773415E+01  0.37737794170E+02  0.00000000000E+00 0. -1.
         -2    1    3    3    0  502  0.19502747856E+03  0.29318964653E+03  0.14227835763E+03  0.37978812156E+03  0.00000000000E+00 0.  1.
         11    1    5    5    0    0  0.15660892197E+03  0.63503121829E+01 -0.12462147215E+03  0.20024283314E+03  0.00000000000E+00 0. -1.
        -11    1    5    5    0    0  0.17598898996E+03  0.28302441617E+01 -0.28743784673E+03  0.33704695608E+03  0.00000000000E+00 0.  1.
          2    1    6    6  503    0 -0.29437162173E+03 -0.17097569733E+03 -0.12085258472E+03  0.36123771673E+03  0.00000000000E+00 0. -1.
         -2    1    6    6    0  503 -0.24307016673E+03 -0.16681182248E+03 -0.19468352330E+03  0.35328595262E+03  0.00000000000E+00 0.  1.
<mgrwt>
<rscale>  0 0.15601268E+04</rscale>
<asrwt>0</asrwt>
<pdfrwt beam="1">  1        1 0.17409411E+00 0.15601268E+04</pdfrwt>
<pdfrwt beam="2">  1       -2 0.82727333E-01 0.15601268E+04</pdfrwt>
<totfact> 0.12987254E+01</totfact>
</mgrwt>
</event>
<event>
12    4  0.4486176E-008  0.2709517E+04  0.7818608E-02  0.8331923E-01
          1   -1    0    0  501    0  0.00000000000E+00  0.00000000000E+00  0.13687609213E+04  0.13687609213E+04  0.00000000000E+00 0. -1.
         -2   -1    0    0    0  501 -0.00000000000E+00 -0.00000000000E+00 -0.13408997631E+04  0.13408997631E+04  0.00000000000E+00 0.  1.
        -24    2    1    2    0    0  0.26912036547E+03  0.10284608183E+04  0.57405006814E+03  0.12101283157E+04  0.68699589767E+02 0.  0.
        254    2    1    2    0    0 -0.26912036547E+03 -0.10284608183E+04 -0.54618890993E+03  0.14995323687E+04  0.90560343051E+03 0.  0.
         23    2    4    4    0    0 -0.39305428559E+03 -0.62889340947E+02 -0.23851409105E+03  0.47352622514E+03  0.94294080644E+02 0.  0.
         23    2    4    4    0    0  0.12393392011E+03 -0.96557147740E+03 -0.30767481888E+03  0.10260061435E+04  0.10167063416E+03 0.  0.
          1    1    3    3  502    0  0.75991819616E+02  0.36207380054E+03  0.16896283681E+03  0.40671935522E+03  0.00000000000E+00 0. -1.
         -2    1    3    3    0  502  0.19312854586E+03  0.66638701780E+03  0.40508723132E+03  0.80340896043E+03  0.00000000000E+00 0.  1.
         11    1    5    5    0    0 -0.85414190471E+02 -0.81490932778E+01 -0.99390759067E+01  0.86375788766E+02  0.00000000000E+00 0. -1.
        -11    1    5    5    0    0 -0.30764009512E+03 -0.54740247669E+02 -0.22857501515E+03  0.38715043638E+03  0.00000000000E+00 0.  1.
          2    1    6    6  503    0  0.14167964944E+02 -0.55229762696E+02 -0.43672938184E+02  0.71821886969E+02  0.00000000000E+00 0. -1.
         -2    1    6    6    0  503  0.10976595517E+03 -0.91034171470E+03 -0.26400188069E+03  0.95418425655E+03  0.00000000000E+00 0.  1.
<mgrwt>
<rscale>  0 0.27095174E+04</rscale>
<asrwt>0</asrwt>
<pdfrwt beam="1">  1        1 0.21057860E+00 0.27095174E+04</pdfrwt>
<pdfrwt beam="2">  1       -2 0.20629227E+00 0.27095174E+04</pdfrwt>
<totfact> 0.74908561E-01</totfact>
</mgrwt>
</event>
<event>
12    4  0.4486176E-008  0.1855111E+04  0.7818608E-02  0.8677529E-01
          1   -1    0    0  501    0  0.00000000000E+00  0.00000000000E+00  0.27601880754E+04  0.27601880754E+04  0.00000000000E+00 0. -1.
         -4   -1    0    0    0  501 -0.00000000000E+00 -0.00000000000E+00 -0.31170300233E+03  0.31170300233E+03  0.00000000000E+00 0.  1.
        -24    2    1    2    0    0  0.55818558414E+03  0.17817517663E+03  0.16160881392E+04  0.17209018771E+04  0.80279866258E+02 0.  0.
        254    2    1    2    0    0 -0.55818558414E+03 -0.17817517663E+03  0.83239693382E+03  0.13509892006E+04  0.88823962130E+03 0.  0.
         23    2    4    4    0    0 -0.61250103979E+03 -0.31628254723E+03  0.92197756104E+03  0.11547187820E+04  0.90225655922E+02 0.  0.
         23    2    4    4    0    0  0.54315455650E+02  0.13810737061E+03 -0.89580627214E+02  0.19627041864E+03  0.92052017478E+02 0.  0.
          3    1    3    3  502    0  0.54359946503E+03  0.17757160374E+03  0.16002487590E+04  0.16993610986E+04  0.00000000000E+00 0. -1.
         -4    1    3    3    0  502  0.14586119110E+02  0.60357288696E+00  0.15839380206E+02  0.21540778450E+02  0.00000000000E+00 0.  1.
         11    1    5    5    0    0 -0.33431997202E+03 -0.15484132995E+03  0.56178843003E+03  0.67182730018E+03  0.00000000000E+00 0.  1.
        -11    1    5    5    0    0 -0.27818106778E+03 -0.16144121729E+03  0.36018913100E+03  0.48289148181E+03  0.00000000000E+00 0. -1.
          1    1    6    6  503    0 -0.97303820038E+01  0.69255969865E+02 -0.55412142950E+01  0.70155361532E+02  0.00000000000E+00 0. -1.
         -1    1    6    6    0  503  0.64045837653E+02  0.68851400742E+02 -0.84039412920E+02  0.12611505711E+03  0.00000000000E+00 0.  1.
<mgrwt>
<rscale>  0 0.18551107E+04</rscale>
<asrwt>0</asrwt>
<pdfrwt beam="1">  1        1 0.42464430E+00 0.18551107E+04</pdfrwt>
<pdfrwt beam="2">  1       -4 0.47954310E-01 0.18551107E+04</pdfrwt>
<totfact> 0.17511947E+00</totfact>
</mgrwt>
</event>
<event>
12    4  0.4486176E-008  0.1289730E+04  0.7818608E-02  0.9037749E-01
          1   -1    0    0  501    0  0.00000000000E+00  0.00000000000E+00  0.16222321648E+04  0.16222321648E+04  0.00000000000E+00 0. -1.
         -2   -1    0    0    0  501 -0.00000000000E+00 -0.00000000000E+00 -0.25634480845E+03  0.25634480845E+03  0.00000000000E+00 0.  1.
        -24    2    1    2    0    0 -0.59863309295E+02 -0.74343229765E+02  0.79364287555E+03  0.80331497706E+03  0.79595269027E+02 0.  0.
        254    2    1    2    0    0  0.59863309295E+02  0.74343229765E+02  0.57224448079E+03  0.10752619962E+04  0.90532540173E+03 0.  0.
         23    2    4    4    0    0 -0.21584968526E+03  0.40625965158E+03  0.27991790105E+03  0.54644372596E+03  0.92783205274E+02 0.  0.
         23    2    4    4    0    0  0.27571299456E+03 -0.33191642182E+03  0.29232657974E+03  0.52881827022E+03  0.89486128830E+02 0.  0.
          3    1    3    3  502    0 -0.51214403189E+02 -0.91081255160E+02  0.70410331703E+03  0.71181471690E+03  0.00000000000E+00 0. -1.
         -4    1    3    3    0  502 -0.86489061065E+01  0.16738025395E+02  0.89539558513E+02  0.91500260162E+02  0.00000000000E+00 0.  1.
         11    1    5    5    0    0 -0.14633255648E+03  0.23325700420E+03  0.21381848821E+03  0.34862643760E+03  0.00000000000E+00 0. -1.
        -11    1    5    5    0    0 -0.69517128786E+02  0.17300264738E+03  0.66099412839E+02  0.19781728836E+03  0.00000000000E+00 0.  1.
          2    1    6    6  503    0  0.14598675588E+03 -0.17358879209E+03  0.20694958620E+03  0.30703962751E+03  0.00000000000E+00 0.  1.
         -2    1    6    6    0  503  0.12972623867E+03 -0.15832762972E+03  0.85376993540E+02  0.22177864271E+03  0.00000000000E+00 0. -1.
<mgrwt>
<rscale>  0 0.12897299E+04</rscale>
<asrwt>0</asrwt>
<pdfrwt beam="1">  1        1 0.24957417E+00 0.12897299E+04</pdfrwt>
<pdfrwt beam="2">  1       -2 0.39437664E-01 0.12897299E+04</pdfrwt>
<totfact> 0.28269738E+01</totfact>
</mgrwt>
</event>
<event>
12    4  0.4486176E-008  0.3210522E+04  0.7818608E-02  0.8186044E-01
          1   -1    0    0  501    0  0.00000000000E+00  0.00000000000E+00  0.15704939596E+04  0.15704939596E+04  0.00000000000E+00 0. -1.
         -2   -1    0    0    0  501 -0.00000000000E+00 -0.00000000000E+00 -0.16407972443E+04  0.16407972443E+04  0.00000000000E+00 0.  1.
        -24    2    1    2    0    0 -0.14136396910E+04 -0.16915910985E+03  0.37977088225E+03  0.14758123529E+04  0.82487558775E+02 0.  0.
        254    2    1    2    0    0  0.14136396910E+04  0.16915910985E+03 -0.45007416692E+03  0.17354788510E+04  0.88449313513E+03 0.  0.
         23    2    4    4    0    0  0.98554811082E+03  0.46706076682E+03 -0.50124969567E+03  0.12038088831E+04  0.91944173327E+02 0.  0.
         23    2    4    4    0    0  0.42809158022E+03 -0.29790165696E+03  0.51175528749E+02  0.53166996791E+03  0.89700734442E+02 0.  0.
          3    1    3    3  502    0 -0.13892363374E+04 -0.17446698223E+03  0.36558125290E+03  0.14470887953E+04  0.00000000000E+00 0. -1.
         -4    1    3    3    0  502 -0.24403353680E+02  0.53078723783E+01  0.14189629353E+02  0.28723557600E+02  0.00000000000E+00 0.  1.
         11    1    5    5    0    0  0.65215847307E+03  0.26981735472E+03 -0.35204073352E+03  0.78869814058E+03  0.00000000000E+00 0. -1.
        -11    1    5    5    0    0  0.33338963775E+03  0.19724341210E+03 -0.14920896215E+03  0.41511074253E+03  0.00000000000E+00 0.  1.
          2    1    6    6  503    0  0.30787764374E+03 -0.23136448781E+03  0.20490693539E+00  0.38512103516E+03  0.00000000000E+00 0.  1.
         -2    1    6    6    0  503  0.12021393648E+03 -0.66537169152E+02  0.50970621814E+02  0.14654893275E+03  0.00000000000E+00 0. -1.
<mgrwt>
<rscale>  0 0.32105216E+04</rscale>
<asrwt>0</asrwt>
<pdfrwt beam="1">  1        1 0.24161446E+00 0.32105216E+04</pdfrwt>
<pdfrwt beam="2">  1       -2 0.25243034E+00 0.32105216E+04</pdfrwt>
<totfact> 0.26658309E-01</totfact>
</mgrwt>
</event>
<event>
12    4  0.4486176E-008  0.2675084E+04  0.7818608E-02  0.8343135E-01
         -2   -1    0    0    0  501 -0.00000000000E+00  0.00000000000E+00  0.21443648332E+04  0.21443648332E+04  0.00000000000E+00 0.  1.
          1   -1    0    0  501    0  0.00000000000E+00 -0.00000000000E+00 -0.83428853870E+03  0.83428853870E+03  0.00000000000E+00 0. -1.
        -24    2    1    2    0    0  0.24437213666E+03  0.27782890427E+03  0.18341735796E+04  0.18728692696E+04  0.80869893617E+02 0.  0.
        254    2    1    2    0    0 -0.24437213666E+03 -0.27782890427E+03 -0.52409728514E+03  0.11057841023E+04  0.90065191683E+03 0.  0.
         23    2    4    4    0    0 -0.15029500306E+03  0.72713453434E+02 -0.67605885434E+03  0.70212344066E+03  0.89699036441E+02 0.  0.
         23    2    4    4    0    0 -0.94077133604E+02 -0.35054235770E+03  0.15196156920E+03  0.40366066160E+03  0.90106379335E+02 0.  0.
          3    1    3    3  502    0  0.63596866950E+02  0.63649889951E+02  0.29612810810E+03  0.30949592305E+03  0.00000000000E+00 0. -1.
         -4    1    3    3    0  502  0.18077526971E+03  0.21417901432E+03  0.15380454715E+04  0.15633733466E+04  0.00000000000E+00 0.  1.
         11    1    5    5    0    0 -0.77409058194E+02 -0.11385029004E+02 -0.28021295228E+03  0.29093140050E+03  0.00000000000E+00 0. -1.
        -11    1    5    5    0    0 -0.72885944865E+02  0.84098482438E+02 -0.39584590207E+03  0.41119204016E+03  0.00000000000E+00 0.  1.
          3    1    6    6  503    0 -0.59569511423E+02 -0.30588864299E+03  0.15310870984E+03  0.34721558956E+03  0.00000000000E+00 0.  1.
         -3    1    6    6    0  503 -0.34507622181E+02 -0.44653714709E+02 -0.11471406382E+01  0.56445072040E+02  0.00000000000E+00 0. -1.
<mgrwt>
<rscale>  0 0.26750843E+04</rscale>
<asrwt>0</asrwt>
<pdfrwt beam="1">  1        1 0.12835208E+00 0.26750843E+04</pdfrwt>
<pdfrwt beam="2">  1       -2 0.32990228E+00 0.26750843E+04</pdfrwt>
<totfact> 0.32949707E-01</totfact>
</mgrwt>
</event>
<event>
12    4  0.4486176E-008  0.1488746E+04  0.7818608E-02  0.8891971E-01
         -4   -1    0    0    0  501 -0.00000000000E+00  0.00000000000E+00  0.31647756976E+03  0.31647756976E+03  0.00000000000E+00 0.  1.
          3   -1    0    0  501    0  0.00000000000E+00 -0.00000000000E+00 -0.17508071588E+04  0.17508071588E+04  0.00000000000E+00 0. -1.
        -24    2    1    2    0    0 -0.12869165858E+03 -0.19644187170E+03 -0.10378893006E+04  0.10670416648E+04  0.78821076675E+02 0.  0.
        254    2    1    2    0    0  0.12869165858E+03  0.19644187170E+03 -0.39644028842E+03  0.10002430638E+04  0.88778957664E+03 0.  0.
         23    2    4    4    0    0  0.16511485376E+02  0.46748296221E+03  0.26561455744E+02  0.47543506759E+03  0.80746786072E+02 0.  0.
         23    2    4    4    0    0  0.11218017320E+03 -0.27104109050E+03 -0.42300174416E+03  0.52480799618E+03  0.10220221763E+03 0.  0.
          3    1    3    3  502    0 -0.88599035841E+02 -0.16734070384E+03 -0.68485962846E+03  0.71055289107E+03  0.00000000000E+00 0. -1.
         -4    1    3    3    0  502 -0.40092622735E+02 -0.29101167865E+02 -0.35302967217E+03  0.35648877374E+03  0.00000000000E+00 0.  1.
         11    1    5    5    0    0  0.21198901674E+02  0.41606717980E+03 -0.16311943632E+01  0.41661007229E+03  0.00000000000E+00 0. -1.
        -11    1    5    5    0    0 -0.46874162985E+01  0.51415782408E+02  0.28192650107E+02  0.58824995302E+02  0.00000000000E+00 0.  1.
          4    1    6    6  503    0  0.69898748669E+02 -0.20776699048E+03 -0.37637682019E+03  0.43555994785E+03  0.00000000000E+00 0. -1.
         -4    1    6    6    0  503  0.42281424531E+02 -0.63274100025E+02 -0.46624923973E+02  0.89248048325E+02  0.00000000000E+00 0.  1.
<mgrwt>
<rscale>  0 0.14887460E+04</rscale>
<asrwt>0</asrwt>
<pdfrwt beam="1">  1        3 0.26935494E+00 0.14887460E+04</pdfrwt>
<pdfrwt beam="2">  1       -4 0.48688857E-01 0.14887460E+04</pdfrwt>
<totfact> 0.52001580E-01</totfact>
</mgrwt>
</event>
<event>
12    4  0.4486176E-008  0.1698522E+04  0.7818608E-02  0.8762208E-01
         -2   -1    0    0    0  501 -0.00000000000E+00  0.00000000000E+00  0.46915672462E+03  0.46915672462E+03  0.00000000000E+00 0.  1.
          1   -1    0    0  501    0  0.00000000000E+00 -0.00000000000E+00 -0.15373200752E+04  0.15373200752E+04  0.00000000000E+00 0. -1.
        -24    2    1    2    0    0 -0.57071915201E+03  0.20687559940E+03 -0.43747610129E+03  0.75251683125E+03  0.79864748268E+02 0.  0.
        254    2    1    2    0    0  0.57071915201E+03 -0.20687559940E+03 -0.63068724932E+03  0.12539599686E+04  0.89784816773E+03 0.  0.
         23    2    4    4    0    0  0.28906545568E+03  0.24807476684E+03  0.36622692983E+02  0.39357689014E+03  0.91987059953E+02 0.  0.
         23    2    4    4    0    0  0.28165369633E+03 -0.45495036624E+03 -0.66730994230E+03  0.86038307846E+03  0.92993775097E+02 0.  0.
          3    1    3    3  502    0 -0.53292591167E+03  0.17535191085E+03 -0.41781808002E+03  0.69952145640E+03  0.00000000000E+00 0. -1.
         -4    1    3    3    0  502 -0.37793240335E+02  0.31523688558E+02 -0.19658021268E+02  0.52995374850E+02  0.00000000000E+00 0.  1.
         11    1    5    5    0    0  0.10937576380E+03  0.51262521609E+02  0.39412577050E+02  0.12706004509E+03  0.00000000000E+00 0.  1.
        -11    1    5    5    0    0  0.17968969188E+03  0.19681224523E+03 -0.27898840668E+01  0.26651684505E+03  0.00000000000E+00 0. -1.
          1    1    6    6  503    0  0.40707063384E+02 -0.13321678542E+03 -0.14181510644E+03  0.19878456012E+03  0.00000000000E+00 0. -1.
         -1    1    6    6    0  503  0.24094663294E+03 -0.32173358083E+03 -0.52549483586E+03  0.66159851834E+03  0.00000000000E+00 0.  1.
<mgrwt>
<rscale>  0 0.16985218E+04</rscale>
<asrwt>0</asrwt>
<pdfrwt beam="1">  1        1 0.23651078E+00 0.16985218E+04</pdfrwt>
<pdfrwt beam="2">  1       -2 0.72177958E-01 0.16985218E+04</pdfrwt>
<totfact> 0.89474215E+00</totfact>
</mgrwt>
</event>
<event>
12    4  0.4486176E-008  0.3657983E+04  0.7818608E-02  0.8077338E-01
          1   -1    0    0  501    0  0.00000000000E+00  0.00000000000E+00  0.18570463993E+04  0.18570463993E+04  0.00000000000E+00 0. -1.
         -2   -1    0    0    0  501 -0.00000000000E+00 -0.00000000000E+00 -0.18013604947E+04  0.18013604947E+04  0.00000000000E+00 0.  1.
        -24    2    1    2    0    0  0.56632716793E+03  0.53008563846E+03 -0.15052286856E+04  0.16952586243E+04  0.80443532508E+02 0.  0.
        254    2    1    2    0    0 -0.56632716793E+03 -0.53008563846E+03  0.15609145902E+04  0.19631482698E+04  0.90320514064E+03 0.  0.
         23    2    4    4    0    0 -0.39446097922E+03 -0.26517311494E+03  0.13900465418E+03  0.50373815387E+03  0.92269110629E+02 0.  0.
         23    2    4    4    0    0 -0.17186618871E+03 -0.26491252352E+03  0.14219099360E+04  0.14594101159E+04  0.91287394377E+02 0.  0.
          1    1    3    3  502    0  0.69174744584E+02  0.91194118299E+02 -0.17899885007E+03  0.21246670522E+03  0.00000000000E+00 0. -1.
         -2    1    3    3    0  502  0.49715242335E+03  0.43889152016E+03 -0.13262298355E+04  0.14827919190E+04  0.00000000000E+00 0.  1.
         11    1    5    5    0    0 -0.16364327050E+02  0.74916992696E+01  0.61221680454E+01  0.19010462891E+02  0.00000000000E+00 0. -1.
        -11    1    5    5    0    0 -0.37809665217E+03 -0.27266481421E+03  0.13288248613E+03  0.48472769098E+03  0.00000000000E+00 0.  1.
          4    1    6    6  503    0 -0.41896721661E+01 -0.28741326731E+02  0.55514676566E+02  0.62653783041E+02  0.00000000000E+00 0. -1.
         -4    1    6    6    0  503 -0.16767651655E+03 -0.23617119679E+03  0.13663952594E+04  0.13967563329E+04  0.00000000000E+00 0.  1.
<mgrwt>
<rscale>  0 0.36579831E+04</rscale>
<asrwt>0</asrwt>
<pdfrwt beam="1">  1        1 0.28569945E+00 0.36579831E+04</pdfrwt>
<pdfrwt beam="2">  1       -2 0.27713238E+00 0.36579831E+04</pdfrwt>
<totfact> 0.11560530E-01</totfact>
</mgrwt>
</event>
<event>
12    4  0.4486176E-008  0.1786084E+04  0.7818608E-02  0.8713735E-01
         -2   -1    0    0    0  501 -0.00000000000E+00  0.00000000000E+00  0.26624419298E+04  0.26624419298E+04  0.00000000000E+00 0.  1.
          1   -1    0    0  501    0  0.00000000000E+00 -0.00000000000E+00 -0.29954610674E+03  0.29954610674E+03  0.00000000000E+00 0. -1.
        -24    2    1    2    0    0 -0.39819384151E+03 -0.35630551409E+03  0.23064617696E+03  0.58807120892E+03  0.84369028869E+02 0.  0.
        254    2    1    2    0    0  0.39819384151E+03  0.35630551409E+03  0.21322496461E+04  0.23739168276E+04  0.89637079179E+03 0.  0.
         23    2    4    4    0    0  0.49523001126E+03  0.54779856354E+03  0.19162050254E+04  0.20555813032E+04  0.90756622331E+02 0.  0.
         23    2    4    4    0    0 -0.97036169751E+02 -0.19149304945E+03  0.21604462076E+03  0.31833552446E+03  0.92610052095E+02 0.  0.
          3    1    3    3  502    0 -0.20968506170E+03 -0.23468854134E+03  0.15880743788E+03  0.35251431015E+03  0.00000000000E+00 0. -1.
         -4    1    3    3    0  502 -0.18850877981E+03 -0.12161697275E+03  0.71838739079E+02  0.23555689878E+03  0.00000000000E+00 0.  1.
         11    1    5    5    0    0  0.13403530991E+03  0.10041409235E+03  0.37882770340E+03  0.41419667201E+03  0.00000000000E+00 0. -1.
        -11    1    5    5    0    0  0.36119470135E+03  0.44738447118E+03  0.15373773220E+04  0.16413846312E+04  0.00000000000E+00 0.  1.
          1    1    6    6  503    0  0.15451877322E+02 -0.50020127404E+02  0.38566728094E+02  0.65024350624E+02  0.00000000000E+00 0. -1.
         -1    1    6    6    0  503 -0.11248804707E+03 -0.14147292204E+03  0.17747789267E+03  0.25331117384E+03  0.00000000000E+00 0.  1.
<mgrwt>
<rscale>  0 0.17860841E+04</rscale>
<asrwt>0</asrwt>
<pdfrwt beam="1">  1        1 0.46084018E-01 0.17860841E+04</pdfrwt>
<pdfrwt beam="2">  1       -2 0.40960643E+00 0.17860841E+04</pdfrwt>
<totfact> 0.46793621E-01</totfact>
</mgrwt>
</event>
<event>
12    4  0.4486176E-008  0.1102674E+04  0.7818608E-02  0.9202590E-01
          1   -1    0    0  501    0  0.00000000000E+00  0.00000000000E+00  0.25246189595E+03  0.25246189595E+03  0.00000000000E+00 0. -1.
         -2   -1    0    0    0  501 -0.00000000000E+00 -0.00000000000E+00 -0.12040321327E+04  0.12040321327E+04  0.00000000000E+00 0.  1.
        -24    2    1    2    0    0  0.14738854220E+03 -0.52788567160E+02 -0.25718666159E+03  0.31238235682E+03  0.83233062892E+02 0.  0.
        254    2    1    2    0    0 -0.14738854220E+03  0.52788567160E+02 -0.69438357516E+03  0.11441116718E+04  0.89571923782E+03 0.  0.
         23    2    4    4    0    0 -0.43100668617E+03  0.18350931479E+03 -0.66579581270E+03  0.81922859186E+03  0.91700541839E+02 0.  0.
         23    2    4    4    0    0  0.28361814397E+03 -0.13072074763E+03 -0.28587762464E+02  0.32488307998E+03  0.84879856533E+02 0.  0.
          1    1    3    3  502    0  0.37394398809E+01 -0.10347775637E+01  0.65631730175E+01  0.76242649013E+01  0.00000000000E+00 0. -1.
         -2    1    3    3    0  502  0.14364910231E+03 -0.51753789596E+02 -0.26374983461E+03  0.30475809192E+03  0.00000000000E+00 0.  1.
         11    1    5    5    0    0  0.32882904764E+01  0.65192306836E+01 -0.18576022342E+02  0.19959504729E+02  0.00000000000E+00 0. -1.
        -11    1    5    5    0    0 -0.43429497664E+03  0.17699008411E+03 -0.64721979036E+03  0.79926908713E+03  0.00000000000E+00 0.  1.
          4    1    6    6  503    0 -0.32848600384E+01 -0.12822192433E+02 -0.34777571558E+01  0.13685529552E+02  0.00000000000E+00 0. -1.
         -4    1    6    6    0  503  0.28690300401E+03 -0.11789855520E+03 -0.25110005309E+02  0.31119755043E+03  0.00000000000E+00 0.  1.
<mgrwt>
<rscale>  0 0.11026735E+04</rscale>
<asrwt>0</asrwt>
<pdfrwt beam="1">  1        1 0.38840292E-01 0.11026735E+04</pdfrwt>
<pdfrwt beam="2">  1       -2 0.18523571E+00 0.11026735E+04</pdfrwt>
<totfact> 0.15913350E+01</totfact>
</mgrwt>
</event>
<event>
12    4  0.4486176E-008  0.2534849E+04  0.7818608E-02  0.8390674E-01
          1   -1    0    0  501    0  0.00000000000E+00  0.00000000000E+00  0.15815498769E+04  0.15815498769E+04  0.00000000000E+00 0. -1.
         -2   -1    0    0    0  501 -0.00000000000E+00 -0.00000000000E+00 -0.10156904601E+04  0.10156904601E+04  0.00000000000E+00 0.  1.
        -24    2    1    2    0    0  0.58386703528E+03  0.91103164971E+03  0.35702390423E+03  0.11421962556E+04  0.79163353375E+02 0.  0.
        254    2    1    2    0    0 -0.58386703528E+03 -0.91103164971E+03  0.20883551253E+03  0.14550440814E+04  0.95008506239E+03 0.  0.
         23    2    4    4    0    0  0.14194427541E+03 -0.28938698959E+03  0.35074973641E+03  0.48484499926E+03  0.90312173365E+02 0.  0.
         23    2    4    4    0    0 -0.72581131069E+03 -0.62164466012E+03 -0.14191422388E+03  0.97019908211E+03  0.88895836849E+02 0.  0.
          3    1    3    3  502    0  0.38004498966E+02  0.94948159664E+02  0.47367750953E+02  0.11270846816E+03  0.00000000000E+00 0. -1.
         -4    1    3    3    0  502  0.54586253631E+03  0.81608349005E+03  0.30965615328E+03  0.10294877875E+04  0.00000000000E+00 0.  1.
         11    1    5    5    0    0  0.67125491379E+02 -0.19527906126E+03  0.16852898651E+03  0.26653660659E+03  0.00000000000E+00 0. -1.
        -11    1    5    5    0    0  0.74818784028E+02 -0.94107928328E+02  0.18222074990E+03  0.21830839267E+03  0.00000000000E+00 0.  1.
          1    1    6    6  503    0 -0.60543591617E+03 -0.47309248846E+03 -0.10555728131E+03  0.77557171871E+03  0.00000000000E+00 0. -1.
         -1    1    6    6    0  503 -0.12037539451E+03 -0.14855217167E+03 -0.36356942569E+02  0.19462736340E+03  0.00000000000E+00 0.  1.
<mgrwt>
<rscale>  0 0.25348492E+04</rscale>
<asrwt>0</asrwt>
<pdfrwt beam="1">  1        1 0.24331537E+00 0.25348492E+04</pdfrwt>
<pdfrwt beam="2">  1       -2 0.15626007E+00 0.25348492E+04</pdfrwt>
<totfact> 0.12005000E+00</totfact>
</mgrwt>
</event>
<event>
12    4  0.4558574E-008  0.2175889E+04  0.7818608E-02  0.8528531E-01
         -2   -1    0    0    0  501 -0.00000000000E+00  0.00000000000E+00  0.58784249673E+03  0.58784249673E+03  0.00000000000E+00 0.  1.
          1   -1    0    0  501    0  0.00000000000E+00 -0.00000000000E+00 -0.20135031215E+04  0.20135031215E+04  0.00000000000E+00 0. -1.
        -24    2    1    2    0    0 -0.47238213203E+03 -0.31520316180E+03 -0.13991216560E+04  0.15121268814E+04  0.80550514067E+02 0.  0.
        254    2    1    2    0    0  0.47238213203E+03  0.31520316180E+03 -0.26538968794E+02  0.10892187369E+04  0.92908300381E+03 0.  0.
         23    2    4    4    0    0  0.10023086212E+03  0.42165040228E+03 -0.35955646555E+03  0.57023971518E+03  0.89761870440E+02 0.  0.
         23    2    4    4    0    0  0.37215126991E+03 -0.10644724048E+03  0.33301749676E+03  0.51897902167E+03  0.92795415225E+02 0.  0.
          1    1    3    3  502    0 -0.37849579936E+03 -0.22377359747E+03 -0.10109635066E+04  0.11024431526E+04  0.00000000000E+00 0. -1.
         -2    1    3    3    0  502 -0.93886332668E+02 -0.91429564330E+02 -0.38815814941E+03  0.40968372881E+03  0.00000000000E+00 0.  1.
         11    1    5    5    0    0  0.17374317445E+02  0.21340580549E+03 -0.13582798847E+03  0.25356093385E+03  0.00000000000E+00 0. -1.
        -11    1    5    5    0    0  0.82856544670E+02  0.20824459679E+03 -0.22372847708E+03  0.31667878133E+03  0.00000000000E+00 0.  1.
          2    1    6    6  503    0  0.28457432809E+03 -0.99523766121E+02  0.20834190720E+03  0.36646129199E+03  0.00000000000E+00 0. -1.
         -2    1    6    6    0  503  0.87576941825E+02 -0.69234743573E+01  0.12467558956E+03  0.15251772969E+03  0.00000000000E+00 0.  1.
<mgrwt>
<rscale>  0 0.21758885E+04</rscale>
<asrwt>0</asrwt>
<pdfrwt beam="1">  1        1 0.30976971E+00 0.21758885E+04</pdfrwt>
<pdfrwt beam="2">  1       -2 0.90437308E-01 0.21758885E+04</pdfrwt>
<totfact> 0.24469752E+00</totfact>
</mgrwt>
</event>
<event>
12    4  0.4486176E-008  0.3406043E+04  0.7818608E-02  0.8136425E-01
          1   -1    0    0  501    0  0.00000000000E+00  0.00000000000E+00  0.26741769113E+04  0.26741769113E+04  0.00000000000E+00 0. -1.
         -2   -1    0    0    0  501 -0.00000000000E+00 -0.00000000000E+00 -0.10845511940E+04  0.10845511940E+04  0.00000000000E+00 0.  1.
        -24    2    1    2    0    0 -0.93184965881E+03  0.26390622777E+03 -0.64326175548E+03  0.11653093257E+04  0.78548423297E+02 0.  0.
        254    2    1    2    0    0  0.93184965881E+03 -0.26390622777E+03  0.22328874728E+04  0.25934187796E+04  0.89556921357E+03 0.  0.
         23    2    4    4    0    0 -0.13702651761E+03  0.73924767496E+02  0.19306812177E+03  0.26408028796E+03  0.90675029984E+02 0.  0.
         23    2    4    4    0    0  0.10688761764E+04 -0.33783099527E+03  0.20398193510E+04  0.23293384916E+04  0.91262049853E+02 0.  0.
          1    1    3    3  502    0 -0.36860986169E+03  0.13687882333E+03 -0.28781249939E+03  0.48728336439E+03  0.00000000000E+00 0. -1.
         -2    1    3    3    0  502 -0.56323979712E+03  0.12702740444E+03 -0.35544925609E+03  0.67802596130E+03  0.00000000000E+00 0.  1.
         11    1    5    5    0    0  0.13478404972E+02  0.79339074205E+01  0.20451775212E+02  0.25746638555E+02  0.00000000000E+00 0. -1.
        -11    1    5    5    0    0 -0.15050492259E+03  0.65990860075E+02  0.17261634656E+03  0.23833364940E+03  0.00000000000E+00 0.  1.
          2    1    6    6  503    0  0.57176535637E+03 -0.13711808955E+03  0.10281899035E+04  0.11844371958E+04  0.00000000000E+00 0. -1.
         -2    1    6    6    0  503  0.49711082005E+03 -0.20071290572E+03  0.10116294475E+04  0.11449012958E+04  0.00000000000E+00 0.  1.
<mgrwt>
<rscale>  0 0.34060427E+04</rscale>
<asrwt>0</asrwt>
<pdfrwt beam="1">  1        1 0.41141183E+00 0.34060427E+04</pdfrwt>
<pdfrwt beam="2">  1       -2 0.16685403E+00 0.34060427E+04</pdfrwt>
<totfact> 0.16621323E-01</totfact>
</mgrwt>
</event>
<event>
12    4  0.4486176E-008  0.2001007E+04  0.7818608E-02  0.8606150E-01
         -2   -1    0    0    0  501 -0.00000000000E+00  0.00000000000E+00  0.54859597883E+03  0.54859597883E+03  0.00000000000E+00 0.  1.
          1   -1    0    0  501    0  0.00000000000E+00 -0.00000000000E+00 -0.18246706622E+04  0.18246706622E+04  0.00000000000E+00 0. -1.
        -24    2    1    2    0    0  0.33498285763E+03  0.68442202672E+03 -0.23937950735E+03  0.80259756513E+03  0.78824345527E+02 0.  0.
        254    2    1    2    0    0 -0.33498285763E+03 -0.68442202672E+03 -0.10366951760E+04  0.15706690759E+04  0.90089812545E+03 0.  0.
         23    2    4    4    0    0  0.14118443159E+03  0.38893811789E+02 -0.54069335563E+03  0.56752712550E+03  0.91060205565E+02 0.  0.
         23    2    4    4    0    0 -0.47616728922E+03 -0.72331583851E+03 -0.49600182036E+03  0.10031419504E+04  0.10175891727E+03 0.  0.
          3    1    3    3  502    0  0.66583485337E+02  0.14508111554E+03 -0.84303195026E+02  0.18052401308E+03  0.00000000000E+00 0. -1.
         -4    1    3    3    0  502  0.26839937229E+03  0.53934091118E+03 -0.15507631233E+03  0.62207355205E+03  0.00000000000E+00 0.  1.
         11    1    5    5    0    0  0.21799212238E+02 -0.27315070280E+02 -0.87567344936E+02  0.94283395239E+02  0.00000000000E+00 0.  1.
        -11    1    5    5    0    0  0.11938521936E+03  0.66208882069E+02 -0.45312601070E+03  0.47324373026E+03  0.00000000000E+00 0. -1.
          1    1    6    6  503    0 -0.46928113645E+03 -0.67023354062E+03 -0.46003194691E+03  0.93865178644E+03  0.00000000000E+00 0. -1.
         -1    1    6    6    0  503 -0.68861527664E+01 -0.53082297888E+02 -0.35969873444E+02  0.64490163937E+02  0.00000000000E+00 0.  1.
<mgrwt>
<rscale>  0 0.20010067E+04</rscale>
<asrwt>0</asrwt>
<pdfrwt beam="1">  1        1 0.28071856E+00 0.20010067E+04</pdfrwt>
<pdfrwt beam="2">  1       -2 0.84399381E-01 0.20010067E+04</pdfrwt>
<totfact> 0.39091751E+00</totfact>
</mgrwt>
</event>
<event>
12    4  0.4486176E-008  0.1641034E+04  0.7818608E-02  0.8795729E-01
          1   -1    0    0  501    0  0.00000000000E+00  0.00000000000E+00  0.98512105164E+03  0.98512105164E+03  0.00000000000E+00 0. -1.
         -2   -1    0    0    0  501 -0.00000000000E+00 -0.00000000000E+00 -0.68341643854E+03  0.68341643854E+03  0.00000000000E+00 0.  1.
        -24    2    1    2    0    0  0.36120738513E+03  0.38651120756E+03 -0.12747529810E+03  0.54978980885E+03  0.78467787300E+02 0.  0.
        254    2    1    2    0    0 -0.36120738513E+03 -0.38651120756E+03  0.42917991120E+03  0.11187476813E+04  0.88743410442E+03 0.  0.
         23    2    4    4    0    0  0.10169072217E+03  0.20281847265E+03  0.23626822868E+03  0.33944954977E+03  0.89033618003E+02 0.  0.
         23    2    4    4    0    0 -0.46289810730E+03 -0.58932968020E+03  0.19291168252E+03  0.77929813157E+03  0.92230856558E+02 0.  0.
          3    1    3    3  502    0  0.71477240261E+02  0.10062318574E+03 -0.55259277205E+00  0.12342741487E+03  0.00000000000E+00 0. -1.
         -4    1    3    3    0  502  0.28973014487E+03  0.28588802182E+03 -0.12692270533E+03  0.42636239397E+03  0.00000000000E+00 0.  1.
         11    1    5    5    0    0  0.93433872233E+01 -0.61095368010E+01  0.50286226082E+00  0.11174891283E+02  0.00000000000E+00 0. -1.
        -11    1    5    5    0    0  0.92347334945E+02  0.20892800945E+03  0.23576536642E+03  0.32827465849E+03  0.00000000000E+00 0.  1.
          2    1    6    6  503    0 -0.62018409571E+02 -0.48800304910E+02 -0.11175690110E+01  0.78924025781E+02  0.00000000000E+00 0. -1.
         -2    1    6    6    0  503 -0.40087969773E+03 -0.54052937529E+03  0.19402925153E+03  0.70037410579E+03  0.00000000000E+00 0.  1.
<mgrwt>
<rscale>  0 0.16410337E+04</rscale>
<asrwt>0</asrwt>
<pdfrwt beam="1">  1        1 0.15155708E+00 0.16410337E+04</pdfrwt>
<pdfrwt beam="2">  1       -2 0.10514099E+00 0.16410337E+04</pdfrwt>
<totfact> 0.95473884E+00</totfact>
</mgrwt>
</event>
<event>
12    4  0.4486176E-008  0.2463802E+04  0.7818608E-02  0.8415996E-01
         -2   -1    0    0    0  501 -0.00000000000E+00  0.00000000000E+00  0.11837815581E+04  0.11837815581E+04  0.00000000000E+00 0.  1.
          1   -1    0    0  501    0  0.00000000000E+00 -0.00000000000E+00 -0.12819762891E+04  0.12819762891E+04  0.00000000000E+00 0. -1.
        -24    2    1    2    0    0  0.87606925890E+03  0.24675025536E+03  0.52038386611E+03  0.10514247190E+04  0.79445180978E+02 0.  0.
        254    2    1    2    0    0 -0.87606925890E+03 -0.24675025536E+03 -0.61857859713E+03  0.14143331281E+04  0.88843439910E+03 0.  0.
         23    2    4    4    0    0 -0.10130024489E+04 -0.16056778509E+03 -0.66171570999E+03  0.12239142141E+04  0.90234956372E+02 0.  0.
         23    2    4    4    0    0  0.13693319004E+03 -0.86182470270E+02  0.43137112862E+02  0.19041891404E+03  0.90666617894E+02 0.  0.
          1    1    3    3  502    0  0.15569689464E+02  0.50790688277E+01 -0.14628178133E+01  0.16442384442E+02  0.00000000000E+00 0. -1.
         -2    1    3    3    0  502  0.86049956944E+03  0.24167118653E+03  0.52184668392E+03  0.10349823346E+04  0.00000000000E+00 0.  1.
         11    1    5    5    0    0 -0.11280518447E+03 -0.32302693769E+02 -0.47364347912E+02  0.12653795921E+03  0.00000000000E+00 0. -1.
        -11    1    5    5    0    0 -0.90019726448E+03 -0.12826509132E+03 -0.61435136208E+03  0.10973762549E+04  0.00000000000E+00 0.  1.
          2    1    6    6  503    0  0.63082846344E+01 -0.32189743193E+02 -0.16844829615E+02  0.36874412627E+02  0.00000000000E+00 0. -1.
         -2    1    6    6    0  503  0.13062490541E+03 -0.53992727077E+02  0.59981942477E+02  0.15354450141E+03  0.00000000000E+00 0.  1.
<mgrwt>
<rscale>  0 0.24638018E+04</rscale>
<asrwt>0</asrwt>
<pdfrwt beam="1">  1        1 0.19722712E+00 0.24638018E+04</pdfrwt>
<pdfrwt beam="2">  1       -2 0.18212024E+00 0.24638018E+04</pdfrwt>
<totfact> 0.12778655E+00</totfact>
</mgrwt>
</event>
<event>
12    4  0.5706026E-008  0.2038423E+04  0.7818608E-02  0.8588864E-01
          1   -1    0    0  501    0  0.00000000000E+00  0.00000000000E+00  0.18712542710E+04  0.18712542710E+04  0.00000000000E+00 0. -1.
         -2   -1    0    0    0  501 -0.00000000000E+00 -0.00000000000E+00 -0.55513147851E+03  0.55513147851E+03  0.00000000000E+00 0.  1.
        -24    2    1    2    0    0  0.55076329534E+02  0.23227259660E+03  0.14598032247E+04  0.14813053862E+04  0.79096341497E+02 0.  0.
        254    2    1    2    0    0 -0.55076329534E+02 -0.23227259660E+03 -0.14368043226E+03  0.94508036322E+03  0.90307744137E+03 0.  0.
         23    2    4    4    0    0  0.23185988025E+03  0.11917629298E+03  0.22214909099E+03  0.35500874305E+03  0.93375564977E+02 0.  0.
         23    2    4    4    0    0 -0.28693620978E+03 -0.35144888958E+03 -0.36582952325E+03  0.59007162017E+03  0.92220205884E+02 0.  0.
          3    1    3    3  502    0  0.43058963691E+02  0.20114356773E+03  0.13727494966E+04  0.13880756426E+04  0.00000000000E+00 0. -1.
         -4    1    3    3    0  502  0.12017365843E+02  0.31129028868E+02  0.87053728096E+02  0.93229743620E+02  0.00000000000E+00 0.  1.
         11    1    5    5    0    0  0.21999733759E+03  0.88326137901E+02  0.16447435713E+03  0.28853448553E+03  0.00000000000E+00 0. -1.
        -11    1    5    5    0    0  0.11862542652E+02  0.30850155083E+02  0.57674733864E+02  0.66474257522E+02  0.00000000000E+00 0.  1.
          3    1    6    6  503    0 -0.27279914390E+03 -0.35447469534E+03 -0.36109893954E+03  0.57486009314E+03  0.00000000000E+00 0. -1.
         -3    1    6    6    0  503 -0.14137065881E+02  0.30258057608E+01 -0.47305837160E+01  0.15211527028E+02  0.00000000000E+00 0.  1.
<mgrwt>
<rscale>  0 0.20384231E+04</rscale>
<asrwt>0</asrwt>
<pdfrwt beam="1">  1        1 0.28788527E+00 0.20384231E+04</pdfrwt>
<pdfrwt beam="2">  1       -2 0.85404844E-01 0.20384231E+04</pdfrwt>
<totfact> 0.35266093E+00</totfact>
</mgrwt>
</event>
<event>
12    4  0.4486176E-008  0.1947731E+04  0.7818608E-02  0.8631456E-01
         -2   -1    0    0    0  501 -0.00000000000E+00  0.00000000000E+00  0.51415393608E+03  0.51415393608E+03  0.00000000000E+00 0.  1.
          1   -1    0    0  501    0  0.00000000000E+00 -0.00000000000E+00 -0.18446103862E+04  0.18446103862E+04  0.00000000000E+00 0. -1.
        -24    2    1    2    0    0  0.61191599313E+03 -0.42529138554E+03 -0.33545006443E+03  0.82127248005E+03  0.81534014362E+02 0.  0.
        254    2    1    2    0    0 -0.61191599313E+03  0.42529138554E+03 -0.99500638571E+03  0.15374918422E+04  0.90472620838E+03 0.  0.
         23    2    4    4    0    0 -0.14169635857E+03  0.41395939640E+03 -0.13020887767E+02  0.44486545555E+03  0.79344124673E+02 0.  0.
         23    2    4    4    0    0 -0.47021963456E+03  0.11331989138E+02 -0.98198549794E+03  0.10926263867E+04  0.91115224041E+02 0.  0.
          1    1    3    3  502    0  0.50544003985E+03 -0.35978860578E+03 -0.24531703180E+03  0.66715659393E+03  0.00000000000E+00 0. -1.
         -2    1    3    3    0  502  0.10647595327E+03 -0.65502779756E+02 -0.90133032631E+02  0.15411588611E+03  0.00000000000E+00 0.  1.
         11    1    5    5    0    0 -0.38512095734E+02  0.93206449113E+02  0.29931331807E+02  0.10519747287E+03  0.00000000000E+00 0. -1.
        -11    1    5    5    0    0 -0.10318426284E+03  0.32075294729E+03 -0.42952219574E+02  0.33966798268E+03  0.00000000000E+00 0.  1.
          4    1    6    6  503    0 -0.46776425539E+03  0.96946375541E+01 -0.98364175335E+03  0.10892421602E+04  0.00000000000E+00 0. -1.
         -4    1    6    6    0  503 -0.24553791701E+01  0.16373515836E+01  0.16562554082E+01  0.33842265075E+01  0.00000000000E+00 0.  1.
<mgrwt>
<rscale>  0 0.19477307E+04</rscale>
<asrwt>0</asrwt>
<pdfrwt beam="1">  1        1 0.28378621E+00 0.19477307E+04</pdfrwt>
<pdfrwt beam="2">  1       -2 0.79100606E-01 0.19477307E+04</pdfrwt>
<totfact> 0.44073739E+00</totfact>
</mgrwt>
</event>
<event>
12    4  0.4486176E-008  0.1442025E+04  0.7818608E-02  0.8923948E-01
          1   -1    0    0  501    0  0.00000000000E+00  0.00000000000E+00  0.18349579837E+04  0.18349579837E+04  0.00000000000E+00 0. -1.
         -2   -1    0    0    0  501 -0.00000000000E+00 -0.00000000000E+00 -0.28330838133E+03  0.28330838133E+03  0.00000000000E+00 0.  1.
        -24    2    1    2    0    0 -0.29366205947E+03  0.28683704780E+03  0.65658548516E+03  0.77850762074E+03  0.80353712215E+02 0.  0.
        254    2    1    2    0    0  0.29366205947E+03 -0.28683704780E+03  0.89506411720E+03  0.13397587443E+04  0.90846068811E+03 0.  0.
         23    2    4    4    0    0  0.54304821861E+03 -0.13573388241E+02  0.75300323631E+03  0.93283092560E+03  0.89855758100E+02 0.  0.
         23    2    4    4    0    0 -0.24938615914E+03 -0.27326365956E+03  0.14206088089E+03  0.40692781869E+03  0.92425492891E+02 0.  0.
          1    1    3    3  502    0 -0.11860438092E+03  0.14897678668E+03  0.36326831811E+03  0.41015235351E+03  0.00000000000E+00 0. -1.
         -2    1    3    3    0  502 -0.17505767855E+03  0.13786026112E+03  0.29331716705E+03  0.36835526724E+03  0.00000000000E+00 0.  1.
         11    1    5    5    0    0  0.17662547495E+03  0.35990168085E+02  0.22687744593E+03  0.28976753799E+03  0.00000000000E+00 0.  1.
        -11    1    5    5    0    0  0.36642274365E+03 -0.49563556325E+02  0.52612579038E+03  0.64306338761E+03  0.00000000000E+00 0. -1.
          2    1    6    6  503    0  0.29224788889E+01 -0.59877317941E+01 -0.75689796037E+01  0.10083812133E+02  0.00000000000E+00 0.  1.
         -2    1    6    6    0  503 -0.25230863803E+03 -0.26727592777E+03  0.14962986049E+03  0.39684400655E+03  0.00000000000E+00 0. -1.
<mgrwt>
<rscale>  0 0.14420249E+04</rscale>
<asrwt>0</asrwt>
<pdfrwt beam="1">  1        1 0.28230122E+00 0.14420249E+04</pdfrwt>
<pdfrwt beam="2">  1       -2 0.43585906E-01 0.14420249E+04</pdfrwt>
<totfact> 0.16429812E+01</totfact>
</mgrwt>
</event>
<event>
12    4  0.4486176E-008  0.1687308E+04  0.7818608E-02  0.8768637E-01
         -2   -1    0    0    0  501 -0.00000000000E+00  0.00000000000E+00  0.12812478053E+04  0.12812478053E+04  0.00000000000E+00 0.  1.
          1   -1    0    0  501    0  0.00000000000E+00 -0.00000000000E+00 -0.55551446394E+03  0.55551446394E+03  0.00000000000E+00 0. -1.
        -24    2    1    2    0    0 -0.34504114366E+03  0.39011543153E+03  0.57989509845E+03  0.78353988846E+03  0.80081151706E+02 0.  0.
        254    2    1    2    0    0  0.34504114366E+03 -0.39011543153E+03  0.14583824295E+03  0.10532223808E+04  0.90375060146E+03 0.  0.
         23    2    4    4    0    0 -0.18136203652E+03 -0.42881343036E+02  0.33065554755E+03  0.38984393125E+03  0.88961799307E+02 0.  0.
         23    2    4    4    0    0  0.52640318018E+03 -0.34723408850E+03 -0.18481730460E+03  0.66337844958E+03  0.90783869560E+02 0.  0.
          3    1    3    3  502    0 -0.91749561052E+02  0.66067279464E+02  0.94755747402E+02  0.14751786005E+03  0.00000000000E+00 0. -1.
         -4    1    3    3    0  502 -0.25329158260E+03  0.32404815207E+03  0.48513935105E+03  0.63602202840E+03  0.00000000000E+00 0.  1.
         11    1    5    5    0    0 -0.11530301671E+03  0.10677358250E+02  0.14442497998E+03  0.18511446860E+03  0.00000000000E+00 0. -1.
        -11    1    5    5    0    0 -0.66059019815E+02 -0.53558701285E+02  0.18623056756E+03  0.20472946265E+03  0.00000000000E+00 0.  1.
          2    1    6    6  503    0  0.17785632314E+03 -0.16678793058E+03 -0.54706356705E+02  0.24988771666E+03  0.00000000000E+00 0. -1.
         -2    1    6    6    0  503  0.34854685703E+03 -0.18044615791E+03 -0.13011094789E+03  0.41349073292E+03  0.00000000000E+00 0.  1.
<mgrwt>
<rscale>  0 0.16873075E+04</rscale>
<asrwt>0</asrwt>
<pdfrwt beam="1">  1        1 0.85463764E-01 0.16873075E+04</pdfrwt>
<pdfrwt beam="2">  1       -2 0.19711505E+00 0.16873075E+04</pdfrwt>
<totfact> 0.44264971E+00</totfact>
</mgrwt>
</event>
<event>
12    4  0.4486176E-008  0.1423247E+04  0.7818608E-02  0.8937161E-01
         -2   -1    0    0    0  501 -0.00000000000E+00  0.00000000000E+00  0.64742488219E+03  0.64742488219E+03  0.00000000000E+00 0.  1.
          1   -1    0    0  501    0  0.00000000000E+00 -0.00000000000E+00 -0.78218844000E+03  0.78218844000E+03  0.00000000000E+00 0. -1.
        -24    2    1    2    0    0  0.28136606288E+03  0.22334364537E+03 -0.26276828629E+03  0.45215974735E+03  0.79699558216E+02 0.  0.
        254    2    1    2    0    0 -0.28136606288E+03 -0.22334364537E+03  0.12800472848E+03  0.97745357484E+03  0.89998946393E+03 0.  0.
         23    2    4    4    0    0  0.23599238633E+03 -0.22108878122E+03  0.27220074619E+03  0.43250064036E+03  0.91601867342E+02 0.  0.
         23    2    4    4    0    0 -0.51735844920E+03 -0.22548641498E+01 -0.14419601771E+03  0.54495293448E+03  0.92284125934E+02 0.  0.
          3    1    3    3  502    0  0.19779584162E+03  0.19961611564E+03 -0.19668021379E+03  0.34300567792E+03  0.00000000000E+00 0. -1.
         -4    1    3    3    0  502  0.83570221253E+02  0.23727529728E+02 -0.66088072504E+02  0.10915406944E+03  0.00000000000E+00 0.  1.
         11    1    5    5    0    0  0.15469452633E+03 -0.19611157804E+03  0.18617015281E+03  0.31152764454E+03  0.00000000000E+00 0.  1.
        -11    1    5    5    0    0  0.81297859997E+02 -0.24977203172E+02  0.86030593385E+02  0.12097299582E+03  0.00000000000E+00 0. -1.
          1    1    6    6  503    0 -0.10437213154E+03  0.36571510128E+02 -0.25467016442E+02  0.11348826424E+03  0.00000000000E+00 0. -1.
         -1    1    6    6    0  503 -0.41298631767E+03 -0.38826374277E+02 -0.11872900127E+03  0.43146467024E+03  0.00000000000E+00 0.  1.
<mgrwt>
<rscale>  0 0.14232474E+04</rscale>
<asrwt>0</asrwt>
<pdfrwt beam="1">  1        1 0.12033668E+00 0.14232474E+04</pdfrwt>
<pdfrwt beam="2">  1       -2 0.99603828E-01 0.14232474E+04</pdfrwt>
<totfact> 0.16294964E+01</totfact>
</mgrwt>
</event>
<event>
12    4  0.4486176E-008  0.2463702E+04  0.7818608E-02  0.8416032E-01
          1   -1    0    0  501    0  0.00000000000E+00  0.00000000000E+00  0.81124408906E+03  0.81124408906E+03  0.00000000000E+00 0. -1.
         -2   -1    0    0    0  501 -0.00000000000E+00 -0.00000000000E+00 -0.18705298750E+04  0.18705298750E+04  0.00000000000E+00 0.  1.
        -24    2    1    2    0    0 -0.44984145782E+03 -0.86393840283E+03 -0.93440087298E+03  0.13521295460E+04  0.80015103526E+02 0.  0.
        254    2    1    2    0    0  0.44984145782E+03  0.86393840283E+03 -0.12488491300E+03  0.13296444181E+04  0.89644360442E+03 0.  0.
         23    2    4    4    0    0  0.30822343233E+03  0.76377146236E+03 -0.45521102211E+03  0.94535735536E+03  0.90193812034E+02 0.  0.
         23    2    4    4    0    0  0.14161802549E+03  0.10016694047E+03  0.33032610911E+03  0.38428706269E+03  0.92044158328E+02 0.  0.
          3    1    3    3  502    0 -0.27582622122E+02 -0.21504156844E+02 -0.32545800212E+02  0.47775086772E+02  0.00000000000E+00 0. -1.
         -4    1    3    3    0  502 -0.42225883570E+03 -0.84243424599E+03 -0.90185507277E+03  0.13043544593E+04  0.00000000000E+00 0.  1.
         11    1    5    5    0    0  0.17968194892E+03  0.50960125858E+03 -0.33800893794E+03  0.63736103399E+03  0.00000000000E+00 0.  1.
        -11    1    5    5    0    0  0.12854148341E+03  0.25417020377E+03 -0.11720208417E+03  0.30799632137E+03  0.00000000000E+00 0. -1.
          3    1    6    6  503    0 -0.91548509394E+01 -0.20349727138E+01  0.43595959374E+02  0.44593273970E+02  0.00000000000E+00 0. -1.
         -3    1    6    6    0  503  0.15077287643E+03  0.10220191318E+03  0.28673014974E+03  0.33969378872E+03  0.00000000000E+00 0.  1.
<mgrwt>
<rscale>  0 0.24637015E+04</rscale>
<asrwt>0</asrwt>
<pdfrwt beam="1">  1        1 0.12480678E+00 0.24637015E+04</pdfrwt>
<pdfrwt beam="2">  1       -2 0.28777382E+00 0.24637015E+04</pdfrwt>
<totfact> 0.63774996E-01</totfact>
</mgrwt>
</event>
<event>
12    4  0.4486176E-008  0.1769815E+04  0.7818608E-02  0.8722518E-01
          1   -1    0    0  501    0  0.00000000000E+00  0.00000000000E+00  0.17387406286E+04  0.17387406286E+04  0.00000000000E+00 0. -1.
         -2   -1    0    0    0  501 -0.00000000000E+00 -0.00000000000E+00 -0.45036128245E+03  0.45036128245E+03  0.00000000000E+00 0.  1.
        -24    2    1    2    0    0  0.16563711787E+03  0.56705808921E+03  0.11788767506E+03  0.60759770545E+03  0.79290203582E+02 0.  0.
        254    2    1    2    0    0 -0.16563711787E+03 -0.56705808921E+03  0.11704916711E+04  0.15815042056E+04  0.88437224565E+03 0.  0.
         23    2    4    4    0    0 -0.42260746080E+03 -0.20989432565E+03  0.98456091506E+03  0.10952164701E+04  0.86522985625E+02 0.  0.
         23    2    4    4    0    0  0.25697034293E+03 -0.35716376356E+03  0.18593075600E+03  0.48628773548E+03  0.91136186611E+02 0.  0.
          1    1    3    3  502    0  0.73388794582E+02  0.25471578527E+03  0.12812640580E+02  0.26538690660E+03  0.00000000000E+00 0. -1.
         -2    1    3    3    0  502  0.92248323292E+02  0.31234230394E+03  0.10507503448E+03  0.34221079885E+03  0.00000000000E+00 0.  1.
         11    1    5    5    0    0 -0.24831582146E+03 -0.13201027492E+03  0.48813869354E+03  0.56335321425E+03  0.00000000000E+00 0. -1.
        -11    1    5    5    0    0 -0.17429163933E+03 -0.77884050730E+02  0.49642222153E+03  0.53186325585E+03  0.00000000000E+00 0.  1.
          1    1    6    6  503    0  0.25754068457E+03 -0.34984026520E+03  0.16600601617E+03  0.46505205383E+03  0.00000000000E+00 0. -1.
         -1    1    6    6    0  503 -0.57034164544E+00 -0.73234983595E+01  0.19924739839E+02  0.21235681658E+02  0.00000000000E+00 0.  1.
<mgrwt>
<rscale>  0 0.17698152E+04</rscale>
<asrwt>0</asrwt>
<pdfrwt beam="1">  1        1 0.26749855E+00 0.17698152E+04</pdfrwt>
<pdfrwt beam="2">  1       -2 0.69286352E-01 0.17698152E+04</pdfrwt>
<totfact> 0.70797279E+00</totfact>
</mgrwt>
</event>
<event>
12    4  0.4486176E-008  0.1150782E+04  0.7818608E-02  0.9157062E-01
         -2   -1    0    0    0  501 -0.00000000000E+00  0.00000000000E+00  0.86146517006E+03  0.86146517006E+03  0.00000000000E+00 0.  1.
          1   -1    0    0  501    0  0.00000000000E+00 -0.00000000000E+00 -0.38431610061E+03  0.38431610061E+03  0.00000000000E+00 0. -1.
        -24    2    1    2    0    0  0.72018991473E+02  0.12416255710E+03 -0.69842245044E+02  0.17937126075E+03  0.81810966698E+02 0.  0.
        254    2    1    2    0    0 -0.72018991473E+02 -0.12416255710E+03  0.54699131450E+03  0.10664100099E+04  0.90411710271E+03 0.  0.
         23    2    4    4    0    0 -0.29285204874E+03 -0.10970028542E+03 -0.12846109975E+03  0.34983793031E+03  0.89932465027E+02 0.  0.
         23    2    4    4    0    0  0.22083305726E+03 -0.14462271675E+02  0.67545241425E+03  0.71657207962E+03  0.90902062069E+02 0.  0.
          1    1    3    3  502    0  0.53148018383E+02  0.57667640297E+02 -0.76968998713E+02  0.10988400866E+03  0.00000000000E+00 0. -1.
         -2    1    3    3    0  502  0.18870973090E+02  0.66494916798E+02  0.71267536682E+01  0.69487252092E+02  0.00000000000E+00 0.  1.
         11    1    5    5    0    0 -0.10899291670E+02  0.21670701677E+01  0.11305278699E+02  0.15852447082E+02  0.00000000000E+00 0. -1.
        -11    1    5    5    0    0 -0.28195275707E+03 -0.11186735559E+03 -0.13976637845E+03  0.33398548323E+03  0.00000000000E+00 0.  1.
          2    1    6    6  503    0  0.13273585326E+03 -0.44005082943E+02  0.32089455142E+03  0.35004080791E+03  0.00000000000E+00 0. -1.
         -2    1    6    6    0  503  0.88097204003E+02  0.29542811268E+02  0.35455786282E+03  0.36653127171E+03  0.00000000000E+00 0.  1.
<mgrwt>
<rscale>  0 0.11507822E+04</rscale>
<asrwt>0</asrwt>
<pdfrwt beam="1">  1        1 0.59125554E-01 0.11507822E+04</pdfrwt>
<pdfrwt beam="2">  1       -2 0.13253310E+00 0.11507822E+04</pdfrwt>
<totfact> 0.22684139E+01</totfact>
</mgrwt>
</event>
<event>
12    4  0.4486176E-008  0.3141743E+04  0.7818608E-02  0.8204374E-01
          1   -1    0    0  501    0  0.00000000000E+00  0.00000000000E+00  0.24217056357E+04  0.24217056357E+04  0.00000000000E+00 0. -1.
         -2   -1    0    0    0  501 -0.00000000000E+00 -0.00000000000E+00 -0.10189663951E+04  0.10189663951E+04  0.00000000000E+00 0.  1.
        -24    2    1    2    0    0  0.37450397230E+03 -0.20019228164E+03  0.21293048223E+04  0.21726626336E+04  0.78700180913E+02 0.  0.
        254    2    1    2    0    0 -0.37450397230E+03  0.20019228164E+03 -0.72656558168E+03  0.12680093972E+04  0.94848305836E+03 0.  0.
         23    2    4    4    0    0 -0.33922257539E+03  0.13484627773E+03  0.13413884077E+03  0.39943200858E+03  0.91089113541E+02 0.  0.
         23    2    4    4    0    0 -0.35281396905E+02  0.65346003915E+02 -0.86070442246E+03  0.86857738861E+03  0.89998333221E+02 0.  0.
          3    1    3    3  502    0  0.27858566025E+03 -0.15085078579E+03  0.13980821937E+04  0.14335270315E+04  0.00000000000E+00 0. -1.
         -4    1    3    3    0  502  0.95918312049E+02 -0.49341495858E+02  0.73122262859E+03  0.73913560214E+03  0.00000000000E+00 0.  1.
         11    1    5    5    0    0 -0.19808146565E+02 -0.11311773109E+02  0.19271890576E+02  0.29861758951E+02  0.00000000000E+00 0.  1.
        -11    1    5    5    0    0 -0.31941442883E+03  0.14615805084E+03  0.11486695020E+03  0.36957024963E+03  0.00000000000E+00 0. -1.
          4    1    6    6  503    0 -0.58138507545E+01  0.20319093925E+02 -0.67247238947E+03  0.67280441514E+03  0.00000000000E+00 0. -1.
         -4    1    6    6    0  503 -0.29467546150E+02  0.45026909990E+02 -0.18823203299E+03  0.19577297347E+03  0.00000000000E+00 0.  1.
<mgrwt>
<rscale>  0 0.31417426E+04</rscale>
<asrwt>0</asrwt>
<pdfrwt beam="1">  1        1 0.37257010E+00 0.31417426E+04</pdfrwt>
<pdfrwt beam="2">  1       -2 0.15676406E+00 0.31417426E+04</pdfrwt>
<totfact> 0.30224035E-01</totfact>
</mgrwt>
</event>
<event>
12    4  0.4486176E-008  0.1384500E+04  0.7818608E-02  0.8965115E-01
         -2   -1    0    0    0  501 -0.00000000000E+00  0.00000000000E+00  0.15299831308E+04  0.15299831308E+04  0.00000000000E+00 0.  1.
          1   -1    0    0  501    0  0.00000000000E+00 -0.00000000000E+00 -0.31321268472E+03  0.31321268472E+03  0.00000000000E+00 0. -1.
        -24    2    1    2    0    0 -0.23579620456E+03 -0.77227878305E+02  0.76522878328E+03  0.80818839729E+03  0.77649207889E+02 0.  0.
        254    2    1    2    0    0  0.23579620456E+03  0.77227878305E+02  0.45154166275E+03  0.10350074182E+04  0.89765610743E+03 0.  0.
         23    2    4    4    0    0  0.32285602102E+03  0.16277230655E+03 -0.15915075064E+03  0.40542214810E+03  0.91144515216E+02 0.  0.
         23    2    4    4    0    0 -0.87059816456E+02 -0.85544428247E+02  0.61069241339E+03  0.62958527008E+03  0.92385754769E+02 0.  0.
          1    1    3    3  502    0 -0.49382644276E+02 -0.14768389824E+02  0.27893476053E+03  0.28365710202E+03  0.00000000000E+00 0. -1.
         -2    1    3    3    0  502 -0.18641356029E+03 -0.62459488481E+02  0.48629402275E+03  0.52453129527E+03  0.00000000000E+00 0.  1.
         11    1    5    5    0    0  0.28218907871E+03  0.10267761480E+03 -0.13013391776E+03  0.32727389947E+03  0.00000000000E+00 0. -1.
        -11    1    5    5    0    0  0.40666942311E+02  0.60094691753E+02 -0.29016832871E+02  0.78148248629E+02  0.00000000000E+00 0.  1.
          2    1    6    6  503    0 -0.31604359751E+02  0.15461371769E+02  0.19830831810E+03  0.20140525961E+03  0.00000000000E+00 0. -1.
         -2    1    6    6    0  503 -0.55455456705E+02 -0.10100580002E+03  0.41238409529E+03  0.42818001047E+03  0.00000000000E+00 0.  1.
<mgrwt>
<rscale>  0 0.13845001E+04</rscale>
<asrwt>0</asrwt>
<pdfrwt beam="1">  1        1 0.48186568E-01 0.13845001E+04</pdfrwt>
<pdfrwt beam="2">  1       -2 0.23538202E+00 0.13845001E+04</pdfrwt>
<totfact> 0.55919755E+00</totfact>
</mgrwt>
</event>
<event>
12    4  0.4486176E-008  0.1094687E+04  0.7818608E-02  0.9210385E-01
         -2   -1    0    0    0  501 -0.00000000000E+00  0.00000000000E+00  0.34157087797E+03  0.34157087797E+03  0.00000000000E+00 0.  1.
          1   -1    0    0  501    0  0.00000000000E+00 -0.00000000000E+00 -0.87708029052E+03  0.87708029052E+03  0.00000000000E+00 0. -1.
        -24    2    1    2    0    0 -0.12405344641E+03  0.37390618278E+02 -0.19280839824E+03  0.24576747199E+03  0.80244974630E+02 0.  0.
        254    2    1    2    0    0  0.12405344641E+03 -0.37390618278E+02 -0.34270101432E+03  0.97288369650E+03  0.90126099761E+03 0.  0.
         23    2    4    4    0    0 -0.19142201250E+03 -0.32527147657E+03 -0.36868436170E+03  0.53531960367E+03  0.90526234727E+02 0.  0.
         23    2    4    4    0    0  0.31547545891E+03  0.28788085829E+03  0.25983347383E+02  0.43756409283E+03  0.91580823583E+02 0.  0.
          1    1    3    3  502    0 -0.11000451111E+03  0.37419977141E+02 -0.19898056887E+03  0.23042246839E+03  0.00000000000E+00 0. -1.
         -2    1    3    3    0  502 -0.14048935303E+02 -0.29358863650E-01  0.61721706266E+01  0.15345003595E+02  0.00000000000E+00 0.  1.
         11    1    5    5    0    0 -0.19537065268E+03 -0.27947712598E+03 -0.33750626799E+03  0.47977873735E+03  0.00000000000E+00 0. -1.
        -11    1    5    5    0    0  0.39486401769E+01 -0.45794350589E+02 -0.31178093706E+02  0.55540866327E+02  0.00000000000E+00 0.  1.
          1    1    6    6  503    0  0.22076654279E+03  0.19131356648E+03  0.59700438803E+02  0.29816587586E+03  0.00000000000E+00 0. -1.
         -1    1    6    6    0  503  0.94708916122E+02  0.96567291811E+02 -0.33717091420E+02  0.13939821697E+03  0.00000000000E+00 0.  1.
<mgrwt>
<rscale>  0 0.10946873E+04</rscale>
<asrwt>0</asrwt>
<pdfrwt beam="1">  1        1 0.13493543E+00 0.10946873E+04</pdfrwt>
<pdfrwt beam="2">  1       -2 0.52549367E-01 0.10946873E+04</pdfrwt>
<totfact> 0.56740049E+01</totfact>
</mgrwt>
</event>
<event>
12    4  0.4486176E-008  0.1158486E+04  0.7818608E-02  0.9149990E-01
          1   -1    0    0  501    0  0.00000000000E+00  0.00000000000E+00  0.60268683298E+03  0.60268683298E+03  0.00000000000E+00 0. -1.
         -2   -1    0    0    0  501 -0.00000000000E+00 -0.00000000000E+00 -0.55671140114E+03  0.55671140114E+03  0.00000000000E+00 0.  1.
        -24    2    1    2    0    0  0.20789008356E+02  0.21155873068E+03  0.17945857946E+02  0.22887139615E+03  0.82890184949E+02 0.  0.
        254    2    1    2    0    0 -0.20789008356E+02 -0.21155873068E+03  0.28029573896E+02  0.93052683797E+03  0.90548620077E+03 0.  0.
         23    2    4    4    0    0 -0.39697072183E+03 -0.10788854786E+03 -0.20317577216E+03  0.46777171931E+03  0.91127900461E+02 0.  0.
         23    2    4    4    0    0  0.37618171348E+03 -0.10367018282E+03  0.23120534606E+03  0.46275511866E+03  0.91794332290E+02 0.  0.
          1    1    3    3  502    0  0.17397788580E+02  0.20859816216E+03 -0.10748980872E+01  0.20932518174E+03  0.00000000000E+00 0. -1.
         -2    1    3    3    0  502  0.33912197763E+01  0.29605685189E+01  0.19020756033E+02  0.19546214406E+02  0.00000000000E+00 0.  1.
         11    1    5    5    0    0 -0.17202487460E+03 -0.81129957196E+02 -0.58529943118E+02  0.19899844642E+03  0.00000000000E+00 0.  1.
        -11    1    5    5    0    0 -0.22494584724E+03 -0.26758590662E+02 -0.14464582904E+03  0.26877327290E+03  0.00000000000E+00 0. -1.
          2    1    6    6  503    0  0.68698423211E+02  0.14138363830E+02  0.26190298415E+02  0.74868540887E+02  0.00000000000E+00 0. -1.
         -2    1    6    6    0  503  0.30748329027E+03 -0.11780854666E+03  0.20501504764E+03  0.38788657777E+03  0.00000000000E+00 0.  1.
<mgrwt>
<rscale>  0 0.11584863E+04</rscale>
<asrwt>0</asrwt>
<pdfrwt beam="1">  1        1 0.92721052E-01 0.11584863E+04</pdfrwt>
<pdfrwt beam="2">  1       -2 0.85647908E-01 0.11584863E+04</pdfrwt>
<totfact> 0.35017057E+01</totfact>
</mgrwt>
</event>
<event>
12    4  0.4486176E-008  0.1314866E+04  0.7818608E-02  0.9017859E-01
          1   -1    0    0  501    0  0.00000000000E+00  0.00000000000E+00  0.12568629987E+04  0.12568629987E+04  0.00000000000E+00 0. -1.
         -2   -1    0    0    0  501 -0.00000000000E+00 -0.00000000000E+00 -0.34388641591E+03  0.34388641591E+03  0.00000000000E+00 0.  1.
        -24    2    1    2    0    0  0.12455687951E+03  0.33546571809E+03  0.19104814653E+03  0.41320811719E+03  0.78675851246E+02 0.  0.
        254    2    1    2    0    0 -0.12455687951E+03 -0.33546571809E+03  0.72192843630E+03  0.11875412975E+04  0.87236575002E+03 0.  0.
         23    2    4    4    0    0 -0.16051022083E+03 -0.71105072548E+02  0.85455149800E+03  0.87632844787E+03  0.82908524834E+02 0.  0.
         23    2    4    4    0    0  0.35953341324E+02 -0.26436064554E+03 -0.13262306170E+03  0.31121284959E+03  0.89918672104E+02 0.  0.
          3    1    3    3  502    0  0.72798354998E+02  0.10860576300E+03  0.94305841495E+02  0.16120919325E+03  0.00000000000E+00 0. -1.
         -4    1    3    3    0  502  0.51758524508E+02  0.22685995509E+03  0.96742305035E+02  0.25199892394E+03  0.00000000000E+00 0.  1.
         11    1    5    5    0    0 -0.12475922227E+03 -0.16550377995E+02  0.48486073118E+03  0.50092784629E+03  0.00000000000E+00 0. -1.
        -11    1    5    5    0    0 -0.35750998562E+02 -0.54554694554E+02  0.36969076682E+03  0.37540060158E+03  0.00000000000E+00 0.  1.
          3    1    6    6  503    0  0.26345443971E+02 -0.16232928939E+03 -0.12840218177E+03  0.20864323832E+03  0.00000000000E+00 0. -1.
         -3    1    6    6    0  503  0.96078973532E+01 -0.10203135615E+03 -0.42208799293E+01  0.10256961128E+03  0.00000000000E+00 0.  1.
<mgrwt>
<rscale>  0 0.13148659E+04</rscale>
<asrwt>0</asrwt>
<pdfrwt beam="1">  1        1 0.19336354E+00 0.13148659E+04</pdfrwt>
<pdfrwt beam="2">  1       -2 0.52905603E-01 0.13148659E+04</pdfrwt>
<totfact> 0.28178979E+01</totfact>
</mgrwt>
</event>
<event>
12    4  0.4486176E-008  0.1993594E+04  0.7818608E-02  0.8609622E-01
         -2   -1    0    0    0  501 -0.00000000000E+00  0.00000000000E+00  0.58491267042E+03  0.58491267042E+03  0.00000000000E+00 0.  1.
          1   -1    0    0  501    0  0.00000000000E+00 -0.00000000000E+00 -0.16987216056E+04  0.16987216056E+04  0.00000000000E+00 0. -1.
        -24    2    1    2    0    0 -0.55994441044E+03  0.40301715881E+03 -0.90961509687E+03  0.11444106129E+04  0.79469826732E+02 0.  0.
        254    2    1    2    0    0  0.55994441044E+03 -0.40301715881E+03 -0.20419383831E+03  0.11392236631E+04  0.88327507492E+03 0.  0.
         23    2    4    4    0    0 -0.20377208272E+03  0.34998350213E+02 -0.98264723591E+02  0.24773374072E+03  0.94700074832E+02 0.  0.
         23    2    4    4    0    0  0.76371649317E+03 -0.43801550902E+03 -0.10592911472E+03  0.89148992242E+03  0.91721515201E+02 0.  0.
          1    1    3    3  502    0 -0.38476687324E+03  0.31925542347E+03 -0.63943191959E+03  0.81169129104E+03  0.00000000000E+00 0. -1.
         -4    1    3    3    0  502 -0.17517753720E+03  0.83761735335E+02 -0.27018317729E+03  0.33271932186E+03  0.00000000000E+00 0.  1.
         11    1    5    5    0    0 -0.94515654034E+02 -0.31308422817E+02 -0.40652877635E+02  0.10754572356E+03  0.00000000000E+00 0. -1.
        -11    1    5    5    0    0 -0.10925642869E+03  0.66306773030E+02 -0.57611845957E+02  0.14018801716E+03  0.00000000000E+00 0.  1.
          4    1    6    6  503    0  0.60363237224E+03 -0.30141982085E+03 -0.77666809174E+02  0.67915983573E+03  0.00000000000E+00 0. -1.
         -4    1    6    6    0  503  0.16008412093E+03 -0.13659568817E+03 -0.28262305545E+02  0.21233008669E+03  0.00000000000E+00 0.  1.
<mgrwt>
<rscale>  0 0.19935935E+04</rscale>
<asrwt>0</asrwt>
<pdfrwt beam="1">  1        1 0.26134178E+00 0.19935935E+04</pdfrwt>
<pdfrwt beam="2">  1       -2 0.89986566E-01 0.19935935E+04</pdfrwt>
<totfact> 0.41139188E+00</totfact>
</mgrwt>
</event>
<event>
12    4  0.4486176E-008  0.1354350E+04  0.7818608E-02  0.8987541E-01
         -2   -1    0    0    0  501 -0.00000000000E+00  0.00000000000E+00  0.37394397746E+03  0.37394397746E+03  0.00000000000E+00 0.  1.
          1   -1    0    0  501    0  0.00000000000E+00 -0.00000000000E+00 -0.12262966390E+04  0.12262966390E+04  0.00000000000E+00 0. -1.
        -24    2    1    2    0    0 -0.18226953326E+03  0.93269999024E+02  0.12681416463E+03  0.25389137549E+03  0.80358712815E+02 0.  0.
        254    2    1    2    0    0  0.18226953326E+03 -0.93269999024E+02 -0.97916682615E+03  0.13463492409E+04  0.90109218711E+03 0.  0.
         23    2    4    4    0    0 -0.29845699794E+03  0.11772729579E+03 -0.61754476429E+03  0.70232524108E+03  0.94672660019E+02 0.  0.
         23    2    4    4    0    0  0.48072653120E+03 -0.21099729482E+03 -0.36162206186E+03  0.64402399986E+03  0.91534368159E+02 0.  0.
          3    1    3    3  502    0 -0.13650298622E+03  0.42799399528E+02  0.50786601909E+02  0.15180294062E+03  0.00000000000E+00 0. -1.
         -4    1    3    3    0  502 -0.45766547040E+02  0.50470599497E+02  0.76027562723E+02  0.10208843487E+03  0.00000000000E+00 0.  1.
         11    1    5    5    0    0 -0.14647725098E+02 -0.15042745104E+02 -0.33372762933E+02  0.39428179473E+02  0.00000000000E+00 0.  1.
        -11    1    5    5    0    0 -0.28380927284E+03  0.13277004090E+03 -0.58417200136E+03  0.66289706161E+03  0.00000000000E+00 0. -1.
          3    1    6    6  503    0  0.35787241049E+03 -0.17390669427E+03 -0.22723594089E+03  0.45820560160E+03  0.00000000000E+00 0. -1.
         -3    1    6    6    0  503  0.12285412071E+03 -0.37090600546E+02 -0.13438612097E+03  0.18581839826E+03  0.00000000000E+00 0.  1.
<mgrwt>
<rscale>  0 0.13543504E+04</rscale>
<asrwt>0</asrwt>
<pdfrwt beam="1">  1        1 0.18866102E+00 0.13543504E+04</pdfrwt>
<pdfrwt beam="2">  1       -2 0.57529843E-01 0.13543504E+04</pdfrwt>
<totfact> 0.24830071E+01</totfact>
</mgrwt>
</event>
<event>
12    4  0.4486176E-008  0.1935458E+04  0.7818608E-02  0.8637405E-01
          1   -1    0    0  501    0  0.00000000000E+00  0.00000000000E+00  0.63996764568E+03  0.63996764568E+03  0.00000000000E+00 0. -1.
         -2   -1    0    0    0  501 -0.00000000000E+00 -0.00000000000E+00 -0.14633550677E+04  0.14633550677E+04  0.00000000000E+00 0.  1.
        -24    2    1    2    0    0  0.43645277342E+03 -0.32392520698E+02  0.34326415997E+03  0.56179868309E+03  0.79039091428E+02 0.  0.
        254    2    1    2    0    0 -0.43645277342E+03  0.32392520698E+02 -0.11666515820E+04  0.15415240303E+04  0.90756824721E+03 0.  0.
         23    2    4    4    0    0  0.14270540852E+03  0.24505339889E+03 -0.11632478251E+03  0.32005733832E+03  0.92137087297E+02 0.  0.
         23    2    4    4    0    0 -0.57915818194E+03 -0.21266087820E+03 -0.10503267995E+04  0.12214666919E+04  0.90253227343E+02 0.  0.
          3    1    3    3  502    0  0.21247691530E+03 -0.30895231265E+01  0.11926658193E+03  0.24368114875E+03  0.00000000000E+00 0. -1.
         -4    1    3    3    0  502  0.22397585812E+03 -0.29302997571E+02  0.22399757804E+03  0.31811753434E+03  0.00000000000E+00 0.  1.
         11    1    5    5    0    0  0.10003148222E+02  0.10312685967E+03 -0.46822168631E+02  0.11369928599E+03  0.00000000000E+00 0. -1.
        -11    1    5    5    0    0  0.13270226030E+03  0.14192653922E+03 -0.69502613882E+02  0.20635805233E+03  0.00000000000E+00 0.  1.
          3    1    6    6  503    0 -0.24841890156E+03 -0.80858168738E+02 -0.36086029080E+03  0.44549988056E+03  0.00000000000E+00 0. -1.
         -3    1    6    6    0  503 -0.33073928038E+03 -0.13180270946E+03 -0.68946650866E+03  0.77596681138E+03  0.00000000000E+00 0.  1.
<mgrwt>
<rscale>  0 0.19354585E+04</rscale>
<asrwt>0</asrwt>
<pdfrwt beam="1">  1        1 0.98456561E-01 0.19354585E+04</pdfrwt>
<pdfrwt beam="2">  1       -2 0.22513155E+00 0.19354585E+04</pdfrwt>
<totfact> 0.23340437E+00</totfact>
</mgrwt>
</event>
<event>
12    4  0.4486176E-008  0.2073626E+04  0.7818608E-02  0.8572951E-01
          1   -1    0    0  501    0  0.00000000000E+00  0.00000000000E+00  0.36706506224E+04  0.36706506224E+04  0.00000000000E+00 0. -1.
         -2   -1    0    0    0  501 -0.00000000000E+00 -0.00000000000E+00 -0.29285855471E+03  0.29285855471E+03  0.00000000000E+00 0.  1.
        -24    2    1    2    0    0 -0.26311856077E+03 -0.78141205888E+03  0.14088512378E+04  0.16343836272E+04  0.80696020700E+02 0.  0.
        254    2    1    2    0    0  0.26311856077E+03  0.78141205888E+03  0.19689408299E+04  0.23291255499E+04  0.93180558755E+03 0.  0.
         23    2    4    4    0    0  0.24907630134E+03  0.45775661702E+03  0.26439352277E+03  0.59151115280E+03  0.91659067747E+02 0.  0.
         23    2    4    4    0    0  0.14042259436E+02  0.32365544186E+03  0.17045473071E+04  0.17376143971E+04  0.94192573063E+02 0.  0.
          1    1    3    3  502    0 -0.20445762250E+03 -0.59819402224E+03  0.11438230373E+04  0.13068933194E+04  0.00000000000E+00 0. -1.
         -2    1    3    3    0  502 -0.58660938271E+02 -0.18321803664E+03  0.26502820054E+03  0.32749030781E+03  0.00000000000E+00 0.  1.
         11    1    5    5    0    0  0.24189555552E+03  0.46033446880E+03  0.25433020606E+03  0.57888266226E+03  0.00000000000E+00 0.  1.
        -11    1    5    5    0    0  0.71807458201E+01 -0.25778517857E+01  0.10063316708E+02  0.12628490548E+02  0.00000000000E+00 0. -1.
          1    1    6    6  503    0 -0.94334782469E+00  0.35866340041E+02  0.79616604190E+02  0.87327475148E+02  0.00000000000E+00 0. -1.
         -1    1    6    6    0  503  0.14985607261E+02  0.28778910182E+03  0.16249307029E+04  0.16502869220E+04  0.00000000000E+00 0.  1.
<mgrwt>
<rscale>  0 0.20736262E+04</rscale>
<asrwt>0</asrwt>
<pdfrwt beam="1">  1        1 0.56471545E+00 0.20736262E+04</pdfrwt>
<pdfrwt beam="2">  1       -2 0.45055165E-01 0.20736262E+04</pdfrwt>
<totfact> 0.69326422E-01</totfact>
</mgrwt>
</event>
<event>
12    4  0.4486176E-008  0.2373742E+04  0.7818608E-02  0.8449400E-01
         -2   -1    0    0    0  501 -0.00000000000E+00  0.00000000000E+00  0.14707437023E+04  0.14707437023E+04  0.00000000000E+00 0.  1.
          1   -1    0    0  501    0  0.00000000000E+00 -0.00000000000E+00 -0.95778930957E+03  0.95778930957E+03  0.00000000000E+00 0. -1.
        -24    2    1    2    0    0  0.49165314214E+03  0.65061118864E+03 -0.40123227227E+03  0.91238317659E+03  0.80237108893E+02 0.  0.
        254    2    1    2    0    0 -0.49165314214E+03 -0.65061118864E+03  0.91418666501E+03  0.15161498353E+04  0.89328345648E+03 0.  0.
         23    2    4    4    0    0 -0.44362187793E+03 -0.49746072298E+03  0.10758110692E+04  0.12684386448E+04  0.85437681207E+02 0.  0.
         23    2    4    4    0    0 -0.48031264218E+02 -0.15315046566E+03 -0.16162440424E+03  0.24771119051E+03  0.97346383527E+02 0.  0.
          1    1    3    3  502    0  0.41957460384E+03  0.50642015157E+03 -0.30853267728E+03  0.72642730611E+03  0.00000000000E+00 0. -1.
         -2    1    3    3    0  502  0.72078538300E+02  0.14419103707E+03 -0.92699594991E+02  0.18595587048E+03  0.00000000000E+00 0.  1.
         11    1    5    5    0    0 -0.28840166954E+03 -0.26809456273E+03  0.66964036573E+03  0.77683230943E+03  0.00000000000E+00 0.  1.
        -11    1    5    5    0    0 -0.15522020838E+03 -0.22936616025E+03  0.40617070352E+03  0.49160633535E+03  0.00000000000E+00 0. -1.
          2    1    6    6  503    0 -0.42428571913E+02 -0.16693285624E+03 -0.14294078400E+03  0.22382767911E+03  0.00000000000E+00 0. -1.
         -2    1    6    6    0  503 -0.56026923055E+01  0.13782390586E+02 -0.18683620243E+02  0.23883511399E+02  0.00000000000E+00 0.  1.
<mgrwt>
<rscale>  0 0.23737419E+04</rscale>
<asrwt>0</asrwt>
<pdfrwt beam="1">  1        1 0.14735220E+00 0.23737419E+04</pdfrwt>
<pdfrwt beam="2">  1       -2 0.22626826E+00 0.23737419E+04</pdfrwt>
<totfact> 0.11609115E+00</totfact>
</mgrwt>
</event>
<event>
12    4  0.4486176E-008  0.1380821E+04  0.7818608E-02  0.8967819E-01
         -4   -1    0    0    0  501 -0.00000000000E+00  0.00000000000E+00  0.81218815464E+03  0.81218815464E+03  0.00000000000E+00 0.  1.
          3   -1    0    0  501    0  0.00000000000E+00 -0.00000000000E+00 -0.58689224311E+03  0.58689224311E+03  0.00000000000E+00 0. -1.
        -24    2    1    2    0    0 -0.18863528285E+03  0.26588694069E+03 -0.15309437905E+03  0.37655913916E+03  0.10990796705E+03 0.  0.
        254    2    1    2    0    0  0.18863528285E+03 -0.26588694069E+03  0.37839029059E+03  0.10225212586E+04  0.89223952899E+03 0.  0.
         23    2    4    4    0    0 -0.14744190595E+03  0.26417915154E+03  0.11222362203E+03  0.33494780805E+03  0.89811764478E+02 0.  0.
         23    2    4    4    0    0  0.33607718880E+03 -0.53006609223E+03  0.26616666856E+03  0.68757345054E+03  0.89412613546E+02 0.  0.
          1    1    3    3  502    0 -0.19105317856E+03  0.23235894539E+03 -0.16216093303E+03  0.34174283422E+03  0.00000000000E+00 0. -1.
         -2    1    3    3    0  502  0.24178957135E+01  0.33527995304E+02  0.90665539739E+01  0.34816304942E+02  0.00000000000E+00 0.  1.
         11    1    5    5    0    0 -0.11954773001E+03  0.23669919624E+03  0.12580238614E+03  0.29350367904E+03  0.00000000000E+00 0. -1.
        -11    1    5    5    0    0 -0.27894175946E+02  0.27479955300E+02 -0.13578764111E+02  0.41444129015E+02  0.00000000000E+00 0.  1.
          1    1    6    6  503    0  0.29632534555E+03 -0.46827425583E+03  0.26458981731E+03  0.61408245416E+03  0.00000000000E+00 0. -1.
         -1    1    6    6    0  503  0.39751843253E+02 -0.61791836400E+02  0.15768512526E+01  0.73490996371E+02  0.00000000000E+00 0.  1.
<mgrwt>
<rscale>  0 0.13808214E+04</rscale>
<asrwt>0</asrwt>
<pdfrwt beam="1">  1        3 0.90291114E-01 0.13808214E+04</pdfrwt>
<pdfrwt beam="2">  1       -4 0.12495202E+00 0.13808214E+04</pdfrwt>
<totfact> 0.11812978E+00</totfact>
</mgrwt>
</event>
<event>
12    4  0.4486176E-008  0.1972879E+04  0.7818608E-02  0.8619406E-01
         -2   -1    0    0    0  501 -0.00000000000E+00  0.00000000000E+00  0.15179365155E+04  0.15179365155E+04  0.00000000000E+00 0.  1.
          1   -1    0    0  501    0  0.00000000000E+00 -0.00000000000E+00 -0.64104336060E+03  0.64104336060E+03  0.00000000000E+00 0. -1.
        -24    2    1    2    0    0  0.91295423255E+02  0.70277186806E+03  0.71328186451E+03  0.10086205203E+04  0.79505867543E+02 0.  0.
        254    2    1    2    0    0 -0.91295423255E+02 -0.70277186806E+03  0.16361129042E+03  0.11503593558E+04  0.89125464391E+03 0.  0.
         23    2    4    4    0    0  0.22914419513E+03 -0.73850422483E+03  0.22109507191E+03  0.80920668434E+03  0.89648619065E+02 0.  0.
         23    2    4    4    0    0 -0.32043961839E+03  0.35732356773E+02 -0.57483781491E+02  0.34115267146E+03  0.95511306975E+02 0.  0.
          3    1    3    3  502    0  0.21039021093E+02  0.44187520359E+03  0.42335656735E+03  0.61231292577E+03  0.00000000000E+00 0. -1.
         -4    1    3    3    0  502  0.70256402162E+02  0.26089666447E+03  0.28992529717E+03  0.39630759457E+03  0.00000000000E+00 0.  1.
         11    1    5    5    0    0  0.12598828437E+03 -0.27654376818E+03  0.64708370284E+02  0.31070351897E+03  0.00000000000E+00 0.  1.
        -11    1    5    5    0    0  0.10315591076E+03 -0.46196045665E+03  0.15638670163E+03  0.49850316537E+03  0.00000000000E+00 0. -1.
          1    1    6    6  503    0 -0.21586414834E+03  0.45814364445E+02  0.14792337994E+01  0.22067730889E+03  0.00000000000E+00 0. -1.
         -1    1    6    6    0  503 -0.10457547004E+03 -0.10082007672E+02 -0.58963015291E+02  0.12047536257E+03  0.00000000000E+00 0.  1.
<mgrwt>
<rscale>  0 0.19728792E+04</rscale>
<asrwt>0</asrwt>
<pdfrwt beam="1">  1        1 0.98622056E-01 0.19728792E+04</pdfrwt>
<pdfrwt beam="2">  1       -2 0.23352869E+00 0.19728792E+04</pdfrwt>
<totfact> 0.20564083E+00</totfact>
</mgrwt>
</event>
<event>
12    4  0.4486176E-008  0.1514522E+04  0.7818608E-02  0.8874853E-01
          1   -1    0    0  501    0  0.00000000000E+00  0.00000000000E+00  0.41947992190E+03  0.41947992190E+03  0.00000000000E+00 0. -1.
         -2   -1    0    0    0  501 -0.00000000000E+00 -0.00000000000E+00 -0.13670369170E+04  0.13670369170E+04  0.00000000000E+00 0.  1.
        -24    2    1    2    0    0  0.46538572680E+03  0.12967220023E+03 -0.15746797004E+03  0.51458351720E+03  0.81248263714E+02 0.  0.
        254    2    1    2    0    0 -0.46538572680E+03 -0.12967220023E+03 -0.79008902506E+03  0.12719333217E+04  0.87188012543E+03 0.  0.
         23    2    4    4    0    0 -0.66428440598E+03 -0.11384573593E+02 -0.77217467261E+03  0.10228268827E+04  0.92291529775E+02 0.  0.
         23    2    4    4    0    0  0.19889867918E+03 -0.11828762663E+03 -0.17914352446E+02  0.24910643897E+03  0.90445822017E+02 0.  0.
          1    1    3    3  502    0  0.45071020661E+03  0.11165996445E+03 -0.13838775915E+03  0.48451915327E+03  0.00000000000E+00 0. -1.
         -4    1    3    3    0  502  0.14675520194E+02  0.18012235774E+02 -0.19080210892E+02  0.30064363925E+02  0.00000000000E+00 0.  1.
         11    1    5    5    0    0 -0.47189128559E+03  0.25120063159E+02 -0.50562927573E+03  0.69207901822E+03  0.00000000000E+00 0.  1.
        -11    1    5    5    0    0 -0.19239312040E+03 -0.36504636752E+02 -0.26654539688E+03  0.33074786451E+03  0.00000000000E+00 0. -1.
          3    1    6    6  503    0  0.67533238894E+02 -0.69541348211E+02  0.29266101994E+02  0.10125829444E+03  0.00000000000E+00 0. -1.
         -3    1    6    6    0  503  0.13136544029E+03 -0.48746278422E+02 -0.47180454439E+02  0.14784814454E+03  0.00000000000E+00 0.  1.
<mgrwt>
<rscale>  0 0.15145224E+04</rscale>
<asrwt>0</asrwt>
<pdfrwt beam="1">  1        1 0.64535373E-01 0.15145224E+04</pdfrwt>
<pdfrwt beam="2">  1       -2 0.21031337E+00 0.15145224E+04</pdfrwt>
<totfact> 0.54154566E+00</totfact>
</mgrwt>
</event>
<event>
12    4  0.4486176E-008  0.1949047E+04  0.7818608E-02  0.8630821E-01
          1   -1    0    0  501    0  0.00000000000E+00  0.00000000000E+00  0.22653358444E+04  0.22653358444E+04  0.00000000000E+00 0. -1.
         -2   -1    0    0    0  501 -0.00000000000E+00 -0.00000000000E+00 -0.41922957222E+03  0.41922957222E+03  0.00000000000E+00 0.  1.
        -24    2    1    2    0    0 -0.39760596837E+03  0.95053278204E+02 -0.16175928982E+03  0.44741713861E+03  0.83008411003E+02 0.  0.
        254    2    1    2    0    0  0.39760596837E+03 -0.95053278204E+02  0.20078655620E+04  0.22371482780E+04  0.89787675712E+03 0.  0.
         23    2    4    4    0    0  0.23755934568E+03 -0.40230673844E+03  0.16962442191E+04  0.17618155867E+04  0.92003022954E+02 0.  0.
         23    2    4    4    0    0  0.16004662269E+03  0.30725346023E+03  0.31162134293E+03  0.47533269133E+03  0.93881285772E+02 0.  0.
          1    1    3    3  502    0 -0.11742301611E+03  0.19611812008E+01 -0.76320142807E+02  0.14005989841E+03  0.00000000000E+00 0. -1.
         -2    1    3    3    0  502 -0.28018295226E+03  0.93092097003E+02 -0.85439147016E+02  0.30735724020E+03  0.00000000000E+00 0.  1.
         11    1    5    5    0    0  0.17922628446E+03 -0.24844582823E+03  0.12228666877E+04  0.12606547214E+04  0.00000000000E+00 0. -1.
        -11    1    5    5    0    0  0.58333061219E+02 -0.15386091021E+03  0.47337753135E+03  0.50116086530E+03  0.00000000000E+00 0.  1.
          2    1    6    6  503    0  0.25944958502E+02  0.71669319587E+02  0.23559540200E+02  0.79778970765E+02  0.00000000000E+00 0. -1.
         -2    1    6    6    0  503  0.13410166419E+03  0.23558414065E+03  0.28806180273E+03  0.39555372057E+03  0.00000000000E+00 0.  1.
<mgrwt>
<rscale>  0 0.19490467E+04</rscale>
<asrwt>0</asrwt>
<pdfrwt beam="1">  1        1 0.34851320E+00 0.19490467E+04</pdfrwt>
<pdfrwt beam="2">  1       -2 0.64496859E-01 0.19490467E+04</pdfrwt>
<totfact> 0.35719515E+00</totfact>
</mgrwt>
</event>
<event>
12    4  0.4486176E-008  0.1677095E+04  0.7818608E-02  0.8774537E-01
          1   -1    0    0  501    0  0.00000000000E+00  0.00000000000E+00  0.19755972382E+04  0.19755972382E+04  0.00000000000E+00 0. -1.
         -2   -1    0    0    0  501 -0.00000000000E+00 -0.00000000000E+00 -0.35592362624E+03  0.35592362624E+03  0.00000000000E+00 0.  1.
        -24    2    1    2    0    0  0.41485636954E+03 -0.97266076090E+01  0.11744905852E+04  0.12481571885E+04  0.79169552657E+02 0.  0.
        254    2    1    2    0    0 -0.41485636954E+03  0.97266076090E+01  0.44518302679E+03  0.10833636760E+04  0.89626364031E+03 0.  0.
         23    2    4    4    0    0 -0.44050625003E+03 -0.23431066713E+03  0.59514276174E+03  0.78190328614E+03  0.90722637635E+02 0.  0.
         23    2    4    4    0    0  0.25649880487E+02  0.24403727474E+03 -0.14995973495E+03  0.30146038989E+03  0.90434156923E+02 0.  0.
          3    1    3    3  502    0  0.28735091168E+03 -0.26616600828E+02  0.71601878303E+03  0.77198567832E+03  0.00000000000E+00 0. -1.
         -4    1    3    3    0  502  0.12750545786E+03  0.16889993219E+02  0.45847180219E+03  0.47617151013E+03  0.00000000000E+00 0.  1.
         11    1    5    5    0    0 -0.34159866283E+03 -0.19726397906E+03  0.51807845281E+03  0.65115897225E+03  0.00000000000E+00 0. -1.
        -11    1    5    5    0    0 -0.98907587200E+02 -0.37046688071E+02  0.77064308930E+02  0.13074431389E+03  0.00000000000E+00 0.  1.
          3    1    6    6  503    0  0.27431652555E+02  0.25064416956E+03 -0.15188266470E+03  0.29435240637E+03  0.00000000000E+00 0. -1.
         -3    1    6    6    0  503 -0.17817720675E+01 -0.66068948262E+01  0.19229297534E+01  0.71079835243E+01  0.00000000000E+00 0.  1.
<mgrwt>
<rscale>  0 0.16770948E+04</rscale>
<asrwt>0</asrwt>
<pdfrwt beam="1">  1        1 0.30393803E+00 0.16770948E+04</pdfrwt>
<pdfrwt beam="2">  1       -2 0.54757482E-01 0.16770948E+04</pdfrwt>
<totfact> 0.81334471E+00</totfact>
</mgrwt>
</event>
<event>
12    4  0.4486176E-008  0.1612746E+04  0.7818608E-02  0.8812756E-01
         -2   -1    0    0    0  501 -0.00000000000E+00  0.00000000000E+00  0.61233139923E+03  0.61233139923E+03  0.00000000000E+00 0.  1.
          1   -1    0    0  501    0  0.00000000000E+00 -0.00000000000E+00 -0.10619045778E+04  0.10619045778E+04  0.00000000000E+00 0. -1.
        -24    2    1    2    0    0 -0.73578643556E+01  0.40905805674E+03  0.21982220651E+03  0.47148790245E+03  0.81218272129E+02 0.  0.
        254    2    1    2    0    0  0.73578643556E+01 -0.40905805674E+03 -0.66939538505E+03  0.12027480746E+04  0.91166337942E+03 0.  0.
         23    2    4    4    0    0  0.35652643365E+03 -0.42414572120E+03 -0.16970848983E+03  0.58647312331E+03  0.90216750846E+02 0.  0.
         23    2    4    4    0    0 -0.34916856930E+03  0.15087664462E+02 -0.49968689522E+03  0.61627495125E+03  0.89227209336E+02 0.  0.
          1    1    3    3  502    0  0.90407634719E+01  0.31418990344E+03  0.13109475590E+03  0.34056257260E+03  0.00000000000E+00 0. -1.
         -2    1    3    3    0  502 -0.16398627827E+02  0.94868153295E+02  0.88727450609E+02  0.13092532985E+03  0.00000000000E+00 0.  1.
         11    1    5    5    0    0  0.19816572895E+02 -0.65890665854E+02 -0.99751334467E+01  0.69525388854E+02  0.00000000000E+00 0. -1.
        -11    1    5    5    0    0  0.33670986076E+03 -0.35825505535E+03 -0.15973335638E+03  0.51694773445E+03  0.00000000000E+00 0.  1.
          2    1    6    6  503    0 -0.34628986965E+02  0.29970498303E+02 -0.65381930171E+02  0.79826025202E+02  0.00000000000E+00 0. -1.
         -2    1    6    6    0  503 -0.31453958233E+03 -0.14882833840E+02 -0.43430496505E+03  0.53644892605E+03  0.00000000000E+00 0.  1.
<mgrwt>
<rscale>  0 0.16127461E+04</rscale>
<asrwt>0</asrwt>
<pdfrwt beam="1">  1        1 0.16336993E+00 0.16127461E+04</pdfrwt>
<pdfrwt beam="2">  1       -2 0.94204832E-01 0.16127461E+04</pdfrwt>
<totfact> 0.10825815E+01</totfact>
</mgrwt>
</event>
<event>
12    4  0.4486176E-008  0.1495216E+04  0.7818608E-02  0.8887640E-01
          1   -1    0    0  501    0  0.00000000000E+00  0.00000000000E+00  0.26839785514E+03  0.26839785514E+03  0.00000000000E+00 0. -1.
         -2   -1    0    0    0  501 -0.00000000000E+00 -0.00000000000E+00 -0.20824223249E+04  0.20824223249E+04  0.00000000000E+00 0.  1.
        -24    2    1    2    0    0  0.15433051199E+03  0.16534724607E+03 -0.12269129822E+04  0.12502194813E+04  0.81090484760E+02 0.  0.
        254    2    1    2    0    0 -0.15433051199E+03 -0.16534724607E+03 -0.58711148756E+03  0.11006006988E+04  0.90303066428E+03 0.  0.
         23    2    4    4    0    0 -0.17392545862E+03  0.23091878468E+03 -0.62152358270E+03  0.69199677290E+03  0.94838913800E+02 0.  0.
         23    2    4    4    0    0  0.19594946636E+02 -0.39626603075E+03  0.34412095137E+02  0.40860392589E+03  0.91445321908E+02 0.  0.
          3    1    3    3  502    0  0.34583073209E+02  0.26113481430E+01 -0.11565063977E+03  0.12073888591E+03  0.00000000000E+00 0. -1.
         -4    1    3    3    0  502  0.11974743878E+03  0.16273589792E+03 -0.11112623425E+04  0.11294805954E+04  0.00000000000E+00 0.  1.
         11    1    5    5    0    0 -0.15312968802E+03  0.18788311994E+03 -0.42036365658E+03  0.48523640825E+03  0.00000000000E+00 0. -1.
        -11    1    5    5    0    0 -0.20795770601E+02  0.43035664742E+02 -0.20115992612E+03  0.20676036465E+03  0.00000000000E+00 0.  1.
          4    1    6    6  503    0 -0.20998607724E+02 -0.21001593003E+02  0.24694575274E+01  0.29801118360E+02  0.00000000000E+00 0.  1.
         -4    1    6    6    0  503  0.40593554360E+02 -0.37526443775E+03  0.31942637609E+02  0.37880280753E+03  0.00000000000E+00 0. -1.
<mgrwt>
<rscale>  0 0.14952160E+04</rscale>
<asrwt>0</asrwt>
<pdfrwt beam="1">  1        1 0.41291977E-01 0.14952160E+04</pdfrwt>
<pdfrwt beam="2">  1       -2 0.32037267E+00 0.14952160E+04</pdfrwt>
<totfact> 0.20506662E+00</totfact>
</mgrwt>
</event>
<event>
12    4  0.4486176E-008  0.1439262E+04  0.7818608E-02  0.8925879E-01
          1   -1    0    0  501    0  0.00000000000E+00  0.00000000000E+00  0.11643774913E+04  0.11643774913E+04  0.00000000000E+00 0. -1.
         -2   -1    0    0    0  501 -0.00000000000E+00 -0.00000000000E+00 -0.44476040106E+03  0.44476040106E+03  0.00000000000E+00 0.  1.
        -24    2    1    2    0    0 -0.21347313058E+03  0.35020636900E+03  0.42677895146E+02  0.42018250811E+03  0.80725826270E+02 0.  0.
        254    2    1    2    0    0  0.21347313058E+03 -0.35020636900E+03  0.67693919506E+03  0.11889553842E+04  0.88721640736E+03 0.  0.
         23    2    4    4    0    0  0.44889731453E+03 -0.17539240552E+03  0.51514553611E+02  0.49227688316E+03  0.86089985248E+02 0.  0.
         23    2    4    4    0    0 -0.23542418395E+03 -0.17481396348E+03  0.62542464145E+03  0.69667850106E+03  0.90666881970E+02 0.  0.
          3    1    3    3  502    0 -0.11206207055E+02  0.23802143669E+02  0.24196970519E+02  0.35743733745E+02  0.00000000000E+00 0. -1.
         -4    1    3    3    0  502 -0.20226692352E+03  0.32640422533E+03  0.18480924628E+02  0.38443877437E+03  0.00000000000E+00 0.  1.
         11    1    5    5    0    0  0.38529918586E+03 -0.18040533001E+03  0.38626120443E+02  0.42719260633E+03  0.00000000000E+00 0. -1.
        -11    1    5    5    0    0  0.63598128667E+02  0.50129244882E+01  0.12888433167E+02  0.65084276837E+02  0.00000000000E+00 0.  1.
          1    1    6    6  503    0 -0.12631081533E+03 -0.60549450573E+02  0.37793386441E+03  0.40305665098E+03  0.00000000000E+00 0. -1.
         -1    1    6    6    0  503 -0.10911336862E+03 -0.11426451290E+03  0.24749077704E+03  0.29362185008E+03  0.00000000000E+00 0.  1.
<mgrwt>
<rscale>  0 0.14392623E+04</rscale>
<asrwt>0</asrwt>
<pdfrwt beam="1">  1        1 0.17913500E+00 0.14392623E+04</pdfrwt>
<pdfrwt beam="2">  1       -2 0.68424677E-01 0.14392623E+04</pdfrwt>
<totfact> 0.18902997E+01</totfact>
</mgrwt>
</event>
<event>
12    4  0.4486176E-008  0.1887490E+04  0.7818608E-02  0.8661109E-01
          1   -1    0    0  501    0  0.00000000000E+00  0.00000000000E+00  0.22940144252E+04  0.22940144252E+04  0.00000000000E+00 0. -1.
         -2   -1    0    0    0  501 -0.00000000000E+00 -0.00000000000E+00 -0.38825154929E+03  0.38825154929E+03  0.00000000000E+00 0.  1.
        -24    2    1    2    0    0 -0.70398822920E+03  0.16736611303E+03  0.65341214565E+03  0.97818225880E+03  0.79260688319E+02 0.  0.
        254    2    1    2    0    0  0.70398822920E+03 -0.16736611303E+03  0.12523507302E+04  0.17040837157E+04  0.90105944077E+03 0.  0.
         23    2    4    4    0    0  0.30152123179E+03  0.21505185162E+03  0.60363292444E+02  0.38613154297E+03  0.91057615255E+02 0.  0.
         23    2    4    4    0    0  0.40246699741E+03 -0.38241796465E+03  0.11919874378E+04  0.13179521727E+04  0.89110571498E+02 0.  0.
          1    1    3    3  502    0 -0.37874222021E+03  0.12010100563E+03  0.39302755451E+03  0.55887438619E+03  0.00000000000E+00 0. -1.
         -2    1    3    3    0  502 -0.32524600899E+03  0.47265107399E+02  0.26038459113E+03  0.41930787262E+03  0.00000000000E+00 0.  1.
         11    1    5    5    0    0  0.28743680872E+03  0.18323711542E+03  0.34174381518E+02  0.34258378220E+03  0.00000000000E+00 0. -1.
        -11    1    5    5    0    0  0.14084423073E+02  0.31814736194E+02  0.26188910926E+02  0.43547760768E+02  0.00000000000E+00 0.  1.
          3    1    6    6  503    0  0.32723458909E+03 -0.35130033881E+03  0.99365236227E+03  0.11035576203E+04  0.00000000000E+00 0. -1.
         -3    1    6    6    0  503  0.75232408315E+02 -0.31117625845E+02  0.19833507552E+03  0.21439455236E+03  0.00000000000E+00 0.  1.
<mgrwt>
<rscale>  0 0.18874900E+04</rscale>
<asrwt>0</asrwt>
<pdfrwt beam="1">  1        1 0.35292529E+00 0.18874900E+04</pdfrwt>
<pdfrwt beam="2">  1       -2 0.59731009E-01 0.18874900E+04</pdfrwt>
<totfact> 0.40426400E+00</totfact>
</mgrwt>
</event>
<event>
12    4  0.4486176E-008  0.1496179E+04  0.7818608E-02  0.8886998E-01
         -2   -1    0    0    0  501 -0.00000000000E+00  0.00000000000E+00  0.53671648909E+03  0.53671648909E+03  0.00000000000E+00 0.  1.
          1   -1    0    0  501    0  0.00000000000E+00 -0.00000000000E+00 -0.10427066912E+04  0.10427066912E+04  0.00000000000E+00 0. -1.
        -24    2    1    2    0    0  0.15447977236E+03  0.14204335171E+03 -0.65913710918E+03  0.69735601720E+03  0.88336697914E+02 0.  0.
        254    2    1    2    0    0 -0.15447977236E+03 -0.14204335171E+03  0.15314690707E+03  0.88206716309E+03  0.84294020620E+03 0.  0.
         23    2    4    4    0    0  0.28144458854E+03 -0.22105884930E+03 -0.71204166065E+02  0.37706880187E+03  0.95040921768E+02 0.  0.
         23    2    4    4    0    0 -0.43592436089E+03  0.79015497585E+02  0.22435107314E+03  0.50499836122E+03  0.91741176909E+02 0.  0.
          3    1    3    3  502    0  0.37949846878E+02  0.39726756032E+02 -0.31686500220E+03  0.32159265483E+03  0.00000000000E+00 0. -1.
         -2    1    3    3    0  502  0.11652992548E+03  0.10231659568E+03 -0.34227210698E+03  0.37576336237E+03  0.00000000000E+00 0.  1.
         11    1    5    5    0    0  0.23986982748E+03 -0.21686840325E+03 -0.82605108108E+02  0.33375596227E+03  0.00000000000E+00 0. -1.
        -11    1    5    5    0    0  0.41574761057E+02 -0.41904460455E+01  0.11400942043E+02  0.43312839603E+02  0.00000000000E+00 0.  1.
          3    1    6    6  503    0 -0.38171288311E+03  0.36641491167E+02  0.19486856511E+03  0.43014076960E+03  0.00000000000E+00 0. -1.
         -3    1    6    6    0  503 -0.54211477783E+02  0.42374006418E+02  0.29482508027E+02  0.74857591619E+02  0.00000000000E+00 0.  1.
<mgrwt>
<rscale>  0 0.14961790E+04</rscale>
<asrwt>0</asrwt>
<pdfrwt beam="1">  1        1 0.16041641E+00 0.14961790E+04</pdfrwt>
<pdfrwt beam="2">  1       -2 0.82571767E-01 0.14961790E+04</pdfrwt>
<totfact> 0.15307149E+01</totfact>
</mgrwt>
</event>
<event>
12    4  0.4486176E-008  0.1337102E+04  0.7818608E-02  0.9000649E-01
          1   -1    0    0  501    0  0.00000000000E+00  0.00000000000E+00  0.17485938624E+04  0.17485938624E+04  0.00000000000E+00 0. -1.
         -2   -1    0    0    0  501 -0.00000000000E+00 -0.00000000000E+00 -0.25561149506E+03  0.25561149506E+03  0.00000000000E+00 0.  1.
        -24    2    1    2    0    0 -0.35430180599E+03  0.60210796154E+02  0.43465363693E+03  0.56963028385E+03  0.79998540542E+02 0.  0.
        254    2    1    2    0    0  0.35430180599E+03 -0.60210796154E+02  0.10583287304E+04  0.14345750736E+04  0.89932798829E+03 0.  0.
         23    2    4    4    0    0  0.21959492033E+03 -0.29383984652E+03  0.42898984060E+02  0.37978955430E+03  0.88521174200E+02 0.  0.
         23    2    4    4    0    0  0.13470688566E+03  0.23362905037E+03  0.10154297464E+04  0.10547855193E+04  0.93522423833E+02 0.  0.
          1    1    3    3  502    0 -0.23201004961E+03  0.71317500809E+02  0.31991077539E+03  0.40156911391E+03  0.00000000000E+00 0. -1.
         -4    1    3    3    0  502 -0.12229175639E+03 -0.11106704655E+02  0.11474286154E+03  0.16806116994E+03  0.00000000000E+00 0.  1.
         11    1    5    5    0    0  0.73155669420E+02 -0.13376219985E+03 -0.20328587885E+02  0.15380939361E+03  0.00000000000E+00 0. -1.
        -11    1    5    5    0    0  0.14643925091E+03 -0.16007764668E+03  0.63227571946E+02  0.22598016069E+03  0.00000000000E+00 0.  1.
          4    1    6    6  503    0  0.10615315002E+03  0.23248886383E+03  0.93996941889E+03  0.97409551457E+03  0.00000000000E+00 0. -1.
         -4    1    6    6    0  503  0.28553735647E+02  0.11401865392E+01  0.75460327490E+02  0.80690004769E+02  0.00000000000E+00 0.  1.
<mgrwt>
<rscale>  0 0.13371024E+04</rscale>
<asrwt>0</asrwt>
<pdfrwt beam="1">  1        1 0.26901443E+00 0.13371024E+04</pdfrwt>
<pdfrwt beam="2">  1       -2 0.39324847E-01 0.13371024E+04</pdfrwt>
<totfact> 0.23227449E+01</totfact>
</mgrwt>
</event>
<event>
12    4  0.4486176E-008  0.1996410E+04  0.7818608E-02  0.8608301E-01
          1   -1    0    0  501    0  0.00000000000E+00  0.00000000000E+00  0.16891135827E+04  0.16891135827E+04  0.00000000000E+00 0. -1.
         -2   -1    0    0    0  501 -0.00000000000E+00 -0.00000000000E+00 -0.58990282628E+03  0.58990282628E+03  0.00000000000E+00 0.  1.
        -24    2    1    2    0    0  0.29398950837E+02 -0.17233301967E+03  0.13202914016E+04  0.13341779044E+04  0.79362003317E+02 0.  0.
        254    2    1    2    0    0 -0.29398950837E+02  0.17233301967E+03 -0.22108064517E+03  0.94483850455E+03  0.90182048104E+03 0.  0.
         23    2    4    4    0    0  0.16780567678E+03  0.47568734296E+03 -0.22189042918E+01  0.51260547174E+03  0.91226381679E+02 0.  0.
         23    2    4    4    0    0 -0.19720462762E+03 -0.30335432328E+03 -0.21886174088E+03  0.43223303281E+03  0.89506549611E+02 0.  0.
          3    1    3    3  502    0  0.49682748643E+02 -0.95713944889E+02  0.90390858304E+03  0.91031876903E+03  0.00000000000E+00 0. -1.
         -4    1    3    3    0  502 -0.20283797806E+02 -0.76619074785E+02  0.41638281851E+03  0.42385913536E+03  0.00000000000E+00 0.  1.
         11    1    5    5    0    0  0.16226220397E+03  0.45663254863E+03 -0.21303035244E+02  0.48507332086E+03  0.00000000000E+00 0. -1.
        -11    1    5    5    0    0  0.55434728080E+01  0.19054794328E+02  0.19084130952E+02  0.27532150876E+02  0.00000000000E+00 0.  1.
          1    1    6    6  503    0 -0.11723318644E+03 -0.24623324376E+03 -0.14201084888E+03  0.30747603409E+03  0.00000000000E+00 0. -1.
         -1    1    6    6    0  503 -0.79971441180E+02 -0.57121079518E+02 -0.76850891997E+02  0.12475699872E+03  0.00000000000E+00 0.  1.
<mgrwt>
<rscale>  0 0.19964097E+04</rscale>
<asrwt>0</asrwt>
<pdfrwt beam="1">  1        1 0.25986363E+00 0.19964097E+04</pdfrwt>
<pdfrwt beam="2">  1       -2 0.90754282E-01 0.19964097E+04</pdfrwt>
<totfact> 0.40943128E+00</totfact>
</mgrwt>
</event>
<event>
12    4  0.4486176E-008  0.1446255E+04  0.7818608E-02  0.8921001E-01
         -2   -1    0    0    0  501 -0.00000000000E+00  0.00000000000E+00  0.64237469695E+03  0.64237469695E+03  0.00000000000E+00 0.  1.
          1   -1    0    0  501    0  0.00000000000E+00 -0.00000000000E+00 -0.81403221361E+03  0.81403221361E+03  0.00000000000E+00 0. -1.
        -24    2    1    2    0    0 -0.12156126647E+03 -0.38848438475E+03 -0.21546464132E+03  0.46749718167E+03  0.80195663869E+02 0.  0.
        254    2    1    2    0    0  0.12156126647E+03  0.38848438475E+03  0.43807124658E+02  0.98890972889E+03  0.90018116455E+03 0.  0.
         23    2    4    4    0    0  0.12453842090E+03  0.30553726433E+03 -0.40093891923E+03  0.52741584932E+03  0.92480392427E+02 0.  0.
         23    2    4    4    0    0 -0.29771544262E+01  0.82947120421E+02  0.44474604389E+03  0.46149387957E+03  0.91041029713E+02 0.  0.
          1    1    3    3  502    0 -0.11374283166E+03 -0.23459711109E+03 -0.13094350411E+03  0.29175235655E+03  0.00000000000E+00 0. -1.
         -2    1    3    3    0  502 -0.78184348090E+01 -0.15388727366E+03 -0.84521137213E+02  0.17574482511E+03  0.00000000000E+00 0.  1.
         11    1    5    5    0    0  0.38555526790E+02  0.65737613093E+02 -0.15790049359E+03  0.17532977014E+03  0.00000000000E+00 0. -1.
        -11    1    5    5    0    0  0.85982894106E+02  0.23979965124E+03 -0.24303842564E+03  0.35208607918E+03  0.00000000000E+00 0.  1.
          3    1    6    6  503    0 -0.20512803471E+02  0.97926506034E+02  0.35464241914E+03  0.36848557793E+03  0.00000000000E+00 0. -1.
         -3    1    6    6    0  503  0.17535649044E+02 -0.14979385613E+02  0.90103624751E+02  0.93008301640E+02  0.00000000000E+00 0.  1.
<mgrwt>
<rscale>  0 0.14462554E+04</rscale>
<asrwt>0</asrwt>
<pdfrwt beam="1">  1        1 0.12523573E+00 0.14462554E+04</pdfrwt>
<pdfrwt beam="2">  1       -2 0.98826876E-01 0.14462554E+04</pdfrwt>
<totfact> 0.15542090E+01</totfact>
</mgrwt>
</event>
<event>
12    4  0.4486176E-008  0.1650538E+04  0.7818608E-02  0.8790088E-01
         -2   -1    0    0    0  501 -0.00000000000E+00  0.00000000000E+00  0.76892262884E+03  0.76892262884E+03  0.00000000000E+00 0.  1.
          1   -1    0    0  501    0  0.00000000000E+00 -0.00000000000E+00 -0.88574479626E+03  0.88574479626E+03  0.00000000000E+00 0. -1.
        -24    2    1    2    0    0 -0.31767432238E+03  0.38206635159E+03 -0.33438514875E+03  0.60472855782E+03  0.83615362378E+02 0.  0.
        254    2    1    2    0    0  0.31767432238E+03 -0.38206635159E+03  0.21756298133E+03  0.10499388673E+04  0.89896957794E+03 0.  0.
         23    2    4    4    0    0 -0.42255079243E+01  0.14903131172E+03 -0.22319984279E+03  0.28313650378E+03  0.90110616230E+02 0.  0.
         23    2    4    4    0    0  0.32189983030E+03 -0.53109766331E+03  0.44076282412E+03  0.76680236350E+03  0.89608977315E+02 0.  0.
          3    1    3    3  502    0 -0.13026224300E+03  0.14369001238E+03 -0.83455057153E+02  0.21113933355E+03  0.00000000000E+00 0. -1.
         -4    1    3    3    0  502 -0.18741207938E+03  0.23837633921E+03 -0.25093009159E+03  0.39358922427E+03  0.00000000000E+00 0.  1.
         11    1    5    5    0    0 -0.29467879814E+02  0.14482233941E+03 -0.19932675515E+03  0.24813911673E+03  0.00000000000E+00 0.  1.
        -11    1    5    5    0    0  0.25242371889E+02  0.42089723137E+01 -0.23873087638E+02  0.34997387044E+02  0.00000000000E+00 0. -1.
          3    1    6    6  503    0  0.49769201898E+02 -0.45590415627E+02  0.24565330493E+02  0.71825586784E+02  0.00000000000E+00 0. -1.
         -3    1    6    6    0  503  0.27213062841E+03 -0.48550724769E+03  0.41619749363E+03  0.69497677672E+03  0.00000000000E+00 0.  1.
<mgrwt>
<rscale>  0 0.16505384E+04</rscale>
<asrwt>0</asrwt>
<pdfrwt beam="1">  1        1 0.13626843E+00 0.16505384E+04</pdfrwt>
<pdfrwt beam="2">  1       -2 0.11829579E+00 0.16505384E+04</pdfrwt>
<totfact> 0.86123370E+00</totfact>
</mgrwt>
</event>
<event>
12    4  0.4486176E-008  0.3295242E+04  0.7818608E-02  0.8164107E-01
          1   -1    0    0  501    0  0.00000000000E+00  0.00000000000E+00  0.24758124880E+04  0.24758124880E+04  0.00000000000E+00 0. -1.
         -2   -1    0    0    0  501 -0.00000000000E+00 -0.00000000000E+00 -0.10964706395E+04  0.10964706395E+04  0.00000000000E+00 0.  1.
        -24    2    1    2    0    0 -0.10898500966E+04  0.96149039073E+03  0.11311840437E+04  0.18435169971E+04  0.82100995859E+02 0.  0.
        254    2    1    2    0    0  0.10898500966E+04 -0.96149039073E+03  0.24815780476E+03  0.17287661304E+04  0.90266994685E+03 0.  0.
         23    2    4    4    0    0  0.76119223978E+03 -0.19613138405E+03 -0.14298928489E+03  0.80410148373E+03  0.90841151620E+02 0.  0.
         23    2    4    4    0    0  0.32865785683E+03 -0.76535900668E+03  0.39114708965E+03  0.92466464665E+03  0.90654658287E+02 0.  0.
          1    1    3    3  502    0 -0.83635779905E+03  0.72400555482E+03  0.81763898648E+03  0.13755769421E+04  0.00000000000E+00 0. -1.
         -2    1    3    3    0  502 -0.25349229755E+03  0.23748483591E+03  0.31354505722E+03  0.46794005504E+03  0.00000000000E+00 0.  1.
         11    1    5    5    0    0  0.15495227798E+03 -0.78577590992E+02 -0.29246331109E+02  0.17618170773E+03  0.00000000000E+00 0. -1.
        -11    1    5    5    0    0  0.60623996180E+03 -0.11755379306E+03 -0.11374295378E+03  0.62791977599E+03  0.00000000000E+00 0.  1.
          3    1    6    6  503    0  0.14712266825E+03 -0.43930521406E+03  0.24303228822E+03  0.52316234931E+03  0.00000000000E+00 0. -1.
         -3    1    6    6    0  503  0.18153518857E+03 -0.32605379262E+03  0.14811480143E+03  0.40150229735E+03  0.00000000000E+00 0.  1.
<mgrwt>
<rscale>  0 0.32952425E+04</rscale>
<asrwt>0</asrwt>
<pdfrwt beam="1">  1        1 0.38089423E+00 0.32952425E+04</pdfrwt>
<pdfrwt beam="2">  1       -2 0.16868779E+00 0.32952425E+04</pdfrwt>
<totfact> 0.22389423E-01</totfact>
</mgrwt>
</event>
<event>
12    4  0.4486176E-008  0.1861694E+04  0.7818608E-02  0.8674162E-01
          1   -1    0    0  501    0  0.00000000000E+00  0.00000000000E+00  0.94221342267E+03  0.94221342267E+03  0.00000000000E+00 0. -1.
         -2   -1    0    0    0  501 -0.00000000000E+00 -0.00000000000E+00 -0.91961791957E+03  0.91961791957E+03  0.00000000000E+00 0.  1.
        -24    2    1    2    0    0 -0.60019945681E+03  0.33491641784E+03  0.19657541688E+03  0.72093028948E+03  0.93221203945E+02 0.  0.
        254    2    1    2    0    0  0.60019945681E+03 -0.33491641784E+03 -0.17397991378E+03  0.11409010528E+04  0.89385558505E+03 0.  0.
         23    2    4    4    0    0  0.36022622397E+03 -0.56891818863E+03 -0.33610086974E+03  0.75758549438E+03  0.86839788532E+02 0.  0.
         23    2    4    4    0    0  0.23997323284E+03  0.23400177078E+03  0.16212095596E+03  0.38331555839E+03  0.91124265322E+02 0.  0.
          3    1    3    3  502    0 -0.60311679460E+02  0.27489179203E+02 -0.81670556235E+01  0.66782141701E+02  0.00000000000E+00 0. -1.
         -4    1    3    3    0  502 -0.53988777735E+03  0.30742723864E+03  0.20474247251E+03  0.65414814777E+03  0.00000000000E+00 0.  1.
         11    1    5    5    0    0  0.21738229391E+03 -0.29794389179E+03 -0.22335334526E+03  0.43117553409E+03  0.00000000000E+00 0.  1.
        -11    1    5    5    0    0  0.14284393006E+03 -0.27097429683E+03 -0.11274752449E+03  0.32640996029E+03  0.00000000000E+00 0. -1.
          3    1    6    6  503    0  0.19390309979E+03  0.20966413250E+03  0.10080471275E+03  0.30285153240E+03  0.00000000000E+00 0. -1.
         -3    1    6    6    0  503  0.46070133050E+02  0.24337638286E+02  0.61316243212E+02  0.80464025988E+02  0.00000000000E+00 0.  1.
<mgrwt>
<rscale>  0 0.18616942E+04</rscale>
<asrwt>0</asrwt>
<pdfrwt beam="1">  1        1 0.14495591E+00 0.18616942E+04</pdfrwt>
<pdfrwt beam="2">  1       -2 0.14147968E+00 0.18616942E+04</pdfrwt>
<totfact> 0.48336502E+00</totfact>
</mgrwt>
</event>
<event>
12    4  0.4486176E-008  0.1321337E+04  0.7818608E-02  0.9012814E-01
         -2   -1    0    0    0  501 -0.00000000000E+00  0.00000000000E+00  0.13041592431E+04  0.13041592431E+04  0.00000000000E+00 0.  1.
          1   -1    0    0  501    0  0.00000000000E+00 -0.00000000000E+00 -0.33468504097E+03  0.33468504097E+03  0.00000000000E+00 0. -1.
        -24    2    1    2    0    0 -0.35972359213E+02  0.21391163026E+03 -0.76183977429E+02  0.24300567436E+03  0.78711899767E+02 0.  0.
        254    2    1    2    0    0  0.35972359213E+02 -0.21391163026E+03  0.10456581795E+04  0.13958386097E+04  0.89883936254E+03 0.  0.
         23    2    4    4    0    0 -0.32317836365E+03 -0.29407469546E+03  0.87232295790E+03  0.97997942819E+03  0.92131186668E+02 0.  0.
         23    2    4    4    0    0  0.35915072286E+03  0.80163065200E+02  0.17333522162E+03  0.41585918147E+03  0.86477748637E+02 0.  0.
          3    1    3    3  502    0 -0.19931822074E+02  0.15698052433E+03 -0.16699236639E+02  0.15911953700E+03  0.00000000000E+00 0. -1.
         -4    1    3    3    0  502 -0.16040537140E+02  0.56931105930E+02 -0.59484740789E+02  0.83886137358E+02  0.00000000000E+00 0.  1.
         11    1    5    5    0    0 -0.23859222005E+03 -0.26043012386E+03  0.73131425783E+03  0.81213954502E+03  0.00000000000E+00 0. -1.
        -11    1    5    5    0    0 -0.84586143601E+02 -0.33644571608E+02  0.14100870007E+03  0.16783988318E+03  0.00000000000E+00 0.  1.
          4    1    6    6  503    0  0.33209829658E+03  0.96072194729E+02  0.15053452159E+03  0.37706735126E+03  0.00000000000E+00 0. -1.
         -4    1    6    6    0  503  0.27052426279E+02 -0.15909129529E+02  0.22800700027E+02  0.38791830218E+02  0.00000000000E+00 0.  1.
<mgrwt>
<rscale>  0 0.13213366E+04</rscale>
<asrwt>0</asrwt>
<pdfrwt beam="1">  1        1 0.51490007E-01 0.13213366E+04</pdfrwt>
<pdfrwt beam="2">  1       -2 0.20063988E+00 0.13213366E+04</pdfrwt>
<totfact> 0.85643973E+00</totfact>
</mgrwt>
</event>
<event>
12    4  0.4486176E-008  0.2382884E+04  0.7818608E-02  0.8445940E-01
          3   -1    0    0  501    0  0.00000000000E+00  0.00000000000E+00  0.17697631616E+04  0.17697631616E+04  0.00000000000E+00 0. -1.
         -4   -1    0    0    0  501 -0.00000000000E+00 -0.00000000000E+00 -0.80210373837E+03  0.80210373837E+03  0.00000000000E+00 0.  1.
        -24    2    1    2    0    0 -0.26850555780E+03  0.14965670815E+02  0.14840910609E+04  0.15106024936E+04  0.84109517382E+02 0.  0.
        254    2    1    2    0    0  0.26850555780E+03 -0.14965670815E+02 -0.51643163764E+03  0.10612644063E+04  0.88727746388E+03 0.  0.
         23    2    4    4    0    0  0.51211599212E+03  0.23020809089E+03 -0.32698882611E+03  0.65672202912E+03  0.95412664960E+02 0.  0.
         23    2    4    4    0    0 -0.24361043432E+03 -0.24517376170E+03 -0.18944281153E+03  0.40454237721E+03  0.91157769734E+02 0.  0.
          1    1    3    3  502    0 -0.24313989128E+03 -0.13648413070E+02  0.12864447652E+04  0.13092911899E+04  0.00000000000E+00 0. -1.
         -2    1    3    3    0  502 -0.25365666527E+02  0.28614083885E+02  0.19764629562E+03  0.20131130373E+03  0.00000000000E+00 0.  1.
         11    1    5    5    0    0  0.46387525657E+03  0.17477704012E+03 -0.29219979288E+03  0.57541983488E+03  0.00000000000E+00 0. -1.
        -11    1    5    5    0    0  0.48240735548E+02  0.55431050766E+02 -0.34789033234E+02  0.81302194242E+02  0.00000000000E+00 0.  1.
          4    1    6    6  503    0 -0.20788964834E+03 -0.15599482019E+03 -0.12168420176E+03  0.28698350958E+03  0.00000000000E+00 0. -1.
         -4    1    6    6    0  503 -0.35720785974E+02 -0.89178941516E+02 -0.67758609767E+02  0.11755886763E+03  0.00000000000E+00 0.  1.
<mgrwt>
<rscale>  0 0.23828837E+04</rscale>
<asrwt>0</asrwt>
<pdfrwt beam="1">  1        3 0.27227126E+00 0.23828837E+04</pdfrwt>
<pdfrwt beam="2">  1       -4 0.12340058E+00 0.23828837E+04</pdfrwt>
<totfact> 0.56101876E-02</totfact>
</mgrwt>
</event>
<event>
12    4  0.4486176E-008  0.2450381E+04  0.7818608E-02  0.8420879E-01
         -2   -1    0    0    0  501 -0.00000000000E+00  0.00000000000E+00  0.11407697679E+04  0.11407697679E+04  0.00000000000E+00 0.  1.
          1   -1    0    0  501    0  0.00000000000E+00 -0.00000000000E+00 -0.13158591323E+04  0.13158591323E+04  0.00000000000E+00 0. -1.
        -24    2    1    2    0    0  0.75217149223E+03  0.55091469193E+02  0.67687123243E+03  0.10163714405E+04  0.77840966773E+02 0.  0.
        254    2    1    2    0    0 -0.75217149223E+03 -0.55091469193E+02 -0.85196059682E+03  0.14402574597E+04  0.88301057066E+03 0.  0.
         23    2    4    4    0    0 -0.12511551569E+03 -0.39119850006E+03 -0.45708359706E+03  0.62152219643E+03  0.93135746295E+02 0.  0.
         23    2    4    4    0    0 -0.62705597654E+03  0.33610703087E+03 -0.39487699976E+03  0.81873526324E+03  0.90732862906E+02 0.  0.
          1    1    3    3  502    0  0.30238245099E+03  0.23528105303E+02  0.22175728982E+03  0.37571932875E+03  0.00000000000E+00 0. -1.
         -2    1    3    3    0  502  0.44978904124E+03  0.31563363890E+02  0.45511394261E+03  0.64065211177E+03  0.00000000000E+00 0.  1.
         11    1    5    5    0    0 -0.35354940728E+02 -0.69622420290E+02 -0.14406871211E+03  0.16386899356E+03  0.00000000000E+00 0. -1.
        -11    1    5    5    0    0 -0.89760574959E+02 -0.32157607977E+03 -0.31301488495E+03  0.45765320287E+03  0.00000000000E+00 0.  1.
          4    1    6    6  503    0 -0.23651413280E+03  0.12921276732E+03 -0.10013743923E+03  0.28751066238E+03  0.00000000000E+00 0. -1.
         -4    1    6    6    0  503 -0.39054184375E+03  0.20689426355E+03 -0.29473956053E+03  0.53122460085E+03  0.00000000000E+00 0.  1.
<mgrwt>
<rscale>  0 0.24503815E+04</rscale>
<asrwt>0</asrwt>
<pdfrwt beam="1">  1        1 0.20243987E+00 0.24503815E+04</pdfrwt>
<pdfrwt beam="2">  1       -2 0.17550304E+00 0.24503815E+04</pdfrwt>
<totfact> 0.13449484E+00</totfact>
</mgrwt>
</event>
<event>
12    4  0.4486176E-008  0.1801017E+04  0.7818608E-02  0.8705759E-01
          1   -1    0    0  501    0  0.00000000000E+00  0.00000000000E+00  0.72396839863E+03  0.72396839863E+03  0.00000000000E+00 0. -1.
         -2   -1    0    0    0  501 -0.00000000000E+00 -0.00000000000E+00 -0.11200976797E+04  0.11200976797E+04  0.00000000000E+00 0.  1.
        -24    2    1    2    0    0 -0.41189074499E+03 -0.53463058321E+03 -0.19316447975E+03  0.70626623886E+03  0.77560541564E+02 0.  0.
        254    2    1    2    0    0  0.41189074499E+03  0.53463058321E+03 -0.20296480130E+03  0.11377998395E+04  0.89325803539E+03 0.  0.
         23    2    4    4    0    0  0.23263491064E+03  0.44831273019E+03  0.29512809607E+03  0.59199940712E+03  0.90881237017E+02 0.  0.
         23    2    4    4    0    0  0.17925583435E+03  0.86317853021E+02 -0.49809289737E+03  0.54580043234E+03  0.10108487343E+03 0.  0.
          1    1    3    3  502    0 -0.36936683550E+02 -0.22505871165E+02 -0.23690001077E+02  0.49315808618E+02  0.00000000000E+00 0. -1.
         -2    1    3    3    0  502 -0.37495406144E+03 -0.51212471204E+03 -0.16947447867E+03  0.65695043024E+03  0.00000000000E+00 0.  1.
         11    1    5    5    0    0  0.22985275853E+03  0.40625004867E+03  0.29003634580E+03  0.54953841952E+03  0.00000000000E+00 0.  1.
        -11    1    5    5    0    0  0.27821521130E+01  0.42062681517E+02  0.50917502717E+01  0.42460987595E+02  0.00000000000E+00 0. -1.
          4    1    6    6  503    0  0.29776895958E+02 -0.18879105577E+01 -0.16962070029E+02  0.34321124090E+02  0.00000000000E+00 0. -1.
         -4    1    6    6    0  503  0.14947893839E+03  0.88205763578E+02 -0.48113082734E+03  0.51147930825E+03  0.00000000000E+00 0.  1.
<mgrwt>
<rscale>  0 0.18010167E+04</rscale>
<asrwt>0</asrwt>
<pdfrwt beam="1">  1        1 0.11137975E+00 0.18010167E+04</pdfrwt>
<pdfrwt beam="2">  1       -2 0.17232272E+00 0.18010167E+04</pdfrwt>
<totfact> 0.43846557E+00</totfact>
</mgrwt>
</event>
<event>
12    4  0.4486176E-008  0.3099225E+04  0.7818608E-02  0.8215951E-01
         -2   -1    0    0    0  501 -0.00000000000E+00  0.00000000000E+00  0.17884328628E+04  0.17884328628E+04  0.00000000000E+00 0.  1.
          1   -1    0    0  501    0  0.00000000000E+00 -0.00000000000E+00 -0.13426834078E+04  0.13426834078E+04  0.00000000000E+00 0. -1.
        -24    2    1    2    0    0  0.30471863426E+03  0.57827196309E+03 -0.10698202929E+04  0.12561800972E+04  0.78873748880E+02 0.  0.
        254    2    1    2    0    0 -0.30471863426E+03 -0.57827196309E+03  0.15155697478E+04  0.18749361733E+04  0.88948416752E+03 0.  0.
         23    2    4    4    0    0 -0.55207557124E+03 -0.57973159536E+03  0.13234346625E+04  0.15493380442E+04  0.89960603758E+02 0.  0.
         23    2    4    4    0    0  0.24735693698E+03  0.14596322763E+01  0.19213508535E+03  0.32559812919E+03  0.88941924384E+02 0.  0.
          1    1    3    3  502    0  0.15614826255E+03  0.35335987212E+03 -0.57548460399E+03  0.69312914277E+03  0.00000000000E+00 0. -1.
         -2    1    3    3    0  502  0.14857037171E+03  0.22491209097E+03 -0.49433568889E+03  0.56305095447E+03  0.00000000000E+00 0.  1.
         11    1    5    5    0    0 -0.21326991758E+03 -0.17236036299E+03  0.49730774744E+03  0.56789712813E+03  0.00000000000E+00 0.  1.
        -11    1    5    5    0    0 -0.33880565366E+03 -0.40737123238E+03  0.82612691503E+03  0.98144091602E+03  0.00000000000E+00 0. -1.
          4    1    6    6  503    0  0.18705590831E+03  0.39565377476E+02  0.14717149853E+03  0.24127739618E+03  0.00000000000E+00 0. -1.
         -4    1    6    6    0  503  0.60301028667E+02 -0.38105745200E+02  0.44963586820E+02  0.84320733010E+02  0.00000000000E+00 0.  1.
<mgrwt>
<rscale>  0 0.30992251E+04</rscale>
<asrwt>0</asrwt>
<pdfrwt beam="1">  1        1 0.20656668E+00 0.30992251E+04</pdfrwt>
<pdfrwt beam="2">  1       -2 0.27514352E+00 0.30992251E+04</pdfrwt>
<totfact> 0.28172727E-01</totfact>
</mgrwt>
</event>
<event>
12    4  0.4486176E-008  0.2240991E+04  0.7818608E-02  0.8501558E-01
          1   -1    0    0  501    0  0.00000000000E+00  0.00000000000E+00  0.19196524828E+04  0.19196524828E+04  0.00000000000E+00 0. -1.
         -2   -1    0    0    0  501 -0.00000000000E+00 -0.00000000000E+00 -0.65402993321E+03  0.65402993321E+03  0.00000000000E+00 0.  1.
        -24    2    1    2    0    0  0.57104636308E+02 -0.91856803253E+03  0.45698293748E+03  0.10305530845E+04  0.78600794419E+02 0.  0.
        254    2    1    2    0    0 -0.57104636308E+02  0.91856803253E+03  0.80863961214E+03  0.15431293316E+04  0.93825473181E+03 0.  0.
         23    2    4    4    0    0 -0.29187632004E+03  0.37584458763E+03  0.81112914912E+03  0.94483080536E+03  0.91234938160E+02 0.  0.
         23    2    4    4    0    0  0.23477168373E+03  0.54272344490E+03 -0.24895369846E+01  0.59829852622E+03  0.91040911409E+02 0.  0.
          1    1    3    3  502    0  0.11711551751E+01 -0.17857276579E+03  0.56619701173E+02  0.18733764930E+03  0.00000000000E+00 0. -1.
         -2    1    3    3    0  502  0.55933481133E+02 -0.73999526674E+03  0.40036323631E+03  0.84321543516E+03  0.00000000000E+00 0.  1.
         11    1    5    5    0    0 -0.26084414688E+03  0.36095008453E+03  0.71104907214E+03  0.83899667191E+03  0.00000000000E+00 0.  1.
        -11    1    5    5    0    0 -0.31032173165E+02  0.14894503103E+02  0.10008007698E+03  0.10583413345E+03  0.00000000000E+00 0. -1.
          2    1    6    6  503    0  0.73751146971E+02  0.13865490744E+03 -0.38937484038E+02  0.16180402560E+03  0.00000000000E+00 0.  1.
         -2    1    6    6    0  503  0.16102053676E+03  0.40406853746E+03  0.36447947053E+02  0.43649450062E+03  0.00000000000E+00 0. -1.
<mgrwt>
<rscale>  0 0.22409910E+04</rscale>
<asrwt>0</asrwt>
<pdfrwt beam="1">  1        1 0.29533115E+00 0.22409910E+04</pdfrwt>
<pdfrwt beam="2">  1       -2 0.10061999E+00 0.22409910E+04</pdfrwt>
<totfact> 0.21945872E+00</totfact>
</mgrwt>
</event>
<event>
12    4  0.4486176E-008  0.1535855E+04  0.7818608E-02  0.8860954E-01
          3   -1    0    0  501    0  0.00000000000E+00  0.00000000000E+00  0.65405351672E+03  0.65405351672E+03  0.00000000000E+00 0. -1.
         -2   -1    0    0    0  501 -0.00000000000E+00 -0.00000000000E+00 -0.90162721566E+03  0.90162721566E+03  0.00000000000E+00 0.  1.
        -24    2    1    2    0    0 -0.40061134257E+03  0.29612949026E+03 -0.21903258652E+03  0.55105402372E+03  0.86620668973E+02 0.  0.
        254    2    1    2    0    0  0.40061134257E+03 -0.29612949026E+03 -0.28541112426E+02  0.10046267087E+04  0.87193927877E+03 0.  0.
         23    2    4    4    0    0  0.59065751479E+03 -0.27502855205E+03 -0.24470099498E+03  0.70195161148E+03  0.91326248656E+02 0.  0.
         23    2    4    4    0    0 -0.19004617221E+03 -0.21100938211E+02  0.21615988256E+03  0.30267509718E+03  0.91237724994E+02 0.  0.
          3    1    3    3  502    0 -0.67211675480E+02  0.60213839511E+02 -0.77033351733E+02  0.11864760035E+03  0.00000000000E+00 0. -1.
         -4    1    3    3    0  502 -0.33339966709E+03  0.23591565075E+03 -0.14199923479E+03  0.43240642337E+03  0.00000000000E+00 0.  1.
         11    1    5    5    0    0  0.45543275910E+03 -0.24268258319E+03 -0.21878090628E+03  0.56051665381E+03  0.00000000000E+00 0.  1.
        -11    1    5    5    0    0  0.13522475569E+03 -0.32345968861E+02 -0.25920088701E+02  0.14143495767E+03  0.00000000000E+00 0. -1.
          2    1    6    6  503    0 -0.87571937950E+01 -0.25751108930E+02  0.12373111543E+02  0.29881464883E+02  0.00000000000E+00 0. -1.
         -2    1    6    6    0  503 -0.18128897842E+03  0.46501707196E+01  0.20378677101E+03  0.27279363230E+03  0.00000000000E+00 0.  1.
<mgrwt>
<rscale>  0 0.15358547E+04</rscale>
<asrwt>0</asrwt>
<pdfrwt beam="1">  1        3 0.10062362E+00 0.15358547E+04</pdfrwt>
<pdfrwt beam="2">  1       -2 0.13871188E+00 0.15358547E+04</pdfrwt>
<totfact> 0.12711368E+00</totfact>
</mgrwt>
</event>
<event>
12    4  0.4486176E-008  0.1747827E+04  0.7818608E-02  0.8734547E-01
         -2   -1    0    0    0  501 -0.00000000000E+00  0.00000000000E+00  0.38684280727E+03  0.38684280727E+03  0.00000000000E+00 0.  1.
          1   -1    0    0  501    0  0.00000000000E+00 -0.00000000000E+00 -0.19742515028E+04  0.19742515028E+04  0.00000000000E+00 0. -1.
        -24    2    1    2    0    0  0.46546179117E+03 -0.29947408743E+02 -0.11407149116E+04  0.12350068638E+04  0.80373613913E+02 0.  0.
        254    2    1    2    0    0 -0.46546179117E+03  0.29947408743E+02 -0.44669378390E+03  0.11260874462E+04  0.92248906422E+03 0.  0.
         23    2    4    4    0    0 -0.41537063002E+03  0.36484814414E+03 -0.20488174582E+01  0.56063995584E+03  0.93091534922E+02 0.  0.
         23    2    4    4    0    0 -0.50091161147E+02 -0.33490073539E+03 -0.44464496644E+03  0.56544749037E+03  0.85755997971E+02 0.  0.
          1    1    3    3  502    0  0.44720979630E+03 -0.38591309232E+02 -0.10474028066E+04  0.11395343480E+04  0.00000000000E+00 0. -1.
         -2    1    3    3    0  502  0.18251994861E+02  0.86439004890E+01 -0.93312105049E+02  0.95472515840E+02  0.00000000000E+00 0.  1.
         11    1    5    5    0    0 -0.26780512049E+03  0.25095243053E+03  0.41096668130E+02  0.36930426627E+03  0.00000000000E+00 0. -1.
        -11    1    5    5    0    0 -0.14756550953E+03  0.11389571360E+03 -0.43145485588E+02  0.19133568958E+03  0.00000000000E+00 0.  1.
          1    1    6    6  503    0 -0.51290375920E+02 -0.20665422010E+03 -0.33382477258E+03  0.39594904740E+03  0.00000000000E+00 0. -1.
         -1    1    6    6    0  503  0.11992147734E+01 -0.12824651529E+03 -0.11082019386E+03  0.16949844297E+03  0.00000000000E+00 0.  1.
<mgrwt>
<rscale>  0 0.17478272E+04</rscale>
<asrwt>0</asrwt>
<pdfrwt beam="1">  1        1 0.30373099E+00 0.17478272E+04</pdfrwt>
<pdfrwt beam="2">  1       -2 0.59514279E-01 0.17478272E+04</pdfrwt>
<totfact> 0.68035512E+00</totfact>
</mgrwt>
</event>
<event>
12    4  0.4486176E-008  0.1523764E+04  0.7818608E-02  0.8868802E-01
          3   -1    0    0  501    0  0.00000000000E+00  0.00000000000E+00  0.17019618848E+04  0.17019618848E+04  0.00000000000E+00 0. -1.
         -4   -1    0    0    0  501 -0.00000000000E+00 -0.00000000000E+00 -0.34105583049E+03  0.34105583049E+03  0.00000000000E+00 0.  1.
        -24    2    1    2    0    0 -0.38568303259E+03  0.15864558593E+03  0.79382557628E+03  0.90171461354E+03  0.94922995905E+02 0.  0.
        254    2    1    2    0    0  0.38568303259E+03 -0.15864558593E+03  0.56708047799E+03  0.11413031017E+04  0.89837223793E+03 0.  0.
         23    2    4    4    0    0 -0.55654989519E+02 -0.11754365602E+03 -0.19629688375E+03  0.25382337277E+03  0.94762065552E+02 0.  0.
         23    2    4    4    0    0  0.44133802211E+03 -0.41101929903E+02  0.76337736173E+03  0.88747972893E+03  0.91687809683E+02 0.  0.
          1    1    3    3  502    0 -0.35100565074E+03  0.11565331701E+03  0.65109140582E+03  0.74866593039E+03  0.00000000000E+00 0. -1.
         -2    1    3    3    0  502 -0.34677381856E+02  0.42992268916E+02  0.14273417046E+03  0.15304868316E+03  0.00000000000E+00 0.  1.
         11    1    5    5    0    0  0.16941056282E+02 -0.37008722874E+02 -0.16615314965E+02  0.43962639230E+02  0.00000000000E+00 0.  1.
        -11    1    5    5    0    0 -0.72596045801E+02 -0.80534933149E+02 -0.17968156878E+03  0.20986073354E+03  0.00000000000E+00 0. -1.
          3    1    6    6  503    0  0.44243098145E+03 -0.41391015786E+02  0.76547047718E+03  0.88510080837E+03  0.00000000000E+00 0. -1.
         -3    1    6    6    0  503 -0.10929593356E+01  0.28908588309E+00 -0.20931154479E+01  0.23789205610E+01  0.00000000000E+00 0.  1.
<mgrwt>
<rscale>  0 0.15237638E+04</rscale>
<asrwt>0</asrwt>
<pdfrwt beam="1">  1        3 0.26184028E+00 0.15237638E+04</pdfrwt>
<pdfrwt beam="2">  1       -4 0.52470129E-01 0.15237638E+04</pdfrwt>
<totfact> 0.48885633E-01</totfact>
</mgrwt>
</event>
<event>
12    4  0.4486176E-008  0.2359815E+04  0.7818608E-02  0.8454703E-01
         -2   -1    0    0    0  501 -0.00000000000E+00  0.00000000000E+00  0.62929150830E+03  0.62929150830E+03  0.00000000000E+00 0.  1.
          1   -1    0    0  501    0  0.00000000000E+00 -0.00000000000E+00 -0.22122999072E+04  0.22122999072E+04  0.00000000000E+00 0. -1.
        -24    2    1    2    0    0  0.27610446483E+03  0.13376859429E+03  0.47640558062E+03  0.57223619704E+03  0.79776410258E+02 0.  0.
        254    2    1    2    0    0 -0.27610446483E+03 -0.13376859429E+03 -0.20594139795E+04  0.22693552185E+04  0.90258487478E+03 0.  0.
         23    2    4    4    0    0 -0.17184199240E+03  0.34912625777E+03 -0.55645052013E+03  0.68459610342E+03  0.87268718602E+02 0.  0.
         23    2    4    4    0    0 -0.10426247242E+03 -0.48289485205E+03 -0.15029634594E+04  0.15847591151E+04  0.92218171441E+02 0.  0.
          1    1    3    3  502    0  0.14962705454E+03  0.29097913586E+02  0.24379383481E+03  0.28752456925E+03  0.00000000000E+00 0. -1.
         -2    1    3    3    0  502  0.12647741028E+03  0.10467068070E+03  0.23261174581E+03  0.28471162779E+03  0.00000000000E+00 0.  1.
         11    1    5    5    0    0 -0.56391300270E+02  0.20538807926E+03 -0.26913559163E+03  0.34321743623E+03  0.00000000000E+00 0. -1.
        -11    1    5    5    0    0 -0.11545069213E+03  0.14373817851E+03 -0.28731492850E+03  0.34137866719E+03  0.00000000000E+00 0.  1.
          2    1    6    6  503    0  0.51627476503E+01 -0.10477537121E+03 -0.24133378629E+03  0.26314735184E+03  0.00000000000E+00 0. -1.
         -2    1    6    6    0  503 -0.10942522007E+03 -0.37811948085E+03 -0.12616296731E+04  0.13216117632E+04  0.00000000000E+00 0.  1.
<mgrwt>
<rscale>  0 0.23598149E+04</rscale>
<asrwt>0</asrwt>
<pdfrwt beam="1">  1        1 0.34035383E+00 0.23598149E+04</pdfrwt>
<pdfrwt beam="2">  1       -2 0.96814079E-01 0.23598149E+04</pdfrwt>
<totfact> 0.15053345E+00</totfact>
</mgrwt>
</event>
<event>
12    4  0.4486176E-008  0.1692486E+04  0.7818608E-02  0.8765661E-01
         -2   -1    0    0    0  501 -0.00000000000E+00  0.00000000000E+00  0.54465451895E+03  0.54465451895E+03  0.00000000000E+00 0.  1.
          1   -1    0    0  501    0  0.00000000000E+00 -0.00000000000E+00 -0.13148288867E+04  0.13148288867E+04  0.00000000000E+00 0. -1.
        -24    2    1    2    0    0  0.19763411212E+03  0.27635038728E+03 -0.83588427951E+03  0.90577316757E+03  0.79332991429E+02 0.  0.
        254    2    1    2    0    0 -0.19763411212E+03 -0.27635038728E+03  0.65709911725E+02  0.95371023811E+03  0.88871629160E+03 0.  0.
         23    2    4    4    0    0 -0.19655051369E+02 -0.34770746654E+03  0.41168300473E+03  0.54663515439E+03  0.89667677035E+02 0.  0.
         23    2    4    4    0    0 -0.17797906075E+03  0.71357079261E+02 -0.34597309300E+03  0.40707508372E+03  0.96147615025E+02 0.  0.
          1    1    3    3  502    0  0.13643453136E+03  0.24142515645E+03 -0.63581195937E+03  0.69365505491E+03  0.00000000000E+00 0. -1.
         -4    1    3    3    0  502  0.61199580759E+02  0.34925230825E+02 -0.20007232013E+03  0.21211811266E+03  0.00000000000E+00 0.  1.
         11    1    5    5    0    0 -0.35261048659E+02 -0.49497955185E+02  0.77119590430E+02  0.98187679207E+02  0.00000000000E+00 0. -1.
        -11    1    5    5    0    0  0.15605997290E+02 -0.29820951135E+03  0.33456341430E+03  0.44844747519E+03  0.00000000000E+00 0.  1.
          1    1    6    6  503    0 -0.10268507258E+03  0.88201024511E+02 -0.19289977250E+03  0.23565645989E+03  0.00000000000E+00 0. -1.
         -1    1    6    6    0  503 -0.75293988172E+02 -0.16843945250E+02 -0.15307332051E+03  0.17141862383E+03  0.00000000000E+00 0.  1.
<mgrwt>
<rscale>  0 0.16924863E+04</rscale>
<asrwt>0</asrwt>
<pdfrwt beam="1">  1        1 0.20228137E+00 0.16924863E+04</pdfrwt>
<pdfrwt beam="2">  1       -2 0.83793003E-01 0.16924863E+04</pdfrwt>
<totfact> 0.91792016E+00</totfact>
</mgrwt>
</event>
<event>
12    4  0.4486176E-008  0.1547863E+04  0.7818608E-02  0.8853234E-01
         -2   -1    0    0    0  501 -0.00000000000E+00  0.00000000000E+00  0.73412793390E+03  0.73412793390E+03  0.00000000000E+00 0.  1.
          1   -1    0    0  501    0  0.00000000000E+00 -0.00000000000E+00 -0.81589312274E+03  0.81589312274E+03  0.00000000000E+00 0. -1.
        -24    2    1    2    0    0 -0.50358048193E+03  0.91408491509E+01 -0.76075555550E+02  0.51648908971E+03  0.85420329739E+02 0.  0.
        254    2    1    2    0    0  0.50358048193E+03 -0.91408491509E+01 -0.56896332874E+01  0.10335319669E+04  0.90248495713E+03 0.  0.
         23    2    4    4    0    0 -0.15544617054E+03 -0.26559984552E+03 -0.11562988301E+02  0.32101957751E+03  0.90626025906E+02 0.  0.
         23    2    4    4    0    0  0.65902665246E+03  0.25645899637E+03  0.58733550135E+01  0.71251238942E+03  0.86902608161E+02 0.  0.
          3    1    3    3  502    0 -0.34637412531E+03 -0.20948109134E+02 -0.81070048096E+02  0.35635124619E+03  0.00000000000E+00 0. -1.
         -4    1    3    3    0  502 -0.15720635661E+03  0.30088958284E+02  0.49944925457E+01  0.16013784352E+03  0.00000000000E+00 0.  1.
         11    1    5    5    0    0 -0.15025494024E+02  0.49988779067E+01  0.12718476285E+01  0.15886215640E+02  0.00000000000E+00 0. -1.
        -11    1    5    5    0    0 -0.14042067651E+03 -0.27059872343E+03 -0.12834835929E+02  0.30513336187E+03  0.00000000000E+00 0.  1.
          1    1    6    6  503    0  0.51055893290E+02 -0.31820913594E+01  0.52198918650E+01  0.51420591364E+02  0.00000000000E+00 0. -1.
         -1    1    6    6    0  503  0.60797075917E+03  0.25964108773E+03  0.65346314852E+00  0.66109179806E+03  0.00000000000E+00 0.  1.
<mgrwt>
<rscale>  0 0.15478630E+04</rscale>
<asrwt>0</asrwt>
<pdfrwt beam="1">  1        1 0.12552202E+00 0.15478630E+04</pdfrwt>
<pdfrwt beam="2">  1       -2 0.11294276E+00 0.15478630E+04</pdfrwt>
<totfact> 0.11140417E+01</totfact>
</mgrwt>
</event>
<event>
12    4  0.4486176E-008  0.1409458E+04  0.7818608E-02  0.8947001E-01
          1   -1    0    0  501    0  0.00000000000E+00  0.00000000000E+00  0.21540109777E+04  0.21540109777E+04  0.00000000000E+00 0. -1.
         -2   -1    0    0    0  501 -0.00000000000E+00 -0.00000000000E+00 -0.23056665981E+03  0.23056665981E+03  0.00000000000E+00 0.  1.
        -24    2    1    2    0    0  0.29930759605E+03 -0.24524861572E+03  0.35777582381E+03  0.53320736776E+03  0.81084131394E+02 0.  0.
        254    2    1    2    0    0 -0.29930759605E+03  0.24524861572E+03  0.15656684941E+04  0.18513702698E+04  0.90913262059E+03 0.  0.
         23    2    4    4    0    0  0.13567699164E+03  0.45121605953E+03  0.95205813397E+03  0.10661624034E+04  0.91013194833E+02 0.  0.
         23    2    4    4    0    0 -0.43498458769E+03 -0.20596744381E+03  0.61361036016E+03  0.78520786635E+03  0.91649003530E+02 0.  0.
          1    1    3    3  502    0  0.44287796626E+02 -0.43297829539E+01  0.42507001471E+02  0.61538614905E+02  0.00000000000E+00 0. -1.
         -2    1    3    3    0  502  0.25501979943E+03 -0.24091883277E+03  0.31526882233E+03  0.47166875285E+03  0.00000000000E+00 0.  1.
         11    1    5    5    0    0  0.97621560068E+02  0.38343564931E+03  0.85255984271E+03  0.93989954333E+03  0.00000000000E+00 0. -1.
        -11    1    5    5    0    0  0.38055431572E+02  0.67780410221E+02  0.99498291259E+02  0.12626286012E+03  0.00000000000E+00 0.  1.
          4    1    6    6  503    0 -0.16287923431E+03 -0.91661190656E+02  0.17165891379E+03  0.25376800729E+03  0.00000000000E+00 0. -1.
         -4    1    6    6    0  503 -0.27210535339E+03 -0.11430625315E+03  0.44195144637E+03  0.53143985906E+03  0.00000000000E+00 0.  1.
<mgrwt>
<rscale>  0 0.14094582E+04</rscale>
<asrwt>0</asrwt>
<pdfrwt beam="1">  1        1 0.33138629E+00 0.14094582E+04</pdfrwt>
<pdfrwt beam="2">  1       -2 0.35471795E-01 0.14094582E+04</pdfrwt>
<totfact> 0.14978349E+01</totfact>
</mgrwt>
</event>
<event>
12    4  0.4486176E-008  0.1281239E+04  0.7818608E-02  0.9044576E-01
         -2   -1    0    0    0  501 -0.00000000000E+00  0.00000000000E+00  0.23580847872E+03  0.23580847872E+03  0.00000000000E+00 0.  1.
          1   -1    0    0  501    0  0.00000000000E+00 -0.00000000000E+00 -0.17403678594E+04  0.17403678594E+04  0.00000000000E+00 0. -1.
        -24    2    1    2    0    0 -0.16586178728E+03  0.27124531589E+03 -0.44053468665E+03  0.54912871967E+03  0.79921128306E+02 0.  0.
        254    2    1    2    0    0  0.16586178728E+03 -0.27124531589E+03 -0.10640246941E+04  0.14270476185E+04  0.89623222548E+03 0.  0.
         23    2    4    4    0    0 -0.62566238768E+02  0.30597343963E+03 -0.35930049565E+03  0.48402805347E+03  0.87475884524E+02 0.  0.
         23    2    4    4    0    0  0.22842802605E+03 -0.57721875552E+03 -0.70472419840E+03  0.94301956502E+03  0.85374758513E+02 0.  0.
          1    1    3    3  502    0 -0.74611465277E+02  0.12337416889E+03 -0.26764487110E+03  0.30400959414E+03  0.00000000000E+00 0. -1.
         -2    1    3    3    0  502 -0.91250322000E+02  0.14787114700E+03 -0.17288981555E+03  0.24511912553E+03  0.00000000000E+00 0.  1.
         11    1    5    5    0    0 -0.39713188132E+02  0.29380883186E+03 -0.34325938790E+03  0.45357223722E+03  0.00000000000E+00 0.  1.
        -11    1    5    5    0    0 -0.22853050636E+02  0.12164607769E+02 -0.16041107751E+02  0.30455816250E+02  0.00000000000E+00 0. -1.
          2    1    6    6  503    0 -0.43654128963E+01 -0.34689413522E+01 -0.15712734552E+02  0.16672744554E+02  0.00000000000E+00 0. -1.
         -2    1    6    6    0  503  0.23279343894E+03 -0.57374981417E+03 -0.68901146385E+03  0.92634682047E+03  0.00000000000E+00 0.  1.
<mgrwt>
<rscale>  0 0.12812392E+04</rscale>
<asrwt>0</asrwt>
<pdfrwt beam="1">  1        1 0.26774890E+00 0.12812392E+04</pdfrwt>
<pdfrwt beam="2">  1       -2 0.36278228E-01 0.12812392E+04</pdfrwt>
<totfact> 0.27631720E+01</totfact>
</mgrwt>
</event>
<event>
12    4  0.4486176E-008  0.2151594E+04  0.7818608E-02  0.8538850E-01
         -2   -1    0    0    0  501 -0.00000000000E+00  0.00000000000E+00  0.13204732040E+04  0.13204732040E+04  0.00000000000E+00 0.  1.
          1   -1    0    0  501    0  0.00000000000E+00 -0.00000000000E+00 -0.87645791439E+03  0.87645791439E+03  0.00000000000E+00 0. -1.
        -24    2    1    2    0    0  0.30851663256E+03  0.66688834206E+03  0.68211299611E+03  0.10057518896E+04  0.79599941064E+02 0.  0.
        254    2    1    2    0    0 -0.30851663256E+03 -0.66688834206E+03 -0.23809770649E+03  0.11911792288E+04  0.90680475516E+03 0.  0.
         23    2    4    4    0    0  0.23673532006E+03 -0.47219362520E+03 -0.27688692638E+03  0.60349312553E+03  0.92342574757E+02 0.  0.
         23    2    4    4    0    0 -0.54525195262E+03 -0.19469471685E+03  0.38789219894E+02  0.58768610328E+03  0.93083982558E+02 0.  0.
          3    1    3    3  502    0  0.19023402072E+02  0.47162551905E+02  0.22840476513E+02  0.55748394559E+02  0.00000000000E+00 0. -1.
         -4    1    3    3    0  502  0.28949323049E+03  0.61972579015E+03  0.65927251960E+03  0.95000349503E+03  0.00000000000E+00 0.  1.
         11    1    5    5    0    0  0.83435908770E+01 -0.42522162077E+02  0.59186289816E+00  0.43337052024E+02  0.00000000000E+00 0. -1.
        -11    1    5    5    0    0  0.22839172918E+03 -0.42967146313E+03 -0.27747878928E+03  0.56015607351E+03  0.00000000000E+00 0.  1.
          2    1    6    6  503    0 -0.18280520052E+03 -0.67071626112E+02  0.57312574314E+02  0.20298048069E+03  0.00000000000E+00 0. -1.
         -2    1    6    6    0  503 -0.36244675210E+03 -0.12762309074E+03 -0.18523354421E+02  0.38470562260E+03  0.00000000000E+00 0.  1.
<mgrwt>
<rscale>  0 0.21515940E+04</rscale>
<asrwt>0</asrwt>
<pdfrwt beam="1">  1        1 0.13483968E+00 0.21515940E+04</pdfrwt>
<pdfrwt beam="2">  1       -2 0.20314972E+00 0.21515940E+04</pdfrwt>
<totfact> 0.19363224E+00</totfact>
</mgrwt>
</event>
<event>
12    4  0.4486176E-008  0.1642223E+04  0.7818608E-02  0.8795021E-01
         -2   -1    0    0    0  501 -0.00000000000E+00  0.00000000000E+00  0.75872375401E+03  0.75872375401E+03  0.00000000000E+00 0.  1.
          1   -1    0    0  501    0  0.00000000000E+00 -0.00000000000E+00 -0.88862910016E+03  0.88862910016E+03  0.00000000000E+00 0. -1.
        -24    2    1    2    0    0  0.42107070183E+03  0.96640071393E+02 -0.44907483860E+03  0.62809789787E+03  0.78733216018E+02 0.  0.
        254    2    1    2    0    0 -0.42107070183E+03 -0.96640071393E+02  0.31916949246E+03  0.10192549563E+04  0.86623995618E+03 0.  0.
         23    2    4    4    0    0 -0.51798605082E+03 -0.44010355378E+02 -0.13236991111E+03  0.54423412681E+03  0.91774349360E+02 0.  0.
         23    2    4    4    0    0  0.96915348988E+02 -0.52629716015E+02  0.45153940357E+03  0.47502082948E+03  0.97951434844E+02 0.  0.
          3    1    3    3  502    0  0.38610132222E+03  0.10654579364E+03 -0.39203049683E+03  0.56045887236E+03  0.00000000000E+00 0. -1.
         -4    1    3    3    0  502  0.34969379609E+02 -0.99057222498E+01 -0.57044341773E+02  0.67639025509E+02  0.00000000000E+00 0.  1.
         11    1    5    5    0    0 -0.70106634261E+02 -0.28962056444E+02  0.35692401358E+01  0.75937344937E+02  0.00000000000E+00 0. -1.
        -11    1    5    5    0    0 -0.44787941656E+03 -0.15048298933E+02 -0.13593915125E+03  0.46829678188E+03  0.00000000000E+00 0.  1.
          3    1    6    6  503    0  0.12179613114E+02  0.23747423841E+02  0.15528392862E+03  0.15756072354E+03  0.00000000000E+00 0. -1.
         -3    1    6    6    0  503  0.84735735874E+02 -0.76377139856E+02  0.29625547494E+03  0.31746010594E+03  0.00000000000E+00 0.  1.
<mgrwt>
<rscale>  0 0.16422229E+04</rscale>
<asrwt>0</asrwt>
<pdfrwt beam="1">  1        1 0.13671217E+00 0.16422229E+04</pdfrwt>
<pdfrwt beam="2">  1       -2 0.11672673E+00 0.16422229E+04</pdfrwt>
<totfact> 0.88568760E+00</totfact>
</mgrwt>
</event>
<event>
12    4  0.4486176E-008  0.2183983E+04  0.7818608E-02  0.8525124E-01
         -2   -1    0    0    0  501 -0.00000000000E+00  0.00000000000E+00  0.11493722668E+04  0.11493722668E+04  0.00000000000E+00 0.  1.
          1   -1    0    0  501    0  0.00000000000E+00 -0.00000000000E+00 -0.10374752422E+04  0.10374752422E+04  0.00000000000E+00 0. -1.
        -24    2    1    2    0    0  0.23105765698E+03  0.44741559101E+03 -0.70368949560E+03  0.86886619220E+03  0.78620619478E+02 0.  0.
        254    2    1    2    0    0 -0.23105765698E+03 -0.44741559101E+03  0.81558652019E+03  0.13179813168E+04  0.90461319231E+03 0.  0.
         23    2    4    4    0    0 -0.10412787577E+03 -0.55901534311E+03  0.10956166651E+03  0.58638807153E+03  0.92230381755E+02 0.  0.
         23    2    4    4    0    0 -0.12692978121E+03  0.11159975210E+03  0.70602485368E+03  0.73159324531E+03  0.90509162733E+02 0.  0.
          1    1    3    3  502    0  0.15591425649E+03  0.37071856454E+03 -0.56275466886E+03  0.69168947280E+03  0.00000000000E+00 0. -1.
         -2    1    3    3    0  502  0.75143400498E+02  0.76697026478E+02 -0.14093482674E+03  0.17717671940E+03  0.00000000000E+00 0.  1.
         11    1    5    5    0    0 -0.10710640307E+03 -0.56183198561E+03  0.10845772325E+03  0.58214262803E+03  0.00000000000E+00 0.  1.
        -11    1    5    5    0    0  0.29785272988E+01  0.28166424979E+01  0.11039432626E+01  0.42454435054E+01  0.00000000000E+00 0. -1.
          3    1    6    6  503    0 -0.59825700866E+02  0.40078244444E+01  0.15564089105E+03  0.16679107922E+03  0.00000000000E+00 0. -1.
         -3    1    6    6    0  503 -0.67104080345E+02  0.10759192766E+03  0.55038396263E+03  0.56480216609E+03  0.00000000000E+00 0.  1.
<mgrwt>
<rscale>  0 0.21839828E+04</rscale>
<asrwt>0</asrwt>
<pdfrwt beam="1">  1        1 0.15961158E+00 0.21839828E+04</pdfrwt>
<pdfrwt beam="2">  1       -2 0.17682650E+00 0.21839828E+04</pdfrwt>
<totfact> 0.21608451E+00</totfact>
</mgrwt>
</event>
<event>
12    4  0.4486176E-008  0.1214934E+04  0.7818608E-02  0.9099884E-01
         -4   -1    0    0    0  501 -0.00000000000E+00  0.00000000000E+00  0.72859532484E+03  0.72859532484E+03  0.00000000000E+00 0.  1.
          1   -1    0    0  501    0  0.00000000000E+00 -0.00000000000E+00 -0.50647633031E+03  0.50647633031E+03  0.00000000000E+00 0. -1.
        -24    2    1    2    0    0  0.96230334735E+02  0.34859440361E+02  0.30765776576E+03  0.33419195961E+03  0.80966086306E+02 0.  0.
        254    2    1    2    0    0 -0.96230334735E+02 -0.34859440361E+02 -0.85538771235E+02  0.90087969553E+03  0.89094999104E+03 0.  0.
         23    2    4    4    0    0 -0.20424027037E+03 -0.40534059135E+03 -0.17332891880E+03  0.49447744437E+03  0.91923587056E+02 0.  0.
         23    2    4    4    0    0  0.10800993563E+03  0.37048115099E+03  0.87790147569E+02  0.40640225116E+03  0.92375593672E+02 0.  0.
          1    1    3    3  502    0  0.40602392192E+02 -0.14359478641E+02  0.49748551180E+02  0.65800206862E+02  0.00000000000E+00 0. -1.
         -2    1    3    3    0  502  0.55627942543E+02  0.49218919002E+02  0.25790921458E+03  0.26839175275E+03  0.00000000000E+00 0.  1.
         11    1    5    5    0    0 -0.18522140552E+03 -0.36762102080E+03 -0.18401567444E+03  0.45090348461E+03  0.00000000000E+00 0. -1.
        -11    1    5    5    0    0 -0.19018864849E+02 -0.37719570548E+02  0.10686755635E+02  0.43573959752E+02  0.00000000000E+00 0.  1.
          1    1    6    6  503    0  0.23065968107E+02  0.16783247741E+03 -0.99019515033E+00  0.16941298605E+03  0.00000000000E+00 0. -1.
         -1    1    6    6    0  503  0.84943967523E+02  0.20264867359E+03  0.88780342719E+02  0.23698926511E+03  0.00000000000E+00 0.  1.
<mgrwt>
<rscale>  0 0.12149342E+04</rscale>
<asrwt>0</asrwt>
<pdfrwt beam="1">  1        1 0.77919436E-01 0.12149342E+04</pdfrwt>
<pdfrwt beam="2">  1       -4 0.11209159E+00 0.12149342E+04</pdfrwt>
<totfact> 0.12939293E+01</totfact>
</mgrwt>
</event>
<event>
12    4  0.4486176E-008  0.1174326E+04  0.7818608E-02  0.9135631E-01
         -2   -1    0    0    0  501 -0.00000000000E+00  0.00000000000E+00  0.44324297240E+03  0.44324297240E+03  0.00000000000E+00 0.  1.
          1   -1    0    0  501    0  0.00000000000E+00 -0.00000000000E+00 -0.77781312449E+03  0.77781312449E+03  0.00000000000E+00 0. -1.
        -24    2    1    2    0    0  0.69282399323E+02  0.56992919296E+02  0.15065791266E+03  0.19224113633E+03  0.78807386349E+02 0.  0.
        254    2    1    2    0    0 -0.69282399323E+02 -0.56992919296E+02 -0.48522806475E+03  0.10288149606E+04  0.90275450958E+03 0.  0.
         23    2    4    4    0    0  0.26407767099E+03  0.12782171047E+03 -0.55237875377E+03  0.63144323125E+03  0.86734426234E+02 0.  0.
         23    2    4    4    0    0 -0.33336007032E+03 -0.18481462976E+03  0.67150689018E+02  0.39737172932E+03  0.90053830397E+02 0.  0.
          3    1    3    3  502    0  0.56598568950E+02  0.52114519309E+02  0.52490110483E+02  0.93137172109E+02  0.00000000000E+00 0. -1.
         -4    1    3    3    0  502  0.12683830373E+02  0.48783999876E+01  0.98167802176E+02  0.99103964217E+02  0.00000000000E+00 0.  1.
         11    1    5    5    0    0  0.20491110913E+03  0.10563131106E+03 -0.34730165101E+03  0.41685126042E+03  0.00000000000E+00 0. -1.
        -11    1    5    5    0    0  0.59166561866E+02  0.22190399406E+02 -0.20507710276E+03  0.21459197083E+03  0.00000000000E+00 0.  1.
          2    1    6    6  503    0 -0.14074092288E+03 -0.12455321301E+03  0.12902034384E+02  0.18838251706E+03  0.00000000000E+00 0. -1.
         -2    1    6    6    0  503 -0.19261914744E+03 -0.60261416753E+02  0.54248654634E+02  0.20898921226E+03  0.00000000000E+00 0.  1.
<mgrwt>
<rscale>  0 0.11743257E+04</rscale>
<asrwt>0</asrwt>
<pdfrwt beam="1">  1        1 0.11966356E+00 0.11743257E+04</pdfrwt>
<pdfrwt beam="2">  1       -2 0.68191227E-01 0.11743257E+04</pdfrwt>
<totfact> 0.39545520E+01</totfact>
</mgrwt>
</event>
<event>
12    4  0.4486176E-008  0.1941349E+04  0.7818608E-02  0.8634544E-01
          1   -1    0    0  501    0  0.00000000000E+00  0.00000000000E+00  0.73901770644E+03  0.73901770644E+03  0.00000000000E+00 0. -1.
         -2   -1    0    0    0  501 -0.00000000000E+00 -0.00000000000E+00 -0.12749473164E+04  0.12749473164E+04  0.00000000000E+00 0.  1.
        -24    2    1    2    0    0  0.82291322255E+02  0.52726710236E+03 -0.77481793839E+03  0.94447083488E+03  0.83065403994E+02 0.  0.
        254    2    1    2    0    0 -0.82291322255E+02 -0.52726710236E+03  0.23888832841E+03  0.10694941880E+04  0.89552650754E+03 0.  0.
         23    2    4    4    0    0  0.47217453666E+01 -0.61840134204E+03  0.47581588543E+03  0.78548455255E+03  0.90236969970E+02 0.  0.
         23    2    4    4    0    0 -0.87013067622E+02  0.91134239677E+02 -0.23692755702E+03  0.28400963543E+03  0.93005817883E+02 0.  0.
          1    1    3    3  502    0  0.43966822628E+01  0.94731792291E+02 -0.89900649546E+02  0.13067352476E+03  0.00000000000E+00 0. -1.
         -2    1    3    3    0  502  0.77894639992E+02  0.43253531007E+03 -0.68491728884E+03  0.81379731012E+03  0.00000000000E+00 0.  1.
         11    1    5    5    0    0 -0.15874054281E+02 -0.51375379369E+03  0.35696441908E+03  0.62579432933E+03  0.00000000000E+00 0. -1.
        -11    1    5    5    0    0  0.20595799647E+02 -0.10464754835E+03  0.11885146635E+03  0.15969022322E+03  0.00000000000E+00 0.  1.
          3    1    6    6  503    0 -0.33849379514E+02  0.84801456807E+02 -0.19728868569E+03  0.21739340623E+03  0.00000000000E+00 0. -1.
         -3    1    6    6    0  503 -0.53163688107E+02  0.63327828703E+01 -0.39638871329E+02  0.66616229196E+02  0.00000000000E+00 0.  1.
<mgrwt>
<rscale>  0 0.19413486E+04</rscale>
<asrwt>0</asrwt>
<pdfrwt beam="1">  1        1 0.11369503E+00 0.19413486E+04</pdfrwt>
<pdfrwt beam="2">  1       -2 0.19614574E+00 0.19413486E+04</pdfrwt>
<totfact> 0.28848742E+00</totfact>
</mgrwt>
</event>
<event>
12    4  0.4486176E-008  0.1345025E+04  0.7818608E-02  0.8994603E-01
         -2   -1    0    0    0  501 -0.00000000000E+00  0.00000000000E+00  0.90420169634E+03  0.90420169634E+03  0.00000000000E+00 0.  1.
          1   -1    0    0  501    0  0.00000000000E+00 -0.00000000000E+00 -0.50019045543E+03  0.50019045543E+03  0.00000000000E+00 0. -1.
        -24    2    1    2    0    0  0.18326994382E+03 -0.31744331286E+03  0.12403432435E+03  0.39534222894E+03  0.80949584199E+02 0.  0.
        254    2    1    2    0    0 -0.18326994382E+03  0.31744331286E+03  0.27997691657E+03  0.10090499228E+04  0.89746116560E+03 0.  0.
         23    2    4    4    0    0 -0.32661844637E+03 -0.20310556526E+03  0.23643626713E+03  0.46067028096E+03  0.91561559604E+02 0.  0.
         23    2    4    4    0    0  0.14334850255E+03  0.52054887812E+03  0.43540649441E+02  0.54837964187E+03  0.85466459843E+02 0.  0.
          1    1    3    3  502    0  0.14183843530E+03 -0.28360065641E+03  0.12742631607E+03  0.34173811621E+03  0.00000000000E+00 0. -1.
         -2    1    3    3    0  502  0.41431508521E+02 -0.33842656450E+02 -0.33919917225E+01  0.53604112732E+02  0.00000000000E+00 0.  1.
         11    1    5    5    0    0 -0.80017401411E+02 -0.99817204835E+02  0.80810510984E+02  0.15131621722E+03  0.00000000000E+00 0.  1.
        -11    1    5    5    0    0 -0.24660104496E+03 -0.10328836043E+03  0.15562575615E+03  0.30935406374E+03  0.00000000000E+00 0. -1.
          2    1    6    6  503    0  0.93435217645E+02  0.27533529363E+03  0.62576629750E+02  0.29741469097E+03  0.00000000000E+00 0. -1.
         -2    1    6    6    0  503  0.49913284906E+02  0.24521358449E+03 -0.19035980310E+02  0.25096495089E+03  0.00000000000E+00 0.  1.
<mgrwt>
<rscale>  0 0.13450250E+04</rscale>
<asrwt>0</asrwt>
<pdfrwt beam="1">  1        1 0.76952378E-01 0.13450250E+04</pdfrwt>
<pdfrwt beam="2">  1       -2 0.13910795E+00 0.13450250E+04</pdfrwt>
<totfact> 0.13842695E+01</totfact>
</mgrwt>
</event>
<event>
12    4  0.4486176E-008  0.1367186E+04  0.7818608E-02  0.8977919E-01
          1   -1    0    0  501    0  0.00000000000E+00  0.00000000000E+00  0.21869003515E+04  0.21869003515E+04  0.00000000000E+00 0. -1.
         -2   -1    0    0    0  501 -0.00000000000E+00 -0.00000000000E+00 -0.21368126449E+03  0.21368126449E+03  0.00000000000E+00 0.  1.
        -24    2    1    2    0    0 -0.12216614547E+03  0.28215388711E+02  0.11984514163E+04  0.12076259231E+04  0.79711339542E+02 0.  0.
        254    2    1    2    0    0  0.12216614547E+03 -0.28215388711E+02  0.77476767069E+03  0.11929556929E+04  0.89841953804E+03 0.  0.
         23    2    4    4    0    0 -0.80320586409E+02 -0.40177255928E+03  0.58017417300E+03  0.71647718870E+03  0.94153624087E+02 0.  0.
         23    2    4    4    0    0  0.20248673188E+03  0.37355717057E+03  0.19459349769E+03  0.47647850416E+03  0.92840181561E+02 0.  0.
          1    1    3    3  502    0 -0.11461863139E+03  0.31842425188E+02  0.11892488603E+04  0.11951837609E+04  0.00000000000E+00 0. -1.
         -2    1    3    3    0  502 -0.75475140827E+01 -0.36270364769E+01  0.92025560469E+01  0.12442162201E+02  0.00000000000E+00 0.  1.
         11    1    5    5    0    0 -0.63435913441E+01 -0.25712821469E+03  0.37592179067E+03  0.45549133103E+03  0.00000000000E+00 0. -1.
        -11    1    5    5    0    0 -0.73976995065E+02 -0.14464434459E+03  0.20425238233E+03  0.26098585768E+03  0.00000000000E+00 0.  1.
          4    1    6    6  503    0  0.12071880388E+03  0.15092509081E+03  0.12155699555E+03  0.22831451073E+03  0.00000000000E+00 0. -1.
         -4    1    6    6    0  503  0.81767928005E+02  0.22263207976E+03  0.73036502145E+02  0.24816399343E+03  0.00000000000E+00 0.  1.
<mgrwt>
<rscale>  0 0.13671864E+04</rscale>
<asrwt>0</asrwt>
<pdfrwt beam="1">  1        1 0.33644619E+00 0.13671864E+04</pdfrwt>
<pdfrwt beam="2">  1       -2 0.32874042E-01 0.13671864E+04</pdfrwt>
<totfact> 0.16506569E+01</totfact>
</mgrwt>
</event>
<event>
12    4  0.4486176E-008  0.1888115E+04  0.7818608E-02  0.8660795E-01
         -2   -1    0    0    0  501 -0.00000000000E+00  0.00000000000E+00  0.92207078349E+03  0.92207078349E+03  0.00000000000E+00 0.  1.
          1   -1    0    0  501    0  0.00000000000E+00 -0.00000000000E+00 -0.96656899783E+03  0.96656899783E+03  0.00000000000E+00 0. -1.
        -24    2    1    2    0    0  0.27469224348E+03 -0.27282758963E+03 -0.62945481622E+03  0.74331435244E+03  0.80075830209E+02 0.  0.
        254    2    1    2    0    0 -0.27469224348E+03  0.27282758963E+03  0.58495660189E+03  0.11453254289E+04  0.90537582786E+03 0.  0.
         23    2    4    4    0    0 -0.59457377843E+03  0.10035786890E+03  0.36203220879E+03  0.70934249512E+03  0.92248443536E+02 0.  0.
         23    2    4    4    0    0  0.31988153495E+03  0.17246972074E+03  0.22292439309E+03  0.43598293377E+03  0.91191186651E+02 0.  0.
          3    1    3    3  502    0  0.12898488058E+03 -0.73922331560E+02 -0.24573283894E+03  0.28720417590E+03  0.00000000000E+00 0. -1.
         -4    1    3    3    0  502  0.14570736290E+03 -0.19890525807E+03 -0.38372197728E+03  0.45611017653E+03  0.00000000000E+00 0.  1.
         11    1    5    5    0    0 -0.44266163420E+03  0.33987800485E+02  0.27269795927E+03  0.52102655400E+03  0.00000000000E+00 0. -1.
        -11    1    5    5    0    0 -0.15191214423E+03  0.66370068411E+02  0.89334249519E+02  0.18831594112E+03  0.00000000000E+00 0.  1.
          4    1    6    6  503    0  0.23252327337E+03  0.12549591410E+03  0.11145220535E+03  0.28677149648E+03  0.00000000000E+00 0. -1.
         -4    1    6    6    0  503  0.87358261580E+02  0.46973806634E+02  0.11147218774E+03  0.14921143728E+03  0.00000000000E+00 0.  1.
<mgrwt>
<rscale>  0 0.18881155E+04</rscale>
<asrwt>0</asrwt>
<pdfrwt beam="1">  1        1 0.14870292E+00 0.18881155E+04</pdfrwt>
<pdfrwt beam="2">  1       -2 0.14185704E+00 0.18881155E+04</pdfrwt>
<totfact> 0.45799990E+00</totfact>
</mgrwt>
</event>
<event>
12    4  0.4486176E-008  0.2715950E+04  0.7818608E-02  0.8329848E-01
         -2   -1    0    0    0  501 -0.00000000000E+00  0.00000000000E+00  0.17594741275E+04  0.17594741275E+04  0.00000000000E+00 0.  1.
          1   -1    0    0  501    0  0.00000000000E+00 -0.00000000000E+00 -0.10480951989E+04  0.10480951989E+04  0.00000000000E+00 0. -1.
        -24    2    1    2    0    0  0.71519287923E+03 -0.76710842692E+03 -0.30101573505E+03  0.10941629400E+04  0.81399467484E+02 0.  0.
        254    2    1    2    0    0 -0.71519287923E+03  0.76710842692E+03  0.10123946637E+04  0.17134063865E+04  0.90047892639E+03 0.  0.
         23    2    4    4    0    0 -0.10541616996E+03 -0.18761629904E+03  0.25595991405E+03  0.34749882150E+03  0.94485495108E+02 0.  0.
         23    2    4    4    0    0 -0.60977670927E+03  0.95472472596E+03  0.75643474967E+03  0.13659075650E+04  0.10091089127E+03 0.  0.
          3    1    3    3  502    0  0.57999593651E+02 -0.98173690055E+02 -0.26649226253E+02  0.11709913553E+03  0.00000000000E+00 0. -1.
         -4    1    3    3    0  502  0.65719328558E+03 -0.66893473686E+03 -0.27436650880E+03  0.97706380443E+03  0.00000000000E+00 0.  1.
         11    1    5    5    0    0 -0.11701271909E+03 -0.18698672126E+03  0.25271307043E+03  0.33543986990E+03  0.00000000000E+00 0.  1.
        -11    1    5    5    0    0  0.11596549135E+02 -0.62957778223E+00  0.32468436275E+01  0.12058951595E+02  0.00000000000E+00 0. -1.
          3    1    6    6  503    0 -0.29185231613E+03  0.38526502214E+03  0.36013541395E+03  0.60274739991E+03  0.00000000000E+00 0. -1.
         -3    1    6    6    0  503 -0.31792439314E+03  0.56945970382E+03  0.39629933572E+03  0.76316016505E+03  0.00000000000E+00 0.  1.
<mgrwt>
<rscale>  0 0.27159502E+04</rscale>
<asrwt>0</asrwt>
<pdfrwt beam="1">  1        1 0.16124542E+00 0.27159502E+04</pdfrwt>
<pdfrwt beam="2">  1       -2 0.27068833E+00 0.27159502E+04</pdfrwt>
<totfact> 0.50988623E-01</totfact>
</mgrwt>
</event>
<event>
12    4  0.4486176E-008  0.1378595E+04  0.7818608E-02  0.8969460E-01
         -2   -1    0    0    0  501 -0.00000000000E+00  0.00000000000E+00  0.46756881786E+03  0.46756881786E+03  0.00000000000E+00 0.  1.
          1   -1    0    0  501    0  0.00000000000E+00 -0.00000000000E+00 -0.10161731195E+04  0.10161731195E+04  0.00000000000E+00 0. -1.
        -24    2    1    2    0    0  0.14170605417E+03  0.16161116125E+03 -0.52033826239E+03  0.56853097550E+03  0.79226192404E+02 0.  0.
        254    2    1    2    0    0 -0.14170605417E+03 -0.16161116125E+03 -0.28266039206E+02  0.91521096181E+03  0.88916441810E+03 0.  0.
         23    2    4    4    0    0  0.12541156933E+03 -0.30870318411E+03  0.29986190772E+03  0.45708856137E+03  0.89370418128E+02 0.  0.
         23    2    4    4    0    0 -0.26711762350E+03  0.14709202286E+03 -0.32812794692E+03  0.45812240044E+03  0.96022373744E+02 0.  0.
          1    1    3    3  502    0  0.13601847748E+03  0.16061611435E+03 -0.52173658400E+03  0.56259010433E+03  0.00000000000E+00 0. -1.
         -2    1    3    3    0  502  0.56875766897E+01  0.99504689345E+00  0.13983216070E+01  0.59408711682E+01  0.00000000000E+00 0.  1.
         11    1    5    5    0    0  0.41548310534E+02 -0.42957359158E+02  0.90873579845E+02  0.10876398452E+03  0.00000000000E+00 0.  1.
        -11    1    5    5    0    0  0.83863258798E+02 -0.26574582495E+03  0.20898832787E+03  0.34832457685E+03  0.00000000000E+00 0. -1.
          1    1    6    6  503    0 -0.16322790206E+03  0.12404324662E+03 -0.16410683179E+03  0.26260450735E+03  0.00000000000E+00 0. -1.
         -1    1    6    6    0  503 -0.10388972145E+03  0.23048776236E+02 -0.16402111513E+03  0.19551789309E+03  0.00000000000E+00 0.  1.
<mgrwt>
<rscale>  0 0.13785947E+04</rscale>
<asrwt>0</asrwt>
<pdfrwt beam="1">  1        1 0.15633433E+00 0.13785947E+04</pdfrwt>
<pdfrwt beam="2">  1       -2 0.71933664E-01 0.13785947E+04</pdfrwt>
<totfact> 0.22038915E+01</totfact>
</mgrwt>
</event>
<event>
12    4  0.4486176E-008  0.2941029E+04  0.7818608E-02  0.8260774E-01
          1   -1    0    0  501    0  0.00000000000E+00  0.00000000000E+00  0.18074252114E+04  0.18074252114E+04  0.00000000000E+00 0. -1.
         -2   -1    0    0    0  501 -0.00000000000E+00 -0.00000000000E+00 -0.11964051371E+04  0.11964051371E+04  0.00000000000E+00 0.  1.
        -24    2    1    2    0    0 -0.56524323109E+03  0.72061650599E+03 -0.70552305200E+03  0.11589757155E+04  0.81693777351E+02 0.  0.
        254    2    1    2    0    0  0.56524323109E+03 -0.72061650599E+03  0.13165431263E+04  0.18448546330E+04  0.91181947475E+03 0.  0.
         23    2    4    4    0    0 -0.13438429134E+03  0.71930779480E+02  0.41993389561E+03  0.45570234765E+03  0.89927627446E+02 0.  0.
         23    2    4    4    0    0  0.69962752243E+03 -0.79254728547E+03  0.89660923066E+03  0.13891522853E+04  0.90697792204E+02 0.  0.
          1    1    3    3  502    0 -0.18857402389E+03  0.29636937966E+03 -0.24528524720E+03  0.42843882198E+03  0.00000000000E+00 0. -1.
         -2    1    3    3    0  502 -0.37666920721E+03  0.42424712634E+03 -0.46023780480E+03  0.73053689354E+03  0.00000000000E+00 0.  1.
         11    1    5    5    0    0 -0.19794051840E+02 -0.15229560704E+02  0.24969711637E+02  0.35316150791E+02  0.00000000000E+00 0.  1.
        -11    1    5    5    0    0 -0.11459023950E+03  0.87160340184E+02  0.39496418397E+03  0.42038619686E+03  0.00000000000E+00 0. -1.
          4    1    6    6  503    0  0.69481953117E+03 -0.78514177207E+03  0.87425215494E+03  0.13651148719E+04  0.00000000000E+00 0. -1.
         -4    1    6    6    0  503  0.48079912591E+01 -0.74055133978E+01  0.22357075719E+02  0.24037413407E+02  0.00000000000E+00 0.  1.
<mgrwt>
<rscale>  0 0.29410289E+04</rscale>
<asrwt>0</asrwt>
<pdfrwt beam="1">  1        1 0.27806542E+00 0.29410289E+04</pdfrwt>
<pdfrwt beam="2">  1       -2 0.18406233E+00 0.29410289E+04</pdfrwt>
<totfact> 0.51473643E-01</totfact>
</mgrwt>
</event>
<event>
12    4  0.4486176E-008  0.1289031E+04  0.7818608E-02  0.9038309E-01
          1   -1    0    0  501    0  0.00000000000E+00  0.00000000000E+00  0.76645880293E+03  0.76645880293E+03  0.00000000000E+00 0. -1.
         -2   -1    0    0    0  501 -0.00000000000E+00 -0.00000000000E+00 -0.54197354097E+03  0.54197354097E+03  0.00000000000E+00 0.  1.
        -24    2    1    2    0    0 -0.20576973848E+03 -0.23296942531E+03 -0.36984345464E+02  0.32421364947E+03  0.84443533134E+02 0.  0.
        254    2    1    2    0    0  0.20576973848E+03  0.23296942531E+03  0.26146960743E+03  0.98421869443E+03  0.89649547933E+03 0.  0.
         23    2    4    4    0    0  0.58160222267E+01  0.11515028559E+03  0.56933043497E+03  0.58812353395E+03  0.91971368448E+02 0.  0.
         23    2    4    4    0    0  0.19995371626E+03  0.11781913972E+03 -0.30786082754E+03  0.39609516048E+03  0.90830879621E+02 0.  0.
          3    1    3    3  502    0  0.47967337492E+01 -0.21423834366E+02 -0.11136915860E+02  0.24617478110E+02  0.00000000000E+00 0. -1.
         -4    1    3    3    0  502 -0.21056647223E+03 -0.21154559094E+03 -0.25847429604E+02  0.29959617136E+03  0.00000000000E+00 0.  1.
         11    1    5    5    0    0  0.59820861420E+01 -0.14536019892E+02  0.99040981685E+02  0.10028059275E+03  0.00000000000E+00 0.  1.
        -11    1    5    5    0    0 -0.16606391526E+00  0.12968630548E+03  0.47028945329E+03  0.48784294120E+03  0.00000000000E+00 0. -1.
          1    1    6    6  503    0  0.13882070285E+03  0.12463547576E+03 -0.24725868557E+03  0.30974513224E+03  0.00000000000E+00 0. -1.
         -1    1    6    6    0  503  0.61133013411E+02 -0.68163360400E+01 -0.60602141970E+02  0.86350028240E+02  0.00000000000E+00 0.  1.
<mgrwt>
<rscale>  0 0.12890313E+04</rscale>
<asrwt>0</asrwt>
<pdfrwt beam="1">  1        1 0.11791674E+00 0.12890313E+04</pdfrwt>
<pdfrwt beam="2">  1       -2 0.83380544E-01 0.12890313E+04</pdfrwt>
<totfact> 0.25671512E+01</totfact>
</mgrwt>
</event>
<event>
12    4  0.4486176E-008  0.2600091E+04  0.7818608E-02  0.8368170E-01
          1   -1    0    0  501    0  0.00000000000E+00  0.00000000000E+00  0.12986483578E+04  0.12986483578E+04  0.00000000000E+00 0. -1.
         -2   -1    0    0    0  501 -0.00000000000E+00 -0.00000000000E+00 -0.13014442161E+04  0.13014442161E+04  0.00000000000E+00 0.  1.
        -24    2    1    2    0    0 -0.65166869697E+03 -0.72267606431E+03 -0.59960878302E+03  0.11457442232E+04  0.79160266964E+02 0.  0.
        254    2    1    2    0    0  0.65166869697E+03  0.72267606431E+03  0.59681292470E+03  0.14543483506E+04  0.90111634832E+03 0.  0.
         23    2    4    4    0    0  0.70941694097E+02  0.13117159294E+03  0.59521532345E+03  0.62050922006E+03  0.92258875736E+02 0.  0.
         23    2    4    4    0    0  0.58072700288E+03  0.59150447137E+03  0.15976012565E+01  0.83383913052E+03  0.90353482204E+02 0.  0.
          3    1    3    3  502    0 -0.16354836534E+03 -0.21106001323E+03 -0.13070312429E+03  0.29728387728E+03  0.00000000000E+00 0. -1.
         -4    1    3    3    0  502 -0.48812033163E+03 -0.51161605108E+03 -0.46890565873E+03  0.84846034596E+03  0.00000000000E+00 0.  1.
         11    1    5    5    0    0  0.73588016616E+02  0.64810786103E+02  0.24214127663E+03  0.26124324304E+03  0.00000000000E+00 0. -1.
        -11    1    5    5    0    0 -0.26463225195E+01  0.66360806840E+02  0.35307404682E+03  0.35926597702E+03  0.00000000000E+00 0.  1.
          1    1    6    6  503    0  0.11745729617E+03  0.13020180601E+03 -0.35905675937E+02  0.17899146425E+03  0.00000000000E+00 0. -1.
         -1    1    6    6    0  503  0.46326970671E+03  0.46130266536E+03  0.37503277193E+02  0.65484766627E+03  0.00000000000E+00 0.  1.
<mgrwt>
<rscale>  0 0.26000911E+04</rscale>
<asrwt>0</asrwt>
<pdfrwt beam="1">  1        1 0.19979206E+00 0.26000911E+04</pdfrwt>
<pdfrwt beam="2">  1       -2 0.20022219E+00 0.26000911E+04</pdfrwt>
<totfact> 0.92896505E-01</totfact>
</mgrwt>
</event>
<event>
12    4  0.4486176E-008  0.3299158E+04  0.7818608E-02  0.8163110E-01
         -2   -1    0    0    0  501 -0.00000000000E+00  0.00000000000E+00  0.10493579826E+04  0.10493579826E+04  0.00000000000E+00 0.  1.
          1   -1    0    0  501    0  0.00000000000E+00 -0.00000000000E+00 -0.25931200136E+04  0.25931200136E+04  0.00000000000E+00 0. -1.
        -24    2    1    2    0    0 -0.78412039653E+03  0.12056639565E+04 -0.12884018995E+04  0.19325540934E+04  0.79470103043E+02 0.  0.
        254    2    1    2    0    0  0.78412039653E+03 -0.12056639565E+04 -0.25536013162E+03  0.17099239027E+04  0.88890977276E+03 0.  0.
         23    2    4    4    0    0 -0.14957379292E+02 -0.40418905118E+03 -0.38568892916E+03  0.56698004461E+03  0.95487740682E+02 0.  0.
         23    2    4    4    0    0  0.79907777583E+03 -0.80147490532E+03  0.13032879754E+03  0.11429438581E+04  0.91911651677E+02 0.  0.
          1    1    3    3  502    0 -0.69015487240E+03  0.10100219501E+04 -0.11013168117E+04  0.16460123959E+04  0.00000000000E+00 0. -1.
         -4    1    3    3    0  502 -0.93965524133E+02  0.19564200635E+03 -0.18708508778E+03  0.28654169757E+03  0.00000000000E+00 0.  1.
         11    1    5    5    0    0  0.36329674224E+02 -0.23184994222E+03 -0.19783628331E+03  0.30694207260E+03  0.00000000000E+00 0. -1.
        -11    1    5    5    0    0 -0.51287053516E+02 -0.17233910895E+03 -0.18785264585E+03  0.26003797201E+03  0.00000000000E+00 0.  1.
          2    1    6    6  503    0  0.18738857536E+03 -0.22678143574E+03  0.63659806132E+02  0.30099313728E+03  0.00000000000E+00 0. -1.
         -2    1    6    6    0  503  0.61168920046E+03 -0.57469346958E+03  0.66668991407E+02  0.84195072086E+03  0.00000000000E+00 0.  1.
<mgrwt>
<rscale>  0 0.32991582E+04</rscale>
<asrwt>0</asrwt>
<pdfrwt beam="1">  1        1 0.39894154E+00 0.32991582E+04</pdfrwt>
<pdfrwt beam="2">  1       -2 0.16143969E+00 0.32991582E+04</pdfrwt>
<totfact> 0.20932644E-01</totfact>
</mgrwt>
</event>
<event>
12    4  0.4486176E-008  0.1463029E+04  0.7818608E-02  0.8909417E-01
         -2   -1    0    0    0  501 -0.00000000000E+00  0.00000000000E+00  0.29152337734E+03  0.29152337734E+03  0.00000000000E+00 0.  1.
          1   -1    0    0  501    0  0.00000000000E+00 -0.00000000000E+00 -0.18355764062E+04  0.18355764062E+04  0.00000000000E+00 0. -1.
        -24    2    1    2    0    0 -0.26724043589E+03  0.35354384106E+03 -0.43202022616E+03  0.62438988827E+03  0.82526108807E+02 0.  0.
        254    2    1    2    0    0  0.26724043589E+03 -0.35354384106E+03 -0.11120328027E+04  0.15027098953E+04  0.90835531427E+03 0.  0.
         23    2    4    4    0    0 -0.21074643722E+03  0.11036426577E+03 -0.73095384125E+02  0.26512930041E+03  0.91412683992E+02 0.  0.
         23    2    4    4    0    0  0.47798687312E+03 -0.46390810683E+03 -0.10389374186E+04  0.12375805949E+04  0.92372001297E+02 0.  0.
          3    1    3    3  502    0 -0.45555406216E+02  0.19317374767E+02 -0.54219578569E+02  0.73404486945E+02  0.00000000000E+00 0. -1.
         -4    1    3    3    0  502 -0.22168502968E+03  0.33422646629E+03 -0.37780064759E+03  0.55098540132E+03  0.00000000000E+00 0.  1.
         11    1    5    5    0    0  0.67660075386E+01  0.97461215432E+01  0.52736800663E+01  0.12983737697E+02  0.00000000000E+00 0.  1.
        -11    1    5    5    0    0 -0.21751244476E+03  0.10061814423E+03 -0.78369064191E+02  0.25214556272E+03  0.00000000000E+00 0. -1.
          4    1    6    6  503    0  0.52887626073E+02 -0.21824074040E+02 -0.11759616343E+03  0.13077556673E+03  0.00000000000E+00 0.  1.
         -4    1    6    6    0  503  0.42509924704E+03 -0.44208403279E+03 -0.92134125515E+03  0.11068050281E+04  0.00000000000E+00 0. -1.
<mgrwt>
<rscale>  0 0.14630290E+04</rscale>
<asrwt>0</asrwt>
<pdfrwt beam="1">  1        1 0.28239637E+00 0.14630290E+04</pdfrwt>
<pdfrwt beam="2">  1       -2 0.44849750E-01 0.14630290E+04</pdfrwt>
<totfact> 0.15477211E+01</totfact>
</mgrwt>
</event>
<event>
12    4  0.4486176E-008  0.1594970E+04  0.7818608E-02  0.8823644E-01
         -2   -1    0    0    0  501 -0.00000000000E+00  0.00000000000E+00  0.33793470593E+03  0.33793470593E+03  0.00000000000E+00 0.  1.
          1   -1    0    0  501    0  0.00000000000E+00 -0.00000000000E+00 -0.18819680833E+04  0.18819680833E+04  0.00000000000E+00 0. -1.
        -24    2    1    2    0    0 -0.37284769586E+02  0.20630903196E+03 -0.12151199653E+04  0.12354574698E+04  0.76714137925E+02 0.  0.
        254    2    1    2    0    0  0.37284769586E+02 -0.20630903196E+03 -0.32891341206E+03  0.98444531940E+03  0.90387774812E+03 0.  0.
         23    2    4    4    0    0 -0.34689929422E+03 -0.10507716011E+03 -0.42506776363E+03  0.56598221809E+03  0.90955690374E+02 0.  0.
         23    2    4    4    0    0  0.38418406380E+03 -0.10123187186E+03  0.96154351574E+02  0.41846310131E+03  0.89556803617E+02 0.  0.
          3    1    3    3  502    0 -0.49202247034E+02  0.15601937160E+03 -0.10427932378E+04  0.10555475556E+04  0.00000000000E+00 0. -1.
         -4    1    3    3    0  502  0.11917477448E+02  0.50289660367E+02 -0.17232672749E+03  0.17990991416E+03  0.00000000000E+00 0.  1.
         11    1    5    5    0    0 -0.23004644070E+03 -0.36647783771E+02 -0.22119308280E+03  0.32123325608E+03  0.00000000000E+00 0. -1.
        -11    1    5    5    0    0 -0.11685285352E+03 -0.68429376338E+02 -0.20387468083E+03  0.24474896201E+03  0.00000000000E+00 0.  1.
          1    1    6    6  503    0  0.31499315872E+03 -0.46334877650E+02  0.84246582820E+02  0.32934039783E+03  0.00000000000E+00 0. -1.
         -1    1    6    6    0  503  0.69190905083E+02 -0.54896994206E+02  0.11907768754E+02  0.89122703481E+02  0.00000000000E+00 0.  1.
<mgrwt>
<rscale>  0 0.15949700E+04</rscale>
<asrwt>0</asrwt>
<pdfrwt beam="1">  1        1 0.28953355E+00 0.15949700E+04</pdfrwt>
<pdfrwt beam="2">  1       -2 0.51989956E-01 0.15949700E+04</pdfrwt>
<totfact> 0.10551518E+01</totfact>
</mgrwt>
</event>
<event>
12    4  0.4486176E-008  0.2669614E+04  0.7818608E-02  0.8344932E-01
         -4   -1    0    0    0  501 -0.00000000000E+00  0.00000000000E+00  0.12809194431E+04  0.12809194431E+04  0.00000000000E+00 0.  1.
          3   -1    0    0  501    0  0.00000000000E+00 -0.00000000000E+00 -0.13909620320E+04  0.13909620320E+04  0.00000000000E+00 0. -1.
        -24    2    1    2    0    0 -0.40346134088E+03 -0.11158854921E+04  0.24058507042E+01  0.11892400952E+04  0.79402335876E+02 0.  0.
        254    2    1    2    0    0  0.40346134088E+03  0.11158854921E+04 -0.11244843968E+03  0.14826413799E+04  0.88181592452E+03 0.  0.
         23    2    4    4    0    0  0.22161372990E+03  0.45993632274E+03 -0.47763253236E+03  0.70534227306E+03  0.93385330484E+02 0.  0.
         23    2    4    4    0    0  0.18184761098E+03  0.65594916935E+03  0.36518409268E+03  0.77729910682E+03  0.86582986348E+02 0.  0.
          3    1    3    3  502    0 -0.38600707638E+03 -0.10995217991E+04  0.26096710855E+01  0.11653138891E+04  0.00000000000E+00 0. -1.
         -4    1    3    3    0  502 -0.17454264500E+02 -0.16363692972E+02 -0.20382038130E+00  0.23926206127E+02  0.00000000000E+00 0.  1.
         11    1    5    5    0    0  0.99597688939E+02  0.13053376819E+03 -0.19171664127E+03  0.25241639174E+03  0.00000000000E+00 0.  1.
        -11    1    5    5    0    0  0.12201604096E+03  0.32940255455E+03 -0.28591589109E+03  0.45292588133E+03  0.00000000000E+00 0. -1.
          1    1    6    6  503    0  0.15178821073E+03  0.39062132145E+03  0.22856390288E+03  0.47735326058E+03  0.00000000000E+00 0. -1.
         -1    1    6    6    0  503  0.30059400255E+02  0.26532784790E+03  0.13662018980E+03  0.29994584624E+03  0.00000000000E+00 0.  1.
<mgrwt>
<rscale>  0 0.26696144E+04</rscale>
<asrwt>0</asrwt>
<pdfrwt beam="1">  1        3 0.21399416E+00 0.26696144E+04</pdfrwt>
<pdfrwt beam="2">  1       -4 0.19706453E+00 0.26696144E+04</pdfrwt>
<totfact> 0.33249809E-02</totfact>
</mgrwt>
</event>
<event>
12    4  0.4486176E-008  0.2072518E+04  0.7818608E-02  0.8573447E-01
          1   -1    0    0  501    0  0.00000000000E+00  0.00000000000E+00  0.40305098614E+03  0.40305098614E+03  0.00000000000E+00 0. -1.
         -2   -1    0    0    0  501 -0.00000000000E+00 -0.00000000000E+00 -0.26642594705E+04  0.26642594705E+04  0.00000000000E+00 0.  1.
        -24    2    1    2    0    0  0.51692933675E+03 -0.25979410556E+03 -0.20109482937E+02  0.58383363592E+03  0.75818247480E+02 0.  0.
        254    2    1    2    0    0 -0.51692933675E+03  0.25979410556E+03 -0.22410990014E+04  0.24834768207E+04  0.90023522950E+03 0.  0.
         23    2    4    4    0    0  0.20327666637E+03  0.15512082618E+03 -0.28280205184E+03  0.39179028819E+03  0.90215051904E+02 0.  0.
         23    2    4    4    0    0 -0.72020600312E+03  0.10467327937E+03 -0.19582969496E+04  0.20916865326E+04  0.10282229961E+03 0.  0.
          3    1    3    3  502    0  0.33817931816E+03 -0.13460934486E+03  0.61219654793E+01  0.36403626937E+03  0.00000000000E+00 0. -1.
         -4    1    3    3    0  502  0.17875001859E+03 -0.12518476069E+03 -0.26231448416E+02  0.21979736655E+03  0.00000000000E+00 0.  1.
         11    1    5    5    0    0  0.13377611717E+03  0.14616402063E+03 -0.23279507353E+03  0.30570167928E+03  0.00000000000E+00 0. -1.
        -11    1    5    5    0    0  0.69500549203E+02  0.89568055472E+01 -0.50006978308E+02  0.86088608913E+02  0.00000000000E+00 0.  1.
          3    1    6    6  503    0 -0.47038902427E+03  0.18675990934E+02 -0.12642653856E+04  0.13490669338E+04  0.00000000000E+00 0. -1.
         -3    1    6    6    0  503 -0.24981697885E+03  0.85997288440E+02 -0.69403156404E+03  0.74261959874E+03  0.00000000000E+00 0.  1.
<mgrwt>
<rscale>  0 0.20725177E+04</rscale>
<asrwt>0</asrwt>
<pdfrwt beam="1">  1        1 0.62007844E-01 0.20725177E+04</pdfrwt>
<pdfrwt beam="2">  1       -2 0.40988607E+00 0.20725177E+04</pdfrwt>
<totfact> 0.30700762E-01</totfact>
</mgrwt>
</event>
<event>
12    4  0.4486176E-008  0.1202589E+04  0.7818608E-02  0.9110593E-01
          1   -1    0    0  501    0  0.00000000000E+00  0.00000000000E+00  0.82225380814E+03  0.82225380814E+03  0.00000000000E+00 0. -1.
         -2   -1    0    0    0  501 -0.00000000000E+00 -0.00000000000E+00 -0.43971253326E+03  0.43971253326E+03  0.00000000000E+00 0.  1.
        -24    2    1    2    0    0  0.67069179817E+02 -0.12100346064E+03  0.31433508676E+03  0.35204444553E+03  0.77386255219E+02 0.  0.
        254    2    1    2    0    0 -0.67069179817E+02  0.12100346064E+03  0.68206188126E+02  0.90992189587E+03  0.89675284227E+03 0.  0.
         23    2    4    4    0    0  0.63615136279E+02 -0.25770326707E+02 -0.38867058084E+03  0.40531264874E+03  0.92209150935E+02 0.  0.
         23    2    4    4    0    0 -0.13068431610E+03  0.14677378735E+03  0.45687676896E+03  0.50460924713E+03  0.85282912397E+02 0.  0.
          3    1    3    3  502    0  0.80011605238E+02 -0.12004747206E+03  0.29877540246E+03  0.33178305207E+03  0.00000000000E+00 0. -1.
         -4    1    3    3    0  502 -0.12942425422E+02 -0.95598858123E+00  0.15559684290E+02  0.20261393466E+02  0.00000000000E+00 0.  1.
         11    1    5    5    0    0  0.61705400050E+02 -0.40243615993E+02 -0.38238759360E+03  0.38941928145E+03  0.00000000000E+00 0. -1.
        -11    1    5    5    0    0  0.19097362292E+01  0.14473289286E+02 -0.62829872371E+01  0.15893367291E+02  0.00000000000E+00 0.  1.
          1    1    6    6  503    0 -0.58188041140E+02  0.12576938717E+03  0.30537380899E+03  0.33534601548E+03  0.00000000000E+00 0. -1.
         -1    1    6    6    0  503 -0.72496274956E+02  0.21004400185E+02  0.15150295997E+03  0.16926323165E+03  0.00000000000E+00 0.  1.
<mgrwt>
<rscale>  0 0.12025894E+04</rscale>
<asrwt>0</asrwt>
<pdfrwt beam="1">  1        1 0.12650059E+00 0.12025894E+04</pdfrwt>
<pdfrwt beam="2">  1       -2 0.67648082E-01 0.12025894E+04</pdfrwt>
<totfact> 0.36729341E+01</totfact>
</mgrwt>
</event>
<event>
12    4  0.4486176E-008  0.2394588E+04  0.7818608E-02  0.8441533E-01
          1   -1    0    0  501    0  0.00000000000E+00  0.00000000000E+00  0.27536863696E+04  0.27536863696E+04  0.00000000000E+00 0. -1.
         -2   -1    0    0    0  501 -0.00000000000E+00 -0.00000000000E+00 -0.52057953233E+03  0.52057953233E+03  0.00000000000E+00 0.  1.
        -24    2    1    2    0    0 -0.91160843333E+03  0.29966795648E+03  0.45089218367E+03  0.10631907010E+04  0.78992946535E+02 0.  0.
        254    2    1    2    0    0  0.91160843333E+03 -0.29966795648E+03  0.17822146536E+04  0.22110752009E+04  0.88979416309E+03 0.  0.
         23    2    4    4    0    0  0.35940196968E+03 -0.44870061395E+03  0.38338994781E+03  0.69717871880E+03  0.92565096561E+02 0.  0.
         23    2    4    4    0    0  0.55220646365E+03  0.14903265748E+03  0.13988247057E+04  0.15138964821E+04  0.89606302789E+02 0.  0.
          3    1    3    3  502    0 -0.53027941779E+02  0.12520159776E+02  0.71153477181E+01  0.54948568528E+02  0.00000000000E+00 0. -1.
         -4    1    3    3    0  502 -0.85858049155E+03  0.28714779670E+03  0.44377683595E+03  0.10082421325E+04  0.00000000000E+00 0.  1.
         11    1    5    5    0    0  0.34680630286E+03 -0.38848225189E+03  0.34435503598E+03  0.62431839837E+03  0.00000000000E+00 0. -1.
        -11    1    5    5    0    0  0.12595666813E+02 -0.60218362062E+02  0.39034911827E+02  0.72860320430E+02  0.00000000000E+00 0.  1.
          1    1    6    6  503    0  0.43571940569E+03  0.14441092083E+03  0.11761495420E+04  0.12625504583E+04  0.00000000000E+00 0. -1.
         -1    1    6    6    0  503  0.11648705796E+03  0.46217366494E+01  0.22267516372E+03  0.25134602376E+03  0.00000000000E+00 0.  1.
<mgrwt>
<rscale>  0 0.23945879E+04</rscale>
<asrwt>0</asrwt>
<pdfrwt beam="1">  1        1 0.42364405E+00 0.23945879E+04</pdfrwt>
<pdfrwt beam="2">  1       -2 0.80089161E-01 0.23945879E+04</pdfrwt>
<totfact> 0.97706442E-01</totfact>
</mgrwt>
</event>
<event>
12    4  0.4486176E-008  0.2642317E+04  0.7818608E-02  0.8353968E-01
          3   -1    0    0  501    0  0.00000000000E+00  0.00000000000E+00  0.22729857842E+04  0.22729857842E+04  0.00000000000E+00 0. -1.
         -4   -1    0    0    0  501 -0.00000000000E+00 -0.00000000000E+00 -0.76791491717E+03  0.76791491717E+03  0.00000000000E+00 0.  1.
        -24    2    1    2    0    0 -0.13078188915E+03  0.11221842839E+04  0.31558379552E+03  0.11757293394E+04  0.79654742610E+02 0.  0.
        254    2    1    2    0    0  0.13078188915E+03 -0.11221842839E+04  0.11894870715E+04  0.18651713620E+04  0.88745887047E+03 0.  0.
         23    2    4    4    0    0 -0.35861314541E+03 -0.57430768098E+03  0.69130031668E+03  0.97218740342E+03  0.93912294357E+02 0.  0.
         23    2    4    4    0    0  0.48939503456E+03 -0.54787660289E+03  0.49818675487E+03  0.89298395859E+03  0.97744747793E+02 0.  0.
          1    1    3    3  502    0 -0.11754603170E+02  0.89867409895E+02  0.48523457434E+02  0.10280490250E+03  0.00000000000E+00 0. -1.
         -2    1    3    3    0  502 -0.11902728598E+03  0.10323168740E+04  0.26706033809E+03  0.10729244369E+04  0.00000000000E+00 0.  1.
         11    1    5    5    0    0 -0.19783881501E+03 -0.24118486247E+03  0.28206912439E+03  0.42056310530E+03  0.00000000000E+00 0. -1.
        -11    1    5    5    0    0 -0.16077433040E+03 -0.33312281851E+03  0.40923119229E+03  0.55162429811E+03  0.00000000000E+00 0.  1.
          2    1    6    6  503    0  0.28273178711E+03 -0.38587312967E+03  0.32993236953E+03  0.58111161071E+03  0.00000000000E+00 0. -1.
         -2    1    6    6    0  503  0.20666324746E+03 -0.16200347323E+03  0.16825438534E+03  0.31187234788E+03  0.00000000000E+00 0.  1.
<mgrwt>
<rscale>  0 0.26423169E+04</rscale>
<asrwt>0</asrwt>
<pdfrwt beam="1">  1        3 0.34969012E+00 0.26423169E+04</pdfrwt>
<pdfrwt beam="2">  1       -4 0.11814076E+00 0.26423169E+04</pdfrwt>
<totfact> 0.22962103E-02</totfact>
</mgrwt>
</event>
<event>
12    4  0.4486176E-008  0.1486565E+04  0.7818608E-02  0.8893436E-01
          1   -1    0    0  501    0  0.00000000000E+00  0.00000000000E+00  0.22151680970E+04  0.22151680970E+04  0.00000000000E+00 0. -1.
         -2   -1    0    0    0  501 -0.00000000000E+00 -0.00000000000E+00 -0.24940272165E+03  0.24940272165E+03  0.00000000000E+00 0.  1.
        -24    2    1    2    0    0  0.25983059983E+03  0.84290538106E+02 -0.73876809994E+01  0.28453071763E+03  0.79286291495E+02 0.  0.
        254    2    1    2    0    0 -0.25983059983E+03 -0.84290538106E+02  0.19731530564E+04  0.21800401010E+04  0.88579062022E+03 0.  0.
         23    2    4    4    0    0 -0.42757074814E+03 -0.24308655771E+03  0.18215632910E+04  0.18889681289E+04  0.90553573552E+02 0.  0.
         23    2    4    4    0    0  0.16774014831E+03  0.15879601961E+03  0.15158976535E+03  0.29107197212E+03  0.91599687763E+02 0.  0.
          1    1    3    3  502    0  0.13377556701E+03  0.55197645954E+02 -0.41859058763E+02  0.15064814386E+03  0.00000000000E+00 0. -1.
         -2    1    3    3    0  502  0.12605503282E+03  0.29092892152E+02  0.34471377763E+02  0.13388257377E+03  0.00000000000E+00 0.  1.
         11    1    5    5    0    0 -0.21448114679E+03 -0.91317788984E+02  0.72144757708E+03  0.75817392951E+03  0.00000000000E+00 0. -1.
        -11    1    5    5    0    0 -0.21308960135E+03 -0.15176876873E+03  0.11001157139E+04  0.11307941994E+04  0.00000000000E+00 0.  1.
          3    1    6    6  503    0  0.19390068973E+02 -0.10221604450E+01  0.43621050619E+02  0.47747415049E+02  0.00000000000E+00 0. -1.
         -3    1    6    6    0  503  0.14835007934E+03  0.15981818005E+03  0.10796871473E+03  0.24332455707E+03  0.00000000000E+00 0.  1.
<mgrwt>
<rscale>  0 0.14865651E+04</rscale>
<asrwt>0</asrwt>
<pdfrwt beam="1">  1        1 0.34079508E+00 0.14865651E+04</pdfrwt>
<pdfrwt beam="2">  1       -2 0.38369651E-01 0.14865651E+04</pdfrwt>
<totfact> 0.11618617E+01</totfact>
</mgrwt>
</event>
<event>
12    4  0.4486176E-008  0.1921471E+04  0.7818608E-02  0.8644242E-01
         -2   -1    0    0    0  501 -0.00000000000E+00  0.00000000000E+00  0.60002613832E+03  0.60002613832E+03  0.00000000000E+00 0.  1.
          1   -1    0    0  501    0  0.00000000000E+00 -0.00000000000E+00 -0.15382872361E+04  0.15382872361E+04  0.00000000000E+00 0. -1.
        -24    2    1    2    0    0 -0.23341614086E+03  0.63850671861E+02  0.41425387992E+03  0.48621703613E+03  0.78998266304E+02 0.  0.
        254    2    1    2    0    0  0.23341614086E+03 -0.63850671861E+02 -0.13525149777E+04  0.16520963383E+04  0.91736881514E+03 0.  0.
         23    2    4    4    0    0  0.26907145814E+03 -0.45956571255E+03 -0.78879211457E+03  0.95610327196E+03  0.91325642088E+02 0.  0.
         23    2    4    4    0    0 -0.35655317286E+02  0.39571504069E+03 -0.56372286316E+03  0.69599306636E+03  0.93601212023E+02 0.  0.
          3    1    3    3  502    0 -0.14305146337E+03  0.24879545754E+02  0.31289641425E+03  0.34494474778E+03  0.00000000000E+00 0. -1.
         -4    1    3    3    0  502 -0.90364677489E+02  0.38971126107E+02  0.10135746567E+03  0.14127228835E+03  0.00000000000E+00 0.  1.
         11    1    5    5    0    0  0.16762501175E+03 -0.36253967370E+03 -0.60175185361E+03  0.72224542428E+03  0.00000000000E+00 0. -1.
        -11    1    5    5    0    0  0.10144644639E+03 -0.97026038849E+02 -0.18704026095E+03  0.23385784767E+03  0.00000000000E+00 0.  1.
          2    1    6    6  503    0 -0.18640582587E+02  0.38588582832E+03 -0.54957573621E+03  0.67178034628E+03  0.00000000000E+00 0. -1.
         -2    1    6    6    0  503 -0.17014734699E+02  0.98292123729E+01 -0.14147126946E+02  0.24212720078E+02  0.00000000000E+00 0.  1.
<mgrwt>
<rscale>  0 0.19214708E+04</rscale>
<asrwt>0</asrwt>
<pdfrwt beam="1">  1        1 0.23665958E+00 0.19214708E+04</pdfrwt>
<pdfrwt beam="2">  1       -2 0.92311713E-01 0.19214708E+04</pdfrwt>
<totfact> 0.50270171E+00</totfact>
</mgrwt>
</event>
<event>
12    4  0.4486176E-008  0.3066179E+04  0.7818608E-02  0.8225082E-01
          1   -1    0    0  501    0  0.00000000000E+00  0.00000000000E+00  0.13525599921E+04  0.13525599921E+04  0.00000000000E+00 0. -1.
         -2   -1    0    0    0  501 -0.00000000000E+00 -0.00000000000E+00 -0.17377146989E+04  0.17377146989E+04  0.00000000000E+00 0.  1.
        -24    2    1    2    0    0  0.44843168173E+03  0.13262656817E+04 -0.13158306103E+03  0.14084656564E+04  0.79936047794E+02 0.  0.
        254    2    1    2    0    0 -0.44843168173E+03 -0.13262656817E+04 -0.25357164569E+03  0.16818090346E+04  0.89672259786E+03 0.  0.
         23    2    4    4    0    0 -0.51385317383E+03 -0.11596268514E+04  0.99069235163E+02  0.12758247522E+04  0.95574923788E+02 0.  0.
         23    2    4    4    0    0  0.65421492101E+02 -0.16663883030E+03 -0.35264088085E+03  0.40598428240E+03  0.91756064193E+02 0.  0.
          1    1    3    3  502    0  0.45015195587E+03  0.13075328346E+04 -0.12481350533E+03  0.13884730131E+04  0.00000000000E+00 0. -1.
         -2    1    3    3    0  502 -0.17202741381E+01  0.18732847132E+02 -0.67695557004E+01  0.19992643376E+02  0.00000000000E+00 0.  1.
         11    1    5    5    0    0 -0.21379788774E+03 -0.48011798512E+03  0.88316665022E+02  0.53293775411E+03  0.00000000000E+00 0. -1.
        -11    1    5    5    0    0 -0.30005528610E+03 -0.67950886630E+03  0.10752570141E+02  0.74288699804E+03  0.00000000000E+00 0.  1.
          4    1    6    6  503    0  0.69420668775E+02 -0.16181438750E+03 -0.26526774951E+03  0.31838672112E+03  0.00000000000E+00 0. -1.
         -4    1    6    6    0  503 -0.39991766740E+01 -0.48244428053E+01 -0.87373131340E+02  0.87597561282E+02  0.00000000000E+00 0.  1.
<mgrwt>
<rscale>  0 0.30661790E+04</rscale>
<asrwt>0</asrwt>
<pdfrwt beam="1">  1        1 0.20808615E+00 0.30661790E+04</pdfrwt>
<pdfrwt beam="2">  1       -2 0.26734072E+00 0.30661790E+04</pdfrwt>
<totfact> 0.31024986E-01</totfact>
</mgrwt>
</event>
<event>
12    4  0.4486176E-008  0.1857657E+04  0.7818608E-02  0.8676225E-01
          1   -1    0    0  501    0  0.00000000000E+00  0.00000000000E+00  0.11205075342E+04  0.11205075342E+04  0.00000000000E+00 0. -1.
         -2   -1    0    0    0  501 -0.00000000000E+00 -0.00000000000E+00 -0.76993858926E+03  0.76993858926E+03  0.00000000000E+00 0.  1.
        -24    2    1    2    0    0  0.18471501206E+03  0.22165569776E+03  0.79176051010E+03  0.84644218521E+03  0.79553651792E+02 0.  0.
        254    2    1    2    0    0 -0.18471501206E+03 -0.22165569776E+03 -0.44119156520E+03  0.10440039382E+04  0.90113447485E+03 0.  0.
         23    2    4    4    0    0 -0.52343226606E+03 -0.13668309582E+03 -0.12267796297E+03  0.56211494027E+03  0.90882988742E+02 0.  0.
         23    2    4    4    0    0  0.33871725400E+03 -0.84972601945E+02 -0.31851360223E+03  0.48188899794E+03  0.93895528589E+02 0.  0.
          1    1    3    3  502    0  0.83955873459E+02  0.46011390057E+02  0.28855939719E+03  0.30402658175E+03  0.00000000000E+00 0. -1.
         -2    1    3    3    0  502  0.10075913860E+03  0.17564430771E+03  0.50320111291E+03  0.54241560346E+03  0.00000000000E+00 0.  1.
         11    1    5    5    0    0 -0.69806756487E+02  0.96907329210E+01 -0.29680672899E+02  0.76471144228E+02  0.00000000000E+00 0. -1.
        -11    1    5    5    0    0 -0.45362550957E+03 -0.14637382874E+03 -0.92997290075E+02  0.48564379605E+03  0.00000000000E+00 0.  1.
          3    1    6    6  503    0  0.20777851156E+03 -0.86898837946E+02 -0.24036000046E+03  0.32938768605E+03  0.00000000000E+00 0. -1.
         -3    1    6    6    0  503  0.13093874244E+03  0.19262360003E+01 -0.78153601771E+02  0.15250131189E+03  0.00000000000E+00 0.  1.
<mgrwt>
<rscale>  0 0.18576566E+04</rscale>
<asrwt>0</asrwt>
<pdfrwt beam="1">  1        1 0.17238577E+00 0.18576566E+04</pdfrwt>
<pdfrwt beam="2">  1       -2 0.11845209E+00 0.18576566E+04</pdfrwt>
<totfact> 0.55259631E+00</totfact>
</mgrwt>
</event>
<event>
12    4  0.4486176E-008  0.2767315E+04  0.7818608E-02  0.8313488E-01
         -2   -1    0    0    0  501 -0.00000000000E+00  0.00000000000E+00  0.11993295725E+04  0.11993295725E+04  0.00000000000E+00 0.  1.
          1   -1    0    0  501    0  0.00000000000E+00 -0.00000000000E+00 -0.15963146999E+04  0.15963146999E+04  0.00000000000E+00 0. -1.
        -24    2    1    2    0    0  0.76163142586E+03 -0.23038415311E+03  0.78500474617E+03  0.11206625597E+04  0.80578125686E+02 0.  0.
        254    2    1    2    0    0 -0.76163142586E+03  0.23038415311E+03 -0.11819898736E+04  0.16749817127E+04  0.88051370795E+03 0.  0.
         23    2    4    4    0    0 -0.53540283797E+03  0.43473288257E+03 -0.11649031982E+04  0.13563421500E+04  0.83759707621E+02 0.  0.
         23    2    4    4    0    0 -0.22622858789E+03 -0.20434872946E+03 -0.17086675419E+02  0.31863956276E+03  0.91112234460E+02 0.  0.
          3    1    3    3  502    0  0.12705022524E+02  0.59636335947E+01  0.94139524360E+01  0.16899852764E+02  0.00000000000E+00 0. -1.
         -4    1    3    3    0  502  0.74892640333E+03 -0.23634778670E+03  0.77559079373E+03  0.11037627069E+04  0.00000000000E+00 0.  1.
         11    1    5    5    0    0 -0.14107522366E+03  0.14850350898E+03 -0.29249800542E+03  0.35708625581E+03  0.00000000000E+00 0.  1.
        -11    1    5    5    0    0 -0.39432761431E+03  0.28622937359E+03 -0.87240519274E+03  0.99925589417E+03  0.00000000000E+00 0. -1.
          1    1    6    6  503    0 -0.20350220734E+03 -0.14342093975E+03 -0.34443837931E+02  0.25133462222E+03  0.00000000000E+00 0. -1.
         -1    1    6    6    0  503 -0.22726380549E+02 -0.60927789705E+02  0.17357162511E+02  0.67304940544E+02  0.00000000000E+00 0.  1.
<mgrwt>
<rscale>  0 0.27673145E+04</rscale>
<asrwt>0</asrwt>
<pdfrwt beam="1">  1        1 0.24558688E+00 0.27673145E+04</pdfrwt>
<pdfrwt beam="2">  1       -2 0.18451224E+00 0.27673145E+04</pdfrwt>
<totfact> 0.72268650E-01</totfact>
</mgrwt>
</event>
<event>
12    4  0.4486176E-008  0.2400676E+04  0.7818608E-02  0.8439251E-01
          1   -1    0    0  501    0  0.00000000000E+00  0.00000000000E+00  0.13442752691E+04  0.13442752691E+04  0.00000000000E+00 0. -1.
         -2   -1    0    0    0  501 -0.00000000000E+00 -0.00000000000E+00 -0.10718123570E+04  0.10718123570E+04  0.00000000000E+00 0.  1.
        -24    2    1    2    0    0  0.78878550505E+03  0.84032784797E+02  0.77110941177E+03  0.11090662666E+04  0.78575930371E+02 0.  0.
        254    2    1    2    0    0 -0.78878550505E+03 -0.84032784797E+02 -0.49864649963E+03  0.13070213596E+04  0.91126967516E+03 0.  0.
         23    2    4    4    0    0  0.16712321162E+03  0.55625806962E+02  0.34109320994E+02  0.19972677128E+03  0.87766389510E+02 0.  0.
         23    2    4    4    0    0 -0.95590871667E+03 -0.13965859176E+03 -0.53275582063E+03  0.11072945883E+04  0.94902813277E+02 0.  0.
          1    1    3    3  502    0  0.41380431984E+03  0.47920540993E+01  0.39500733629E+03  0.57209070489E+03  0.00000000000E+00 0. -1.
         -2    1    3    3    0  502  0.37498118521E+03  0.79240730697E+02  0.37610207548E+03  0.53697556168E+03  0.00000000000E+00 0.  1.
         11    1    5    5    0    0  0.41253194223E+02  0.20945161391E+02 -0.29114058230E+02  0.54664011981E+02  0.00000000000E+00 0.  1.
        -11    1    5    5    0    0  0.12587001740E+03  0.34680645571E+02  0.63223379224E+02  0.14506275930E+03  0.00000000000E+00 0. -1.
          2    1    6    6  503    0 -0.50750575601E+03 -0.11944157984E+03 -0.26895896086E+03  0.58665774179E+03  0.00000000000E+00 0. -1.
         -2    1    6    6    0  503 -0.44840296066E+03 -0.20217011921E+02 -0.26379685977E+03  0.52063684649E+03  0.00000000000E+00 0.  1.
<mgrwt>
<rscale>  0 0.24006756E+04</rscale>
<asrwt>0</asrwt>
<pdfrwt beam="1">  1        1 0.20681158E+00 0.24006756E+04</pdfrwt>
<pdfrwt beam="2">  1       -2 0.16489421E+00 0.24006756E+04</pdfrwt>
<totfact> 0.15344105E+00</totfact>
</mgrwt>
</event>
<event>
12    4  0.4486176E-008  0.2192659E+04  0.7818608E-02  0.8521490E-01
         -2   -1    0    0    0  501 -0.00000000000E+00  0.00000000000E+00  0.74548312111E+03  0.74548312111E+03  0.00000000000E+00 0.  1.
          1   -1    0    0  501    0  0.00000000000E+00 -0.00000000000E+00 -0.16122949873E+04  0.16122949873E+04  0.00000000000E+00 0. -1.
        -24    2    1    2    0    0 -0.20092970698E+03 -0.27306608458E+03  0.54791148547E+03  0.64908772388E+03  0.78549625648E+02 0.  0.
        254    2    1    2    0    0  0.20092970698E+03  0.27306608458E+03 -0.14147233516E+04  0.17086903845E+04  0.89623815738E+03 0.  0.
         23    2    4    4    0    0  0.35521423279E+03 -0.11380711409E+03 -0.22506708860E+03  0.44454534881E+03  0.88522101111E+02 0.  0.
         23    2    4    4    0    0 -0.15428452581E+03  0.38687319867E+03 -0.11896562630E+04  0.12641450357E+04  0.96467923800E+02 0.  0.
          1    1    3    3  502    0 -0.18793659519E-01  0.48465882921E+01  0.51931110564E+01  0.71033917052E+01  0.00000000000E+00 0. -1.
         -2    1    3    3    0  502 -0.20091091332E+03 -0.27791267287E+03  0.54271837441E+03  0.64198433218E+03  0.00000000000E+00 0.  1.
         11    1    5    5    0    0  0.50025179753E+02 -0.46991585432E+02 -0.60200110981E+02  0.91295022169E+02  0.00000000000E+00 0.  1.
        -11    1    5    5    0    0  0.30518905304E+03 -0.66815528658E+02 -0.16486697761E+03  0.35325032664E+03  0.00000000000E+00 0. -1.
          2    1    6    6  503    0 -0.67089959396E+02  0.26104454474E+03 -0.84691007607E+03  0.88876430730E+03  0.00000000000E+00 0. -1.
         -2    1    6    6    0  503 -0.87194566418E+02  0.12582865393E+03 -0.34274618696E+03  0.37538072838E+03  0.00000000000E+00 0.  1.
<mgrwt>
<rscale>  0 0.21926593E+04</rscale>
<asrwt>0</asrwt>
<pdfrwt beam="1">  1        1 0.24804538E+00 0.21926593E+04</pdfrwt>
<pdfrwt beam="2">  1       -2 0.11468971E+00 0.21926593E+04</pdfrwt>
<totfact> 0.26020644E+00</totfact>
</mgrwt>
</event>
<event>
12    4  0.4486176E-008  0.1317665E+04  0.7818608E-02  0.9015673E-01
         -2   -1    0    0    0  501 -0.00000000000E+00  0.00000000000E+00  0.26274054023E+03  0.26274054023E+03  0.00000000000E+00 0.  1.
          1   -1    0    0  501    0  0.00000000000E+00 -0.00000000000E+00 -0.16520492766E+04  0.16520492766E+04  0.00000000000E+00 0. -1.
        -24    2    1    2    0    0  0.15361985745E+03  0.25563225789E+02  0.69186395162E+02  0.18679018801E+03  0.76493646440E+02 0.  0.
        254    2    1    2    0    0 -0.15361985745E+03 -0.25563225789E+02 -0.14584951315E+04  0.17279996288E+04  0.91352182754E+03 0.  0.
         23    2    4    4    0    0 -0.17092791285E+03 -0.34039273200E+03 -0.13107647353E+04  0.13677813713E+04  0.87396367895E+02 0.  0.
         23    2    4    4    0    0  0.17308055397E+02  0.31482950621E+03 -0.14773039623E+03  0.36021825747E+03  0.92280747090E+02 0.  0.
          3    1    3    3  502    0  0.25846908540E+02 -0.20220072447E+02 -0.31897014488E+01  0.32971020702E+02  0.00000000000E+00 0. -1.
         -4    1    3    3    0  502  0.12777294891E+03  0.45783298237E+02  0.72376096611E+02  0.15381916731E+03  0.00000000000E+00 0.  1.
         11    1    5    5    0    0 -0.82323004595E+00  0.53207171708E+01 -0.22340956342E+02  0.22980558505E+02  0.00000000000E+00 0. -1.
        -11    1    5    5    0    0 -0.17010468280E+03 -0.34571344917E+03 -0.12884237789E+04  0.13448008128E+04  0.00000000000E+00 0.  1.
          1    1    6    6  503    0 -0.96525596428E+01  0.16029222329E+02  0.10055586919E+02  0.21242003305E+02  0.00000000000E+00 0. -1.
         -1    1    6    6    0  503  0.26960615039E+02  0.29880028388E+03 -0.15778598315E+03  0.33897625416E+03  0.00000000000E+00 0.  1.
<mgrwt>
<rscale>  0 0.13176651E+04</rscale>
<asrwt>0</asrwt>
<pdfrwt beam="1">  1        1 0.25416143E+00 0.13176651E+04</pdfrwt>
<pdfrwt beam="2">  1       -2 0.40421622E-01 0.13176651E+04</pdfrwt>
<totfact> 0.25646940E+01</totfact>
</mgrwt>
</event>
<event>
12    4  0.4486176E-008  0.1361345E+04  0.7818608E-02  0.8982284E-01
          1   -1    0    0  501    0  0.00000000000E+00  0.00000000000E+00  0.12796027121E+04  0.12796027121E+04  0.00000000000E+00 0. -1.
         -2   -1    0    0    0  501 -0.00000000000E+00 -0.00000000000E+00 -0.36207752295E+03  0.36207752295E+03  0.00000000000E+00 0.  1.
        -24    2    1    2    0    0 -0.27426997270E+03  0.22635687283E+03  0.41161424967E+03  0.54984178351E+03  0.80238672470E+02 0.  0.
        254    2    1    2    0    0  0.27426997270E+03 -0.22635687283E+03  0.50591093949E+03  0.10918384515E+04  0.89983547038E+03 0.  0.
         23    2    4    4    0    0  0.22449133906E+03  0.36404339648E+02 -0.20931438160E+03  0.32300168001E+03  0.93786660493E+02 0.  0.
         23    2    4    4    0    0  0.49778633645E+02 -0.26276121248E+03  0.71522532109E+03  0.76883677152E+03  0.89673597951E+02 0.  0.
          1    1    3    3  502    0 -0.27577340732E+03  0.22912338346E+03  0.39719022494E+03  0.53507809880E+03  0.00000000000E+00 0. -1.
         -4    1    3    3    0  502  0.15034346170E+01 -0.27665106287E+01  0.14424024730E+02  0.14763684707E+02  0.00000000000E+00 0.  1.
         11    1    5    5    0    0  0.10570138792E+03  0.56808912360E+02 -0.70558960882E+02  0.13920705044E+03  0.00000000000E+00 0.  1.
        -11    1    5    5    0    0  0.11878995113E+03 -0.20404572713E+02 -0.13875542072E+03  0.18379462957E+03  0.00000000000E+00 0. -1.
          3    1    6    6  503    0  0.61516821187E+02 -0.20075257829E+03  0.62007631182E+03  0.65466063687E+03  0.00000000000E+00 0. -1.
         -3    1    6    6    0  503 -0.11738187542E+02 -0.62008634191E+02  0.95149009264E+02  0.11417613466E+03  0.00000000000E+00 0.  1.
<mgrwt>
<rscale>  0 0.13613455E+04</rscale>
<asrwt>0</asrwt>
<pdfrwt beam="1">  1        1 0.19686195E+00 0.13613455E+04</pdfrwt>
<pdfrwt beam="2">  1       -2 0.55704235E-01 0.13613455E+04</pdfrwt>
<totfact> 0.24297263E+01</totfact>
</mgrwt>
</event>
<event>
12    4  0.4486176E-008  0.2397665E+04  0.7818608E-02  0.8440378E-01
          1   -1    0    0  501    0  0.00000000000E+00  0.00000000000E+00  0.18191287749E+04  0.18191287749E+04  0.00000000000E+00 0. -1.
         -2   -1    0    0    0  501 -0.00000000000E+00 -0.00000000000E+00 -0.79004789734E+03  0.79004789734E+03  0.00000000000E+00 0.  1.
        -24    2    1    2    0    0  0.86514280166E+03 -0.32680778864E+03 -0.55697130183E+02  0.92996844783E+03  0.80397423343E+02 0.  0.
        254    2    1    2    0    0 -0.86514280166E+03  0.32680778864E+03  0.10847780077E+04  0.16792082244E+04  0.88753678054E+03 0.  0.
         23    2    4    4    0    0 -0.23747797046E+03 -0.29504643111E+03  0.38592785451E+03  0.54900274885E+03  0.94950125796E+02 0.  0.
         23    2    4    4    0    0 -0.62766483120E+03  0.62185421974E+03  0.69885015320E+03  0.11302054755E+04  0.91143125644E+02 0.  0.
          1    1    3    3  502    0  0.11187673231E+02 -0.13394161987E+02  0.53954552824E+01  0.18266870158E+02  0.00000000000E+00 0. -1.
         -2    1    3    3    0  502  0.85395512843E+03 -0.31341362665E+03 -0.61092585466E+02  0.91170157767E+03  0.00000000000E+00 0.  1.
         11    1    5    5    0    0 -0.47851189612E+02 -0.12308617680E+03  0.16103760792E+03  0.20826198509E+03  0.00000000000E+00 0. -1.
        -11    1    5    5    0    0 -0.18962678085E+03 -0.17196025431E+03  0.22489024659E+03  0.34074076376E+03  0.00000000000E+00 0.  1.
          1    1    6    6  503    0 -0.49729930373E+03  0.43705994778E+03  0.52477194857E+03  0.84481571567E+03  0.00000000000E+00 0. -1.
         -1    1    6    6    0  503 -0.13036552746E+03  0.18479427196E+03  0.17407820463E+03  0.28538975985E+03  0.00000000000E+00 0.  1.
<mgrwt>
<rscale>  0 0.23976646E+04</rscale>
<asrwt>0</asrwt>
<pdfrwt beam="1">  1        1 0.27986597E+00 0.23976646E+04</pdfrwt>
<pdfrwt beam="2">  1       -2 0.12154583E+00 0.23976646E+04</pdfrwt>
<totfact> 0.16011905E+00</totfact>
</mgrwt>
</event>
<event>
12    4  0.4486176E-008  0.3455786E+04  0.7818608E-02  0.8124349E-01
          1   -1    0    0  501    0  0.00000000000E+00  0.00000000000E+00  0.26187368224E+04  0.26187368224E+04  0.00000000000E+00 0. -1.
         -2   -1    0    0    0  501 -0.00000000000E+00 -0.00000000000E+00 -0.11400972152E+04  0.11400972152E+04  0.00000000000E+00 0.  1.
        -24    2    1    2    0    0 -0.59014391440E+02  0.12123031677E+04  0.18470128858E+04  0.22115512404E+04  0.79628009712E+02 0.  0.
        254    2    1    2    0    0  0.59014391440E+02 -0.12123031677E+04 -0.36837327855E+03  0.15472827972E+04  0.88612838425E+03 0.  0.
         23    2    4    4    0    0  0.41312942443E+03 -0.79096086183E+03 -0.41396998449E+03  0.98801127121E+03  0.92196082925E+02 0.  0.
         23    2    4    4    0    0 -0.35411503299E+03 -0.42134230589E+03  0.45596705939E+02  0.55927152601E+03  0.88197420015E+02 0.  0.
          3    1    3    3  502    0 -0.49671807487E+02  0.11950146569E+04  0.18070135958E+04  0.21669853378E+04  0.00000000000E+00 0. -1.
         -4    1    3    3    0  502 -0.93425839532E+01  0.17288510782E+02  0.39999289906E+02  0.44565902583E+02  0.00000000000E+00 0.  1.
         11    1    5    5    0    0  0.41358165317E+03 -0.75292083729E+03 -0.39486005254E+03  0.94543853959E+03  0.00000000000E+00 0. -1.
        -11    1    5    5    0    0 -0.45222874349E+00 -0.38040024544E+02 -0.19109931949E+02  0.42572731616E+02  0.00000000000E+00 0.  1.
          3    1    6    6  503    0 -0.38164656419E+02 -0.11410449099E+02  0.43309247367E+01  0.40068644315E+02  0.00000000000E+00 0.  1.
         -3    1    6    6    0  503 -0.31595037657E+03 -0.40993185679E+03  0.41265781203E+02  0.51920288170E+03  0.00000000000E+00 0. -1.
<mgrwt>
<rscale>  0 0.34557862E+04</rscale>
<asrwt>0</asrwt>
<pdfrwt beam="1">  1        1 0.40288259E+00 0.34557862E+04</pdfrwt>
<pdfrwt beam="2">  1       -2 0.17539957E+00 0.34557862E+04</pdfrwt>
<totfact> 0.15745609E-01</totfact>
</mgrwt>
</event>
<event>
12    4  0.4486176E-008  0.2451850E+04  0.7818608E-02  0.8420343E-01
          1   -1    0    0  501    0  0.00000000000E+00  0.00000000000E+00  0.19435114236E+04  0.19435114236E+04  0.00000000000E+00 0. -1.
         -2   -1    0    0    0  501 -0.00000000000E+00 -0.00000000000E+00 -0.77328699195E+03  0.77328699195E+03  0.00000000000E+00 0.  1.
        -24    2    1    2    0    0  0.26825835820E+02 -0.66897169476E+03 -0.40197356774E+03  0.78497953689E+03  0.79795803900E+02 0.  0.
        254    2    1    2    0    0 -0.26825835820E+02  0.66897169476E+03  0.15721979994E+04  0.19318188787E+04  0.90104099618E+03 0.  0.
         23    2    4    4    0    0 -0.29111051753E+03  0.27613387422E+03  0.13308676195E+04  0.13930335183E+04  0.91315457318E+02 0.  0.
         23    2    4    4    0    0  0.26428468171E+03  0.39283782054E+03  0.24133037997E+03  0.53878536036E+03  0.88777057931E+02 0.  0.
          3    1    3    3  502    0 -0.92152611078E+01 -0.24667065288E+03 -0.10959068275E+03  0.27007674793E+03  0.00000000000E+00 0. -1.
         -4    1    3    3    0  502  0.36041096927E+02 -0.42230104188E+03 -0.29238288499E+03  0.51490278896E+03  0.00000000000E+00 0.  1.
         11    1    5    5    0    0 -0.11484184726E+02 -0.17646037580E+01  0.97556716025E+02  0.98246186526E+02  0.00000000000E+00 0.  1.
        -11    1    5    5    0    0 -0.27962633280E+03  0.27789847798E+03  0.12333109034E+04  0.12947873318E+04  0.00000000000E+00 0. -1.
          1    1    6    6  503    0  0.19208596664E+03  0.34571809357E+03  0.19736247315E+03  0.44200674724E+03  0.00000000000E+00 0. -1.
         -1    1    6    6    0  503  0.72198715075E+02  0.47119726973E+02  0.43967906817E+02  0.96778613125E+02  0.00000000000E+00 0.  1.
<mgrwt>
<rscale>  0 0.24518500E+04</rscale>
<asrwt>0</asrwt>
<pdfrwt beam="1">  1        1 0.29900176E+00 0.24518500E+04</pdfrwt>
<pdfrwt beam="2">  1       -2 0.11896723E+00 0.24518500E+04</pdfrwt>
<totfact> 0.13842326E+00</totfact>
</mgrwt>
</event>
<event>
12    4  0.4486176E-008  0.2051133E+04  0.7818608E-02  0.8583080E-01
         -2   -1    0    0    0  501 -0.00000000000E+00  0.00000000000E+00  0.56885341016E+03  0.56885341016E+03  0.00000000000E+00 0.  1.
          1   -1    0    0  501    0  0.00000000000E+00 -0.00000000000E+00 -0.18489595283E+04  0.18489595283E+04  0.00000000000E+00 0. -1.
        -24    2    1    2    0    0 -0.14355091250E+03  0.45666911789E+03  0.27018995057E+03  0.55541648595E+03  0.79569565571E+02 0.  0.
        254    2    1    2    0    0  0.14355091250E+03 -0.45666911789E+03 -0.15502960688E+04  0.18623964526E+04  0.91430251993E+03 0.  0.
         23    2    4    4    0    0 -0.21209354952E+02  0.22870117338E+03 -0.14461039925E+03  0.28703488491E+03  0.93395900024E+02 0.  0.
         23    2    4    4    0    0  0.16476026745E+03 -0.68537029127E+03 -0.14056856695E+04  0.15753615676E+04  0.94517117226E+02 0.  0.
          3    1    3    3  502    0  0.39477753911E+01  0.88701678296E+02  0.46394467513E+02  0.10017993451E+03  0.00000000000E+00 0. -1.
         -4    1    3    3    0  502 -0.14749868789E+03  0.36796743959E+03  0.22379548306E+03  0.45523655144E+03  0.00000000000E+00 0.  1.
         11    1    5    5    0    0 -0.22509931527E+00  0.11106272634E+03 -0.17252881811E+02  0.11239502562E+03  0.00000000000E+00 0. -1.
        -11    1    5    5    0    0 -0.20984255637E+02  0.11763844703E+03 -0.12735751744E+03  0.17463985929E+03  0.00000000000E+00 0.  1.
          2    1    6    6  503    0  0.12310807644E+03 -0.43373814924E+03 -0.98699885489E+03  0.10851041978E+04  0.00000000000E+00 0. -1.
         -2    1    6    6    0  503  0.41652191014E+02 -0.25163214203E+03 -0.41868681462E+03  0.49025736981E+03  0.00000000000E+00 0.  1.
<mgrwt>
<rscale>  0 0.20511333E+04</rscale>
<asrwt>0</asrwt>
<pdfrwt beam="1">  1        1 0.28445531E+00 0.20511333E+04</pdfrwt>
<pdfrwt beam="2">  1       -2 0.87515910E-01 0.20511333E+04</pdfrwt>
<totfact> 0.34494685E+00</totfact>
</mgrwt>
</event>
<event>
12    4  0.4486176E-008  0.1251583E+04  0.7818608E-02  0.9068867E-01
          1   -1    0    0  501    0  0.00000000000E+00  0.00000000000E+00  0.30198489814E+03  0.30198489814E+03  0.00000000000E+00 0. -1.
         -2   -1    0    0    0  501 -0.00000000000E+00 -0.00000000000E+00 -0.12968031116E+04  0.12968031116E+04  0.00000000000E+00 0.  1.
        -24    2    1    2    0    0  0.26171940161E+03 -0.43669707989E+02 -0.76103530207E+02  0.28743003880E+03  0.80126096399E+02 0.  0.
        254    2    1    2    0    0 -0.26171940161E+03  0.43669707989E+02 -0.91871468326E+03  0.13113579709E+04  0.89733994123E+03 0.  0.
         23    2    4    4    0    0 -0.22206930001E+03 -0.34076351706E+03 -0.78980426089E+03  0.89334616524E+03  0.94032185270E+02 0.  0.
         23    2    4    4    0    0 -0.39650101594E+02  0.38443322504E+03 -0.12891042237E+03  0.41801180569E+03  0.93567823674E+02 0.  0.
          1    1    3    3  502    0  0.16658965367E+03 -0.39812081040E+02 -0.10094919526E+02  0.17157803445E+03  0.00000000000E+00 0. -1.
         -2    1    3    3    0  502  0.95129747936E+02 -0.38576269493E+01 -0.66008610681E+02  0.11585200435E+03  0.00000000000E+00 0.  1.
         11    1    5    5    0    0 -0.23150901841E+03 -0.33023046570E+03 -0.76471150528E+03  0.86454165451E+03  0.00000000000E+00 0. -1.
        -11    1    5    5    0    0  0.94397183935E+01 -0.10533051359E+02 -0.25092755612E+02  0.28804510732E+02  0.00000000000E+00 0.  1.
          1    1    6    6  503    0 -0.66873168430E+02  0.31159498390E+03 -0.90546325868E+02  0.33130362476E+03  0.00000000000E+00 0. -1.
         -1    1    6    6    0  503  0.27223066836E+02  0.72838241144E+02 -0.38364096497E+02  0.86708180935E+02  0.00000000000E+00 0.  1.
<mgrwt>
<rscale>  0 0.12515829E+04</rscale>
<asrwt>0</asrwt>
<pdfrwt beam="1">  1        1 0.46459215E-01 0.12515829E+04</pdfrwt>
<pdfrwt beam="2">  1       -2 0.19950817E+00 0.12515829E+04</pdfrwt>
<totfact> 0.10016934E+01</totfact>
</mgrwt>
</event>
<event>
12    4  0.4486176E-008  0.1427683E+04  0.7818608E-02  0.8934021E-01
          1   -1    0    0  501    0  0.00000000000E+00  0.00000000000E+00  0.81377288767E+03  0.81377288767E+03  0.00000000000E+00 0. -1.
         -2   -1    0    0    0  501 -0.00000000000E+00 -0.00000000000E+00 -0.62618144764E+03  0.62618144764E+03  0.00000000000E+00 0.  1.
        -24    2    1    2    0    0  0.18162942952E+03  0.17645441450E+03 -0.28955842463E+03  0.39265575847E+03  0.78797546444E+02 0.  0.
        254    2    1    2    0    0 -0.18162942952E+03 -0.17645441450E+03  0.47714986465E+03  0.10472985768E+04  0.89723848873E+03 0.  0.
         23    2    4    4    0    0 -0.29243086654E+02 -0.36701388952E+03 -0.11870105753E+03  0.39707741341E+03  0.89588938828E+02 0.  0.
         23    2    4    4    0    0 -0.15238634286E+03  0.19055947502E+03  0.59585092219E+03  0.65022116343E+03  0.90635141614E+02 0.  0.
          1    1    3    3  502    0 -0.61512630410E+01  0.15221039002E+02 -0.97620929548E+01  0.19100170789E+02  0.00000000000E+00 0. -1.
         -2    1    3    3    0  502  0.18778069256E+03  0.16123337550E+03 -0.27979633167E+03  0.37355558768E+03  0.00000000000E+00 0.  1.
         11    1    5    5    0    0 -0.27272382228E+02 -0.10415061415E+03 -0.73475115348E+02  0.13034464253E+03  0.00000000000E+00 0. -1.
        -11    1    5    5    0    0 -0.19707044255E+01 -0.26286327537E+03 -0.45225942185E+02  0.26673277088E+03  0.00000000000E+00 0.  1.
          1    1    6    6  503    0 -0.11862451562E+03  0.83089211232E+02  0.38162849044E+03  0.40818610639E+03  0.00000000000E+00 0. -1.
         -1    1    6    6    0  503 -0.33761827242E+02  0.10747026379E+03  0.21422243174E+03  0.24203505705E+03  0.00000000000E+00 0.  1.
<mgrwt>
<rscale>  0 0.14276827E+04</rscale>
<asrwt>0</asrwt>
<pdfrwt beam="1">  1        1 0.12519583E+00 0.14276827E+04</pdfrwt>
<pdfrwt beam="2">  1       -2 0.96335607E-01 0.14276827E+04</pdfrwt>
<totfact> 0.16538122E+01</totfact>
</mgrwt>
</event>
<event>
12    4  0.4486176E-008  0.2472366E+04  0.7818608E-02  0.8412897E-01
          1   -1    0    0  501    0  0.00000000000E+00  0.00000000000E+00  0.25528565184E+04  0.25528565184E+04  0.00000000000E+00 0. -1.
         -2   -1    0    0    0  501 -0.00000000000E+00 -0.00000000000E+00 -0.59860344729E+03  0.59860344729E+03  0.00000000000E+00 0.  1.
        -24    2    1    2    0    0 -0.10003887157E+04 -0.40136479493E+03  0.91312632720E+03  0.14149668801E+04  0.80375998941E+02 0.  0.
        254    2    1    2    0    0  0.10003887157E+04  0.40136479493E+03  0.10411267439E+04  0.17364930856E+04  0.87726396171E+03 0.  0.
         23    2    4    4    0    0  0.10034966169E+04  0.48176681816E+02  0.64120709511E+03  0.11953793266E+04  0.91971424304E+02 0.  0.
         23    2    4    4    0    0 -0.31079012453E+01  0.35318811312E+03  0.39991964877E+03  0.54111375898E+03  0.90093686772E+02 0.  0.
          1    1    3    3  502    0 -0.13273003710E+03 -0.52635938486E+02  0.15858980473E+03  0.21339758886E+03  0.00000000000E+00 0. -1.
         -2    1    3    3    0  502 -0.86765867856E+03 -0.34872885644E+03  0.75453652247E+03  0.12015692912E+04  0.00000000000E+00 0.  1.
         11    1    5    5    0    0  0.81166436830E+03  0.21663082637E+02  0.47861571011E+03  0.94251861195E+03  0.00000000000E+00 0. -1.
        -11    1    5    5    0    0  0.19183224860E+03  0.26513599179E+02  0.16259138500E+03  0.25286071467E+03  0.00000000000E+00 0.  1.
          2    1    6    6  503    0  0.51878019738E+00  0.19394629972E+03  0.28487342098E+03  0.34462777353E+03  0.00000000000E+00 0. -1.
         -2    1    6    6    0  503 -0.36266814427E+01  0.15924181340E+03  0.11504622779E+03  0.19648598546E+03  0.00000000000E+00 0.  1.
<mgrwt>
<rscale>  0 0.24723662E+04</rscale>
<asrwt>0</asrwt>
<pdfrwt beam="1">  1        1 0.39274715E+00 0.24723662E+04</pdfrwt>
<pdfrwt beam="2">  1       -2 0.92092840E-01 0.24723662E+04</pdfrwt>
<totfact> 0.97627405E-01</totfact>
</mgrwt>
</event>
<event>
12    4  0.4486176E-008  0.1571259E+04  0.7818608E-02  0.8838402E-01
         -2   -1    0    0    0  501 -0.00000000000E+00  0.00000000000E+00  0.21946733612E+03  0.21946733612E+03  0.00000000000E+00 0.  1.
          1   -1    0    0  501    0  0.00000000000E+00 -0.00000000000E+00 -0.28123243699E+04  0.28123243699E+04  0.00000000000E+00 0. -1.
        -24    2    1    2    0    0 -0.10484875280E+03 -0.74542213137E+02  0.10440839163E+03  0.18466046736E+03  0.81538785015E+02 0.  0.
        254    2    1    2    0    0  0.10484875280E+03  0.74542213137E+02 -0.26972654254E+04  0.28471312387E+04  0.90242213655E+03 0.  0.
         23    2    4    4    0    0  0.27614904617E+03 -0.27417055852E+03 -0.66437718923E+03  0.77538056007E+03  0.91597884811E+02 0.  0.
         23    2    4    4    0    0 -0.17130029337E+03  0.34871277166E+03 -0.20328882362E+04  0.20717506786E+04  0.92584587362E+02 0.  0.
          1    1    3    3  502    0 -0.15461979143E+01  0.10104461702E+02  0.30182743638E+02  0.31866736384E+02  0.00000000000E+00 0. -1.
         -2    1    3    3    0  502 -0.10330255488E+03 -0.84646674839E+02  0.74225647990E+02  0.15279373098E+03  0.00000000000E+00 0.  1.
         11    1    5    5    0    0  0.17619949957E+03 -0.19727822113E+03 -0.52196908509E+03  0.58516381123E+03  0.00000000000E+00 0.  1.
        -11    1    5    5    0    0  0.99949546596E+02 -0.76892337390E+02 -0.14240810414E+03  0.19021674884E+03  0.00000000000E+00 0. -1.
          2    1    6    6  503    0 -0.76616241526E+02  0.18617449046E+03 -0.12790791732E+04  0.12948260581E+04  0.00000000000E+00 0.  1.
         -2    1    6    6    0  503 -0.94684051846E+02  0.16253828120E+03 -0.75380906301E+03  0.77692462055E+03  0.00000000000E+00 0. -1.
<mgrwt>
<rscale>  0 0.15712585E+04</rscale>
<asrwt>0</asrwt>
<pdfrwt beam="1">  1        1 0.43266527E+00 0.15712585E+04</pdfrwt>
<pdfrwt beam="2">  1       -2 0.33764207E-01 0.15712585E+04</pdfrwt>
<totfact> 0.56821949E+00</totfact>
</mgrwt>
</event>
<event>
12    4  0.4486176E-008  0.3348902E+04  0.7818608E-02  0.8150563E-01
          1   -1    0    0  501    0  0.00000000000E+00  0.00000000000E+00  0.25893729900E+04  0.25893729900E+04  0.00000000000E+00 0. -1.
         -2   -1    0    0    0  501 -0.00000000000E+00 -0.00000000000E+00 -0.10828050981E+04  0.10828050981E+04  0.00000000000E+00 0.  1.
        -24    2    1    2    0    0  0.10649396469E+04  0.90450169236E+03  0.14821764202E+04  0.20384292585E+04  0.78276038300E+02 0.  0.
        254    2    1    2    0    0 -0.10649396469E+04 -0.90450169236E+03  0.24391471783E+02  0.16337488297E+04  0.84635721265E+03 0.  0.
         23    2    4    4    0    0 -0.38772219170E+03 -0.16717169778E+03  0.37155991638E+03  0.57028370832E+03  0.94296670395E+02 0.  0.
         23    2    4    4    0    0 -0.67721745524E+03 -0.73732999458E+03 -0.34716844459E+03  0.10634651213E+04  0.90294699651E+02 0.  0.
          3    1    3    3  502    0  0.90162191157E+03  0.76749763619E+03  0.12954482790E+04  0.17550387279E+04  0.00000000000E+00 0. -1.
         -4    1    3    3    0  502  0.16331773536E+03  0.13700405618E+03  0.18672814117E+03  0.28339053054E+03  0.00000000000E+00 0.  1.
         11    1    5    5    0    0 -0.31553327907E+03 -0.92889408328E+02  0.28835374479E+03  0.43742150669E+03  0.00000000000E+00 0.  1.
        -11    1    5    5    0    0 -0.72188912623E+02 -0.74282289452E+02  0.83206171584E+02  0.13286220163E+03  0.00000000000E+00 0. -1.
          1    1    6    6  503    0 -0.37982908567E+03 -0.43594861977E+03 -0.24460734228E+03  0.62781692021E+03  0.00000000000E+00 0. -1.
         -1    1    6    6    0  503 -0.29738836957E+03 -0.30138137481E+03 -0.10256110231E+03  0.43564820113E+03  0.00000000000E+00 0.  1.
<mgrwt>
<rscale>  0 0.33489021E+04</rscale>
<asrwt>0</asrwt>
<pdfrwt beam="1">  1        1 0.39836507E+00 0.33489021E+04</pdfrwt>
<pdfrwt beam="2">  1       -2 0.16658540E+00 0.33489021E+04</pdfrwt>
<totfact> 0.19238735E-01</totfact>
</mgrwt>
</event>
<event>
12    4  0.4486176E-008  0.1436455E+04  0.7818608E-02  0.8927845E-01
         -2   -1    0    0    0  501 -0.00000000000E+00  0.00000000000E+00  0.16339307588E+04  0.16339307588E+04  0.00000000000E+00 0.  1.
          1   -1    0    0  501    0  0.00000000000E+00 -0.00000000000E+00 -0.31571160037E+03  0.31571160037E+03  0.00000000000E+00 0. -1.
        -24    2    1    2    0    0 -0.37234383398E+03  0.13494969274E+03  0.17618397048E+03  0.44121907799E+03  0.82353706999E+02 0.  0.
        254    2    1    2    0    0  0.37234383398E+03 -0.13494969274E+03  0.11420351880E+04  0.15084232812E+04  0.90235529277E+03 0.  0.
         23    2    4    4    0    0  0.32751274241E+03  0.26623102493E+03  0.19232893688E+03  0.47248466860E+03  0.90043250869E+02 0.  0.
         23    2    4    4    0    0  0.44831091568E+02 -0.40118071768E+03  0.94970625108E+03  0.10359386126E+04  0.90945316935E+02 0.  0.
          1    1    3    3  502    0 -0.27083147199E+03  0.12929331102E+03  0.10869419526E+03  0.31918783589E+03  0.00000000000E+00 0. -1.
         -2    1    3    3    0  502 -0.10151236199E+03  0.56563817245E+01  0.67489775217E+02  0.12203124210E+03  0.00000000000E+00 0.  1.
         11    1    5    5    0    0  0.28379306234E+03  0.19859242180E+03  0.18201506064E+03  0.39128881217E+03  0.00000000000E+00 0.  1.
        -11    1    5    5    0    0  0.43719680076E+02  0.67638603132E+02  0.10313876235E+02  0.81195856438E+02  0.00000000000E+00 0. -1.
          1    1    6    6  503    0 -0.22510212537E+02 -0.61297940015E+02  0.11636972260E+03  0.13343934748E+03  0.00000000000E+00 0. -1.
         -1    1    6    6    0  503  0.67341304105E+02 -0.33988277766E+03  0.83333652849E+03  0.90249926510E+03  0.00000000000E+00 0.  1.
<mgrwt>
<rscale>  0 0.14364552E+04</rscale>
<asrwt>0</asrwt>
<pdfrwt beam="1">  1        1 0.48571016E-01 0.14364552E+04</pdfrwt>
<pdfrwt beam="2">  1       -2 0.25137396E+00 0.14364552E+04</pdfrwt>
<totfact> 0.43930055E+00</totfact>
</mgrwt>
</event>
<event>
12    4  0.4486176E-008  0.1900478E+04  0.7818608E-02  0.8654618E-01
          1   -1    0    0  501    0  0.00000000000E+00  0.00000000000E+00  0.20293632328E+04  0.20293632328E+04  0.00000000000E+00 0. -1.
         -4   -1    0    0    0  501 -0.00000000000E+00 -0.00000000000E+00 -0.44494476503E+03  0.44494476503E+03  0.00000000000E+00 0.  1.
        -24    2    1    2    0    0 -0.39838423209E+03 -0.22125563607E+03  0.13628593743E+04  0.14392898709E+04  0.80657334438E+02 0.  0.
        254    2    1    2    0    0  0.39838423209E+03  0.22125563607E+03  0.22155909346E+03  0.10350181269E+04  0.90250209873E+03 0.  0.
         23    2    4    4    0    0  0.61508639910E+03  0.21075684968E+03 -0.69824192772E+02  0.65987522692E+03  0.88375161438E+02 0.  0.
         23    2    4    4    0    0 -0.21670216701E+03  0.10498786390E+02  0.29138328623E+03  0.37514289996E+03  0.93583770989E+02 0.  0.
          1    1    3    3  502    0 -0.33696660071E+03 -0.15195790416E+03  0.10610076629E+04  0.11235546072E+04  0.00000000000E+00 0. -1.
         -2    1    3    3    0  502 -0.61417631376E+02 -0.69297731905E+02  0.30185171139E+03  0.31573526373E+03  0.00000000000E+00 0.  1.
         11    1    5    5    0    0  0.60679958163E+03  0.21421118567E+03 -0.77386892143E+02  0.64813647900E+03  0.00000000000E+00 0. -1.
        -11    1    5    5    0    0  0.82868174693E+01 -0.34543359926E+01  0.75626993710E+01  0.11738747919E+02  0.00000000000E+00 0.  1.
          2    1    6    6  503    0 -0.22288571731E+03  0.21226203736E+02  0.27655101983E+03  0.35582167061E+03  0.00000000000E+00 0. -1.
         -2    1    6    6    0  503  0.61835502947E+01 -0.10727417345E+02  0.14832266398E+02  0.19321229351E+02  0.00000000000E+00 0.  1.
<mgrwt>
<rscale>  0 0.19004784E+04</rscale>
<asrwt>0</asrwt>
<pdfrwt beam="1">  1        1 0.31220972E+00 0.19004784E+04</pdfrwt>
<pdfrwt beam="2">  1       -4 0.68453042E-01 0.19004784E+04</pdfrwt>
<totfact> 0.25837621E+00</totfact>
</mgrwt>
</event>
<event>
12    4  0.4486176E-008  0.1447070E+04  0.7818608E-02  0.8920434E-01
          1   -1    0    0  501    0  0.00000000000E+00  0.00000000000E+00  0.10517494696E+04  0.10517494696E+04  0.00000000000E+00 0. -1.
         -2   -1    0    0    0  501 -0.00000000000E+00 -0.00000000000E+00 -0.49774517228E+03  0.49774517228E+03  0.00000000000E+00 0.  1.
        -24    2    1    2    0    0  0.21839997889E+03 -0.30852937850E+03  0.44636837633E+03  0.59031794607E+03  0.79634300915E+02 0.  0.
        254    2    1    2    0    0 -0.21839997889E+03  0.30852937850E+03  0.10763592097E+03  0.95917669580E+03  0.87495457831E+03 0.  0.
         23    2    4    4    0    0 -0.27728773611E+03  0.12843531957E+03  0.45287572551E+03  0.55453849405E+03  0.95038932602E+02 0.  0.
         23    2    4    4    0    0  0.58887757218E+02  0.18009405893E+03 -0.34523980454E+03  0.40463820175E+03  0.92951135918E+02 0.  0.
          1    1    3    3  502    0  0.12133764196E+03 -0.15949673993E+03  0.29576529572E+03  0.35726620824E+03  0.00000000000E+00 0. -1.
         -2    1    3    3    0  502  0.97062336933E+02 -0.14903263857E+03  0.15060308061E+03  0.23305173782E+03  0.00000000000E+00 0.  1.
         11    1    5    5    0    0 -0.21668413314E+01  0.19272482235E+02  0.98954488303E+01  0.21772544188E+02  0.00000000000E+00 0.  1.
        -11    1    5    5    0    0 -0.27512089478E+03  0.10916283734E+03  0.44298027668E+03  0.53276594986E+03  0.00000000000E+00 0. -1.
          4    1    6    6  503    0  0.76700614173E+02  0.87067536496E+02 -0.20073671233E+03  0.23185980204E+03  0.00000000000E+00 0. -1.
         -4    1    6    6    0  503 -0.17812856955E+02  0.93026522432E+02 -0.14450309221E+03  0.17277839971E+03  0.00000000000E+00 0.  1.
<mgrwt>
<rscale>  0 0.14470704E+04</rscale>
<asrwt>0</asrwt>
<pdfrwt beam="1">  1        1 0.16180761E+00 0.14470704E+04</pdfrwt>
<pdfrwt beam="2">  1       -2 0.76576181E-01 0.14470704E+04</pdfrwt>
<totfact> 0.17916948E+01</totfact>
</mgrwt>
</event>
<event>
12    4  0.4486176E-008  0.2081607E+04  0.7818608E-02  0.8569389E-01
         -2   -1    0    0    0  501 -0.00000000000E+00  0.00000000000E+00  0.50479135763E+03  0.50479135763E+03  0.00000000000E+00 0.  1.
          1   -1    0    0  501    0  0.00000000000E+00 -0.00000000000E+00 -0.21459792037E+04  0.21459792037E+04  0.00000000000E+00 0. -1.
        -24    2    1    2    0    0 -0.39567904112E+03  0.34979190146E+03  0.15256902440E+03  0.55536358037E+03  0.78962784187E+02 0.  0.
        254    2    1    2    0    0  0.39567904112E+03 -0.34979190146E+03 -0.17937568704E+04  0.20954069809E+04  0.94564815209E+03 0.  0.
         23    2    4    4    0    0  0.17557210042E+03  0.26072496803E+03 -0.10711761797E+04  0.11200303336E+04  0.90810070096E+02 0.  0.
         23    2    4    4    0    0  0.22010694070E+03 -0.61051686949E+03 -0.72258069069E+03  0.97537664728E+03  0.89771021085E+02 0.  0.
          1    1    3    3  502    0 -0.88430584812E+01 -0.23877103790E+01 -0.29095797804E+01  0.96107491204E+01  0.00000000000E+00 0. -1.
         -2    1    3    3    0  502 -0.38683598263E+03  0.35217961184E+03  0.15547860418E+03  0.54575283125E+03  0.00000000000E+00 0.  1.
         11    1    5    5    0    0  0.43783885154E+02  0.11765867597E+02 -0.13684634917E+03  0.14416097780E+03  0.00000000000E+00 0.  1.
        -11    1    5    5    0    0  0.13178821526E+03  0.24895910043E+03 -0.93432983058E+03  0.97586935585E+03  0.00000000000E+00 0. -1.
          4    1    6    6  503    0  0.11886621953E+03 -0.23334214836E+03 -0.24677897640E+03  0.35982995920E+03  0.00000000000E+00 0. -1.
         -4    1    6    6    0  503  0.10124072117E+03 -0.37717472113E+03 -0.47580171430E+03  0.61554668808E+03  0.00000000000E+00 0.  1.
<mgrwt>
<rscale>  0 0.20816068E+04</rscale>
<asrwt>0</asrwt>
<pdfrwt beam="1">  1        1 0.33015065E+00 0.20816068E+04</pdfrwt>
<pdfrwt beam="2">  1       -2 0.77660207E-01 0.20816068E+04</pdfrwt>
<totfact> 0.28348730E+00</totfact>
</mgrwt>
</event>
<event>
12    4  0.4486176E-008  0.2089201E+04  0.7818608E-02  0.8566015E-01
          1   -1    0    0  501    0  0.00000000000E+00  0.00000000000E+00  0.14400443054E+04  0.14400443054E+04  0.00000000000E+00 0. -1.
         -2   -1    0    0    0  501 -0.00000000000E+00 -0.00000000000E+00 -0.75774754479E+03  0.75774754479E+03  0.00000000000E+00 0.  1.
        -24    2    1    2    0    0 -0.71927242904E+03  0.30319332225E+03  0.62701750587E+03  0.10044526369E+04  0.80592365385E+02 0.  0.
        254    2    1    2    0    0  0.71927242904E+03 -0.30319332225E+03  0.55279254713E+02  0.11933392132E+04  0.90095708221E+03 0.  0.
         23    2    4    4    0    0 -0.76366806574E+01 -0.42653223789E+03 -0.62941348917E+02  0.44125434100E+03  0.93571957309E+02 0.  0.
         23    2    4    4    0    0  0.72690910969E+03  0.12333891564E+03  0.11822060363E+03  0.75208487223E+03  0.89700624551E+02 0.  0.
          3    1    3    3  502    0 -0.22511645350E+02  0.17727993060E+02  0.42389732161E+02  0.51165860757E+02  0.00000000000E+00 0. -1.
         -4    1    3    3    0  502 -0.69676078369E+03  0.28546532919E+03  0.58462777370E+03  0.95328677618E+03  0.00000000000E+00 0.  1.
         11    1    5    5    0    0 -0.30994604979E+02 -0.79385145680E+02  0.98526119166E+01  0.85788932002E+02  0.00000000000E+00 0. -1.
        -11    1    5    5    0    0  0.23357924322E+02 -0.34714709221E+03 -0.72793960833E+02  0.35546540899E+03  0.00000000000E+00 0.  1.
          1    1    6    6  503    0  0.17402375133E+03 -0.88928627498E+01  0.29033722899E+02  0.17665306706E+03  0.00000000000E+00 0. -1.
         -1    1    6    6    0  503  0.55288535836E+03  0.13223177839E+03  0.89186880730E+02  0.57543180517E+03  0.00000000000E+00 0.  1.
<mgrwt>
<rscale>  0 0.20892008E+04</rscale>
<asrwt>0</asrwt>
<pdfrwt beam="1">  1        1 0.22154528E+00 0.20892008E+04</pdfrwt>
<pdfrwt beam="2">  1       -2 0.11657655E+00 0.20892008E+04</pdfrwt>
<totfact> 0.33187285E+00</totfact>
</mgrwt>
</event>
<event>
12    4  0.4486176E-008  0.1365498E+04  0.7818608E-02  0.8979179E-01
         -2   -1    0    0    0  501 -0.00000000000E+00  0.00000000000E+00  0.57325151075E+03  0.57325151075E+03  0.00000000000E+00 0.  1.
          1   -1    0    0  501    0  0.00000000000E+00 -0.00000000000E+00 -0.81316180077E+03  0.81316180077E+03  0.00000000000E+00 0. -1.
        -24    2    1    2    0    0 -0.38085075910E+02  0.19262925437E+03 -0.40092991158E+03  0.45332504420E+03  0.78754676401E+02 0.  0.
        254    2    1    2    0    0  0.38085075910E+02 -0.19262925437E+03  0.16101962156E+03  0.93308826733E+03  0.89786964168E+03 0.  0.
         23    2    4    4    0    0 -0.37682402051E+03 -0.18465587993E+03 -0.91882653862E+02  0.43858071586E+03  0.88410891973E+02 0.  0.
         23    2    4    4    0    0  0.41490909642E+03 -0.79733744407E+01  0.25290227542E+03  0.49450755146E+03  0.91460508110E+02 0.  0.
          1    1    3    3  502    0 -0.30172601327E+02  0.14063975537E+03 -0.35669905872E+03  0.38460908096E+03  0.00000000000E+00 0. -1.
         -4    1    3    3    0  502 -0.79124745832E+01  0.51989498995E+02 -0.44230852854E+02  0.68715963240E+02  0.00000000000E+00 0.  1.
         11    1    5    5    0    0 -0.20299207987E+03 -0.14761863354E+03 -0.58942701318E+02  0.25782026200E+03  0.00000000000E+00 0. -1.
        -11    1    5    5    0    0 -0.17383194064E+03 -0.37037246385E+02 -0.32939952545E+02  0.18076045386E+03  0.00000000000E+00 0.  1.
          1    1    6    6  503    0  0.36684577424E+03  0.23185974452E+02  0.21534531743E+03  0.42601293082E+03  0.00000000000E+00 0. -1.
         -1    1    6    6    0  503  0.48063322181E+02 -0.31159348893E+02  0.37556957993E+02  0.68494620637E+02  0.00000000000E+00 0.  1.
<mgrwt>
<rscale>  0 0.13654980E+04</rscale>
<asrwt>0</asrwt>
<pdfrwt beam="1">  1        1 0.12510181E+00 0.13654980E+04</pdfrwt>
<pdfrwt beam="2">  1       -2 0.88192541E-01 0.13654980E+04</pdfrwt>
<totfact> 0.20428592E+01</totfact>
</mgrwt>
</event>
<event>
12    4  0.4486176E-008  0.1130618E+04  0.7818608E-02  0.9175853E-01
         -2   -1    0    0    0  501 -0.00000000000E+00  0.00000000000E+00  0.41080707962E+03  0.41080707962E+03  0.00000000000E+00 0.  1.
          1   -1    0    0  501    0  0.00000000000E+00 -0.00000000000E+00 -0.77791808300E+03  0.77791808300E+03  0.00000000000E+00 0. -1.
        -24    2    1    2    0    0 -0.91241263414E+02  0.13056733906E+03  0.51321438557E+02  0.18581713528E+03  0.80754687356E+02 0.  0.
        254    2    1    2    0    0  0.91241263414E+02 -0.13056733906E+03 -0.41843244194E+03  0.10029080273E+04  0.89742186548E+03 0.  0.
         23    2    4    4    0    0 -0.37134286208E+03  0.84162476146E+02 -0.21480907920E+03  0.44636490728E+03  0.90110189963E+02 0.  0.
         23    2    4    4    0    0  0.46258412549E+03 -0.21472981521E+03 -0.20362336274E+03  0.55654312005E+03  0.90469906183E+02 0.  0.
          3    1    3    3  502    0  0.21771628139E+01  0.21770107852E+02  0.35291362118E+02  0.41522980071E+02  0.00000000000E+00 0. -1.
         -4    1    3    3    0  502 -0.93418426228E+02  0.10879723121E+03  0.16030076439E+02  0.14429415521E+03  0.00000000000E+00 0.  1.
         11    1    5    5    0    0 -0.30008017057E+03  0.53259244281E+02 -0.20673476878E+03  0.36827153093E+03  0.00000000000E+00 0. -1.
        -11    1    5    5    0    0 -0.71262691514E+02  0.30903231865E+02 -0.80743104208E+01  0.78093376354E+02  0.00000000000E+00 0.  1.
          1    1    6    6  503    0  0.42263518858E+03 -0.17581693518E+03 -0.15722070273E+03  0.48399426307E+03  0.00000000000E+00 0. -1.
         -1    1    6    6    0  503  0.39948936913E+02 -0.38912880027E+02 -0.46402660010E+02  0.72548856976E+02  0.00000000000E+00 0.  1.
<mgrwt>
<rscale>  0 0.11306180E+04</rscale>
<asrwt>0</asrwt>
<pdfrwt beam="1">  1        1 0.11967970E+00 0.11306180E+04</pdfrwt>
<pdfrwt beam="2">  1       -2 0.63201089E-01 0.11306180E+04</pdfrwt>
<totfact> 0.46719115E+01</totfact>
</mgrwt>
</event>
<event>
12    4  0.4486176E-008  0.2050052E+04  0.7818608E-02  0.8583571E-01
         -2   -1    0    0    0  501 -0.00000000000E+00  0.00000000000E+00  0.57960165095E+03  0.57960165095E+03  0.00000000000E+00 0.  1.
          1   -1    0    0  501    0  0.00000000000E+00 -0.00000000000E+00 -0.18127591044E+04  0.18127591044E+04  0.00000000000E+00 0. -1.
        -24    2    1    2    0    0 -0.18429151338E+03 -0.60221904359E+03  0.12324700530E+03  0.64662491620E+03  0.79390299013E+02 0.  0.
        254    2    1    2    0    0  0.18429151338E+03  0.60221904359E+03 -0.13564044588E+04  0.17457358392E+04  0.90062724035E+03 0.  0.
         23    2    4    4    0    0  0.45136338966E+02  0.33459106973E+02  0.11505105360E+03  0.15962185542E+03  0.95318365798E+02 0.  0.
         23    2    4    4    0    0  0.13915517441E+03  0.56875993661E+03 -0.14714555124E+04  0.15861139838E+04  0.87887521997E+02 0.  0.
          3    1    3    3  502    0 -0.11493932583E+03 -0.41432767257E+03  0.11964348736E+03  0.44631046699E+03  0.00000000000E+00 0. -1.
         -4    1    3    3    0  502 -0.69352187549E+02 -0.18789137101E+03  0.36035179324E+01  0.20031444921E+03  0.00000000000E+00 0.  1.
         11    1    5    5    0    0 -0.44048659574E+01  0.46245275844E+02  0.92901301851E+02  0.10386857209E+03  0.00000000000E+00 0. -1.
        -11    1    5    5    0    0  0.49541204924E+02 -0.12786168871E+02  0.22149751748E+02  0.55753283331E+02  0.00000000000E+00 0.  1.
          3    1    6    6  503    0  0.12482550630E+03  0.39777606266E+03 -0.11182766006E+04  0.11934612514E+04  0.00000000000E+00 0. -1.
         -3    1    6    6    0  503  0.14329668116E+02  0.17098387395E+03 -0.35317891178E+03  0.39265273241E+03  0.00000000000E+00 0.  1.
<mgrwt>
<rscale>  0 0.20500519E+04</rscale>
<asrwt>0</asrwt>
<pdfrwt beam="1">  1        1 0.27888601E+00 0.20500519E+04</pdfrwt>
<pdfrwt beam="2">  1       -2 0.89169485E-01 0.20500519E+04</pdfrwt>
<totfact> 0.34968931E+00</totfact>
</mgrwt>
</event>
<event>
12    4  0.4486176E-008  0.1824578E+04  0.7818608E-02  0.8693337E-01
         -2   -1    0    0    0  501 -0.00000000000E+00  0.00000000000E+00  0.29611706523E+03  0.29611706523E+03  0.00000000000E+00 0.  1.
          1   -1    0    0  501    0  0.00000000000E+00 -0.00000000000E+00 -0.28106155258E+04  0.28106155258E+04  0.00000000000E+00 0. -1.
        -24    2    1    2    0    0 -0.53483646695E+03  0.15055542662E+03 -0.25718884983E+03  0.61710830962E+03  0.77198306062E+02 0.  0.
        254    2    1    2    0    0  0.53483646695E+03 -0.15055542662E+03 -0.22573096107E+04  0.24896242814E+04  0.89110347377E+03 0.  0.
         23    2    4    4    0    0  0.41318034199E+03 -0.42056589411E+03 -0.78879681769E+03  0.98866833548E+03  0.87584197708E+02 0.  0.
         23    2    4    4    0    0  0.12165612496E+03  0.27001046749E+03 -0.14685127930E+04  0.15009559459E+04  0.92914277548E+02 0.  0.
          3    1    3    3  502    0 -0.29014033374E+02  0.16284280532E+01  0.28207214032E+01  0.29196273388E+02  0.00000000000E+00 0. -1.
         -4    1    3    3    0  502 -0.50582243358E+03  0.14892699856E+03 -0.26000957123E+03  0.58791203623E+03  0.00000000000E+00 0.  1.
         11    1    5    5    0    0  0.39176481049E+02 -0.73425976720E+02 -0.14480896060E+03  0.16702037539E+03  0.00000000000E+00 0.  1.
        -11    1    5    5    0    0  0.37400386094E+03 -0.34713991739E+03 -0.64398785709E+03  0.82164796009E+03  0.00000000000E+00 0. -1.
          2    1    6    6  503    0  0.63591944535E+02  0.51226267781E+02 -0.47643295804E+03  0.48338021208E+03  0.00000000000E+00 0.  1.
         -2    1    6    6    0  503  0.58064180426E+02  0.21878419971E+03 -0.99207983499E+03  0.10175757338E+04  0.00000000000E+00 0. -1.
<mgrwt>
<rscale>  0 0.18245780E+04</rscale>
<asrwt>0</asrwt>
<pdfrwt beam="1">  1        1 0.43240240E+00 0.18245780E+04</pdfrwt>
<pdfrwt beam="2">  1       -2 0.45556471E-01 0.18245780E+04</pdfrwt>
<totfact> 0.31014375E+00</totfact>
</mgrwt>
</event>
<event>
12    4  0.4486176E-008  0.2268299E+04  0.7818608E-02  0.8490526E-01
          1   -1    0    0  501    0  0.00000000000E+00  0.00000000000E+00  0.12435406071E+04  0.12435406071E+04  0.00000000000E+00 0. -1.
         -2   -1    0    0    0  501 -0.00000000000E+00 -0.00000000000E+00 -0.10343808197E+04  0.10343808197E+04  0.00000000000E+00 0.  1.
        -24    2    1    2    0    0  0.59817456279E+03 -0.37637144405E+03  0.72259796365E+03  0.10138844858E+04  0.79659663457E+02 0.  0.
        254    2    1    2    0    0 -0.59817456279E+03  0.37637144405E+03 -0.51343817624E+03  0.12640369410E+04  0.91362046596E+03 0.  0.
         23    2    4    4    0    0  0.93165831562E+02 -0.19327522179E+03 -0.81869784849E+01  0.23200755859E+03  0.87893669283E+02 0.  0.
         23    2    4    4    0    0 -0.69134039435E+03  0.56964666584E+03 -0.50525119776E+03  0.10320293824E+04  0.85773005485E+02 0.  0.
          1    1    3    3  502    0  0.15151885460E+03 -0.12242694686E+03  0.23861278316E+03  0.30802983769E+03  0.00000000000E+00 0. -1.
         -2    1    3    3    0  502  0.44665570819E+03 -0.25394449719E+03  0.48398518048E+03  0.70585464810E+03  0.00000000000E+00 0.  1.
         11    1    5    5    0    0 -0.14874105867E+02 -0.11744080719E+02 -0.84701339088E+01  0.20758266442E+02  0.00000000000E+00 0. -1.
        -11    1    5    5    0    0  0.10803993743E+03 -0.18153114107E+03  0.28315542393E+00  0.21124929215E+03  0.00000000000E+00 0.  1.
          3    1    6    6  503    0 -0.17401285866E+03  0.14646450711E+03 -0.17219720716E+03  0.28527917024E+03  0.00000000000E+00 0. -1.
         -3    1    6    6    0  503 -0.51732753569E+03  0.42318215873E+03 -0.33305399060E+03  0.74675021213E+03  0.00000000000E+00 0.  1.
<mgrwt>
<rscale>  0 0.22682985E+04</rscale>
<asrwt>0</asrwt>
<pdfrwt beam="1">  1        1 0.19131394E+00 0.22682985E+04</pdfrwt>
<pdfrwt beam="2">  1       -2 0.15913551E+00 0.22682985E+04</pdfrwt>
<totfact> 0.20194039E+00</totfact>
</mgrwt>
</event>
<event>
12    4  0.4486176E-008  0.1999607E+04  0.7818608E-02  0.8606805E-01
          1   -1    0    0  501    0  0.00000000000E+00  0.00000000000E+00  0.11446655633E+04  0.11446655633E+04  0.00000000000E+00 0. -1.
         -2   -1    0    0    0  501 -0.00000000000E+00 -0.00000000000E+00 -0.87327408838E+03  0.87327408838E+03  0.00000000000E+00 0.  1.
        -24    2    1    2    0    0  0.52451976146E+03  0.51890551534E+03  0.39011403586E+03  0.83843701630E+03  0.80023467324E+02 0.  0.
        254    2    1    2    0    0 -0.52451976146E+03 -0.51890551534E+03 -0.11872256097E+03  0.11795026354E+04  0.91255000209E+03 0.  0.
         23    2    4    4    0    0 -0.44321598361E+03 -0.72884253886E+03  0.83206617490E+02  0.86188294422E+03  0.90923120092E+02 0.  0.
         23    2    4    4    0    0 -0.81303777851E+02  0.20993702353E+03 -0.20192917846E+03  0.31761969113E+03  0.97072225388E+02 0.  0.
          1    1    3    3  502    0  0.45935827926E+03  0.43399808524E+03  0.30507681693E+03  0.70173800734E+03  0.00000000000E+00 0. -1.
         -2    1    3    3    0  502  0.65161482203E+02  0.84907430092E+02  0.85037218934E+02  0.13669900896E+03  0.00000000000E+00 0.  1.
         11    1    5    5    0    0 -0.27292915022E+03 -0.52541830130E+03  0.70908637981E+02  0.59630759455E+03  0.00000000000E+00 0. -1.
        -11    1    5    5    0    0 -0.17028683338E+03 -0.20342423757E+03  0.12297979509E+02  0.26557534967E+03  0.00000000000E+00 0.  1.
          4    1    6    6  503    0 -0.67046094891E+02  0.79418360361E+02 -0.13462956652E+03  0.17008108356E+03  0.00000000000E+00 0. -1.
         -4    1    6    6    0  503 -0.14257682960E+02  0.13051866317E+03 -0.67299611936E+02  0.14753860757E+03  0.00000000000E+00 0.  1.
<mgrwt>
<rscale>  0 0.19996067E+04</rscale>
<asrwt>0</asrwt>
<pdfrwt beam="1">  1        1 0.17610239E+00 0.19996067E+04</pdfrwt>
<pdfrwt beam="2">  1       -2 0.13434986E+00 0.19996067E+04</pdfrwt>
<totfact> 0.38148313E+00</totfact>
</mgrwt>
</event>
<event>
12    4  0.4486176E-008  0.2052604E+04  0.7818608E-02  0.8582414E-01
          1   -1    0    0  501    0  0.00000000000E+00  0.00000000000E+00  0.59376089730E+03  0.59376089730E+03  0.00000000000E+00 0. -1.
         -2   -1    0    0    0  501 -0.00000000000E+00 -0.00000000000E+00 -0.17739399056E+04  0.17739399056E+04  0.00000000000E+00 0.  1.
        -24    2    1    2    0    0 -0.19312124775E+03  0.10395145831E+03  0.43615227249E+03  0.49448039920E+03  0.78615128190E+02 0.  0.
        254    2    1    2    0    0  0.19312124775E+03 -0.10395145831E+03 -0.16163312808E+04  0.18732204037E+04  0.92104622552E+03 0.  0.
         23    2    4    4    0    0 -0.74694951475E+02  0.21917718819E+03 -0.13383089033E+04  0.13613429269E+04  0.92551977179E+02 0.  0.
         23    2    4    4    0    0  0.26781619922E+03 -0.32312864650E+03 -0.27802237746E+03  0.51187747673E+03  0.92652415315E+02 0.  0.
          1    1    3    3  502    0 -0.19252261448E+03  0.10458828211E+03  0.38238633055E+03  0.44070735373E+03  0.00000000000E+00 0. -1.
         -2    1    3    3    0  502 -0.59863326298E+00 -0.63682380162E+00  0.53765941937E+02  0.53773045466E+02  0.00000000000E+00 0.  1.
         11    1    5    5    0    0 -0.60855725070E+02  0.97733765160E+02 -0.44245091008E+03  0.45718499095E+03  0.00000000000E+00 0. -1.
        -11    1    5    5    0    0 -0.13839226405E+02  0.12144342303E+03 -0.89585799322E+03  0.90415793598E+03  0.00000000000E+00 0.  1.
          3    1    6    6  503    0  0.23567858018E+03 -0.23059942563E+03 -0.19225786884E+03  0.38168517968E+03  0.00000000000E+00 0. -1.
         -3    1    6    6    0  503  0.32137619036E+02 -0.92529220869E+02 -0.85764508624E+02  0.13019229705E+03  0.00000000000E+00 0.  1.
<mgrwt>
<rscale>  0 0.20526043E+04</rscale>
<asrwt>0</asrwt>
<pdfrwt beam="1">  1        1 0.91347832E-01 0.20526043E+04</pdfrwt>
<pdfrwt beam="2">  1       -2 0.27291383E+00 0.20526043E+04</pdfrwt>
<totfact> 0.13084422E+00</totfact>
</mgrwt>
</event>
<event>
12    4  0.4486176E-008  0.1268576E+04  0.7818608E-02  0.9054863E-01
          1   -1    0    0  501    0  0.00000000000E+00  0.00000000000E+00  0.12814512898E+04  0.12814512898E+04  0.00000000000E+00 0. -1.
         -2   -1    0    0    0  501 -0.00000000000E+00 -0.00000000000E+00 -0.31395738290E+03  0.31395738290E+03  0.00000000000E+00 0.  1.
        -24    2    1    2    0    0  0.11174358291E+03  0.16202801949E+03 -0.39377378452E+02  0.21629997653E+03  0.80594010281E+02 0.  0.
        254    2    1    2    0    0 -0.11174358291E+03 -0.16202801949E+03  0.10068712853E+04  0.13791086962E+04  0.92163512475E+03 0.  0.
         23    2    4    4    0    0  0.26497046311E+03 -0.37208698039E+03  0.70516823034E+03  0.84506254785E+03  0.90611309453E+02 0.  0.
         23    2    4    4    0    0 -0.37671404602E+03  0.21005896091E+03  0.30170305501E+03  0.53404614832E+03  0.90234780446E+02 0.  0.
          1    1    3    3  502    0  0.29955575371E+02 -0.11738998282E+01 -0.84780427597E+01  0.31154321460E+02  0.00000000000E+00 0. -1.
         -2    1    3    3    0  502  0.81788007539E+02  0.16320191932E+03 -0.30899335692E+02  0.18514565507E+03  0.00000000000E+00 0.  1.
         11    1    5    5    0    0  0.12943146619E+03 -0.15152216811E+03  0.38325260505E+03  0.43196531244E+03  0.00000000000E+00 0.  1.
        -11    1    5    5    0    0  0.13553899692E+03 -0.22056481228E+03  0.32191562529E+03  0.41309723541E+03  0.00000000000E+00 0. -1.
          3    1    6    6  503    0 -0.29907453863E+03  0.14741481104E+03  0.27098833681E+03  0.42966426993E+03  0.00000000000E+00 0. -1.
         -3    1    6    6    0  503 -0.77639507392E+02  0.62644149869E+02  0.30714718201E+02  0.10438187838E+03  0.00000000000E+00 0.  1.
<mgrwt>
<rscale>  0 0.12685757E+04</rscale>
<asrwt>0</asrwt>
<pdfrwt beam="1">  1        1 0.19714635E+00 0.12685757E+04</pdfrwt>
<pdfrwt beam="2">  1       -2 0.48301136E-01 0.12685757E+04</pdfrwt>
<totfact> 0.32708918E+01</totfact>
</mgrwt>
</event>
<event>
12    4  0.4486176E-008  0.1597858E+04  0.7818608E-02  0.8821865E-01
          1   -1    0    0  501    0  0.00000000000E+00  0.00000000000E+00  0.13848959443E+04  0.13848959443E+04  0.00000000000E+00 0. -1.
         -2   -1    0    0    0  501 -0.00000000000E+00 -0.00000000000E+00 -0.46089233953E+03  0.46089233953E+03  0.00000000000E+00 0.  1.
        -24    2    1    2    0    0 -0.28178222447E+03 -0.43648335926E+03  0.14344707122E+03  0.54546432935E+03  0.83876858660E+02 0.  0.
        254    2    1    2    0    0  0.28178222447E+03  0.43648335926E+03  0.78055653357E+03  0.13003239545E+04  0.90091894175E+03 0.  0.
         23    2    4    4    0    0  0.49199818298E+03  0.50109263077E+03  0.79137808710E+03  0.10621869281E+04  0.93838994114E+02 0.  0.
         23    2    4    4    0    0 -0.21021595851E+03 -0.64609271514E+02 -0.10821553529E+02  0.23813702640E+03  0.90702977580E+02 0.  0.
          3    1    3    3  502    0 -0.88643366431E+02 -0.12190642172E+03  0.80902544883E+02  0.17106736637E+03  0.00000000000E+00 0. -1.
         -4    1    3    3    0  502 -0.19313885804E+03 -0.31457693753E+03  0.62544526335E+02  0.37439696298E+03  0.00000000000E+00 0.  1.
         11    1    5    5    0    0  0.64204705093E+02  0.10899531098E+03  0.17103025415E+03  0.21272886454E+03  0.00000000000E+00 0.  1.
        -11    1    5    5    0    0  0.42779347789E+03  0.39209731979E+03  0.62034783295E+03  0.84945806356E+03  0.00000000000E+00 0. -1.
          3    1    6    6  503    0 -0.17638473431E+03 -0.72209379516E+02 -0.37673795438E+02  0.19428094052E+03  0.00000000000E+00 0. -1.
         -3    1    6    6    0  503 -0.33831224201E+02  0.76001080022E+01  0.26852241909E+02  0.43856085873E+02  0.00000000000E+00 0.  1.
<mgrwt>
<rscale>  0 0.15978585E+04</rscale>
<asrwt>0</asrwt>
<pdfrwt beam="1">  1        1 0.21306091E+00 0.15978585E+04</pdfrwt>
<pdfrwt beam="2">  1       -2 0.70906514E-01 0.15978585E+04</pdfrwt>
<totfact> 0.11980652E+01</totfact>
</mgrwt>
</event>
<event>
12    4  0.4486176E-008  0.1731475E+04  0.7818608E-02  0.8743614E-01
          1   -1    0    0  501    0  0.00000000000E+00  0.00000000000E+00  0.19598745311E+04  0.19598745311E+04  0.00000000000E+00 0. -1.
         -2   -1    0    0    0  501 -0.00000000000E+00 -0.00000000000E+00 -0.38242336906E+03  0.38242336906E+03  0.00000000000E+00 0.  1.
        -24    2    1    2    0    0 -0.37340706127E+03 -0.50392835094E+03  0.55300874296E+03  0.84015369371E+03  0.81626851998E+02 0.  0.
        254    2    1    2    0    0  0.37340706127E+03  0.50392835094E+03  0.10244424190E+04  0.15021442064E+04  0.90198577075E+03 0.  0.
         23    2    4    4    0    0  0.29702028614E+02  0.68939213310E+03  0.62014577827E+03  0.93236547943E+03  0.92633024524E+02 0.  0.
         23    2    4    4    0    0  0.34370503266E+03 -0.18546378216E+03  0.40429664077E+03  0.56977872698E+03  0.93070188652E+02 0.  0.
          1    1    3    3  502    0 -0.35774863730E+03 -0.44224350787E+03  0.49932067275E+03  0.75689136736E+03  0.00000000000E+00 0. -1.
         -2    1    3    3    0  502 -0.15658423968E+02 -0.61684843073E+02  0.53688070210E+02  0.83262326349E+02  0.00000000000E+00 0.  1.
         11    1    5    5    0    0  0.56150254308E+02  0.25917569457E+03  0.23786119945E+03  0.35623425146E+03  0.00000000000E+00 0.  1.
        -11    1    5    5    0    0 -0.26448225694E+02  0.43021643854E+03  0.38228457882E+03  0.57613122796E+03  0.00000000000E+00 0. -1.
          1    1    6    6  503    0  0.29830620051E+03 -0.12164359673E+03  0.30854866291E+03  0.44607850349E+03  0.00000000000E+00 0. -1.
         -1    1    6    6    0  503  0.45398832146E+02 -0.63820185432E+02  0.95747977856E+02  0.12370022349E+03  0.00000000000E+00 0.  1.
<mgrwt>
<rscale>  0 0.17314755E+04</rscale>
<asrwt>0</asrwt>
<pdfrwt beam="1">  1        1 0.30151915E+00 0.17314755E+04</pdfrwt>
<pdfrwt beam="2">  1       -2 0.58834366E-01 0.17314755E+04</pdfrwt>
<totfact> 0.71387064E+00</totfact>
</mgrwt>
</event>
<event>
12    4  0.4486176E-008  0.2766678E+04  0.7818608E-02  0.8313689E-01
          1   -1    0    0  501    0  0.00000000000E+00  0.00000000000E+00  0.16494794108E+04  0.16494794108E+04  0.00000000000E+00 0. -1.
         -2   -1    0    0    0  501 -0.00000000000E+00 -0.00000000000E+00 -0.11601398496E+04  0.11601398496E+04  0.00000000000E+00 0.  1.
        -24    2    1    2    0    0  0.46724031231E+03  0.97341872297E+03  0.82884035804E+03  0.13637283249E+04  0.83193060563E+02 0.  0.
        254    2    1    2    0    0 -0.46724031231E+03 -0.97341872297E+03 -0.33950079679E+03  0.14458909355E+04  0.89971233546E+03 0.  0.
         23    2    4    4    0    0 -0.12578550007E+03  0.14073205932E+03  0.47508221931E+02  0.21512343197E+03  0.91616348335E+02 0.  0.
         23    2    4    4    0    0 -0.34145481224E+03 -0.11141507823E+04 -0.38700901872E+03  0.12307675035E+04  0.84198055999E+02 0.  0.
          3    1    3    3  502    0  0.38616943849E+03  0.85128757256E+03  0.74083372303E+03  0.11927497523E+04  0.00000000000E+00 0. -1.
         -4    1    3    3    0  502  0.81070873820E+02  0.12213115041E+03  0.88006635006E+02  0.17097857260E+03  0.00000000000E+00 0.  1.
         11    1    5    5    0    0 -0.11133656071E+03  0.15180355134E+03  0.53918317351E+02  0.19582475047E+03  0.00000000000E+00 0. -1.
        -11    1    5    5    0    0 -0.14448939357E+02 -0.11071492023E+02 -0.64100954202E+01  0.19298681495E+02  0.00000000000E+00 0.  1.
          1    1    6    6  503    0 -0.26922986675E+03 -0.90129112785E+03 -0.27744081794E+03  0.98070577940E+03  0.00000000000E+00 0. -1.
         -1    1    6    6    0  503 -0.72224945487E+02 -0.21285965443E+03 -0.10956820078E+03  0.25006172410E+03  0.00000000000E+00 0.  1.
<mgrwt>
<rscale>  0 0.27666780E+04</rscale>
<asrwt>0</asrwt>
<pdfrwt beam="1">  1        1 0.25376606E+00 0.27666780E+04</pdfrwt>
<pdfrwt beam="2">  1       -2 0.17848305E+00 0.27666780E+04</pdfrwt>
<totfact> 0.73122058E-01</totfact>
</mgrwt>
</event>
<event>
12    4  0.4486176E-008  0.1836411E+04  0.7818608E-02  0.8687173E-01
         -2   -1    0    0    0  501 -0.00000000000E+00  0.00000000000E+00  0.64360643786E+03  0.64360643786E+03  0.00000000000E+00 0.  1.
          1   -1    0    0  501    0  0.00000000000E+00 -0.00000000000E+00 -0.13099639964E+04  0.13099639964E+04  0.00000000000E+00 0. -1.
        -24    2    1    2    0    0 -0.22362070911E+03  0.10279672706E+03  0.43765338768E+03  0.50853164234E+03  0.80563980008E+02 0.  0.
        254    2    1    2    0    0  0.22362070911E+03 -0.10279672706E+03 -0.11040109463E+04  0.14450387920E+04  0.89929058273E+03 0.  0.
         23    2    4    4    0    0  0.34756626207E+03  0.32008859105E+03 -0.53887666844E+03  0.72245720172E+03  0.91089691410E+02 0.  0.
         23    2    4    4    0    0 -0.12394555296E+03 -0.42288531811E+03 -0.56513427783E+03  0.72258159025E+03  0.92481945378E+02 0.  0.
          3    1    3    3  502    0 -0.70970540167E+02  0.44087154777E+02  0.81957213946E+02  0.11703623245E+03  0.00000000000E+00 0. -1.
         -4    1    3    3    0  502 -0.15265016894E+03  0.58709572285E+02  0.35569617373E+03  0.39149540989E+03  0.00000000000E+00 0.  1.
         11    1    5    5    0    0  0.34224475553E+03  0.28441408295E+03 -0.50287346507E+03  0.67149427781E+03  0.00000000000E+00 0.  1.
        -11    1    5    5    0    0  0.53215065408E+01  0.35674508105E+02 -0.36003203368E+02  0.50962923908E+02  0.00000000000E+00 0. -1.
          3    1    6    6  503    0  0.14924259969E+02 -0.42883783284E+02 -0.65091607468E+02  0.79364159210E+02  0.00000000000E+00 0. -1.
         -3    1    6    6    0  503 -0.13886981293E+03 -0.38000153483E+03 -0.50004267036E+03  0.64321743104E+03  0.00000000000E+00 0.  1.
<mgrwt>
<rscale>  0 0.18364109E+04</rscale>
<asrwt>0</asrwt>
<pdfrwt beam="1">  1        1 0.20153292E+00 0.18364109E+04</pdfrwt>
<pdfrwt beam="2">  1       -2 0.99016378E-01 0.18364109E+04</pdfrwt>
<totfact> 0.62098331E+00</totfact>
</mgrwt>
</event>
<event>
12    4  0.4486176E-008  0.2217998E+04  0.7818608E-02  0.8510974E-01
         -2   -1    0    0    0  501 -0.00000000000E+00  0.00000000000E+00  0.73613773943E+03  0.73613773943E+03  0.00000000000E+00 0.  1.
          1   -1    0    0  501    0  0.00000000000E+00 -0.00000000000E+00 -0.16707176230E+04  0.16707176230E+04  0.00000000000E+00 0. -1.
        -24    2    1    2    0    0  0.73101939322E+03  0.46682610076E+03 -0.73501486479E+03  0.11395100342E+04  0.76943517765E+02 0.  0.
        254    2    1    2    0    0 -0.73101939322E+03 -0.46682610076E+03 -0.19956501874E+03  0.12673453282E+04  0.90223169009E+03 0.  0.
         23    2    4    4    0    0 -0.12102626693E+03  0.17751292827E+03  0.18367689277E+03  0.29641859286E+03  0.89266927026E+02 0.  0.
         23    2    4    4    0    0 -0.60999312629E+03 -0.64433902903E+03 -0.38324191152E+03  0.97092673535E+03  0.92520074643E+02 0.  0.
          3    1    3    3  502    0  0.68647174566E+03  0.41425517285E+03 -0.68097672335E+03  0.10519411122E+04  0.00000000000E+00 0. -1.
         -4    1    3    3    0  502  0.44547647560E+02  0.52570927908E+02 -0.54038141442E+02  0.87568921969E+02  0.00000000000E+00 0.  1.
         11    1    5    5    0    0 -0.45757609956E+02  0.10004500888E+03  0.14429865181E+03  0.18145209721E+03  0.00000000000E+00 0.  1.
        -11    1    5    5    0    0 -0.75268656978E+02  0.77467919397E+02  0.39378240966E+02  0.11496649564E+03  0.00000000000E+00 0. -1.
          3    1    6    6  503    0 -0.39261669608E+03 -0.47572082167E+03 -0.25628696715E+03  0.66793800591E+03  0.00000000000E+00 0. -1.
         -3    1    6    6    0  503 -0.21737643021E+03 -0.16861820737E+03 -0.12695494436E+03  0.30298872944E+03  0.00000000000E+00 0.  1.
<mgrwt>
<rscale>  0 0.22179976E+04</rscale>
<asrwt>0</asrwt>
<pdfrwt beam="1">  1        1 0.25703348E+00 0.22179976E+04</pdfrwt>
<pdfrwt beam="2">  1       -2 0.11325196E+00 0.22179976E+04</pdfrwt>
<totfact> 0.24419468E+00</totfact>
</mgrwt>
</event>
<event>
12    4  0.4486176E-008  0.1672041E+04  0.7818608E-02  0.8777473E-01
         -2   -1    0    0    0  501 -0.00000000000E+00  0.00000000000E+00  0.62409473759E+03  0.62409473759E+03  0.00000000000E+00 0.  1.
          1   -1    0    0  501    0  0.00000000000E+00 -0.00000000000E+00 -0.11199102340E+04  0.11199102340E+04  0.00000000000E+00 0. -1.
        -24    2    1    2    0    0  0.56867649678E+03 -0.25826541052E+02 -0.32219540050E+03  0.66156267141E+03  0.98971328619E+02 0.  0.
        254    2    1    2    0    0 -0.56867649678E+03  0.25826541052E+02 -0.17362009592E+03  0.10824423002E+04  0.90414458319E+03 0.  0.
         23    2    4    4    0    0 -0.73140351686E+03  0.19247393746E+03 -0.27886559130E+03  0.81119843854E+03  0.90992129314E+02 0.  0.
         23    2    4    4    0    0  0.16272702009E+03 -0.16664739641E+03  0.10524549538E+03  0.27124386165E+03  0.90802975653E+02 0.  0.
          3    1    3    3  502    0  0.43188546325E+03 -0.41667561120E+02 -0.28430596229E+03  0.51873993408E+03  0.00000000000E+00 0. -1.
         -4    1    3    3    0  502  0.13679103352E+03  0.15841020068E+02 -0.37889438212E+02  0.14282273733E+03  0.00000000000E+00 0.  1.
         11    1    5    5    0    0 -0.60718761381E+03  0.16494125674E+03 -0.19461906358E+03  0.65860382359E+03  0.00000000000E+00 0.  1.
        -11    1    5    5    0    0 -0.12421590306E+03  0.27532680722E+02 -0.84246527717E+02  0.15259461495E+03  0.00000000000E+00 0. -1.
          2    1    6    6  503    0  0.48894238907E+02 -0.73880317917E+02  0.85417913332E+02  0.12306570559E+03  0.00000000000E+00 0. -1.
         -2    1    6    6    0  503  0.11383278118E+03 -0.92767078496E+02  0.19827582044E+02  0.14817815606E+03  0.00000000000E+00 0.  1.
<mgrwt>
<rscale>  0 0.16720408E+04</rscale>
<asrwt>0</asrwt>
<pdfrwt beam="1">  1        1 0.17229388E+00 0.16720408E+04</pdfrwt>
<pdfrwt beam="2">  1       -2 0.96014575E-01 0.16720408E+04</pdfrwt>
<totfact> 0.93147997E+00</totfact>
</mgrwt>
</event>
<event>
12    4  0.4486176E-008  0.1970545E+04  0.7818608E-02  0.8620517E-01
         -2   -1    0    0    0  501 -0.00000000000E+00  0.00000000000E+00  0.62633140214E+03  0.62633140214E+03  0.00000000000E+00 0.  1.
          1   -1    0    0  501    0  0.00000000000E+00 -0.00000000000E+00 -0.15499181128E+04  0.15499181128E+04  0.00000000000E+00 0. -1.
        -24    2    1    2    0    0  0.16509581554E+03  0.47736950550E+03 -0.10201499570E+04  0.11416512890E+04  0.86737868326E+02 0.  0.
        254    2    1    2    0    0 -0.16509581554E+03 -0.47736950550E+03  0.96563246332E+02  0.10345982259E+04  0.89773646216E+03 0.  0.
         23    2    4    4    0    0  0.16337282689E+03 -0.10952999411E+03 -0.31721971691E+03  0.38432128991E+03  0.91580592381E+02 0.  0.
         23    2    4    4    0    0 -0.32846864243E+03 -0.36783951140E+03  0.41378296324E+03  0.65027693604E+03  0.91903197263E+02 0.  0.
          3    1    3    3  502    0  0.16700895662E+03  0.39782415569E+03 -0.89079059072E+03  0.98977973659E+03  0.00000000000E+00 0. -1.
         -4    1    3    3    0  502 -0.19131410845E+01  0.79545349817E+02 -0.12935936625E+03  0.15187155238E+03  0.00000000000E+00 0.  1.
         11    1    5    5    0    0  0.11049535583E+03 -0.94453973993E+02 -0.15256917155E+03  0.21073236337E+03  0.00000000000E+00 0.  1.
        -11    1    5    5    0    0  0.52877471064E+02 -0.15076020114E+02 -0.16465054536E+03  0.17358892654E+03  0.00000000000E+00 0. -1.
          1    1    6    6  503    0 -0.97858131239E+02 -0.17572164724E+03  0.17811780477E+03  0.26866384858E+03  0.00000000000E+00 0. -1.
         -1    1    6    6    0  503 -0.23061051119E+03 -0.19211786416E+03  0.23566515848E+03  0.38161308746E+03  0.00000000000E+00 0.  1.
<mgrwt>
<rscale>  0 0.19705455E+04</rscale>
<asrwt>0</asrwt>
<pdfrwt beam="1">  1        1 0.23844894E+00 0.19705455E+04</pdfrwt>
<pdfrwt beam="2">  1       -2 0.96358677E-01 0.19705455E+04</pdfrwt>
<totfact> 0.44459902E+00</totfact>
</mgrwt>
</event>
<event>
12    4  0.4486176E-008  0.1265651E+04  0.7818608E-02  0.9057256E-01
         -2   -1    0    0    0  501 -0.00000000000E+00  0.00000000000E+00  0.33308068576E+03  0.33308068576E+03  0.00000000000E+00 0.  1.
          1   -1    0    0  501    0  0.00000000000E+00 -0.00000000000E+00 -0.12023164846E+04  0.12023164846E+04  0.00000000000E+00 0. -1.
        -24    2    1    2    0    0  0.15525165206E+02  0.28338139172E+03 -0.83364280722E+02  0.30820107259E+03  0.86557806803E+02 0.  0.
        254    2    1    2    0    0 -0.15525165206E+02 -0.28338139172E+03 -0.78587151807E+03  0.12271960977E+04  0.89881598530E+03 0.  0.
         23    2    4    4    0    0  0.13902290324E+03 -0.10273966498E+03  0.15868208404E+03  0.24899501810E+03  0.83280903316E+02 0.  0.
         23    2    4    4    0    0 -0.15454806845E+03 -0.18064172674E+03 -0.94455360211E+03  0.97820107963E+03  0.90439515830E+02 0.  0.
          3    1    3    3  502    0  0.16330477680E+02  0.17647457237E+03 -0.94262666736E+02  0.20073716531E+03  0.00000000000E+00 0. -1.
         -4    1    3    3    0  502 -0.80531247414E+00  0.10690681935E+03  0.10898386014E+02  0.10746390729E+03  0.00000000000E+00 0.  1.
         11    1    5    5    0    0  0.98951766616E+02 -0.22103776771E+02  0.75539310285E+02  0.12643661045E+03  0.00000000000E+00 0.  1.
        -11    1    5    5    0    0  0.40071136624E+02 -0.80635888206E+02  0.83142773756E+02  0.12255840765E+03  0.00000000000E+00 0. -1.
          2    1    6    6  503    0 -0.14673074988E+03 -0.12373607480E+03 -0.79882754457E+03  0.82156312912E+03  0.00000000000E+00 0. -1.
         -2    1    6    6    0  503 -0.78173185634E+01 -0.56905651942E+02 -0.14572605754E+03  0.15663795051E+03  0.00000000000E+00 0.  1.
<mgrwt>
<rscale>  0 0.12656515E+04</rscale>
<asrwt>0</asrwt>
<pdfrwt beam="1">  1        1 0.18497177E+00 0.12656515E+04</pdfrwt>
<pdfrwt beam="2">  1       -2 0.51243182E-01 0.12656515E+04</pdfrwt>
<totfact> 0.33087450E+01</totfact>
</mgrwt>
</event>
<event>
12    4  0.4486176E-008  0.1596398E+04  0.7818608E-02  0.8822764E-01
          1   -1    0    0  501    0  0.00000000000E+00  0.00000000000E+00  0.15211277107E+04  0.15211277107E+04  0.00000000000E+00 0. -1.
         -2   -1    0    0    0  501 -0.00000000000E+00 -0.00000000000E+00 -0.41884848376E+03  0.41884848376E+03  0.00000000000E+00 0.  1.
        -24    2    1    2    0    0  0.45877929041E+03  0.27272535774E+03  0.49432018041E+03  0.73184587951E+03  0.79927420453E+02 0.  0.
        254    2    1    2    0    0 -0.45877929041E+03 -0.27272535774E+03  0.60795904650E+03  0.12081303149E+04  0.89727760337E+03 0.  0.
         23    2    4    4    0    0 -0.89534222330E+02  0.65208657104E+02  0.67788697033E+03  0.69456053784E+03  0.10302936602E+03 0.  0.
         23    2    4    4    0    0 -0.36924506808E+03 -0.33793401485E+03 -0.69927923830E+02  0.51356977706E+03  0.91228738300E+02 0.  0.
          3    1    3    3  502    0  0.37416803274E+03  0.22500120346E+03  0.35890235440E+03  0.56518860416E+03  0.00000000000E+00 0. -1.
         -4    1    3    3    0  502  0.84611257663E+02  0.47724154286E+02  0.13541782601E+03  0.16665727535E+03  0.00000000000E+00 0.  1.
         11    1    5    5    0    0  0.99529694182E+01  0.49396998127E+02  0.21178111858E+03  0.21769328702E+03  0.00000000000E+00 0. -1.
        -11    1    5    5    0    0 -0.99487191748E+02  0.15811658977E+02  0.46610585174E+03  0.47686725083E+03  0.00000000000E+00 0.  1.
          2    1    6    6  503    0 -0.51096477199E+00  0.44390562116E+01 -0.41793405857E+01  0.61182671386E+01  0.00000000000E+00 0. -1.
         -2    1    6    6    0  503 -0.36873410330E+03 -0.34237307106E+03 -0.65748583244E+02  0.50745150992E+03  0.00000000000E+00 0.  1.
<mgrwt>
<rscale>  0 0.15963985E+04</rscale>
<asrwt>0</asrwt>
<pdfrwt beam="1">  1        1 0.23401965E+00 0.15963985E+04</pdfrwt>
<pdfrwt beam="2">  1       -2 0.64438229E-01 0.15963985E+04</pdfrwt>
<totfact> 0.11848600E+01</totfact>
</mgrwt>
</event>
<event>
12    4  0.4486176E-008  0.1977427E+04  0.7818608E-02  0.8617247E-01
          1   -1    0    0  501    0  0.00000000000E+00  0.00000000000E+00  0.16092567993E+04  0.16092567993E+04  0.00000000000E+00 0. -1.
         -2   -1    0    0    0  501 -0.00000000000E+00 -0.00000000000E+00 -0.60745735042E+03  0.60745735042E+03  0.00000000000E+00 0.  1.
        -24    2    1    2    0    0 -0.46672036822E+03  0.41736414244E+03  0.92827484590E+03  0.11225355999E+04  0.79820134726E+02 0.  0.
        254    2    1    2    0    0  0.46672036822E+03 -0.41736414244E+03  0.73524602972E+02  0.10941785499E+04  0.89431543776E+03 0.  0.
         23    2    4    4    0    0 -0.71156486205E+02  0.18369674841E+03  0.17104497859E+03  0.27656165193E+03  0.91772663210E+02 0.  0.
         23    2    4    4    0    0  0.53787685442E+03 -0.60106089085E+03 -0.97520375620E+02  0.81761689792E+03  0.91659495217E+02 0.  0.
          3    1    3    3  502    0 -0.31657919265E+03  0.32552622477E+03  0.63852867287E+03  0.78352318046E+03  0.00000000000E+00 0. -1.
         -4    1    3    3    0  502 -0.15014117557E+03  0.91837917672E+02  0.28974617303E+03  0.33901241940E+03  0.00000000000E+00 0.  1.
         11    1    5    5    0    0 -0.27988577598E+02  0.10778189187E+03  0.38482233437E+02  0.11781841529E+03  0.00000000000E+00 0. -1.
        -11    1    5    5    0    0 -0.43167908608E+02  0.75914856542E+02  0.13256274516E+03  0.15874323664E+03  0.00000000000E+00 0.  1.
          4    1    6    6  503    0  0.22668784767E+03 -0.27992703497E+03 -0.12946893509E+01  0.36020577648E+03  0.00000000000E+00 0. -1.
         -4    1    6    6    0  503  0.31118900675E+03 -0.32113385588E+03 -0.96225686269E+02  0.45741112144E+03  0.00000000000E+00 0.  1.
<mgrwt>
<rscale>  0 0.19774275E+04</rscale>
<asrwt>0</asrwt>
<pdfrwt beam="1">  1        1 0.24757797E+00 0.19774275E+04</pdfrwt>
<pdfrwt beam="2">  1       -2 0.93454977E-01 0.19774275E+04</pdfrwt>
<totfact> 0.43447475E+00</totfact>
</mgrwt>
</event>
<event>
12    4  0.4486176E-008  0.1769330E+04  0.7818608E-02  0.8722782E-01
         -2   -1    0    0    0  501 -0.00000000000E+00  0.00000000000E+00  0.12029432228E+04  0.12029432228E+04  0.00000000000E+00 0.  1.
          1   -1    0    0  501    0  0.00000000000E+00 -0.00000000000E+00 -0.65059745981E+03  0.65059745981E+03  0.00000000000E+00 0. -1.
        -24    2    1    2    0    0  0.73217547533E+02 -0.54394731642E+03 -0.16887922823E+03  0.57950959832E+03  0.77921040269E+02 0.  0.
        254    2    1    2    0    0 -0.73217547533E+02  0.54394731642E+03  0.72122499119E+03  0.12740310843E+04  0.89540506109E+03 0.  0.
         23    2    4    4    0    0  0.33020659535E+03  0.22251937918E+03  0.61737055377E+03  0.74022620380E+03  0.90758814498E+02 0.  0.
         23    2    4    4    0    0 -0.40342414289E+03  0.32142793723E+03  0.10385443742E+03  0.53380488045E+03  0.89971930746E+02 0.  0.
          3    1    3    3  502    0 -0.18210005299E+01 -0.20222427589E+03 -0.87232982224E+02  0.22024433475E+03  0.00000000000E+00 0. -1.
         -4    1    3    3    0  502  0.75038548063E+02 -0.34172304053E+03 -0.81646246005E+02  0.35926526357E+03  0.00000000000E+00 0.  1.
         11    1    5    5    0    0  0.26310430394E+03  0.21648863570E+03  0.52573296421E+03  0.62648731335E+03  0.00000000000E+00 0.  1.
        -11    1    5    5    0    0  0.67102291416E+02  0.60307434825E+01  0.91637589562E+02  0.11373889045E+03  0.00000000000E+00 0. -1.
          1    1    6    6  503    0 -0.30716020661E+03  0.26673192538E+03  0.11439473614E+03  0.42258663987E+03  0.00000000000E+00 0. -1.
         -1    1    6    6    0  503 -0.96263936279E+02  0.54696011851E+02 -0.10540298718E+02  0.11121824058E+03  0.00000000000E+00 0.  1.
<mgrwt>
<rscale>  0 0.17693296E+04</rscale>
<asrwt>0</asrwt>
<pdfrwt beam="1">  1        1 0.10009192E+00 0.17693296E+04</pdfrwt>
<pdfrwt beam="2">  1       -2 0.18506819E+00 0.17693296E+04</pdfrwt>
<totfact> 0.42134763E+00</totfact>
</mgrwt>
</event>
<event>
12    4  0.4486176E-008  0.2464213E+04  0.7818608E-02  0.8415847E-01
         -2   -1    0    0    0  501 -0.00000000000E+00  0.00000000000E+00  0.66488521993E+03  0.66488521993E+03  0.00000000000E+00 0.  1.
          1   -1    0    0  501    0  0.00000000000E+00 -0.00000000000E+00 -0.22832303547E+04  0.22832303547E+04  0.00000000000E+00 0. -1.
        -24    2    1    2    0    0 -0.51034994419E+03  0.30488677956E+03  0.35314377659E+03  0.69657714567E+03  0.84238821423E+02 0.  0.
        254    2    1    2    0    0  0.51034994419E+03 -0.30488677956E+03 -0.19714889114E+04  0.22515384290E+04  0.91062822027E+03 0.  0.
         23    2    4    4    0    0 -0.15119076778E+02 -0.19348397978E+03 -0.15439224594E+04  0.15588767022E+04  0.93463228490E+02 0.  0.
         23    2    4    4    0    0  0.52546902097E+03 -0.11140279978E+03 -0.42756645199E+03  0.69266172679E+03  0.91863600518E+02 0.  0.
          3    1    3    3  502    0  0.58618921102E+00  0.57707899739E+01 -0.20483248761E+01  0.61515257873E+01  0.00000000000E+00 0. -1.
         -4    1    3    3    0  502 -0.51093613340E+03  0.29911598959E+03  0.35519210147E+03  0.69042561988E+03  0.00000000000E+00 0.  1.
         11    1    5    5    0    0 -0.24941360256E+01 -0.26869579477E+01 -0.32721585278E+03  0.32723638973E+03  0.00000000000E+00 0. -1.
        -11    1    5    5    0    0 -0.12624940752E+02 -0.19079702183E+03 -0.12167066066E+04  0.12316403125E+04  0.00000000000E+00 0.  1.
          3    1    6    6  503    0  0.71785115229E+02 -0.15710190611E+02 -0.22152609895E+02  0.76750576432E+02  0.00000000000E+00 0. -1.
         -3    1    6    6    0  503  0.45368390574E+03 -0.95692609169E+02 -0.40541384210E+03  0.61591115036E+03  0.00000000000E+00 0.  1.
<mgrwt>
<rscale>  0 0.24642127E+04</rscale>
<asrwt>0</asrwt>
<pdfrwt beam="1">  1        1 0.35126621E+00 0.24642127E+04</pdfrwt>
<pdfrwt beam="2">  1       -2 0.10229003E+00 0.24642127E+04</pdfrwt>
<totfact> 0.11713229E+00</totfact>
</mgrwt>
</event>
<event>
12    4  0.4486176E-008  0.1190431E+04  0.7818608E-02  0.9121274E-01
          1   -1    0    0  501    0  0.00000000000E+00  0.00000000000E+00  0.17384769605E+04  0.17384769605E+04  0.00000000000E+00 0. -1.
         -2   -1    0    0    0  501 -0.00000000000E+00 -0.00000000000E+00 -0.20378836512E+03  0.20378836512E+03  0.00000000000E+00 0.  1.
        -24    2    1    2    0    0 -0.88220903725E+02 -0.14662781320E+03  0.69660785388E+03  0.72174817480E+03  0.79845364771E+02 0.  0.
        254    2    1    2    0    0  0.88220903725E+02  0.14662781320E+03  0.83808074152E+03  0.12205171508E+04  0.87063203637E+03 0.  0.
         23    2    4    4    0    0 -0.26042114561E+03 -0.19743432155E+03  0.14994726953E+03  0.37123838661E+03  0.92381121706E+02 0.  0.
         23    2    4    4    0    0  0.34864204934E+03  0.34406213475E+03  0.68813347199E+03  0.84927876423E+03  0.88412176607E+02 0.  0.
          3    1    3    3  502    0 -0.50272425349E+02 -0.13609899970E+03  0.60268871800E+03  0.61990640041E+03  0.00000000000E+00 0. -1.
         -4    1    3    3    0  502 -0.37948478376E+02 -0.10528813501E+02  0.93919135884E+02  0.10184177439E+03  0.00000000000E+00 0.  1.
         11    1    5    5    0    0 -0.17207540274E+03 -0.75443030045E+02  0.98008296693E+02  0.21191323986E+03  0.00000000000E+00 0.  1.
        -11    1    5    5    0    0 -0.88345742878E+02 -0.12199129150E+03  0.51938972837E+02  0.15932514675E+03  0.00000000000E+00 0. -1.
          4    1    6    6  503    0  0.31091078753E+03  0.33820314671E+03  0.64087284590E+03  0.78852069780E+03  0.00000000000E+00 0. -1.
         -4    1    6    6    0  503  0.37731261808E+02  0.58589880400E+01  0.47260626084E+02  0.60758066430E+02  0.00000000000E+00 0.  1.
<mgrwt>
<rscale>  0 0.11904308E+04</rscale>
<asrwt>0</asrwt>
<pdfrwt beam="1">  1        1 0.26745798E+00 0.11904308E+04</pdfrwt>
<pdfrwt beam="2">  1       -2 0.31352057E-01 0.11904308E+04</pdfrwt>
<totfact> 0.36840483E+01</totfact>
</mgrwt>
</event>
<event>
12    4  0.4486176E-008  0.1537434E+04  0.7818608E-02  0.8859934E-01
         -2   -1    0    0    0  501 -0.00000000000E+00  0.00000000000E+00  0.52026740295E+03  0.52026740295E+03  0.00000000000E+00 0.  1.
          1   -1    0    0  501    0  0.00000000000E+00 -0.00000000000E+00 -0.11358121624E+04  0.11358121624E+04  0.00000000000E+00 0. -1.
        -24    2    1    2    0    0 -0.21130073978E+03 -0.43223065704E+03 -0.69867585411E+02  0.49297549415E+03  0.81682402184E+02 0.  0.
        254    2    1    2    0    0  0.21130073978E+03  0.43223065704E+03 -0.54567717407E+03  0.11631040712E+04  0.90751096892E+03 0.  0.
         23    2    4    4    0    0 -0.14734085380E+03 -0.10301366128E+03 -0.46506519871E+03  0.50705216482E+03  0.92168959965E+02 0.  0.
         23    2    4    4    0    0  0.35864159358E+03  0.53524431832E+03 -0.80611975357E+02  0.65605190642E+03  0.93784542456E+02 0.  0.
          1    1    3    3  502    0 -0.47004986623E+02 -0.76041214746E+02 -0.44607979323E+02  0.99907992307E+02  0.00000000000E+00 0. -1.
         -2    1    3    3    0  502 -0.16429575316E+03 -0.35618944229E+03 -0.25259606088E+02  0.39306750184E+03  0.00000000000E+00 0.  1.
         11    1    5    5    0    0 -0.93017433579E+02 -0.19571818088E+02 -0.29554143350E+03  0.31045134551E+03  0.00000000000E+00 0.  1.
        -11    1    5    5    0    0 -0.54323420219E+02 -0.83441843196E+02 -0.16952376522E+03  0.19660081931E+03  0.00000000000E+00 0. -1.
          4    1    6    6  503    0  0.14995602841E+03  0.28882821309E+03 -0.70496728975E+02  0.33298398749E+03  0.00000000000E+00 0. -1.
         -4    1    6    6    0  503  0.20868556517E+03  0.24641610524E+03 -0.10115246383E+02  0.32306791893E+03  0.00000000000E+00 0.  1.
<mgrwt>
<rscale>  0 0.15374343E+04</rscale>
<asrwt>0</asrwt>
<pdfrwt beam="1">  1        1 0.17474033E+00 0.15374343E+04</pdfrwt>
<pdfrwt beam="2">  1       -2 0.80041140E-01 0.15374343E+04</pdfrwt>
<totfact> 0.13918005E+01</totfact>
</mgrwt>
</event>
<event>
12    4  0.4486176E-008  0.2585282E+04  0.7818608E-02  0.8373218E-01
         -2   -1    0    0    0  501 -0.00000000000E+00  0.00000000000E+00  0.88263614669E+03  0.88263614669E+03  0.00000000000E+00 0.  1.
          1   -1    0    0  501    0  0.00000000000E+00 -0.00000000000E+00 -0.18931029347E+04  0.18931029347E+04  0.00000000000E+00 0. -1.
        -24    2    1    2    0    0 -0.11219262607E+04  0.12370752989E+03 -0.43478443280E+03  0.12121096879E+04  0.78423880296E+02 0.  0.
        254    2    1    2    0    0  0.11219262607E+04 -0.12370752989E+03 -0.57568235523E+03  0.15636293935E+04  0.91624484655E+03 0.  0.
         23    2    4    4    0    0  0.12927649606E+03  0.28862828116E+03  0.17734908745E+02  0.33278020767E+03  0.10202667546E+03 0.  0.
         23    2    4    4    0    0  0.99264976465E+03 -0.41233581105E+03 -0.59341726397E+03  0.12308491859E+04  0.86436640831E+02 0.  0.
          3    1    3    3  502    0 -0.13602273541E+03  0.48103773799E+01 -0.78254365655E+02  0.15700022301E+03  0.00000000000E+00 0. -1.
         -4    1    3    3    0  502 -0.98590352530E+03  0.11889715251E+03 -0.35653006715E+03  0.10551094649E+04  0.00000000000E+00 0.  1.
         11    1    5    5    0    0  0.44138246913E+02  0.26313209698E+02 -0.18519484305E+02  0.54621800997E+02  0.00000000000E+00 0.  1.
        -11    1    5    5    0    0  0.85138249151E+02  0.26231507147E+03  0.36254393049E+02  0.27815840667E+03  0.00000000000E+00 0. -1.
          3    1    6    6  503    0  0.78565000244E+03 -0.31870155823E+03 -0.50647388767E+03  0.98758919012E+03  0.00000000000E+00 0. -1.
         -3    1    6    6    0  503  0.20699976220E+03 -0.93634252825E+02 -0.86943376304E+02  0.24325999576E+03  0.00000000000E+00 0.  1.
<mgrwt>
<rscale>  0 0.25852823E+04</rscale>
<asrwt>0</asrwt>
<pdfrwt beam="1">  1        1 0.29124661E+00 0.25852823E+04</pdfrwt>
<pdfrwt beam="2">  1       -2 0.13579018E+00 0.25852823E+04</pdfrwt>
<totfact> 0.10607258E+00</totfact>
</mgrwt>
</event>
<event>
12    4  0.4486176E-008  0.1145557E+04  0.7818608E-02  0.9161892E-01
          3   -1    0    0  501    0  0.00000000000E+00  0.00000000000E+00  0.46658793844E+04  0.46658793844E+04  0.00000000000E+00 0. -1.
         -4   -1    0    0    0  501 -0.00000000000E+00 -0.00000000000E+00 -0.70313694672E+02  0.70313694672E+02  0.00000000000E+00 0.  1.
        -24    2    1    2    0    0 -0.12703021943E+03  0.87444152367E+02  0.14605908465E+04  0.14709200571E+04  0.80604199917E+02 0.  0.
        254    2    1    2    0    0  0.12703021943E+03 -0.87444152367E+02  0.31349748433E+04  0.32652730220E+04  0.90008748685E+03 0.  0.
         23    2    4    4    0    0  0.60065125745E+02  0.21445842702E+02  0.31042752001E+04  0.31062844984E+04  0.91712175294E+02 0.  0.
         23    2    4    4    0    0  0.66965093688E+02 -0.10888999507E+03  0.30699643153E+02  0.15898852368E+03  0.89406530928E+02 0.  0.
          3    1    3    3  502    0 -0.75924384884E+02  0.95300598334E+02  0.97504591892E+03  0.98262976764E+03  0.00000000000E+00 0. -1.
         -4    1    3    3    0  502 -0.51105834550E+02 -0.78564459671E+01  0.48554492756E+03  0.48829028942E+03  0.00000000000E+00 0.  1.
         11    1    5    5    0    0 -0.23715619168E+02  0.10627243122E+02  0.94550172991E+03  0.94585881090E+03  0.00000000000E+00 0.  1.
        -11    1    5    5    0    0  0.83780744914E+02  0.10818599579E+02  0.21587734702E+04  0.21604256875E+04  0.00000000000E+00 0. -1.
          3    1    6    6  503    0  0.10507292232E+02 -0.86416916059E+02  0.42836936387E+02  0.97022109286E+02  0.00000000000E+00 0. -1.
         -3    1    6    6    0  503  0.56457801456E+02 -0.22473079010E+02 -0.12137293234E+02  0.61966414391E+02  0.00000000000E+00 0.  1.
<mgrwt>
<rscale>  0 0.11455570E+04</rscale>
<asrwt>0</asrwt>
<pdfrwt beam="1">  1        3 0.71782735E+00 0.11455570E+04</pdfrwt>
<pdfrwt beam="2">  1       -4 0.10817495E-01 0.11455570E+04</pdfrwt>
<totfact> 0.43202903E-02</totfact>
</mgrwt>
</event>
<event>
12    4  0.4486176E-008  0.2719207E+04  0.7818608E-02  0.8328800E-01
         -2   -1    0    0    0  501 -0.00000000000E+00  0.00000000000E+00  0.11199495012E+04  0.11199495012E+04  0.00000000000E+00 0.  1.
          1   -1    0    0  501    0  0.00000000000E+00 -0.00000000000E+00 -0.16505398065E+04  0.16505398065E+04  0.00000000000E+00 0. -1.
        -24    2    1    2    0    0 -0.19704429446E+03 -0.10121210137E+04 -0.87958104881E+03  0.13577516492E+04  0.81310019031E+02 0.  0.
        254    2    1    2    0    0  0.19704429446E+03  0.10121210137E+04  0.34899074344E+03  0.14127376585E+04  0.90045419231E+03 0.  0.
         23    2    4    4    0    0 -0.38592694855E+02 -0.10931592307E+03  0.20743328539E+03  0.25452199342E+03  0.91178452002E+02 0.  0.
         23    2    4    4    0    0  0.23563698931E+03  0.11214369368E+04  0.14155745805E+03  0.11582156651E+04  0.90991313293E+02 0.  0.
          1    1    3    3  502    0 -0.85830632274E+02 -0.47867784485E+03 -0.36251732206E+03  0.60656259807E+03  0.00000000000E+00 0. -1.
         -4    1    3    3    0  502 -0.11121366218E+03 -0.53344316883E+03 -0.51706372675E+03  0.75118905114E+03  0.00000000000E+00 0.  1.
         11    1    5    5    0    0  0.39072361571E+01 -0.96694234042E+02  0.10438906142E+03  0.14234506502E+03  0.00000000000E+00 0.  1.
        -11    1    5    5    0    0 -0.42499931012E+02 -0.12621689029E+02  0.10304422397E+03  0.11217692839E+03  0.00000000000E+00 0. -1.
          3    1    6    6  503    0  0.47279109513E+02  0.96902719297E+02  0.14392180516E+02  0.10877769102E+03  0.00000000000E+00 0. -1.
         -3    1    6    6    0  503  0.18835787980E+03  0.10245342175E+04  0.12716527753E+03  0.10494379741E+04  0.00000000000E+00 0.  1.
<mgrwt>
<rscale>  0 0.27192067E+04</rscale>
<asrwt>0</asrwt>
<pdfrwt beam="1">  1        1 0.25392920E+00 0.27192067E+04</pdfrwt>
<pdfrwt beam="2">  1       -2 0.17229992E+00 0.27192067E+04</pdfrwt>
<totfact> 0.80990940E-01</totfact>
</mgrwt>
</event>
<event>
12    4  0.4486176E-008  0.1366230E+04  0.7818608E-02  0.8978632E-01
         -2   -1    0    0    0  501 -0.00000000000E+00  0.00000000000E+00  0.83801485869E+03  0.83801485869E+03  0.00000000000E+00 0.  1.
          1   -1    0    0  501    0  0.00000000000E+00 -0.00000000000E+00 -0.55684696192E+03  0.55684696192E+03  0.00000000000E+00 0. -1.
        -24    2    1    2    0    0 -0.24485703929E+03  0.30524617461E+03  0.16781018129E+03  0.43321874787E+03  0.79925150961E+02 0.  0.
        254    2    1    2    0    0  0.24485703929E+03 -0.30524617461E+03  0.11335771548E+03  0.96164307275E+03  0.87107820022E+03 0.  0.
         23    2    4    4    0    0  0.30944693962E+02 -0.98333309621E+02  0.46870849108E+03  0.48895358663E+03  0.93599927375E+02 0.  0.
         23    2    4    4    0    0  0.21391234533E+03 -0.20691286499E+03 -0.35535077560E+03  0.47268948611E+03  0.92680911622E+02 0.  0.
          3    1    3    3  502    0 -0.13037681204E+03  0.14141315213E+03  0.41452702561E+02  0.19675903858E+03  0.00000000000E+00 0. -1.
         -4    1    3    3    0  502 -0.11448022725E+03  0.16383302247E+03  0.12635747873E+03  0.23645970929E+03  0.00000000000E+00 0.  1.
         11    1    5    5    0    0  0.12976934060E+02 -0.65777244184E+02  0.43030725286E+03  0.43549899946E+03  0.00000000000E+00 0.  1.
        -11    1    5    5    0    0  0.17967759902E+02 -0.32556065437E+02  0.38401238223E+02  0.53454587172E+02  0.00000000000E+00 0. -1.
          3    1    6    6  503    0  0.92394754345E+02 -0.14403612260E+03 -0.23338035330E+03  0.28939520478E+03  0.00000000000E+00 0. -1.
         -3    1    6    6    0  503  0.12151759099E+03 -0.62876742382E+02 -0.12197042230E+03  0.18329428133E+03  0.00000000000E+00 0.  1.
<mgrwt>
<rscale>  0 0.13662299E+04</rscale>
<asrwt>0</asrwt>
<pdfrwt beam="1">  1        1 0.85668763E-01 0.13662299E+04</pdfrwt>
<pdfrwt beam="2">  1       -2 0.12892536E+00 0.13662299E+04</pdfrwt>
<totfact> 0.14452289E+01</totfact>
</mgrwt>
</event>
<event>
12    4  0.4486176E-008  0.1857727E+04  0.7818608E-02  0.8676189E-01
         -2   -1    0    0    0  501 -0.00000000000E+00  0.00000000000E+00  0.70888966214E+03  0.70888966214E+03  0.00000000000E+00 0.  1.
          1   -1    0    0  501    0  0.00000000000E+00 -0.00000000000E+00 -0.12170972534E+04  0.12170972534E+04  0.00000000000E+00 0. -1.
        -24    2    1    2    0    0 -0.59252307581E+03 -0.84831861539E+02  0.19189721639E+03  0.63358188188E+03  0.79507353687E+02 0.  0.
        254    2    1    2    0    0  0.59252307581E+03  0.84831861539E+02 -0.70010480767E+03  0.12924050337E+04  0.90657817602E+03 0.  0.
         23    2    4    4    0    0 -0.14940587848E+03 -0.18642113932E+03 -0.32020975223E+03  0.41048609637E+03  0.94284633826E+02 0.  0.
         23    2    4    4    0    0  0.74192895429E+03  0.27125300086E+03 -0.37989505544E+03  0.88191893730E+03  0.97077263746E+02 0.  0.
          3    1    3    3  502    0 -0.23752120876E+03 -0.11728392428E+02  0.42644871682E+02  0.24160394219E+03  0.00000000000E+00 0. -1.
         -4    1    3    3    0  502 -0.35500186705E+03 -0.73103469111E+02  0.14925234471E+03  0.39197793969E+03  0.00000000000E+00 0.  1.
         11    1    5    5    0    0 -0.14384976392E+03 -0.18887079355E+03 -0.26845162506E+03  0.35837299875E+03  0.00000000000E+00 0. -1.
        -11    1    5    5    0    0 -0.55561145553E+01  0.24496542243E+01 -0.51758127176E+02  0.52113097620E+02  0.00000000000E+00 0.  1.
          2    1    6    6  503    0  0.14276478787E+03  0.14276568129E+02 -0.80436941388E+02  0.16448618967E+03  0.00000000000E+00 0.  1.
         -2    1    6    6    0  503  0.59916416642E+03  0.25697643273E+03 -0.29945811405E+03  0.71743274763E+03  0.00000000000E+00 0. -1.
<mgrwt>
<rscale>  0 0.18577273E+04</rscale>
<asrwt>0</asrwt>
<pdfrwt beam="1">  1        1 0.18724573E+00 0.18577273E+04</pdfrwt>
<pdfrwt beam="2">  1       -2 0.10905995E+00 0.18577273E+04</pdfrwt>
<totfact> 0.57368278E+00</totfact>
</mgrwt>
</event>
<event>
12    4  0.4486176E-008  0.1725008E+04  0.7818608E-02  0.8747229E-01
         -2   -1    0    0    0  501 -0.00000000000E+00  0.00000000000E+00  0.94990945879E+03  0.94990945879E+03  0.00000000000E+00 0.  1.
          1   -1    0    0  501    0  0.00000000000E+00 -0.00000000000E+00 -0.78314081797E+03  0.78314081797E+03  0.00000000000E+00 0. -1.
        -24    2    1    2    0    0  0.52608218213E+03  0.30682358058E+01 -0.24501109737E+03  0.58367256902E+03  0.62220202180E+02 0.  0.
        254    2    1    2    0    0 -0.52608218213E+03 -0.30682358058E+01  0.41177973819E+03  0.11493777078E+04  0.93527251957E+03 0.  0.
         23    2    4    4    0    0  0.80598275463E+02  0.40182595758E+02 -0.22875928116E+03  0.26134646261E+03  0.88659132587E+02 0.  0.
         23    2    4    4    0    0 -0.60668045759E+03 -0.43250831564E+02  0.64053901935E+03  0.88803124514E+03  0.91528383441E+02 0.  0.
          1    1    3    3  502    0  0.10798145276E+03 -0.92099584476E+01 -0.76841206254E+02  0.13285100095E+03  0.00000000000E+00 0. -1.
         -2    1    3    3    0  502  0.41810072937E+03  0.12278194253E+02 -0.16816989112E+03  0.45082156807E+03  0.00000000000E+00 0.  1.
         11    1    5    5    0    0  0.12935194113E+02  0.39239581014E+01  0.56775522465E+01  0.14661217325E+02  0.00000000000E+00 0. -1.
        -11    1    5    5    0    0  0.67663081350E+02  0.36258637656E+02 -0.23443683341E+03  0.24668524528E+03  0.00000000000E+00 0.  1.
          2    1    6    6  503    0 -0.34890559856E+03 -0.67416485964E+02  0.34800956832E+03  0.49738391503E+03  0.00000000000E+00 0. -1.
         -2    1    6    6    0  503 -0.25777485903E+03  0.24165654400E+02  0.29252945103E+03  0.39064733011E+03  0.00000000000E+00 0.  1.
<mgrwt>
<rscale>  0 0.17250077E+04</rscale>
<asrwt>0</asrwt>
<pdfrwt beam="1">  1        1 0.12048320E+00 0.17250077E+04</pdfrwt>
<pdfrwt beam="2">  1       -2 0.14613992E+00 0.17250077E+04</pdfrwt>
<totfact> 0.61059618E+00</totfact>
</mgrwt>
</event>
<event>
12    4  0.4486176E-008  0.1650975E+04  0.7818608E-02  0.8789830E-01
          1   -1    0    0  501    0  0.00000000000E+00  0.00000000000E+00  0.23218197751E+04  0.23218197751E+04  0.00000000000E+00 0. -1.
         -2   -1    0    0    0  501 -0.00000000000E+00 -0.00000000000E+00 -0.29348930229E+03  0.29348930229E+03  0.00000000000E+00 0.  1.
        -24    2    1    2    0    0 -0.24651448684E+03  0.15200120421E+03 -0.76674937303E+02  0.30987390851E+03  0.79177237003E+02 0.  0.
        254    2    1    2    0    0  0.24651448684E+03 -0.15200120421E+03  0.21050054101E+04  0.23054351688E+04  0.89448855946E+03 0.  0.
         23    2    4    4    0    0  0.52315607908E+03 -0.96163030075E+02  0.17998865465E+04  0.18792144716E+04  0.94423718944E+02 0.  0.
         23    2    4    4    0    0 -0.27664159224E+03 -0.55838174139E+02  0.30511886355E+03  0.42622069719E+03  0.94435637193E+02 0.  0.
          3    1    3    3  502    0 -0.11601152654E+03  0.11597025396E+03 -0.30619674846E+02  0.16686922599E+03  0.00000000000E+00 0. -1.
         -4    1    3    3    0  502 -0.13050296030E+03  0.36030950254E+02 -0.46055262457E+02  0.14300468252E+03  0.00000000000E+00 0.  1.
         11    1    5    5    0    0  0.41837785680E+03 -0.89975441368E+02  0.13070043913E+04  0.13752803678E+04  0.00000000000E+00 0.  1.
        -11    1    5    5    0    0  0.10477822228E+03 -0.61875887069E+01  0.49288215522E+03  0.50393410388E+03  0.00000000000E+00 0. -1.
          3    1    6    6  503    0 -0.87400160750E+02  0.22344178889E+02  0.68245332548E+02  0.11311708909E+03  0.00000000000E+00 0. -1.
         -3    1    6    6    0  503 -0.18924143149E+03 -0.78182353028E+02  0.23687353101E+03  0.31310360810E+03  0.00000000000E+00 0.  1.
<mgrwt>
<rscale>  0 0.16509746E+04</rscale>
<asrwt>0</asrwt>
<pdfrwt beam="1">  1        1 0.35720303E+00 0.16509746E+04</pdfrwt>
<pdfrwt beam="2">  1       -2 0.45152202E-01 0.16509746E+04</pdfrwt>
<totfact> 0.70256875E+00</totfact>
</mgrwt>
</event>
<event>
12    4  0.4486176E-008  0.1891590E+04  0.7818608E-02  0.8659054E-01
         -2   -1    0    0    0  501 -0.00000000000E+00  0.00000000000E+00  0.14451572574E+04  0.14451572574E+04  0.00000000000E+00 0.  1.
          1   -1    0    0  501    0  0.00000000000E+00 -0.00000000000E+00 -0.61898353681E+03  0.61898353681E+03  0.00000000000E+00 0. -1.
        -24    2    1    2    0    0 -0.43258787033E+03 -0.56520435969E+03  0.48421959279E+03  0.86451281330E+03  0.79533367512E+02 0.  0.
        254    2    1    2    0    0  0.43258787033E+03  0.56520435969E+03  0.34195412777E+03  0.11996279809E+04  0.90309824119E+03 0.  0.
         23    2    4    4    0    0  0.63043064717E+03  0.12645494810E+03  0.11661409752E+03  0.66024026375E+03  0.94258704294E+02 0.  0.
         23    2    4    4    0    0 -0.19784277685E+03  0.43874941159E+03  0.22534003025E+03  0.53938771713E+03  0.92293930695E+02 0.  0.
          3    1    3    3  502    0 -0.42221380328E+03 -0.52367357644E+03  0.44578892982E+03  0.80698592323E+03  0.00000000000E+00 0. -1.
         -4    1    3    3    0  502 -0.10374067046E+02 -0.41530783247E+02  0.38430662976E+02  0.57526890068E+02  0.00000000000E+00 0.  1.
         11    1    5    5    0    0  0.48220244091E+03  0.91805758372E+02  0.12894437622E+03  0.50751762871E+03  0.00000000000E+00 0.  1.
        -11    1    5    5    0    0  0.14822820626E+03  0.34649189725E+02 -0.12330278692E+02  0.15272263504E+03  0.00000000000E+00 0. -1.
          1    1    6    6  503    0 -0.51430512301E+02  0.17695982957E+03  0.12669605324E+03  0.22363311200E+03  0.00000000000E+00 0. -1.
         -1    1    6    6    0  503 -0.14641226455E+03  0.26178958202E+03  0.98643977010E+02  0.31575460513E+03  0.00000000000E+00 0.  1.
<mgrwt>
<rscale>  0 0.18915904E+04</rscale>
<asrwt>0</asrwt>
<pdfrwt beam="1">  1        1 0.95228237E-01 0.18915904E+04</pdfrwt>
<pdfrwt beam="2">  1       -2 0.22233188E+00 0.18915904E+04</pdfrwt>
<totfact> 0.25619724E+00</totfact>
</mgrwt>
</event>
<event>
12    4  0.4486176E-008  0.1136653E+04  0.7818608E-02  0.9170186E-01
          1   -1    0    0  501    0  0.00000000000E+00  0.00000000000E+00  0.15838698994E+04  0.15838698994E+04  0.00000000000E+00 0. -1.
         -2   -1    0    0    0  501 -0.00000000000E+00 -0.00000000000E+00 -0.20392762424E+03  0.20392762424E+03  0.00000000000E+00 0.  1.
        -24    2    1    2    0    0 -0.11334726911E+03 -0.66752965958E+02  0.17141904788E+02  0.15484023407E+03  0.79862953278E+02 0.  0.
        254    2    1    2    0    0  0.11334726911E+03  0.66752965958E+02  0.13628003704E+04  0.16329572896E+04  0.88995567205E+03 0.  0.
         23    2    4    4    0    0 -0.26389387454E+02 -0.19853492064E+03 -0.13766397671E+02  0.22120528593E+03  0.92896449522E+02 0.  0.
         23    2    4    4    0    0  0.13973665657E+03  0.26528788660E+03  0.13765667681E+04  0.14117520037E+04  0.90574041244E+02 0.  0.
          3    1    3    3  502    0 -0.41473320923E+02 -0.67364097660E+02  0.23920612552E+02  0.82644743975E+02  0.00000000000E+00 0. -1.
         -4    1    3    3    0  502 -0.71873948192E+02  0.61113170199E+00 -0.67787077644E+01  0.72195490092E+02  0.00000000000E+00 0.  1.
         11    1    5    5    0    0  0.21898587845E+02 -0.63302168215E+02  0.26557384540E+02  0.72055584960E+02  0.00000000000E+00 0.  1.
        -11    1    5    5    0    0 -0.48287975299E+02 -0.13523275243E+03 -0.40323782211E+02  0.14914970097E+03  0.00000000000E+00 0. -1.
          3    1    6    6  503    0  0.11548881535E+03  0.12533346018E+03  0.70181320539E+03  0.72221043884E+03  0.00000000000E+00 0. -1.
         -3    1    6    6    0  503  0.24247841223E+02  0.13995442642E+03  0.67475356267E+03  0.68954156482E+03  0.00000000000E+00 0.  1.
<mgrwt>
<rscale>  0 0.11366527E+04</rscale>
<asrwt>0</asrwt>
<pdfrwt beam="1">  1        1 0.24367228E+00 0.11366527E+04</pdfrwt>
<pdfrwt beam="2">  1       -2 0.31373482E-01 0.11366527E+04</pdfrwt>
<totfact> 0.47092343E+01</totfact>
</mgrwt>
</event>
<event>
12    4  0.4486176E-008  0.1504369E+04  0.7818608E-02  0.8881553E-01
          1   -1    0    0  501    0  0.00000000000E+00  0.00000000000E+00  0.35478479936E+03  0.35478479936E+03  0.00000000000E+00 0. -1.
         -2   -1    0    0    0  501 -0.00000000000E+00 -0.00000000000E+00 -0.15947176381E+04  0.15947176381E+04  0.00000000000E+00 0.  1.
        -24    2    1    2    0    0 -0.31957249803E+03  0.34709538565E+03 -0.30799551407E+03  0.57018445195E+03  0.87448752523E+02 0.  0.
        254    2    1    2    0    0  0.31957249803E+03 -0.34709538565E+03 -0.93193732466E+03  0.13793179855E+04  0.90078251527E+03 0.  0.
         23    2    4    4    0    0  0.59888723135E+03 -0.65729298529E+02 -0.56188423197E+03  0.82941666850E+03  0.96082585767E+02 0.  0.
         23    2    4    4    0    0 -0.27931473331E+03 -0.28136608712E+03 -0.37005309268E+03  0.54990131701E+03  0.90931687610E+02 0.  0.
          1    1    3    3  502    0 -0.29552060335E+03  0.32154646629E+03 -0.25231058748E+03  0.50436612648E+03  0.00000000000E+00 0. -1.
         -2    1    3    3    0  502 -0.24051894682E+02  0.25548919364E+02 -0.55684926582E+02  0.65818325464E+02  0.00000000000E+00 0.  1.
         11    1    5    5    0    0  0.39532018533E+02 -0.29880330326E+02 -0.48261709834E+02  0.69172301290E+02  0.00000000000E+00 0.  1.
        -11    1    5    5    0    0  0.55935521281E+03 -0.35848968203E+02 -0.51362252214E+03  0.76024436721E+03  0.00000000000E+00 0. -1.
          3    1    6    6  503    0 -0.20485595237E+03 -0.15304746973E+03 -0.20310307282E+03  0.32655833690E+03  0.00000000000E+00 0. -1.
         -3    1    6    6    0  503 -0.74458780945E+02 -0.12831861739E+03 -0.16695001986E+03  0.22334298010E+03  0.00000000000E+00 0.  1.
<mgrwt>
<rscale>  0 0.15043691E+04</rscale>
<asrwt>0</asrwt>
<pdfrwt beam="1">  1        1 0.54582277E-01 0.15043691E+04</pdfrwt>
<pdfrwt beam="2">  1       -2 0.24534117E+00 0.15043691E+04</pdfrwt>
<totfact> 0.40823109E+00</totfact>
</mgrwt>
</event>
<event>
12    4  0.4486176E-008  0.1304098E+04  0.7818608E-02  0.9026321E-01
          1   -1    0    0  501    0  0.00000000000E+00  0.00000000000E+00  0.21518307784E+03  0.21518307784E+03  0.00000000000E+00 0. -1.
         -2   -1    0    0    0  501 -0.00000000000E+00 -0.00000000000E+00 -0.19758438500E+04  0.19758438500E+04  0.00000000000E+00 0.  1.
        -24    2    1    2    0    0  0.81313475500E+02  0.27530671313E+03 -0.75473045756E+03  0.81205888005E+03  0.86115582338E+02 0.  0.
        254    2    1    2    0    0 -0.81313475500E+02 -0.27530671313E+03 -0.10059303146E+04  0.13789680478E+04  0.89847170872E+03 0.  0.
         23    2    4    4    0    0 -0.44344394505E+03 -0.14700403474E+03 -0.80686174295E+03  0.93682587183E+03  0.91455580869E+02 0.  0.
         23    2    4    4    0    0  0.36213046955E+03 -0.12830267839E+03 -0.19906857165E+03  0.44214217594E+03  0.90891986829E+02 0.  0.
          3    1    3    3  502    0  0.42777758058E+02  0.34565633439E+02 -0.11593576649E+03  0.12831921739E+03  0.00000000000E+00 0. -1.
         -4    1    3    3    0  502  0.38535717442E+02  0.24074107969E+03 -0.63879469107E+03  0.68373966267E+03  0.00000000000E+00 0.  1.
         11    1    5    5    0    0 -0.27182190531E+03 -0.13412090834E+03 -0.54081164398E+03  0.61996193474E+03  0.00000000000E+00 0. -1.
        -11    1    5    5    0    0 -0.17162203974E+03 -0.12883126399E+02 -0.26605009897E+03  0.31686393709E+03  0.00000000000E+00 0.  1.
          1    1    6    6  503    0  0.53932497356E+02  0.17796592328E+01 -0.22427783317E+01  0.54008439273E+02  0.00000000000E+00 0. -1.
         -1    1    6    6    0  503  0.30819797220E+03 -0.13008233762E+03 -0.19682579332E+03  0.38813373667E+03  0.00000000000E+00 0.  1.
<mgrwt>
<rscale>  0 0.13040984E+04</rscale>
<asrwt>0</asrwt>
<pdfrwt beam="1">  1        1 0.33105091E-01 0.13040984E+04</pdfrwt>
<pdfrwt beam="2">  1       -2 0.30397596E+00 0.13040984E+04</pdfrwt>
<totfact> 0.35035651E+00</totfact>
</mgrwt>
</event>
<event>
12    4  0.5195714E-008  0.3372058E+04  0.7818608E-02  0.8144798E-01
         -2   -1    0    0    0  501 -0.00000000000E+00  0.00000000000E+00  0.12897038565E+04  0.12897038565E+04  0.00000000000E+00 0.  1.
          1   -1    0    0  501    0  0.00000000000E+00 -0.00000000000E+00 -0.22041451078E+04  0.22041451078E+04  0.00000000000E+00 0. -1.
        -24    2    1    2    0    0  0.83449714328E+03  0.25084325734E+03  0.92097288815E+03  0.12703284595E+04  0.78965261522E+02 0.  0.
        254    2    1    2    0    0 -0.83449714328E+03 -0.25084325734E+03 -0.18354141394E+04  0.22235205047E+04  0.90332195242E+03 0.  0.
         23    2    4    4    0    0 -0.91000761804E+02  0.20856587343E+03 -0.77955620789E+02  0.25886129804E+03  0.95662064598E+02 0.  0.
         23    2    4    4    0    0 -0.74349638148E+03 -0.45940913077E+03 -0.17574585186E+04  0.19646592067E+04  0.85917023268E+02 0.  0.
          1    1    3    3  502    0  0.11116977283E+02  0.85886325605E+01  0.30420726767E+02  0.33507796260E+02  0.00000000000E+00 0. -1.
         -2    1    3    3    0  502  0.82338016600E+03  0.24225462478E+03  0.89055216138E+03  0.12368206633E+04  0.00000000000E+00 0.  1.
         11    1    5    5    0    0 -0.47313051765E+02  0.18876894069E+02 -0.26974570546E+02  0.57641039661E+02  0.00000000000E+00 0. -1.
        -11    1    5    5    0    0 -0.43687710039E+02  0.18968897936E+03 -0.50981050243E+02  0.20122025838E+03  0.00000000000E+00 0.  1.
          4    1    6    6  503    0 -0.16040804258E+02  0.18392399575E+01 -0.44217391676E+02  0.47073006400E+02  0.00000000000E+00 0. -1.
         -4    1    6    6    0  503 -0.72745557722E+03 -0.46124837073E+03 -0.17132411269E+04  0.19175862003E+04  0.00000000000E+00 0.  1.
<mgrwt>
<rscale>  0 0.33720584E+04</rscale>
<asrwt>0</asrwt>
<pdfrwt beam="1">  1        1 0.33909924E+00 0.33720584E+04</pdfrwt>
<pdfrwt beam="2">  1       -2 0.19841598E+00 0.33720584E+04</pdfrwt>
<totfact> 0.21385802E-01</totfact>
</mgrwt>
</event>
<event>
12    4  0.4486176E-008  0.1369616E+04  0.7818608E-02  0.8976110E-01
          1   -1    0    0  501    0  0.00000000000E+00  0.00000000000E+00  0.13935650348E+04  0.13935650348E+04  0.00000000000E+00 0. -1.
         -2   -1    0    0    0  501 -0.00000000000E+00 -0.00000000000E+00 -0.33651985102E+03  0.33651985102E+03  0.00000000000E+00 0.  1.
        -24    2    1    2    0    0  0.67054080082E+02 -0.36872901240E+03  0.40852166613E+03  0.56062345089E+03  0.83374862864E+02 0.  0.
        254    2    1    2    0    0 -0.67054080082E+02  0.36872901240E+03  0.64852351768E+03  0.11694614350E+04  0.89810910286E+03 0.  0.
         23    2    4    4    0    0 -0.97018400322E+02 -0.23057110297E+03 -0.21920072684E+02  0.26526833541E+03  0.85505535829E+02 0.  0.
         23    2    4    4    0    0  0.29964320240E+02  0.59930011537E+03  0.67044359036E+03  0.90419309955E+03  0.89510137099E+02 0.  0.
          3    1    3    3  502    0  0.21072480032E+02 -0.13835288031E+02  0.18269895443E+02  0.31132839400E+02  0.00000000000E+00 0. -1.
         -4    1    3    3    0  502  0.45981600050E+02 -0.35489372437E+03  0.39025177068E+03  0.52949061149E+03  0.00000000000E+00 0.  1.
         11    1    5    5    0    0 -0.15146713441E+02  0.16921162394E+01  0.79554279621E+01  0.17192295352E+02  0.00000000000E+00 0.  1.
        -11    1    5    5    0    0 -0.81871686881E+02 -0.23226321921E+03 -0.29875500646E+02  0.24807604006E+03  0.00000000000E+00 0. -1.
          2    1    6    6  503    0  0.26531346319E+01  0.38061140163E+03  0.36340110931E+03  0.52624371200E+03  0.00000000000E+00 0. -1.
         -2    1    6    6    0  503  0.27311185608E+02  0.21868871374E+03  0.30704248105E+03  0.37794938755E+03  0.00000000000E+00 0.  1.
<mgrwt>
<rscale>  0 0.13696164E+04</rscale>
<asrwt>0</asrwt>
<pdfrwt beam="1">  1        1 0.21439462E+00 0.13696164E+04</pdfrwt>
<pdfrwt beam="2">  1       -2 0.51772285E-01 0.13696164E+04</pdfrwt>
<totfact> 0.23453284E+01</totfact>
</mgrwt>
</event>
<event>
12    4  0.4486176E-008  0.1619405E+04  0.7818608E-02  0.8808715E-01
         -2   -1    0    0    0  501 -0.00000000000E+00  0.00000000000E+00  0.44752159385E+03  0.44752159385E+03  0.00000000000E+00 0.  1.
          1   -1    0    0  501    0  0.00000000000E+00 -0.00000000000E+00 -0.14649976923E+04  0.14649976923E+04  0.00000000000E+00 0. -1.
        -24    2    1    2    0    0 -0.35670677249E+03  0.31350263867E+03 -0.10196001450E+02  0.48196458237E+03  0.81622755538E+02 0.  0.
        254    2    1    2    0    0  0.35670677249E+03 -0.31350263867E+03 -0.10072800970E+04  0.14305547038E+04  0.89796989968E+03 0.  0.
         23    2    4    4    0    0 -0.18036682406E+02  0.22224879519E+02 -0.90407400550E+03  0.90893133518E+03  0.89370562611E+02 0.  0.
         23    2    4    4    0    0  0.37474345490E+03 -0.33572751819E+03 -0.10320609154E+03  0.52162336864E+03  0.91070400929E+02 0.  0.
          1    1    3    3  502    0 -0.89225735405E+02  0.11345649069E+03 -0.29778115877E+02  0.14737823219E+03  0.00000000000E+00 0. -1.
         -2    1    3    3    0  502 -0.26748103709E+03  0.20004614797E+03  0.19582114426E+02  0.33458635018E+03  0.00000000000E+00 0.  1.
         11    1    5    5    0    0 -0.52867169574E+01  0.10140924589E+02 -0.87420372087E+03  0.87427852158E+03  0.00000000000E+00 0.  1.
        -11    1    5    5    0    0 -0.12749965448E+02  0.12083954930E+02 -0.29870284635E+02  0.34652813593E+02  0.00000000000E+00 0. -1.
          2    1    6    6  503    0  0.15278622479E+03 -0.17243068014E+03 -0.95263309363E+01  0.23057909906E+03  0.00000000000E+00 0.  1.
         -2    1    6    6    0  503  0.22195723011E+03 -0.16329683804E+03 -0.93679760604E+02  0.29104426959E+03  0.00000000000E+00 0. -1.
<mgrwt>
<rscale>  0 0.16194050E+04</rscale>
<asrwt>0</asrwt>
<pdfrwt beam="1">  1        1 0.22538426E+00 0.16194050E+04</pdfrwt>
<pdfrwt beam="2">  1       -2 0.68849477E-01 0.16194050E+04</pdfrwt>
<totfact> 0.11209374E+01</totfact>
</mgrwt>
</event>
<event>
12    4  0.4486176E-008  0.1702214E+04  0.7818608E-02  0.8760103E-01
         -2   -1    0    0    0  501 -0.00000000000E+00  0.00000000000E+00  0.27653098414E+03  0.27653098414E+03  0.00000000000E+00 0.  1.
          1   -1    0    0  501    0  0.00000000000E+00 -0.00000000000E+00 -0.26195368985E+04  0.26195368985E+04  0.00000000000E+00 0. -1.
        -24    2    1    2    0    0 -0.25295386580E+03 -0.47953794031E+03 -0.11574166885E+04  0.12806049492E+04  0.79958430128E+02 0.  0.
        254    2    1    2    0    0  0.25295386580E+03  0.47953794031E+03 -0.11855892258E+04  0.16154629335E+04  0.95402116464E+03 0.  0.
         23    2    4    4    0    0 -0.22489445373E+03  0.67377662736E+02 -0.86701974421E+03  0.90278432091E+03  0.90437981431E+02 0.  0.
         23    2    4    4    0    0  0.47784831954E+03  0.41216027757E+03 -0.31856948162E+03  0.71267861255E+03  0.90604521289E+02 0.  0.
          1    1    3    3  502    0 -0.10143461054E+03 -0.20534012342E+03 -0.39946353985E+03  0.46046136230E+03  0.00000000000E+00 0. -1.
         -2    1    3    3    0  502 -0.15151925527E+03 -0.27419781689E+03 -0.75795314869E+03  0.82014358689E+03  0.00000000000E+00 0.  1.
         11    1    5    5    0    0 -0.11505964737E+02  0.25290273884E+02 -0.48854376324E+02  0.56202626839E+02  0.00000000000E+00 0. -1.
        -11    1    5    5    0    0 -0.21338848900E+03  0.42087388852E+02 -0.81816536788E+03  0.84658169408E+03  0.00000000000E+00 0.  1.
          2    1    6    6  503    0  0.33642751118E+03  0.33485475347E+03 -0.25987762220E+03  0.54115391038E+03  0.00000000000E+00 0. -1.
         -2    1    6    6    0  503  0.14142080836E+03  0.77305524101E+02 -0.58691859428E+02  0.17152470218E+03  0.00000000000E+00 0.  1.
<mgrwt>
<rscale>  0 0.17022140E+04</rscale>
<asrwt>0</asrwt>
<pdfrwt beam="1">  1        1 0.40300568E+00 0.17022140E+04</pdfrwt>
<pdfrwt beam="2">  1       -2 0.42543228E-01 0.17022140E+04</pdfrwt>
<totfact> 0.49026669E+00</totfact>
</mgrwt>
</event>
<event>
12    4  0.4486176E-008  0.1717031E+04  0.7818608E-02  0.8751710E-01
         -2   -1    0    0    0  501 -0.00000000000E+00  0.00000000000E+00  0.35634541829E+03  0.35634541829E+03  0.00000000000E+00 0.  1.
          1   -1    0    0  501    0  0.00000000000E+00 -0.00000000000E+00 -0.20683549887E+04  0.20683549887E+04  0.00000000000E+00 0. -1.
        -24    2    1    2    0    0  0.28368703399E+03  0.27804944749E+03 -0.13034720816E+04  0.13655679717E+04  0.89143643728E+02 0.  0.
        254    2    1    2    0    0 -0.28368703399E+03 -0.27804944749E+03 -0.40853748879E+03  0.10591324353E+04  0.89278710075E+03 0.  0.
         23    2    4    4    0    0 -0.15656512210E+02 -0.50407882695E+03 -0.46688430614E+03  0.69322937252E+03  0.90804281082E+02 0.  0.
         23    2    4    4    0    0 -0.26803052178E+03  0.22602937945E+03  0.58346817347E+02  0.36590306279E+03  0.86896831241E+02 0.  0.
          3    1    3    3  502    0  0.25932808331E+03  0.28115110221E+03 -0.12304191987E+04  0.12884985066E+04  0.00000000000E+00 0. -1.
         -4    1    3    3    0  502  0.24358950683E+02 -0.31016547111E+01 -0.73052882927E+02  0.77069465058E+02  0.00000000000E+00 0.  1.
         11    1    5    5    0    0 -0.13637464329E+02 -0.12445337437E+02 -0.61872575994E+01  0.19471749122E+02  0.00000000000E+00 0.  1.
        -11    1    5    5    0    0 -0.20190478808E+01 -0.49163348951E+03 -0.46069704854E+03  0.67375762340E+03  0.00000000000E+00 0. -1.
          4    1    6    6  503    0 -0.12961338372E+03  0.11734129028E+03 -0.14485771075E+02  0.17543786709E+03  0.00000000000E+00 0.  1.
         -4    1    6    6    0  503 -0.13841713806E+03  0.10868808917E+03  0.72832588421E+02  0.19046519570E+03  0.00000000000E+00 0. -1.
<mgrwt>
<rscale>  0 0.17170310E+04</rscale>
<asrwt>0</asrwt>
<pdfrwt beam="1">  1        1 0.31820846E+00 0.17170310E+04</pdfrwt>
<pdfrwt beam="2">  1       -2 0.54822372E-01 0.17170310E+04</pdfrwt>
<totfact> 0.69957916E+00</totfact>
</mgrwt>
</event>
<event>
12    4  0.4486176E-008  0.1830770E+04  0.7818608E-02  0.8690106E-01
          1   -1    0    0  501    0  0.00000000000E+00  0.00000000000E+00  0.12482051458E+04  0.12482051458E+04  0.00000000000E+00 0. -1.
         -2   -1    0    0    0  501 -0.00000000000E+00 -0.00000000000E+00 -0.67130747422E+03  0.67130747422E+03  0.00000000000E+00 0.  1.
        -24    2    1    2    0    0 -0.16823079522E+03  0.58759229461E+03 -0.11190701621E+03  0.62622458402E+03  0.77895726472E+02 0.  0.
        254    2    1    2    0    0  0.16823079522E+03 -0.58759229461E+03  0.68880468779E+03  0.12932880360E+04  0.90806152932E+03 0.  0.
         23    2    4    4    0    0 -0.97916914566E+02 -0.48811294988E+03  0.82370016703E+03  0.96672309924E+03  0.90717205852E+02 0.  0.
         23    2    4    4    0    0  0.26614770979E+03 -0.99479344732E+02 -0.13489547923E+03  0.32656493678E+03  0.87847163658E+02 0.  0.
          1    1    3    3  502    0 -0.63329066068E+02  0.18404066787E+03 -0.49109656136E+00  0.19463242077E+03  0.00000000000E+00 0. -1.
         -2    1    3    3    0  502 -0.10490172915E+03  0.40355162674E+03 -0.11141591964E+03  0.43159216325E+03  0.00000000000E+00 0.  1.
         11    1    5    5    0    0 -0.37491544871E+01  0.14501077035E+01  0.24141374371E+02  0.24473759994E+02  0.00000000000E+00 0. -1.
        -11    1    5    5    0    0 -0.94167760079E+02 -0.48956305758E+03  0.79955879266E+03  0.94224933924E+03  0.00000000000E+00 0.  1.
          3    1    6    6  503    0  0.15283102115E+03 -0.23968474360E+02 -0.37590723815E+02  0.15920072646E+03  0.00000000000E+00 0. -1.
         -3    1    6    6    0  503  0.11331668863E+03 -0.75510870371E+02 -0.97304755419E+02  0.16736421031E+03  0.00000000000E+00 0.  1.
<mgrwt>
<rscale>  0 0.18307697E+04</rscale>
<asrwt>0</asrwt>
<pdfrwt beam="1">  1        1 0.19203156E+00 0.18307697E+04</pdfrwt>
<pdfrwt beam="2">  1       -2 0.10327807E+00 0.18307697E+04</pdfrwt>
<totfact> 0.62237522E+00</totfact>
</mgrwt>
</event>
<event>
12    4  0.4486176E-008  0.2273482E+04  0.7818608E-02  0.8488451E-01
          1   -1    0    0  501    0  0.00000000000E+00  0.00000000000E+00  0.15526508767E+04  0.15526508767E+04  0.00000000000E+00 0. -1.
         -2   -1    0    0    0  501 -0.00000000000E+00 -0.00000000000E+00 -0.83224145395E+03  0.83224145395E+03  0.00000000000E+00 0.  1.
        -24    2    1    2    0    0 -0.77691484367E+03 -0.12598332973E+02  0.93870658722E+03  0.12212424938E+04  0.80670808553E+02 0.  0.
        254    2    1    2    0    0  0.77691484367E+03  0.12598332973E+02 -0.21829716443E+03  0.11636498369E+04  0.83825527060E+03 0.  0.
         23    2    4    4    0    0  0.39689560506E+03  0.16899001879E+03 -0.49203245598E+03  0.66068061703E+03  0.91209605956E+02 0.  0.
         23    2    4    4    0    0  0.38001923861E+03 -0.15639168582E+03  0.27373529155E+03  0.50296921990E+03  0.95781236278E+02 0.  0.
          3    1    3    3  502    0 -0.42711214893E+03 -0.23645454374E+02  0.57292434152E+03  0.71500083663E+03  0.00000000000E+00 0. -1.
         -4    1    3    3    0  502 -0.34980269474E+03  0.11047121401E+02  0.36578224570E+03  0.50624165712E+03  0.00000000000E+00 0.  1.
         11    1    5    5    0    0  0.33131274461E+03  0.10493056018E+03 -0.41184157179E+03  0.53888035541E+03  0.00000000000E+00 0. -1.
        -11    1    5    5    0    0  0.65582860454E+02  0.64059458614E+02 -0.80190884191E+02  0.12180026162E+03  0.00000000000E+00 0.  1.
          3    1    6    6  503    0  0.42916884666E+02 -0.20528416969E+02 -0.64420909260E+00  0.47578250263E+02  0.00000000000E+00 0.  1.
         -3    1    6    6    0  503  0.33710235394E+03 -0.13586326885E+03  0.27437950064E+03  0.45539096964E+03  0.00000000000E+00 0. -1.
<mgrwt>
<rscale>  0 0.22734823E+04</rscale>
<asrwt>0</asrwt>
<pdfrwt beam="1">  1        1 0.23886937E+00 0.22734823E+04</pdfrwt>
<pdfrwt beam="2">  1       -2 0.12803715E+00 0.22734823E+04</pdfrwt>
<totfact> 0.21596707E+00</totfact>
</mgrwt>
</event>
<event>
12    4  0.4486176E-008  0.1999128E+04  0.7818608E-02  0.8607028E-01
          1   -1    0    0  501    0  0.00000000000E+00  0.00000000000E+00  0.29240037327E+04  0.29240037327E+04  0.00000000000E+00 0. -1.
         -2   -1    0    0    0  501 -0.00000000000E+00 -0.00000000000E+00 -0.34169871138E+03  0.34169871138E+03  0.00000000000E+00 0.  1.
        -24    2    1    2    0    0  0.59012323493E+03  0.10100898839E+03  0.18501847323E+04  0.19464579542E+04  0.84064118567E+02 0.  0.
        254    2    1    2    0    0 -0.59012323493E+03 -0.10100898839E+03  0.73212028909E+03  0.13192444899E+04  0.91975956542E+03 0.  0.
         23    2    4    4    0    0  0.22491789191E+03  0.79926735476E+02  0.13456245650E+03  0.28858533575E+03  0.90543360678E+02 0.  0.
         23    2    4    4    0    0 -0.81504112685E+03 -0.18093572386E+03  0.59755783260E+03  0.10306591541E+04  0.90294817372E+02 0.  0.
          3    1    3    3  502    0  0.27244907975E+03  0.89167206079E+02  0.87063162194E+03  0.91661262964E+03  0.00000000000E+00 0. -1.
         -4    1    3    3    0  502  0.31767415518E+03  0.11841782310E+02  0.97955311032E+03  0.10298453246E+04  0.00000000000E+00 0.  1.
         11    1    5    5    0    0  0.20603276222E+03  0.81281339112E+02  0.14709312698E+03  0.26588069355E+03  0.00000000000E+00 0.  1.
        -11    1    5    5    0    0  0.18885129690E+02 -0.13546036358E+01 -0.12530670486E+02  0.22704642196E+02  0.00000000000E+00 0. -1.
          2    1    6    6  503    0 -0.48006226619E+01  0.42375906989E+01  0.13167653695E+02  0.14642071463E+02  0.00000000000E+00 0. -1.
         -2    1    6    6    0  503 -0.81024050418E+03 -0.18517331456E+03  0.58439017890E+03  0.10160170827E+04  0.00000000000E+00 0.  1.
<mgrwt>
<rscale>  0 0.19991281E+04</rscale>
<asrwt>0</asrwt>
<pdfrwt beam="1">  1        1 0.44984671E+00 0.19991281E+04</pdfrwt>
<pdfrwt beam="2">  1       -2 0.52569035E-01 0.19991281E+04</pdfrwt>
<totfact> 0.18921462E+00</totfact>
</mgrwt>
</event>
<event>
12    4  0.4486176E-008  0.1531238E+04  0.7818608E-02  0.8863942E-01
         -2   -1    0    0    0  501 -0.00000000000E+00  0.00000000000E+00  0.75074491442E+03  0.75074491442E+03  0.00000000000E+00 0.  1.
          1   -1    0    0  501    0  0.00000000000E+00 -0.00000000000E+00 -0.78078758219E+03  0.78078758219E+03  0.00000000000E+00 0. -1.
        -24    2    1    2    0    0  0.62217226819E+02 -0.27359055562E+03  0.39785369031E+03  0.49400022431E+03  0.83820566008E+02 0.  0.
        254    2    1    2    0    0 -0.62217226819E+02  0.27359055562E+03 -0.42789635808E+03  0.10375322723E+04  0.90258248785E+03 0.  0.
         23    2    4    4    0    0 -0.45435751931E+03  0.25654443497E+03 -0.32757996263E+03  0.62242093473E+03  0.88562890711E+02 0.  0.
         23    2    4    4    0    0  0.39214029249E+03  0.17046120650E+02 -0.10031639545E+03  0.41511133757E+03  0.90495658222E+02 0.  0.
          3    1    3    3  502    0  0.29760648174E+02 -0.13222752317E+03  0.26340272493E+03  0.29622763133E+03  0.00000000000E+00 0. -1.
         -4    1    3    3    0  502  0.32456578645E+02 -0.14136303245E+03  0.13445096537E+03  0.19777259297E+03  0.00000000000E+00 0.  1.
         11    1    5    5    0    0 -0.29793518264E+03  0.13730195163E+03 -0.24334454108E+03  0.40845289159E+03  0.00000000000E+00 0. -1.
        -11    1    5    5    0    0 -0.15642233667E+03  0.11924248334E+03 -0.84235421545E+02  0.21396804314E+03  0.00000000000E+00 0.  1.
          4    1    6    6  503    0  0.37374912840E+03 -0.66796884501E+00 -0.10690856670E+03  0.38873937129E+03  0.00000000000E+00 0.  1.
         -4    1    6    6    0  503  0.18391164096E+02  0.17714089495E+02  0.65921712513E+01  0.26371966276E+02  0.00000000000E+00 0. -1.
<mgrwt>
<rscale>  0 0.15312378E+04</rscale>
<asrwt>0</asrwt>
<pdfrwt beam="1">  1        1 0.12012117E+00 0.15312378E+04</pdfrwt>
<pdfrwt beam="2">  1       -2 0.11549922E+00 0.15312378E+04</pdfrwt>
<totfact> 0.11333851E+01</totfact>
</mgrwt>
</event>
<event>
12    4  0.4486176E-008  0.1549408E+04  0.7818608E-02  0.8852246E-01
          1   -1    0    0  501    0  0.00000000000E+00  0.00000000000E+00  0.30898746127E+04  0.30898746127E+04  0.00000000000E+00 0. -1.
         -2   -1    0    0    0  501 -0.00000000000E+00 -0.00000000000E+00 -0.19423657150E+03  0.19423657150E+03  0.00000000000E+00 0.  1.
        -24    2    1    2    0    0 -0.34762658049E+03 -0.49499049403E+02  0.18451395073E+03  0.40484730001E+03  0.81003351557E+02 0.  0.
        254    2    1    2    0    0  0.34762658049E+03  0.49499049403E+02  0.27111240905E+04  0.28792638842E+04  0.90369922292E+03 0.  0.
         23    2    4    4    0    0  0.12234024522E+03 -0.25319368920E+03  0.25190415589E+03  0.38959103250E+03  0.96183621281E+02 0.  0.
         23    2    4    4    0    0  0.22528633526E+03  0.30269273860E+03  0.24592199346E+04  0.24896728517E+04  0.91276475019E+02 0.  0.
          3    1    3    3  502    0 -0.25625497817E+03 -0.35991415850E+02  0.17412588875E+03  0.31190033823E+03  0.00000000000E+00 0. -1.
         -4    1    3    3    0  502 -0.91371602317E+02 -0.13507633553E+02  0.10388061975E+02  0.92946961789E+02  0.00000000000E+00 0.  1.
         11    1    5    5    0    0  0.61786423492E+02 -0.19259697604E+03  0.21821572732E+03  0.29753867137E+03  0.00000000000E+00 0.  1.
        -11    1    5    5    0    0  0.60553821729E+02 -0.60596713160E+02  0.33688428564E+02  0.92052361137E+02  0.00000000000E+00 0. -1.
          1    1    6    6  503    0  0.37928548538E+02  0.10937083822E+03  0.60027288452E+03  0.61133304421E+03  0.00000000000E+00 0. -1.
         -1    1    6    6    0  503  0.18735778673E+03  0.19332190039E+03  0.18589470501E+04  0.18783398075E+04  0.00000000000E+00 0.  1.
<mgrwt>
<rscale>  0 0.15494085E+04</rscale>
<asrwt>0</asrwt>
<pdfrwt beam="1">  1        1 0.47536529E+00 0.15494085E+04</pdfrwt>
<pdfrwt beam="2">  1       -2 0.29882552E-01 0.15494085E+04</pdfrwt>
<totfact> 0.45161741E+00</totfact>
</mgrwt>
</event>
<event>
12    4  0.4486176E-008  0.1830781E+04  0.7818608E-02  0.8690100E-01
          1   -1    0    0  501    0  0.00000000000E+00  0.00000000000E+00  0.21616608134E+04  0.21616608134E+04  0.00000000000E+00 0. -1.
         -2   -1    0    0    0  501 -0.00000000000E+00 -0.00000000000E+00 -0.38763710693E+03  0.38763710693E+03  0.00000000000E+00 0.  1.
        -24    2    1    2    0    0 -0.26516620654E+03 -0.62531542092E+03  0.47857755478E+03  0.83468739501E+03  0.79586925507E+02 0.  0.
        254    2    1    2    0    0  0.26516620654E+03  0.62531542092E+03  0.12954461517E+04  0.17146105254E+04  0.89463737284E+03 0.  0.
         23    2    4    4    0    0 -0.15788061731E+02 -0.21584822513E+03  0.26774114228E+03  0.35428386765E+03  0.83618301960E+02 0.  0.
         23    2    4    4    0    0  0.28095426827E+03  0.84116364606E+03  0.10277050095E+04  0.13603266577E+04  0.88427647874E+02 0.  0.
          3    1    3    3  502    0 -0.26326302417E+03 -0.58239054451E+03  0.46203438451E+03  0.78864563570E+03  0.00000000000E+00 0. -1.
         -4    1    3    3    0  502 -0.19031823673E+01 -0.42924876411E+02  0.16543170274E+02  0.46041759314E+02  0.00000000000E+00 0.  1.
         11    1    5    5    0    0 -0.14820991156E+02 -0.19801962314E+03  0.19110364960E+03  0.27559397275E+03  0.00000000000E+00 0. -1.
        -11    1    5    5    0    0 -0.96707057460E+00 -0.17828601988E+02  0.76637492679E+02  0.78689894895E+02  0.00000000000E+00 0.  1.
          4    1    6    6  503    0  0.19702184655E+03  0.45448266360E+03  0.58581694640E+03  0.76717246706E+03  0.00000000000E+00 0. -1.
         -4    1    6    6    0  503  0.83932421717E+02  0.38668098246E+03  0.44188806305E+03  0.59315419064E+03  0.00000000000E+00 0.  1.
<mgrwt>
<rscale>  0 0.18307812E+04</rscale>
<asrwt>0</asrwt>
<pdfrwt beam="1">  1        1 0.33256319E+00 0.18307812E+04</pdfrwt>
<pdfrwt beam="2">  1       -2 0.59636479E-01 0.18307812E+04</pdfrwt>
<totfact> 0.50180188E+00</totfact>
</mgrwt>
</event>
<event>
12    4  0.4486176E-008  0.1329311E+04  0.7818608E-02  0.9006639E-01
          1   -1    0    0  501    0  0.00000000000E+00  0.00000000000E+00  0.25643974246E+04  0.25643974246E+04  0.00000000000E+00 0. -1.
         -2   -1    0    0    0  501 -0.00000000000E+00 -0.00000000000E+00 -0.17226933559E+03  0.17226933559E+03  0.00000000000E+00 0.  1.
        -24    2    1    2    0    0 -0.81239047872E+02  0.46605002170E+02  0.13592428108E+04  0.13647512181E+04  0.78949726856E+02 0.  0.
        254    2    1    2    0    0  0.81239047872E+02 -0.46605002170E+02  0.10328852782E+04  0.13719155421E+04  0.89806928889E+03 0.  0.
         23    2    4    4    0    0  0.31677933645E+03 -0.92988844679E+02  0.42062701238E+02  0.34806491381E+03  0.10190112933E+03 0.  0.
         23    2    4    4    0    0 -0.23554028858E+03  0.46383842508E+02  0.99082257694E+03  0.10238506283E+04  0.94393017078E+02 0.  0.
          3    1    3    3  502    0 -0.85403148025E+02  0.18136663201E+02  0.11788250604E+04  0.11820537887E+04  0.00000000000E+00 0. -1.
         -4    1    3    3    0  502  0.41641001532E+01  0.28468338969E+02  0.18041775041E+03  0.18269742942E+03  0.00000000000E+00 0.  1.
         11    1    5    5    0    0  0.18136546023E+02  0.11036021333E+02 -0.15939875363E+02  0.26548214537E+02  0.00000000000E+00 0.  1.
        -11    1    5    5    0    0  0.29864279042E+03 -0.10402486601E+03  0.58002576601E+02  0.32151669928E+03  0.00000000000E+00 0. -1.
          4    1    6    6  503    0 -0.22865982511E+03  0.43981718646E+02  0.98939271742E+03  0.10164239551E+04  0.00000000000E+00 0. -1.
         -4    1    6    6    0  503 -0.68804634623E+01  0.24021238623E+01  0.14298595227E+01  0.74266731961E+01  0.00000000000E+00 0.  1.
<mgrwt>
<rscale>  0 0.13293112E+04</rscale>
<asrwt>0</asrwt>
<pdfrwt beam="1">  1        1 0.39452266E+00 0.13293112E+04</pdfrwt>
<pdfrwt beam="2">  1       -2 0.26502976E-01 0.13293112E+04</pdfrwt>
<totfact> 0.13630512E+01</totfact>
</mgrwt>
</event>
<event>
12    4  0.4486176E-008  0.1128747E+04  0.7818608E-02  0.9177617E-01
         -2   -1    0    0    0  501 -0.00000000000E+00  0.00000000000E+00  0.14580037339E+04  0.14580037339E+04  0.00000000000E+00 0.  1.
          1   -1    0    0  501    0  0.00000000000E+00 -0.00000000000E+00 -0.21846144728E+03  0.21846144728E+03  0.00000000000E+00 0. -1.
        -24    2    1    2    0    0  0.39426769377E+02 -0.71752846206E+02  0.48521622463E+03  0.49802638123E+03  0.76762951175E+02 0.  0.
        254    2    1    2    0    0 -0.39426769377E+02  0.71752846206E+02  0.75432606196E+03  0.11784387999E+04  0.90166915016E+03 0.  0.
         23    2    4    4    0    0 -0.18669049785E+03  0.16199905917E+03 -0.11511996236E+03  0.28731163450E+03  0.90544643268E+02 0.  0.
         23    2    4    4    0    0  0.14726372848E+03 -0.90246212969E+02  0.86944602432E+03  0.89112716543E+03  0.91324975170E+02 0.  0.
          1    1    3    3  502    0 -0.14017837700E+02 -0.53771682686E+02  0.22350068912E+03  0.23030512732E+03  0.00000000000E+00 0. -1.
         -2    1    3    3    0  502  0.53444607077E+02 -0.17981163520E+02  0.26171553552E+03  0.26772125392E+03  0.00000000000E+00 0.  1.
         11    1    5    5    0    0 -0.10500605209E+03  0.10062868034E+03 -0.11456232269E+03  0.18514029292E+03  0.00000000000E+00 0. -1.
        -11    1    5    5    0    0 -0.81684445765E+02  0.61370378833E+02 -0.55763966273E+00  0.10217134158E+03  0.00000000000E+00 0.  1.
          2    1    6    6  503    0  0.13746054853E+03 -0.99108190418E+02  0.66493980387E+03  0.68619441748E+03  0.00000000000E+00 0. -1.
         -2    1    6    6    0  503  0.98031799448E+01  0.88619774497E+01  0.20450622045E+03  0.20493274795E+03  0.00000000000E+00 0.  1.
<mgrwt>
<rscale>  0 0.11287473E+04</rscale>
<asrwt>0</asrwt>
<pdfrwt beam="1">  1        1 0.33609454E-01 0.11287473E+04</pdfrwt>
<pdfrwt beam="2">  1       -2 0.22430826E+00 0.11287473E+04</pdfrwt>
<totfact> 0.10684688E+01</totfact>
</mgrwt>
</event>
<event>
12    4  0.4486176E-008  0.2950248E+04  0.7818608E-02  0.8258082E-01
          1   -1    0    0  501    0  0.00000000000E+00  0.00000000000E+00  0.21274545099E+04  0.21274545099E+04  0.00000000000E+00 0. -1.
         -2   -1    0    0    0  501 -0.00000000000E+00 -0.00000000000E+00 -0.10228144564E+04  0.10228144564E+04  0.00000000000E+00 0.  1.
        -24    2    1    2    0    0 -0.96095902982E+03  0.92605640731E+03  0.45912192402E+03  0.14135291165E+04  0.79049955963E+02 0.  0.
        254    2    1    2    0    0  0.96095902982E+03 -0.92605640731E+03  0.64551812956E+03  0.17367398498E+04  0.90473693627E+03 0.  0.
         23    2    4    4    0    0  0.28798115892E+03 -0.51400269715E+03  0.72482602064E+03  0.93849320247E+03  0.90911002168E+02 0.  0.
         23    2    4    4    0    0  0.67297787090E+03 -0.41205371016E+03 -0.79307891084E+02  0.79824664735E+03  0.90666937933E+02 0.  0.
          3    1    3    3  502    0 -0.18705661359E+03  0.20050417835E+03  0.12474131834E+03  0.30125155390E+03  0.00000000000E+00 0. -1.
         -4    1    3    3    0  502 -0.77390241623E+03  0.72555222896E+03  0.33438060567E+03  0.11122775626E+04  0.00000000000E+00 0.  1.
         11    1    5    5    0    0 -0.42949022049E+01 -0.32369246265E+02  0.35558925420E+02  0.48276821206E+02  0.00000000000E+00 0.  1.
        -11    1    5    5    0    0  0.29227606112E+03 -0.48163345089E+03  0.68926709522E+03  0.89021638126E+03  0.00000000000E+00 0. -1.
          4    1    6    6  503    0  0.17885176132E+02 -0.95206641546E+01 -0.17694412484E+02  0.26900089300E+02  0.00000000000E+00 0.  1.
         -4    1    6    6    0  503  0.65509269477E+03 -0.40253304600E+03 -0.61613478601E+02  0.77134655805E+03  0.00000000000E+00 0. -1.
<mgrwt>
<rscale>  0 0.29502483E+04</rscale>
<asrwt>0</asrwt>
<pdfrwt beam="1">  1        1 0.32730069E+00 0.29502483E+04</pdfrwt>
<pdfrwt beam="2">  1       -2 0.15735607E+00 0.29502483E+04</pdfrwt>
<totfact> 0.48349444E-01</totfact>
</mgrwt>
</event>
<event>
12    4  0.4486176E-008  0.1307480E+04  0.7818608E-02  0.9023655E-01
         -2   -1    0    0    0  501 -0.00000000000E+00  0.00000000000E+00  0.32469089116E+03  0.32469089116E+03  0.00000000000E+00 0.  1.
          1   -1    0    0  501    0  0.00000000000E+00 -0.00000000000E+00 -0.13162541423E+04  0.13162541423E+04  0.00000000000E+00 0. -1.
        -24    2    1    2    0    0 -0.50691989682E+02  0.33181939121E+03 -0.23223838806E+03  0.41551241127E+03  0.77731003012E+02 0.  0.
        254    2    1    2    0    0  0.50691989682E+02 -0.33181939121E+03 -0.75932486308E+03  0.12254326222E+04  0.90135291513E+03 0.  0.
         23    2    4    4    0    0  0.45485859335E+03 -0.68074288429E+02 -0.33114732835E+03  0.57374280308E+03  0.89396880932E+02 0.  0.
         23    2    4    4    0    0 -0.40416660366E+03 -0.26374510278E+03 -0.42817753472E+03  0.65168981911E+03  0.91932020129E+02 0.  0.
          3    1    3    3  502    0 -0.18615067574E+02  0.21474058537E+03 -0.18892592414E+03  0.28662352408E+03  0.00000000000E+00 0. -1.
         -4    1    3    3    0  502 -0.32076922108E+02  0.11707880585E+03 -0.43312463918E+02  0.12888888719E+03  0.00000000000E+00 0.  1.
         11    1    5    5    0    0  0.23020514073E+03 -0.76308191561E+02 -0.15127402582E+03  0.28583417886E+03  0.00000000000E+00 0. -1.
        -11    1    5    5    0    0  0.22465345262E+03  0.82339031313E+01 -0.17987330253E+03  0.28790862422E+03  0.00000000000E+00 0.  1.
          3    1    6    6  503    0 -0.63763059138E+02 -0.52780790982E+02 -0.12268557090E+03  0.14799759767E+03  0.00000000000E+00 0.  1.
         -3    1    6    6    0  503 -0.34040354453E+03 -0.21096431180E+03 -0.30549196382E+03  0.50369222144E+03  0.00000000000E+00 0. -1.
<mgrwt>
<rscale>  0 0.13074796E+04</rscale>
<asrwt>0</asrwt>
<pdfrwt beam="1">  1        1 0.20250064E+00 0.13074796E+04</pdfrwt>
<pdfrwt beam="2">  1       -2 0.49952445E-01 0.13074796E+04</pdfrwt>
<totfact> 0.28761533E+01</totfact>
</mgrwt>
</event>
<event>
12    4  0.4486176E-008  0.2141018E+04  0.7818608E-02  0.8543387E-01
         -2   -1    0    0    0  501 -0.00000000000E+00  0.00000000000E+00  0.14198703091E+04  0.14198703091E+04  0.00000000000E+00 0.  1.
          1   -1    0    0  501    0  0.00000000000E+00 -0.00000000000E+00 -0.80710876422E+03  0.80710876422E+03  0.00000000000E+00 0. -1.
        -24    2    1    2    0    0 -0.83820339487E+03 -0.20311798159E+03  0.48812599020E+03  0.99425392804E+03  0.80200034318E+02 0.  0.
        254    2    1    2    0    0  0.83820339487E+03  0.20311798159E+03  0.12463555464E+03  0.12327251452E+04  0.87191479894E+03 0.  0.
         23    2    4    4    0    0  0.54826441514E+03 -0.20410859907E+01 -0.33219478280E+03  0.64756214456E+03  0.91571406097E+02 0.  0.
         23    2    4    4    0    0  0.28993897973E+03  0.20515906759E+03  0.45683033744E+03  0.58516300068E+03  0.86988074905E+02 0.  0.
          3    1    3    3  502    0 -0.19375250817E+03 -0.70197257439E+02  0.14647689331E+03  0.25283031790E+03  0.00000000000E+00 0. -1.
         -4    1    3    3    0  502 -0.64445088669E+03 -0.13292072416E+03  0.34164909689E+03  0.74142361014E+03  0.00000000000E+00 0.  1.
         11    1    5    5    0    0  0.29120570786E+03  0.44592568652E+02 -0.17431509441E+03  0.34230836041E+03  0.00000000000E+00 0. -1.
        -11    1    5    5    0    0  0.25705870728E+03 -0.46633654643E+02 -0.15787968839E+03  0.30525378415E+03  0.00000000000E+00 0.  1.
          1    1    6    6  503    0  0.16578471593E+03  0.10853849891E+03  0.32141750194E+03  0.37759023866E+03  0.00000000000E+00 0. -1.
         -1    1    6    6    0  503  0.12415426380E+03  0.96620568680E+02  0.13541283550E+03  0.20757276201E+03  0.00000000000E+00 0.  1.
<mgrwt>
<rscale>  0 0.21410182E+04</rscale>
<asrwt>0</asrwt>
<pdfrwt beam="1">  1        1 0.12417058E+00 0.21410182E+04</pdfrwt>
<pdfrwt beam="2">  1       -2 0.21844159E+00 0.21410182E+04</pdfrwt>
<totfact> 0.17692856E+00</totfact>
</mgrwt>
</event>
<event>
12    4  0.4486176E-008  0.1386312E+04  0.7818608E-02  0.8963787E-01
         -2   -1    0    0    0  501 -0.00000000000E+00  0.00000000000E+00  0.59063821771E+03  0.59063821771E+03  0.00000000000E+00 0.  1.
          1   -1    0    0  501    0  0.00000000000E+00 -0.00000000000E+00 -0.81346802383E+03  0.81346802383E+03  0.00000000000E+00 0. -1.
        -24    2    1    2    0    0 -0.27073541053E+02  0.35527188083E+03  0.11807947560E+03  0.38371798238E+03  0.79659534945E+02 0.  0.
        254    2    1    2    0    0  0.27073541053E+02 -0.35527188083E+03 -0.34090928172E+03  0.10203882592E+04  0.89332075713E+03 0.  0.
         23    2    4    4    0    0 -0.33721559103E+03  0.23415125092E+02  0.57747329770E+02  0.35452458314E+03  0.89946111846E+02 0.  0.
         23    2    4    4    0    0  0.36428913209E+03 -0.37868700592E+03 -0.39865661149E+03  0.66586367601E+03  0.91306740912E+02 0.  0.
          3    1    3    3  502    0 -0.15216129528E+02  0.10334976814E+02 -0.14853271254E+01  0.18453957305E+02  0.00000000000E+00 0. -1.
         -2    1    3    3    0  502 -0.11857411525E+02  0.34493690402E+03  0.11956480273E+03  0.36526402507E+03  0.00000000000E+00 0.  1.
         11    1    5    5    0    0 -0.21809124482E+03  0.57225847522E+02  0.28313739753E+02  0.22724492635E+03  0.00000000000E+00 0. -1.
        -11    1    5    5    0    0 -0.11912434621E+03 -0.33810722431E+02  0.29433590017E+02  0.12727965679E+03  0.00000000000E+00 0.  1.
          1    1    6    6  503    0  0.10844144750E+03 -0.15889617693E+03 -0.18306435580E+03  0.26555621051E+03  0.00000000000E+00 0. -1.
         -1    1    6    6    0  503  0.25584768459E+03 -0.21979082899E+03 -0.21559225569E+03  0.40030746550E+03  0.00000000000E+00 0.  1.
<mgrwt>
<rscale>  0 0.13863121E+04</rscale>
<asrwt>0</asrwt>
<pdfrwt beam="1">  1        1 0.12514893E+00 0.13863121E+04</pdfrwt>
<pdfrwt beam="2">  1       -2 0.90867419E-01 0.13863121E+04</pdfrwt>
<totfact> 0.19025266E+01</totfact>
</mgrwt>
</event>
<event>
12    4  0.4486176E-008  0.1966665E+04  0.7818608E-02  0.8622367E-01
         -2   -1    0    0    0  501 -0.00000000000E+00  0.00000000000E+00  0.14147037206E+04  0.14147037206E+04  0.00000000000E+00 0.  1.
          1   -1    0    0  501    0  0.00000000000E+00 -0.00000000000E+00 -0.68349458341E+03  0.68349458341E+03  0.00000000000E+00 0. -1.
        -24    2    1    2    0    0  0.22165623802E+03  0.54564311815E+03 -0.25008775633E+03  0.64533364044E+03  0.83986435684E+02 0.  0.
        254    2    1    2    0    0 -0.22165623802E+03 -0.54564311815E+03  0.98129689349E+03  0.14528646635E+04  0.89499398722E+03 0.  0.
         23    2    4    4    0    0 -0.38419606079E+03  0.81563313214E+02  0.48648422663E+03  0.63201001697E+03  0.92252759323E+02 0.  0.
         23    2    4    4    0    0  0.16253982277E+03 -0.62720643136E+03  0.49481266686E+03  0.82085464657E+03  0.95685286147E+02 0.  0.
          3    1    3    3  502    0  0.19720946983E+03  0.38709004705E+03 -0.18623463225E+03  0.47266649740E+03  0.00000000000E+00 0. -1.
         -4    1    3    3    0  502  0.24446768187E+02  0.15855307110E+03 -0.63853124083E+02  0.17266714304E+03  0.00000000000E+00 0.  1.
         11    1    5    5    0    0 -0.61689099513E+02 -0.20154066434E+02  0.88757293682E+02  0.10995266515E+03  0.00000000000E+00 0.  1.
        -11    1    5    5    0    0 -0.32250696128E+03  0.10171737965E+03  0.39772693295E+03  0.52205735182E+03  0.00000000000E+00 0. -1.
          1    1    6    6  503    0  0.13003960091E+03 -0.56862087638E+03  0.41099817964E+03  0.71355413427E+03  0.00000000000E+00 0. -1.
         -1    1    6    6    0  503  0.32500221861E+02 -0.58585554986E+02  0.83814487217E+02  0.10730051231E+03  0.00000000000E+00 0.  1.
<mgrwt>
<rscale>  0 0.19666645E+04</rscale>
<asrwt>0</asrwt>
<pdfrwt beam="1">  1        1 0.10515301E+00 0.19666645E+04</pdfrwt>
<pdfrwt beam="2">  1       -2 0.21764673E+00 0.19666645E+04</pdfrwt>
<totfact> 0.23533024E+00</totfact>
</mgrwt>
</event>
<event>
12    4  0.4486176E-008  0.1247615E+04  0.7818608E-02  0.9072171E-01
         -2   -1    0    0    0  501 -0.00000000000E+00  0.00000000000E+00  0.63038896397E+03  0.63038896397E+03  0.00000000000E+00 0.  1.
          1   -1    0    0  501    0  0.00000000000E+00 -0.00000000000E+00 -0.61729454422E+03  0.61729454422E+03  0.00000000000E+00 0. -1.
        -24    2    1    2    0    0  0.24429094485E+03  0.14274081649E+03 -0.52203983256E+02  0.29847420345E+03  0.79426619145E+02 0.  0.
        254    2    1    2    0    0 -0.24429094485E+03 -0.14274081649E+03  0.65298402999E+02  0.94920930474E+03  0.90370427483E+03 0.  0.
         23    2    4    4    0    0 -0.46243117097E+02  0.28407775562E+03 -0.23497793444E+03  0.38396769625E+03  0.96839893476E+02 0.  0.
         23    2    4    4    0    0 -0.19804782775E+03 -0.42681857212E+03  0.30027633744E+03  0.56524160849E+03  0.89079523809E+02 0.  0.
          1    1    3    3  502    0  0.23361882204E+03  0.13124027670E+03 -0.67746308039E+02  0.27638980895E+03  0.00000000000E+00 0. -1.
         -4    1    3    3    0  502  0.10672122815E+02  0.11500539789E+02  0.15542324783E+02  0.22084394501E+02  0.00000000000E+00 0.  1.
         11    1    5    5    0    0 -0.68621893237E+02  0.22878174089E+03 -0.21411161440E+03  0.32077068541E+03  0.00000000000E+00 0.  1.
        -11    1    5    5    0    0  0.22378776140E+02  0.55296014734E+02 -0.20866320040E+02  0.63197010839E+02  0.00000000000E+00 0. -1.
          4    1    6    6  503    0 -0.13391963931E+03 -0.33428974671E+03  0.26551767465E+03  0.44741897602E+03  0.00000000000E+00 0. -1.
         -4    1    6    6    0  503 -0.64128188442E+02 -0.92528825406E+02  0.34758662786E+02  0.11782263247E+03  0.00000000000E+00 0.  1.
<mgrwt>
<rscale>  0 0.12476148E+04</rscale>
<asrwt>0</asrwt>
<pdfrwt beam="1">  1        1 0.94968392E-01 0.12476148E+04</pdfrwt>
<pdfrwt beam="2">  1       -2 0.96982917E-01 0.12476148E+04</pdfrwt>
<totfact> 0.25193489E+01</totfact>
</mgrwt>
</event>
<event>
12    4  0.4486176E-008  0.1621757E+04  0.7818608E-02  0.8807292E-01
         -2   -1    0    0    0  501 -0.00000000000E+00  0.00000000000E+00  0.17604327367E+04  0.17604327367E+04  0.00000000000E+00 0.  1.
          1   -1    0    0  501    0  0.00000000000E+00 -0.00000000000E+00 -0.37350134246E+03  0.37350134246E+03  0.00000000000E+00 0. -1.
        -24    2    1    2    0    0 -0.22077482401E+03 -0.12855115476E+03  0.11664421434E+04  0.11967282072E+04  0.79399029474E+02 0.  0.
        254    2    1    2    0    0  0.22077482401E+03  0.12855115476E+03  0.22048925086E+03  0.93720587190E+03  0.87434113153E+03 0.  0.
         23    2    4    4    0    0  0.13517345953E+03  0.18301634957E+03  0.53794248272E+03  0.59103647586E+03  0.90416551055E+02 0.  0.
         23    2    4    4    0    0  0.85601364480E+02 -0.54465194810E+02 -0.31745323186E+03  0.34616939605E+03  0.93609002202E+02 0.  0.
          1    1    3    3  502    0 -0.62211117132E+01  0.98496063963E+01  0.69072858851E+02  0.70048389039E+02  0.00000000000E+00 0. -1.
         -2    1    3    3    0  502 -0.21455371230E+03 -0.13840076115E+03  0.10973692845E+04  0.11266798182E+04  0.00000000000E+00 0.  1.
         11    1    5    5    0    0  0.17358864330E+02  0.46910482952E+02  0.22052939460E+03  0.22613079724E+03  0.00000000000E+00 0. -1.
        -11    1    5    5    0    0  0.11781459520E+03  0.13610586661E+03  0.31741308813E+03  0.36490567861E+03  0.00000000000E+00 0.  1.
          2    1    6    6  503    0  0.37603138533E+02  0.12125415728E+02 -0.37658284805E+02  0.54581756555E+02  0.00000000000E+00 0. -1.
         -2    1    6    6    0  503  0.47998225946E+02 -0.66590610538E+02 -0.27979494706E+03  0.29158763949E+03  0.00000000000E+00 0.  1.
<mgrwt>
<rscale>  0 0.16217571E+04</rscale>
<asrwt>0</asrwt>
<pdfrwt beam="1">  1        1 0.57461746E-01 0.16217571E+04</pdfrwt>
<pdfrwt beam="2">  1       -2 0.27083580E+00 0.16217571E+04</pdfrwt>
<totfact> 0.26388652E+00</totfact>
</mgrwt>
</event>
<event>
12    4  0.4486176E-008  0.2431502E+04  0.7818608E-02  0.8427803E-01
         -2   -1    0    0    0  501 -0.00000000000E+00  0.00000000000E+00  0.10958051164E+04  0.10958051164E+04  0.00000000000E+00 0.  1.
          1   -1    0    0  501    0  0.00000000000E+00 -0.00000000000E+00 -0.13488257340E+04  0.13488257340E+04  0.00000000000E+00 0. -1.
        -24    2    1    2    0    0  0.50601108850E+03 -0.66704105178E+02  0.81301420517E+03  0.96342210527E+03  0.81813176078E+02 0.  0.
        254    2    1    2    0    0 -0.50601108850E+03  0.66704105178E+02 -0.10660348227E+04  0.14812087451E+04  0.89277793651E+03 0.  0.
         23    2    4    4    0    0 -0.77533495276E+02  0.79980527169E+02  0.13866345443E+03  0.19929860704E+03  0.89911365003E+02 0.  0.
         23    2    4    4    0    0 -0.42847759322E+03 -0.13276421991E+02 -0.12046982772E+04  0.12819101380E+04  0.90699238040E+02 0.  0.
          3    1    3    3  502    0  0.23631266669E+03  0.28479951257E+00  0.42297182885E+03  0.48450895301E+03  0.00000000000E+00 0. -1.
         -2    1    3    3    0  502  0.26969842181E+03 -0.66988904690E+02  0.39004237632E+03  0.47891315226E+03  0.00000000000E+00 0.  1.
         11    1    5    5    0    0 -0.89225275222E+02  0.73031708901E+02  0.14418576590E+03  0.18461937962E+03  0.00000000000E+00 0. -1.
        -11    1    5    5    0    0  0.11691779946E+02  0.69488182681E+01 -0.55223114692E+01  0.14679227418E+02  0.00000000000E+00 0.  1.
          4    1    6    6  503    0 -0.37129452944E+03 -0.26349328411E+02 -0.11075453367E+04  0.11684222642E+04  0.00000000000E+00 0. -1.
         -4    1    6    6    0  503 -0.57183063777E+02  0.13072906420E+02 -0.97152940463E+02  0.11348787383E+03  0.00000000000E+00 0.  1.
<mgrwt>
<rscale>  0 0.24315017E+04</rscale>
<asrwt>0</asrwt>
<pdfrwt beam="1">  1        1 0.20751165E+00 0.24315017E+04</pdfrwt>
<pdfrwt beam="2">  1       -2 0.16858540E+00 0.24315017E+04</pdfrwt>
<totfact> 0.14287832E+00</totfact>
</mgrwt>
</event>
<event>
12    4  0.4486176E-008  0.3134060E+04  0.7818608E-02  0.8206452E-01
          1   -1    0    0  501    0  0.00000000000E+00  0.00000000000E+00  0.90218055360E+03  0.90218055360E+03  0.00000000000E+00 0. -1.
         -2   -1    0    0    0  501 -0.00000000000E+00 -0.00000000000E+00 -0.27218310322E+04  0.27218310322E+04  0.00000000000E+00 0.  1.
        -24    2    1    2    0    0  0.14123549442E+04 -0.25704562194E+03 -0.86670766174E+03  0.16787891484E+04  0.79573196916E+02 0.  0.
        254    2    1    2    0    0 -0.14123549442E+04  0.25704562194E+03 -0.95294281681E+03  0.19452224374E+04  0.90275765215E+03 0.  0.
         23    2    4    4    0    0 -0.12385301268E+04  0.50433600521E+03 -0.59155696504E+03  0.14653515920E+04  0.94889220222E+02 0.  0.
         23    2    4    4    0    0 -0.17382481745E+03 -0.24729038327E+03 -0.36138585177E+03  0.47987084541E+03  0.91152035570E+02 0.  0.
          1    1    3    3  502    0  0.96835354519E+03 -0.18047309953E+03 -0.55135280052E+03  0.11288352576E+04  0.00000000000E+00 0. -1.
         -2    1    3    3    0  502  0.44400139901E+03 -0.76572522403E+02 -0.31535486122E+03  0.54995389080E+03  0.00000000000E+00 0.  1.
         11    1    5    5    0    0 -0.13458626362E+03  0.49749369079E+02 -0.96414918591E+02  0.17287075695E+03  0.00000000000E+00 0. -1.
        -11    1    5    5    0    0 -0.11039438631E+04  0.45458663613E+03 -0.49514204644E+03  0.12924808350E+04  0.00000000000E+00 0.  1.
          3    1    6    6  503    0 -0.50687352726E+02 -0.17641423858E+02 -0.80271742775E+02  0.96560759371E+02  0.00000000000E+00 0. -1.
         -3    1    6    6    0  503 -0.12313746472E+03 -0.22964895941E+03 -0.28111410900E+03  0.38331008604E+03  0.00000000000E+00 0.  1.
<mgrwt>
<rscale>  0 0.31340600E+04</rscale>
<asrwt>0</asrwt>
<pdfrwt beam="1">  1        1 0.13879701E+00 0.31340600E+04</pdfrwt>
<pdfrwt beam="2">  1       -2 0.41874322E+00 0.31340600E+04</pdfrwt>
<totfact> 0.74687105E-02</totfact>
</mgrwt>
</event>
<event>
12    4  0.4486176E-008  0.1231617E+04  0.7818608E-02  0.9085623E-01
          1   -1    0    0  501    0  0.00000000000E+00  0.00000000000E+00  0.87887697052E+03  0.87887697052E+03  0.00000000000E+00 0. -1.
         -2   -1    0    0    0  501 -0.00000000000E+00 -0.00000000000E+00 -0.43148290587E+03  0.43148290587E+03  0.00000000000E+00 0.  1.
        -24    2    1    2    0    0  0.14587416750E+03 -0.17179477802E+03  0.29587128565E+03  0.37590303775E+03  0.54502822162E+02 0.  0.
        254    2    1    2    0    0 -0.14587416750E+03  0.17179477802E+03  0.15152277900E+03  0.93445683864E+03  0.89412399153E+03 0.  0.
         23    2    4    4    0    0 -0.31795730453E+03  0.46189733920E+03  0.61254876754E+02  0.57269034277E+03  0.98874007253E+02 0.  0.
         23    2    4    4    0    0  0.17208313703E+03 -0.29010256118E+03  0.90267902243E+02  0.36176649587E+03  0.94628755194E+02 0.  0.
          1    1    3    3  502    0  0.80500164508E+02 -0.76768423024E+02  0.10546343082E+03  0.15328471059E+03  0.00000000000E+00 0. -1.
         -2    1    3    3    0  502  0.65374002989E+02 -0.95026354997E+02  0.19040785482E+03  0.22261832716E+03  0.00000000000E+00 0.  1.
         11    1    5    5    0    0 -0.31134340995E+03  0.44599514424E+03  0.77017494430E+02  0.54934331893E+03  0.00000000000E+00 0. -1.
        -11    1    5    5    0    0 -0.66138945777E+01  0.15902194957E+02 -0.15762617676E+02  0.23347023835E+02  0.00000000000E+00 0.  1.
          2    1    6    6  503    0  0.97542631541E+02 -0.22409711136E+03  0.94682317366E+02  0.26210460033E+03  0.00000000000E+00 0. -1.
         -2    1    6    6    0  503  0.74540505488E+02 -0.66005449814E+02 -0.44144151223E+01  0.99661895548E+02  0.00000000000E+00 0.  1.
<mgrwt>
<rscale>  0 0.12316175E+04</rscale>
<asrwt>0</asrwt>
<pdfrwt beam="1">  1        1 0.13521184E+00 0.12316175E+04</pdfrwt>
<pdfrwt beam="2">  1       -2 0.66381985E-01 0.12316175E+04</pdfrwt>
<totfact> 0.34205520E+01</totfact>
</mgrwt>
</event>
<event>
12    4  0.4486176E-008  0.1131764E+04  0.7818608E-02  0.9174774E-01
         -2   -1    0    0    0  501 -0.00000000000E+00  0.00000000000E+00  0.66328582408E+03  0.66328582408E+03  0.00000000000E+00 0.  1.
          1   -1    0    0  501    0  0.00000000000E+00 -0.00000000000E+00 -0.48278186640E+03  0.48278186640E+03  0.00000000000E+00 0. -1.
        -24    2    1    2    0    0 -0.78316651399E+02 -0.16709107738E+03  0.35676162889E+01  0.20005707236E+03  0.77182759024E+02 0.  0.
        254    2    1    2    0    0  0.78316651399E+02  0.16709107738E+03  0.17693634138E+03  0.94601061812E+03  0.91081100930E+03 0.  0.
         23    2    4    4    0    0 -0.11494849427E+03 -0.28445446084E+03 -0.14237438602E+03  0.35188565726E+03  0.97085289141E+02 0.  0.
         23    2    4    4    0    0  0.19326514567E+03  0.45154553822E+03  0.31931072740E+03  0.59412496085E+03  0.98895595780E+02 0.  0.
          1    1    3    3  502    0 -0.31958631028E+02 -0.34666862700E+02 -0.29880566232E+02  0.55821086562E+02  0.00000000000E+00 0. -1.
         -2    1    3    3    0  502 -0.46358020371E+02 -0.13242421468E+03  0.33448182521E+02  0.14423598580E+03  0.00000000000E+00 0.  1.
         11    1    5    5    0    0  0.67030513442E+01 -0.20160926665E+02 -0.36577500698E+02  0.42300205894E+02  0.00000000000E+00 0.  1.
        -11    1    5    5    0    0 -0.12165154561E+03 -0.26429353418E+03 -0.10579688532E+03  0.30958545137E+03  0.00000000000E+00 0. -1.
          1    1    6    6  503    0  0.16537277871E+03  0.40899839194E+03  0.24668119888E+03  0.50544975461E+03  0.00000000000E+00 0. -1.
         -1    1    6    6    0  503  0.27892366954E+02  0.42547146276E+02  0.72629528517E+02  0.88675206249E+02  0.00000000000E+00 0.  1.
<mgrwt>
<rscale>  0 0.11317639E+04</rscale>
<asrwt>0</asrwt>
<pdfrwt beam="1">  1        1 0.74274133E-01 0.11317639E+04</pdfrwt>
<pdfrwt beam="2">  1       -2 0.10204397E+00 0.11317639E+04</pdfrwt>
<totfact> 0.31838515E+01</totfact>
</mgrwt>
</event>
<event>
12    4  0.4486176E-008  0.1536481E+04  0.7818608E-02  0.8860550E-01
          1   -1    0    0  501    0  0.00000000000E+00  0.00000000000E+00  0.10117620129E+04  0.10117620129E+04  0.00000000000E+00 0. -1.
         -2   -1    0    0    0  501 -0.00000000000E+00 -0.00000000000E+00 -0.58333216708E+03  0.58333216708E+03  0.00000000000E+00 0.  1.
        -24    2    1    2    0    0  0.29804997325E+03  0.22676340900E+03  0.48109875327E+03  0.61482180113E+03  0.79337295942E+02 0.  0.
        254    2    1    2    0    0 -0.29804997325E+03 -0.22676340900E+03 -0.52668907482E+02  0.98027237882E+03  0.90438072329E+03 0.  0.
         23    2    4    4    0    0  0.18148359700E+03 -0.26155471567E+02 -0.32572938998E+03  0.38497348015E+03  0.92111564146E+02 0.  0.
         23    2    4    4    0    0 -0.47953357025E+03 -0.20060793743E+03  0.27306048250E+03  0.59529889868E+03  0.98095678359E+02 0.  0.
          3    1    3    3  502    0  0.26309623832E+03  0.22512116869E+03  0.41919828584E+03  0.54371534286E+03  0.00000000000E+00 0. -1.
         -4    1    3    3    0  502  0.34953734933E+02  0.16422403042E+01  0.61900467435E+02  0.71106458270E+02  0.00000000000E+00 0.  1.
         11    1    5    5    0    0  0.70505064607E+02  0.11046568824E+01 -0.49830017554E+02  0.86343587205E+02  0.00000000000E+00 0. -1.
        -11    1    5    5    0    0  0.11097853239E+03 -0.27260128449E+02 -0.27589937242E+03  0.29862989294E+03  0.00000000000E+00 0.  1.
          3    1    6    6  503    0 -0.34481220326E+02 -0.46519238121E+02  0.26293152295E+02  0.63594999239E+02  0.00000000000E+00 0. -1.
         -3    1    6    6    0  503 -0.44505234992E+03 -0.15408869931E+03  0.24676733020E+03  0.53170389944E+03  0.00000000000E+00 0.  1.
<mgrwt>
<rscale>  0 0.15364808E+04</rscale>
<asrwt>0</asrwt>
<pdfrwt beam="1">  1        1 0.15565569E+00 0.15364808E+04</pdfrwt>
<pdfrwt beam="2">  1       -2 0.89743410E-01 0.15364808E+04</pdfrwt>
<totfact> 0.13326162E+01</totfact>
</mgrwt>
</event>
<event>
12    4  0.4486176E-008  0.3572594E+04  0.7818608E-02  0.8096798E-01
          1   -1    0    0  501    0  0.00000000000E+00  0.00000000000E+00  0.12556747479E+04  0.12556747479E+04  0.00000000000E+00 0. -1.
         -2   -1    0    0    0  501 -0.00000000000E+00 -0.00000000000E+00 -0.25411486284E+04  0.25411486284E+04  0.00000000000E+00 0.  1.
        -24    2    1    2    0    0  0.12545107570E+04  0.84546482295E+03 -0.13539482209E+04  0.20317636372E+04  0.79244469898E+02 0.  0.
        254    2    1    2    0    0 -0.12545107570E+04 -0.84546482295E+03  0.68474340469E+02  0.17650597391E+04  0.90671888757E+03 0.  0.
         23    2    4    4    0    0 -0.61704439328E+03 -0.76247630025E+03  0.36597364216E+03  0.10507938985E+04  0.90095608888E+02 0.  0.
         23    2    4    4    0    0 -0.63746636377E+03 -0.82988522693E+02 -0.29749930169E+03  0.71426584060E+03  0.91757270602E+02 0.  0.
          1    1    3    3  502    0  0.50242220772E+03  0.36711989152E+03 -0.51526037396E+03  0.80789748269E+03  0.00000000000E+00 0. -1.
         -2    1    3    3    0  502  0.75208854932E+03  0.47834493143E+03 -0.83868784696E+03  0.12238661545E+04  0.00000000000E+00 0.  1.
         11    1    5    5    0    0 -0.48778231055E+03 -0.64819313560E+03  0.32155369348E+03  0.87262976188E+03  0.00000000000E+00 0.  1.
        -11    1    5    5    0    0 -0.12926208272E+03 -0.11428316466E+03  0.44419948682E+02  0.17816413667E+03  0.00000000000E+00 0. -1.
          4    1    6    6  503    0 -0.11869971259E+03  0.14794205132E+02 -0.76387167887E+02  0.14192776223E+03  0.00000000000E+00 0. -1.
         -4    1    6    6    0  503 -0.51876665118E+03 -0.97782727826E+02 -0.22111213380E+03  0.57233807837E+03  0.00000000000E+00 0.  1.
<mgrwt>
<rscale>  0 0.35725935E+04</rscale>
<asrwt>0</asrwt>
<pdfrwt beam="1">  1        1 0.19318073E+00 0.35725935E+04</pdfrwt>
<pdfrwt beam="2">  1       -2 0.39094594E+00 0.35725935E+04</pdfrwt>
<totfact> 0.58882905E-02</totfact>
</mgrwt>
</event>
<event>
12    4  0.4486176E-008  0.1969776E+04  0.7818608E-02  0.8620883E-01
         -2   -1    0    0    0  501 -0.00000000000E+00  0.00000000000E+00  0.34061344340E+03  0.34061344340E+03  0.00000000000E+00 0.  1.
          1   -1    0    0  501    0  0.00000000000E+00 -0.00000000000E+00 -0.28478152302E+04  0.28478152302E+04  0.00000000000E+00 0. -1.
        -24    2    1    2    0    0  0.17899690233E+03  0.33916019118E+03  0.10197563941E+03  0.40468776389E+03  0.79395395886E+02 0.  0.
        254    2    1    2    0    0 -0.17899690233E+03 -0.33916019118E+03 -0.26091774262E+04  0.27837409097E+04  0.89125590296E+03 0.  0.
         23    2    4    4    0    0 -0.52681858824E+03 -0.29190805601E+03 -0.16731313087E+04  0.17805241465E+04  0.90275809635E+02 0.  0.
         23    2    4    4    0    0  0.34782168591E+03 -0.47252135164E+02 -0.93604611747E+03  0.10032167632E+04  0.83957432813E+02 0.  0.
          1    1    3    3  502    0  0.22468007390E+02  0.11977179123E+03  0.24903418019E+02  0.12437955443E+03  0.00000000000E+00 0. -1.
         -2    1    3    3    0  502  0.15652889494E+03  0.21938839994E+03  0.77072221395E+02  0.28030820946E+03  0.00000000000E+00 0.  1.
         11    1    5    5    0    0 -0.20040988579E+02  0.32206874563E+01 -0.33499904211E+02  0.39169600879E+02  0.00000000000E+00 0.  1.
        -11    1    5    5    0    0 -0.50677759966E+03 -0.29512874347E+03 -0.16396314045E+04  0.17413545456E+04  0.00000000000E+00 0. -1.
          4    1    6    6  503    0  0.27106455442E+03 -0.23563434174E+02 -0.61913816588E+03  0.67628640127E+03  0.00000000000E+00 0. -1.
         -4    1    6    6    0  503  0.76757131486E+02 -0.23688700990E+02 -0.31690795159E+03  0.32693036195E+03  0.00000000000E+00 0.  1.
<mgrwt>
<rscale>  0 0.19697758E+04</rscale>
<asrwt>0</asrwt>
<pdfrwt beam="1">  1        1 0.43812541E+00 0.19697758E+04</pdfrwt>
<pdfrwt beam="2">  1       -2 0.52402070E-01 0.19697758E+04</pdfrwt>
<totfact> 0.21662384E+00</totfact>
</mgrwt>
</event>
<event>
12    4  0.4486176E-008  0.3331058E+04  0.7818608E-02  0.8155037E-01
          1   -1    0    0  501    0  0.00000000000E+00  0.00000000000E+00  0.32952206127E+04  0.32952206127E+04  0.00000000000E+00 0. -1.
         -2   -1    0    0    0  501 -0.00000000000E+00 -0.00000000000E+00 -0.84182129405E+03  0.84182129405E+03  0.00000000000E+00 0.  1.
        -24    2    1    2    0    0 -0.11999361023E+04  0.74668454078E+03  0.18900856067E+04  0.23615303596E+04  0.83771031028E+02 0.  0.
        254    2    1    2    0    0  0.11999361023E+04 -0.74668454078E+03  0.56331371204E+03  0.17755115472E+04  0.91527835277E+03 0.  0.
         23    2    4    4    0    0  0.16504765772E+03  0.17852244111E+03 -0.32968765478E+02  0.26203546853E+03  0.92003564982E+02 0.  0.
         23    2    4    4    0    0  0.10348884446E+04 -0.92520698189E+03  0.59628247752E+03  0.15134760787E+04  0.89749627690E+02 0.  0.
          1    1    3    3  502    0 -0.11637176014E+04  0.70990085711E+03  0.18032709824E+04  0.22605273984E+04  0.00000000000E+00 0. -1.
         -2    1    3    3    0  502 -0.36218500940E+02  0.36783683663E+02  0.86814624227E+02  0.10100296121E+03  0.00000000000E+00 0.  1.
         11    1    5    5    0    0  0.10217330446E+03  0.72645449400E+02  0.21832059554E+02  0.12725322898E+03  0.00000000000E+00 0. -1.
        -11    1    5    5    0    0  0.62874353262E+02  0.10587699171E+03 -0.54800825032E+02  0.13478223954E+03  0.00000000000E+00 0.  1.
          3    1    6    6  503    0  0.16347088718E+03 -0.18461872490E+03  0.85614815513E+02  0.26103007714E+03  0.00000000000E+00 0. -1.
         -3    1    6    6    0  503  0.87141755742E+03 -0.74058825699E+03  0.51066766201E+03  0.12524460016E+04  0.00000000000E+00 0.  1.
<mgrwt>
<rscale>  0 0.33310580E+04</rscale>
<asrwt>0</asrwt>
<pdfrwt beam="1">  1        1 0.50695701E+00 0.33310580E+04</pdfrwt>
<pdfrwt beam="2">  1       -2 0.12951097E+00 0.33310580E+04</pdfrwt>
<totfact> 0.11493528E-01</totfact>
</mgrwt>
</event>
<event>
12    4  0.4486176E-008  0.1850612E+04  0.7818608E-02  0.8679838E-01
          1   -1    0    0  501    0  0.00000000000E+00  0.00000000000E+00  0.92453125185E+03  0.92453125185E+03  0.00000000000E+00 0. -1.
         -2   -1    0    0    0  501 -0.00000000000E+00 -0.00000000000E+00 -0.92608165785E+03  0.92608165785E+03  0.00000000000E+00 0.  1.
        -24    2    1    2    0    0 -0.14337510831E+03 -0.15311238413E+03 -0.67199303982E+03  0.70829268103E+03  0.78128436419E+02 0.  0.
        254    2    1    2    0    0  0.14337510831E+03  0.15311238413E+03  0.67044263382E+03  0.11423202287E+04  0.90077874961E+03 0.  0.
         23    2    4    4    0    0  0.37158077087E+03 -0.24036028420E+03  0.25188661074E+03  0.51741703322E+03  0.91805152934E+02 0.  0.
         23    2    4    4    0    0 -0.22820566256E+03  0.39347266832E+03  0.41855602308E+03  0.62490319546E+03  0.91740362374E+02 0.  0.
          1    1    3    3  502    0 -0.28164181581E+02 -0.36696728989E+01 -0.42428911644E+02  0.51057812004E+02  0.00000000000E+00 0. -1.
         -2    1    3    3    0  502 -0.11521092673E+03 -0.14944271123E+03 -0.62956412818E+03  0.65723486903E+03  0.00000000000E+00 0.  1.
         11    1    5    5    0    0  0.17935677690E+03 -0.13919792675E+03  0.81053328841E+02  0.24106961307E+03  0.00000000000E+00 0.  1.
        -11    1    5    5    0    0  0.19222399397E+03 -0.10116235745E+03  0.17083328190E+03  0.27634742015E+03  0.00000000000E+00 0. -1.
          4    1    6    6  503    0 -0.49575342807E+02  0.12388666820E+03  0.74956351225E+02  0.15304925927E+03  0.00000000000E+00 0. -1.
         -4    1    6    6    0  503 -0.17863031975E+03  0.26958600012E+03  0.34359967186E+03  0.47185393619E+03  0.00000000000E+00 0.  1.
<mgrwt>
<rscale>  0 0.18506123E+04</rscale>
<asrwt>0</asrwt>
<pdfrwt beam="1">  1        1 0.14223558E+00 0.18506123E+04</pdfrwt>
<pdfrwt beam="2">  1       -2 0.14247410E+00 0.18506123E+04</pdfrwt>
<totfact> 0.49088321E+00</totfact>
</mgrwt>
</event>
<event>
12    4  0.4486176E-008  0.1195167E+04  0.7818608E-02  0.9117098E-01
         -2   -1    0    0    0  501 -0.00000000000E+00  0.00000000000E+00  0.97047638255E+03  0.97047638255E+03  0.00000000000E+00 0.  1.
          1   -1    0    0  501    0  0.00000000000E+00 -0.00000000000E+00 -0.36796961794E+03  0.36796961794E+03  0.00000000000E+00 0. -1.
        -24    2    1    2    0    0  0.37388978685E+02 -0.23777367098E+03  0.34218562847E+03  0.42716345311E+03  0.86274892082E+02 0.  0.
        254    2    1    2    0    0 -0.37388978685E+02  0.23777367098E+03  0.26032113614E+03  0.91128254739E+03  0.83948468295E+03 0.  0.
         23    2    4    4    0    0  0.38631265447E+02  0.51842913845E+03  0.29496354371E+03  0.60427024942E+03  0.88757512074E+02 0.  0.
         23    2    4    4    0    0 -0.76020244131E+02 -0.28065546747E+03 -0.34642407570E+02  0.30701229797E+03  0.92249042068E+02 0.  0.
          3    1    3    3  502    0  0.22942223849E+02 -0.65872788509E+02  0.16849860283E+03  0.18236597560E+03  0.00000000000E+00 0. -1.
         -4    1    3    3    0  502  0.14446754835E+02 -0.17190088247E+03  0.17368702564E+03  0.24479747751E+03  0.00000000000E+00 0.  1.
         11    1    5    5    0    0  0.45267089986E+02  0.23645382871E+03  0.17567414208E+03  0.29802839922E+03  0.00000000000E+00 0. -1.
        -11    1    5    5    0    0 -0.66358245389E+01  0.28197530974E+03  0.11928940163E+03  0.30624185019E+03  0.00000000000E+00 0.  1.
          3    1    6    6  503    0 -0.86787768986E+02 -0.14911011832E+03 -0.28652613946E+02  0.17489115620E+03  0.00000000000E+00 0. -1.
         -3    1    6    6    0  503  0.10767524854E+02 -0.13154534915E+03 -0.59897936238E+01  0.13212114177E+03  0.00000000000E+00 0.  1.
<mgrwt>
<rscale>  0 0.11951666E+04</rscale>
<asrwt>0</asrwt>
<pdfrwt beam="1">  1        1 0.56610711E-01 0.11951666E+04</pdfrwt>
<pdfrwt beam="2">  1       -2 0.14930406E+00 0.11951666E+04</pdfrwt>
<totfact> 0.17565020E+01</totfact>
</mgrwt>
</event>
<event>
12    4  0.4486176E-008  0.3270727E+04  0.7818608E-02  0.8170384E-01
         -2   -1    0    0    0  501 -0.00000000000E+00  0.00000000000E+00  0.14939997332E+04  0.14939997332E+04  0.00000000000E+00 0.  1.
          1   -1    0    0  501    0  0.00000000000E+00 -0.00000000000E+00 -0.17901028037E+04  0.17901028037E+04  0.00000000000E+00 0. -1.
        -24    2    1    2    0    0 -0.21021806795E+03  0.13550739280E+04  0.46059172172E+03  0.14486036702E+04  0.76752022542E+02 0.  0.
        254    2    1    2    0    0  0.21021806795E+03 -0.13550739280E+04 -0.75669479228E+03  0.18354988667E+04  0.95710610419E+03 0.  0.
         23    2    4    4    0    0 -0.19134682099E+03 -0.95609539560E+01  0.42808869770E+02  0.21702046747E+03  0.92521706790E+02 0.  0.
         23    2    4    4    0    0  0.40156488894E+03 -0.13455129740E+04 -0.79950366205E+03  0.16184783992E+04  0.92772301357E+02 0.  0.
          1    1    3    3  502    0 -0.15181681173E+03  0.83731304196E+03  0.25359564589E+03  0.88794832404E+03  0.00000000000E+00 0. -1.
         -2    1    3    3    0  502 -0.58401256222E+02  0.51776088600E+03  0.20699607583E+03  0.56065534619E+03  0.00000000000E+00 0.  1.
         11    1    5    5    0    0  0.40914741457E+00 -0.19740489074E+02  0.10274060457E+02  0.22257821744E+02  0.00000000000E+00 0. -1.
        -11    1    5    5    0    0 -0.19175596841E+03  0.10179535118E+02  0.32534809313E+02  0.19476264573E+03  0.00000000000E+00 0.  1.
          2    1    6    6  503    0  0.20249309990E+03 -0.55304755602E+03 -0.30230609179E+03  0.66200757387E+03  0.00000000000E+00 0. -1.
         -2    1    6    6    0  503  0.19907178904E+03 -0.79246541798E+03 -0.49719757026E+03  0.95647082536E+03  0.00000000000E+00 0.  1.
<mgrwt>
<rscale>  0 0.32707266E+04</rscale>
<asrwt>0</asrwt>
<pdfrwt beam="1">  1        1 0.27540043E+00 0.32707266E+04</pdfrwt>
<pdfrwt beam="2">  1       -2 0.22984612E+00 0.32707266E+04</pdfrwt>
<totfact> 0.25915747E-01</totfact>
</mgrwt>
</event>
<event>
12    4  0.4486176E-008  0.1714893E+04  0.7818608E-02  0.8752915E-01
          1   -1    0    0  501    0  0.00000000000E+00  0.00000000000E+00  0.10518431761E+04  0.10518431761E+04  0.00000000000E+00 0. -1.
         -2   -1    0    0    0  501 -0.00000000000E+00 -0.00000000000E+00 -0.69897764028E+03  0.69897764028E+03  0.00000000000E+00 0.  1.
        -24    2    1    2    0    0 -0.46657622820E+03  0.14940228356E+03  0.52891854400E+03  0.72580846709E+03  0.83837256990E+02 0.  0.
        254    2    1    2    0    0  0.46657622820E+03 -0.14940228356E+03 -0.17605300816E+03  0.10250123493E+04  0.88297295288E+03 0.  0.
         23    2    4    4    0    0  0.31890254520E+03 -0.22856458972E+02  0.33418793646E+03  0.47130757891E+03  0.90708356900E+02 0.  0.
         23    2    4    4    0    0  0.14767368300E+03 -0.12654582459E+03 -0.51024094461E+03  0.55370477041E+03  0.91770304783E+02 0.  0.
          3    1    3    3  502    0 -0.39155944798E+03  0.91680574634E+02  0.43669061907E+03  0.59365210843E+03  0.00000000000E+00 0. -1.
         -4    1    3    3    0  502 -0.75016780228E+02  0.57721708928E+02  0.92227924926E+02  0.13215635866E+03  0.00000000000E+00 0.  1.
         11    1    5    5    0    0  0.18649654982E+03 -0.49574502181E+02  0.15865843990E+03  0.24982212655E+03  0.00000000000E+00 0.  1.
        -11    1    5    5    0    0  0.13240599537E+03  0.26718043209E+02  0.17552949656E+03  0.22148545236E+03  0.00000000000E+00 0. -1.
          4    1    6    6  503    0  0.11941289919E+03 -0.12311628364E+03 -0.48893920357E+03  0.51814921073E+03  0.00000000000E+00 0. -1.
         -4    1    6    6    0  503  0.28260783812E+02 -0.34295409492E+01 -0.21301741048E+02  0.35555559684E+02  0.00000000000E+00 0.  1.
<mgrwt>
<rscale>  0 0.17148934E+04</rscale>
<asrwt>0</asrwt>
<pdfrwt beam="1">  1        1 0.16182203E+00 0.17148934E+04</pdfrwt>
<pdfrwt beam="2">  1       -2 0.10753502E+00 0.17148934E+04</pdfrwt>
<totfact> 0.79779819E+00</totfact>
</mgrwt>
</event>
<event>
12    4  0.4486176E-008  0.1650288E+04  0.7818608E-02  0.8790236E-01
          1   -1    0    0  501    0  0.00000000000E+00  0.00000000000E+00  0.17204765315E+04  0.17204765315E+04  0.00000000000E+00 0. -1.
         -4   -1    0    0    0  501 -0.00000000000E+00 -0.00000000000E+00 -0.39574069167E+03  0.39574069167E+03  0.00000000000E+00 0.  1.
        -24    2    1    2    0    0  0.51094646523E+03  0.25499590684E+03  0.29564944008E+03  0.64793152452E+03  0.79482489965E+02 0.  0.
        254    2    1    2    0    0 -0.51094646523E+03 -0.25499590684E+03  0.10290863998E+04  0.14682856987E+04  0.87792646155E+03 0.  0.
         23    2    4    4    0    0  0.66405932188E+02  0.14053124102E+03 -0.42466834563E+02  0.18503984388E+03  0.90980955448E+02 0.  0.
         23    2    4    4    0    0 -0.57735239742E+03 -0.39552714786E+03  0.10715532343E+04  0.12832458548E+04  0.93359918147E+02 0.  0.
          1    1    3    3  502    0  0.44633806418E+03  0.24247157309E+03  0.28106544843E+03  0.58052383034E+03  0.00000000000E+00 0. -1.
         -2    1    3    3    0  502  0.64608401057E+02  0.12524333754E+02  0.14583991652E+02  0.67407694187E+02  0.00000000000E+00 0.  1.
         11    1    5    5    0    0  0.62424622226E+02  0.15330615224E+03 -0.44738133095E+02  0.17146751974E+03  0.00000000000E+00 0.  1.
        -11    1    5    5    0    0  0.39813099622E+01 -0.12774911216E+02  0.22712985322E+01  0.13572324142E+02  0.00000000000E+00 0. -1.
          3    1    6    6  503    0 -0.13447586208E+03 -0.11441624443E+03  0.20776827887E+03  0.27265819661E+03  0.00000000000E+00 0. -1.
         -3    1    6    6    0  503 -0.44287653534E+03 -0.28111090343E+03  0.86378495546E+03  0.10105876582E+04  0.00000000000E+00 0.  1.
<mgrwt>
<rscale>  0 0.16502879E+04</rscale>
<asrwt>0</asrwt>
<pdfrwt beam="1">  1        1 0.26468869E+00 0.16502879E+04</pdfrwt>
<pdfrwt beam="2">  1       -4 0.60883184E-01 0.16502879E+04</pdfrwt>
<totfact> 0.55141409E+00</totfact>
</mgrwt>
</event>
<event>
12    4  0.4486176E-008  0.2198721E+04  0.7818608E-02  0.8518961E-01
         -2   -1    0    0    0  501 -0.00000000000E+00  0.00000000000E+00  0.11365242962E+04  0.11365242962E+04  0.00000000000E+00 0.  1.
          1   -1    0    0  501    0  0.00000000000E+00 -0.00000000000E+00 -0.10634121708E+04  0.10634121708E+04  0.00000000000E+00 0. -1.
        -24    2    1    2    0    0 -0.33428556758E+03  0.70644443809E+03  0.50062669313E+03  0.93165427792E+03  0.80882772585E+02 0.  0.
        254    2    1    2    0    0  0.33428556758E+03 -0.70644443809E+03 -0.42751456770E+03  0.12682821891E+04  0.90275158316E+03 0.  0.
         23    2    4    4    0    0  0.30017670990E+03 -0.88841699465E+03 -0.47989118996E+03  0.10574073655E+04  0.91782181247E+02 0.  0.
         23    2    4    4    0    0  0.34108857679E+02  0.18197255657E+03  0.52376622262E+02  0.21087482367E+03  0.86298639516E+02 0.  0.
          3    1    3    3  502    0 -0.67000653665E+02  0.21334493417E+03  0.16645060133E+03  0.27876684023E+03  0.00000000000E+00 0. -1.
         -4    1    3    3    0  502 -0.26728491391E+03  0.49309950392E+03  0.33417609180E+03  0.65288743770E+03  0.00000000000E+00 0.  1.
         11    1    5    5    0    0  0.14723777208E+02 -0.13903442983E+03 -0.83911711591E+02  0.16305992038E+03  0.00000000000E+00 0. -1.
        -11    1    5    5    0    0  0.28545293269E+03 -0.74938256482E+03 -0.39597947837E+03  0.89434744508E+03  0.00000000000E+00 0.  1.
          1    1    6    6  503    0  0.63099980602E+02  0.12480029600E+03  0.41351412301E+02  0.14583093202E+03  0.00000000000E+00 0. -1.
         -1    1    6    6    0  503 -0.28991122923E+02  0.57172260566E+02  0.11025209962E+02  0.65043891652E+02  0.00000000000E+00 0.  1.
<mgrwt>
<rscale>  0 0.21987212E+04</rscale>
<asrwt>0</asrwt>
<pdfrwt beam="1">  1        1 0.16360187E+00 0.21987212E+04</pdfrwt>
<pdfrwt beam="2">  1       -2 0.17484989E+00 0.21987212E+04</pdfrwt>
<totfact> 0.21284188E+00</totfact>
</mgrwt>
</event>
<event>
12    4  0.4486176E-008  0.4932083E+04  0.7818608E-02  0.7839070E-01
          1   -1    0    0  501    0  0.00000000000E+00  0.00000000000E+00  0.11064745129E+04  0.11064745129E+04  0.00000000000E+00 0. -1.
         -2   -1    0    0    0  501 -0.00000000000E+00 -0.00000000000E+00 -0.54961595272E+04  0.54961595272E+04  0.00000000000E+00 0.  1.
        -24    2    1    2    0    0 -0.82630365387E+03 -0.38249978803E+03  0.82809547359E+03  0.12333455686E+04  0.79469252071E+02 0.  0.
        254    2    1    2    0    0  0.82630365387E+03  0.38249978803E+03 -0.52177804879E+04  0.53692884715E+04  0.88030770430E+03 0.  0.
         23    2    4    4    0    0 -0.11652935683E+03  0.14425727926E+03 -0.18829612941E+04  0.18943795124E+04  0.93494644606E+02 0.  0.
         23    2    4    4    0    0  0.94283301070E+03  0.23824250877E+03 -0.33348191938E+04  0.34749089591E+04  0.90992523378E+02 0.  0.
          1    1    3    3  502    0 -0.76453853830E+03 -0.34692534790E+03  0.73315465672E+03  0.11146264505E+04  0.00000000000E+00 0. -1.
         -2    1    3    3    0  502 -0.61765115569E+02 -0.35574440128E+02  0.94940816876E+02  0.11871911809E+03  0.00000000000E+00 0.  1.
         11    1    5    5    0    0 -0.12652420714E+03  0.14708100715E+03 -0.16824634252E+04  0.16936128173E+04  0.00000000000E+00 0.  1.
        -11    1    5    5    0    0  0.99948503128E+01 -0.28237278955E+01 -0.20049786882E+03  0.20076669513E+03  0.00000000000E+00 0. -1.
          1    1    6    6  503    0  0.38998542309E+03  0.96197519572E+02 -0.15391446312E+04  0.15906944360E+04  0.00000000000E+00 0. -1.
         -1    1    6    6    0  503  0.55284758760E+03  0.14204498920E+03 -0.17956745626E+04  0.18842145231E+04  0.00000000000E+00 0.  1.
<mgrwt>
<rscale>  0 0.49320829E+04</rscale>
<asrwt>0</asrwt>
<pdfrwt beam="1">  1        1 0.17022685E+00 0.49320829E+04</pdfrwt>
<pdfrwt beam="2">  1       -2 0.84556300E+00 0.49320829E+04</pdfrwt>
<totfact> 0.28518269E-04</totfact>
</mgrwt>
</event>
<event>
12    4  0.4486176E-008  0.1706659E+04  0.7818608E-02  0.8757576E-01
          1   -1    0    0  501    0  0.00000000000E+00  0.00000000000E+00  0.16097621334E+04  0.16097621334E+04  0.00000000000E+00 0. -1.
         -2   -1    0    0    0  501 -0.00000000000E+00 -0.00000000000E+00 -0.45234710786E+03  0.45234710786E+03  0.00000000000E+00 0.  1.
        -24    2    1    2    0    0 -0.46180250521E+03  0.14827272684E+02  0.90557460046E+03  0.10203181237E+04  0.86615903015E+02 0.  0.
        254    2    1    2    0    0  0.46180250521E+03 -0.14827272684E+02  0.25184042505E+03  0.10417911176E+04  0.89912386862E+03 0.  0.
         23    2    4    4    0    0 -0.66927995105E+02 -0.35663932581E+03  0.10132447577E+03  0.38838798813E+03  0.94380160469E+02 0.  0.
         23    2    4    4    0    0  0.52873050031E+03  0.34181205313E+03  0.15051594928E+03  0.65340312943E+03  0.88821038844E+02 0.  0.
          3    1    3    3  502    0 -0.42679832637E+03 -0.82758461528E+01  0.80104981293E+03  0.90769273645E+03  0.00000000000E+00 0. -1.
         -4    1    3    3    0  502 -0.35004178838E+02  0.23103118837E+02  0.10452478753E+03  0.11262538721E+03  0.00000000000E+00 0.  1.
         11    1    5    5    0    0 -0.33946955388E+02 -0.23518637724E+03  0.19818595028E+02  0.23844874613E+03  0.00000000000E+00 0. -1.
        -11    1    5    5    0    0 -0.32981039717E+02 -0.12145294857E+03  0.81505880744E+02  0.14993924200E+03  0.00000000000E+00 0.  1.
          4    1    6    6  503    0  0.41491570979E+03  0.26554792907E+03  0.15469862366E+03  0.51633556243E+03  0.00000000000E+00 0. -1.
         -4    1    6    6    0  503  0.11381479052E+03  0.76264124054E+02 -0.41826743837E+01  0.13706756700E+03  0.00000000000E+00 0.  1.
<mgrwt>
<rscale>  0 0.17066590E+04</rscale>
<asrwt>0</asrwt>
<pdfrwt beam="1">  1        1 0.24765571E+00 0.17066590E+04</pdfrwt>
<pdfrwt beam="2">  1       -2 0.69591863E-01 0.17066590E+04</pdfrwt>
<totfact> 0.86353775E+00</totfact>
</mgrwt>
</event>
<event>
12    4  0.4486176E-008  0.1372894E+04  0.7818608E-02  0.8973677E-01
         -2   -1    0    0    0  501 -0.00000000000E+00  0.00000000000E+00  0.54464955187E+03  0.54464955187E+03  0.00000000000E+00 0.  1.
          1   -1    0    0  501    0  0.00000000000E+00 -0.00000000000E+00 -0.86516037666E+03  0.86516037666E+03  0.00000000000E+00 0. -1.
        -24    2    1    2    0    0 -0.35814706482E+03 -0.30177362195E+03 -0.70214769034E+02  0.48053047257E+03  0.81503265779E+02 0.  0.
        254    2    1    2    0    0  0.35814706482E+03  0.30177362195E+03 -0.25029605576E+03  0.92927945597E+03  0.76261101016E+03 0.  0.
         23    2    4    4    0    0  0.39070481243E+03  0.33150495854E+03 -0.46034142493E+03  0.69509734679E+03  0.93275430947E+02 0.  0.
         23    2    4    4    0    0 -0.32557747614E+02 -0.29731336582E+02  0.21004536918E+03  0.23418210918E+03  0.93692282718E+02 0.  0.
          3    1    3    3  502    0 -0.65691418176E+02 -0.30555305476E+02 -0.33994387197E+02  0.80028791542E+02  0.00000000000E+00 0. -1.
         -4    1    3    3    0  502 -0.29245564664E+03 -0.27121831648E+03 -0.36220381837E+02  0.40050168103E+03  0.00000000000E+00 0.  1.
         11    1    5    5    0    0  0.30782253093E+03  0.20648439365E+03 -0.32005973929E+03  0.48972313820E+03  0.00000000000E+00 0.  1.
        -11    1    5    5    0    0  0.82882281506E+02  0.12502056488E+03 -0.14028168564E+03  0.20537420859E+03  0.00000000000E+00 0. -1.
          3    1    6    6  503    0 -0.27166874253E+02 -0.63533076511E+02  0.14751925021E+03  0.16290003085E+03  0.00000000000E+00 0. -1.
         -3    1    6    6    0  503 -0.53908733604E+01  0.33801739929E+02  0.62526118969E+02  0.71282078331E+02  0.00000000000E+00 0.  1.
<mgrwt>
<rscale>  0 0.13728936E+04</rscale>
<asrwt>0</asrwt>
<pdfrwt beam="1">  1        1 0.13310159E+00 0.13728936E+04</pdfrwt>
<pdfrwt beam="2">  1       -2 0.83792240E-01 0.13728936E+04</pdfrwt>
<totfact> 0.20731124E+01</totfact>
</mgrwt>
</event>
<event>
12    4  0.4486176E-008  0.1196319E+04  0.7818608E-02  0.9116085E-01
          3   -1    0    0  501    0  0.00000000000E+00  0.00000000000E+00  0.16712831355E+04  0.16712831355E+04  0.00000000000E+00 0. -1.
         -4   -1    0    0    0  501 -0.00000000000E+00 -0.00000000000E+00 -0.21408386665E+03  0.21408386665E+03  0.00000000000E+00 0.  1.
        -24    2    1    2    0    0  0.68926007405E+02  0.11394189353E+03  0.64475371355E+03  0.66320441755E+03  0.79994991873E+02 0.  0.
        254    2    1    2    0    0 -0.68926007405E+02 -0.11394189353E+03  0.81244555530E+03  0.12221625846E+04  0.90326078917E+03 0.  0.
         23    2    4    4    0    0 -0.22613315991E+03  0.31544841211E+03  0.57349098019E+03  0.69814945802E+03  0.88751645908E+02 0.  0.
         23    2    4    4    0    0  0.15720715250E+03 -0.42939030564E+03  0.23895457511E+03  0.52401312658E+03  0.91653393182E+02 0.  0.
          1    1    3    3  502    0  0.29506875496E+02  0.40319154394E+02  0.42821603192E+03  0.43112093420E+03  0.00000000000E+00 0. -1.
         -2    1    3    3    0  502  0.39419131909E+02  0.73622739139E+02  0.21653768163E+03  0.23208348335E+03  0.00000000000E+00 0.  1.
         11    1    5    5    0    0 -0.44875638427E+02  0.21763674480E+02  0.46368270031E+02  0.68099169722E+02  0.00000000000E+00 0.  1.
        -11    1    5    5    0    0 -0.18125752148E+03  0.29368473763E+03  0.52712271016E+03  0.63005028829E+03  0.00000000000E+00 0. -1.
          3    1    6    6  503    0  0.14538347692E+03 -0.42835180654E+03  0.24003974217E+03  0.51209442816E+03  0.00000000000E+00 0. -1.
         -3    1    6    6    0  503  0.11823675576E+02 -0.10384991029E+01 -0.10851670570E+01  0.11918698421E+02  0.00000000000E+00 0.  1.
<mgrwt>
<rscale>  0 0.11963189E+04</rscale>
<asrwt>0</asrwt>
<pdfrwt beam="1">  1        3 0.25712047E+00 0.11963189E+04</pdfrwt>
<pdfrwt beam="2">  1       -4 0.32935981E-01 0.11963189E+04</pdfrwt>
<totfact> 0.13720071E+00</totfact>
</mgrwt>
</event>
<event>
12    4  0.4486176E-008  0.2927077E+04  0.7818608E-02  0.8264867E-01
          1   -1    0    0  501    0  0.00000000000E+00  0.00000000000E+00  0.23604987035E+04  0.23604987035E+04  0.00000000000E+00 0. -1.
         -2   -1    0    0    0  501 -0.00000000000E+00 -0.00000000000E+00 -0.90741173965E+03  0.90741173965E+03  0.00000000000E+00 0.  1.
        -24    2    1    2    0    0  0.12354683397E+04  0.13040111652E+03  0.11397927089E+04  0.16879302919E+04  0.81208261394E+02 0.  0.
        254    2    1    2    0    0 -0.12354683397E+04 -0.13040111652E+03  0.31329425501E+03  0.15799801512E+04  0.92455260459E+03 0.  0.
         23    2    4    4    0    0 -0.26965208534E+03 -0.42581170824E+03  0.23325440248E+03  0.56265721962E+03  0.90264458774E+02 0.  0.
         23    2    4    4    0    0 -0.96581625431E+03  0.29541059172E+03  0.80039852529E+02  0.10173229316E+04  0.92038657237E+02 0.  0.
          3    1    3    3  502    0  0.10177972299E+04  0.11767667742E+03  0.89880424661E+03  0.13629409655E+04  0.00000000000E+00 0. -1.
         -4    1    3    3    0  502  0.21767110972E+03  0.12724439102E+02  0.24098846225E+03  0.32498932643E+03  0.00000000000E+00 0.  1.
         11    1    5    5    0    0 -0.22987156744E+03 -0.40817627665E+03  0.21094705433E+03  0.51375818249E+03  0.00000000000E+00 0. -1.
        -11    1    5    5    0    0 -0.39780517901E+02 -0.17635431584E+02  0.22307348143E+02  0.48899037136E+02  0.00000000000E+00 0.  1.
          4    1    6    6  503    0 -0.88698788277E+03  0.25309265203E+03  0.53235981338E+02  0.92392503181E+03  0.00000000000E+00 0. -1.
         -4    1    6    6    0  503 -0.78828371541E+02  0.42317939692E+02  0.26803871190E+02  0.93397899818E+02  0.00000000000E+00 0.  1.
<mgrwt>
<rscale>  0 0.29270765E+04</rscale>
<asrwt>0</asrwt>
<pdfrwt beam="1">  1        1 0.36315365E+00 0.29270765E+04</pdfrwt>
<pdfrwt beam="2">  1       -2 0.13960181E+00 0.29270765E+04</pdfrwt>
<totfact> 0.46086730E-01</totfact>
</mgrwt>
</event>
<event>
12    4  0.4486176E-008  0.2060989E+04  0.7818608E-02  0.8578625E-01
          1   -1    0    0  501    0  0.00000000000E+00  0.00000000000E+00  0.95662236664E+03  0.95662236664E+03  0.00000000000E+00 0. -1.
         -2   -1    0    0    0  501 -0.00000000000E+00 -0.00000000000E+00 -0.11100710733E+04  0.11100710733E+04  0.00000000000E+00 0.  1.
        -24    2    1    2    0    0 -0.59706623115E+03  0.50918113199E+03  0.17817750391E+03  0.80855824646E+03  0.79156209189E+02 0.  0.
        254    2    1    2    0    0  0.59706623115E+03 -0.50918113199E+03 -0.33162621059E+03  0.12581351935E+04  0.92583730321E+03 0.  0.
         23    2    4    4    0    0  0.29540781756E+02 -0.55016291839E+03 -0.38680833340E+03  0.67928877099E+03  0.90888134817E+02 0.  0.
         23    2    4    4    0    0  0.56752544940E+03  0.40981786398E+02  0.55182122802E+02  0.57884642251E+03  0.90848619385E+02 0.  0.
          1    1    3    3  502    0 -0.41186970184E+03  0.36668655674E+03  0.89698260081E+02  0.55869621446E+03  0.00000000000E+00 0. -1.
         -2    1    3    3    0  502 -0.18519652931E+03  0.14249457525E+03  0.88479243833E+02  0.24986203200E+03  0.00000000000E+00 0.  1.
         11    1    5    5    0    0  0.36055668615E+02 -0.21732194416E+03 -0.10945118933E+03  0.24598455541E+03  0.00000000000E+00 0. -1.
        -11    1    5    5    0    0 -0.65148868598E+01 -0.33284097423E+03 -0.27735714407E+03  0.43330421558E+03  0.00000000000E+00 0.  1.
          4    1    6    6  503    0  0.13883852474E+03 -0.28477831798E+02  0.20212139326E+02  0.14316303096E+03  0.00000000000E+00 0. -1.
         -4    1    6    6    0  503  0.42868692465E+03  0.69459618196E+02  0.34969983476E+02  0.43568339155E+03  0.00000000000E+00 0.  1.
<mgrwt>
<rscale>  0 0.20609889E+04</rscale>
<asrwt>0</asrwt>
<pdfrwt beam="1">  1        1 0.14717267E+00 0.20609889E+04</pdfrwt>
<pdfrwt beam="2">  1       -2 0.17078016E+00 0.20609889E+04</pdfrwt>
<totfact> 0.27865517E+00</totfact>
</mgrwt>
</event>
<event>
12    4  0.4486176E-008  0.1720432E+04  0.7818608E-02  0.8749796E-01
         -2   -1    0    0    0  501 -0.00000000000E+00  0.00000000000E+00  0.37011138352E+03  0.37011138352E+03  0.00000000000E+00 0.  1.
          1   -1    0    0  501    0  0.00000000000E+00 -0.00000000000E+00 -0.19993219127E+04  0.19993219127E+04  0.00000000000E+00 0. -1.
        -24    2    1    2    0    0 -0.15892504412E+03  0.33067626233E+03 -0.12881266187E+04  0.13417457148E+04  0.80046344990E+02 0.  0.
        254    2    1    2    0    0  0.15892504412E+03 -0.33067626233E+03 -0.34108391053E+03  0.10276875814E+04  0.89732913187E+03 0.  0.
         23    2    4    4    0    0  0.25440239821E+03 -0.45278294640E+03 -0.54314290413E+03  0.75687022211E+03  0.90085193271E+02 0.  0.
         23    2    4    4    0    0 -0.95477354082E+02  0.12210668407E+03  0.20205899360E+03  0.27081735933E+03  0.92131632929E+02 0.  0.
          1    1    3    3  502    0 -0.10722717600E+03  0.29086981685E+03 -0.10445359735E+04  0.10895679500E+04  0.00000000000E+00 0. -1.
         -2    1    3    3    0  502 -0.51697868129E+02  0.39806445479E+02 -0.24359064516E+03  0.25217776484E+03  0.00000000000E+00 0.  1.
         11    1    5    5    0    0  0.11067751079E+03 -0.21641085745E+03 -0.31760126796E+03  0.39994216585E+03  0.00000000000E+00 0.  1.
        -11    1    5    5    0    0  0.14372488742E+03 -0.23637208895E+03 -0.22554163617E+03  0.35692805626E+03  0.00000000000E+00 0. -1.
          3    1    6    6  503    0 -0.22407168761E+02  0.57108355514E+02  0.20653994365E+02  0.64730463961E+02  0.00000000000E+00 0. -1.
         -3    1    6    6    0  503 -0.73070185321E+02  0.64998328555E+02  0.18140499923E+03  0.20608689537E+03  0.00000000000E+00 0.  1.
<mgrwt>
<rscale>  0 0.17204323E+04</rscale>
<asrwt>0</asrwt>
<pdfrwt beam="1">  1        1 0.30758799E+00 0.17204323E+04</pdfrwt>
<pdfrwt beam="2">  1       -2 0.56940212E-01 0.17204323E+04</pdfrwt>
<totfact> 0.71971148E+00</totfact>
</mgrwt>
</event>
<event>
12    4  0.4486176E-008  0.2328716E+04  0.7818608E-02  0.8466684E-01
         -2   -1    0    0    0  501 -0.00000000000E+00  0.00000000000E+00  0.28568297473E+04  0.28568297473E+04  0.00000000000E+00 0.  1.
          1   -1    0    0  501    0  0.00000000000E+00 -0.00000000000E+00 -0.47455743180E+03  0.47455743180E+03  0.00000000000E+00 0. -1.
        -24    2    1    2    0    0 -0.83588543551E+03 -0.46541743781E+03  0.65601491336E+03  0.11628257811E+04  0.80562882096E+02 0.  0.
        254    2    1    2    0    0  0.83588543551E+03  0.46541743781E+03  0.17262574022E+04  0.21685613980E+04  0.89854107623E+03 0.  0.
         23    2    4    4    0    0 -0.41761531540E+02 -0.37606386767E+02  0.75906368542E+03  0.76565502542E+03  0.83016104380E+02 0.  0.
         23    2    4    4    0    0  0.87764696705E+03  0.50302382457E+03  0.96719371674E+03  0.14029063726E+04  0.96878468517E+02 0.  0.
          1    1    3    3  502    0 -0.59415881735E+03 -0.28903262065E+03  0.46069135410E+03  0.80548189289E+03  0.00000000000E+00 0. -1.
         -2    1    3    3    0  502 -0.24172661816E+03 -0.17638481716E+03  0.19532355925E+03  0.35734388822E+03  0.00000000000E+00 0.  1.
         11    1    5    5    0    0  0.20350823385E+02  0.33687564950E+01  0.83694579640E+02  0.86199113649E+02  0.00000000000E+00 0. -1.
        -11    1    5    5    0    0 -0.62112354924E+02 -0.40975143262E+02  0.67536910578E+03  0.67945591177E+03  0.00000000000E+00 0.  1.
          4    1    6    6  503    0  0.11313151117E+02 -0.88912801736E+00  0.20789759762E+01  0.11536900707E+02  0.00000000000E+00 0. -1.
         -4    1    6    6    0  503  0.86633381594E+03  0.50391295259E+03  0.96511474076E+03  0.13913694719E+04  0.00000000000E+00 0.  1.
<mgrwt>
<rscale>  0 0.23287162E+04</rscale>
<asrwt>0</asrwt>
<pdfrwt beam="1">  1        1 0.73008838E-01 0.23287162E+04</pdfrwt>
<pdfrwt beam="2">  1       -2 0.43951226E+00 0.23287162E+04</pdfrwt>
<totfact> 0.15318410E-01</totfact>
</mgrwt>
</event>
<event>
12    4  0.4486176E-008  0.1643921E+04  0.7818608E-02  0.8794011E-01
          1   -1    0    0  501    0  0.00000000000E+00  0.00000000000E+00  0.21785618748E+04  0.21785618748E+04  0.00000000000E+00 0. -1.
         -2   -1    0    0    0  501 -0.00000000000E+00 -0.00000000000E+00 -0.31012139835E+03  0.31012139835E+03  0.00000000000E+00 0.  1.
        -24    2    1    2    0    0 -0.40656965950E+03 -0.11557560769E+02  0.23981156170E+02  0.41509897760E+03  0.79370020267E+02 0.  0.
        254    2    1    2    0    0  0.40656965950E+03  0.11557560769E+02  0.18444593202E+04  0.20735842955E+04  0.85573896799E+03 0.  0.
         23    2    4    4    0    0 -0.19542146072E+03  0.18230959320E+03  0.34512395989E+03  0.44628400673E+03  0.92911419593E+02 0.  0.
         23    2    4    4    0    0  0.60199112022E+03 -0.17075203243E+03  0.14993353604E+04  0.16273002888E+04  0.92466976172E+02 0.  0.
          3    1    3    3  502    0 -0.15021605231E+03 -0.29375192945E+02  0.38124863335E+02  0.15773797747E+03  0.00000000000E+00 0. -1.
         -4    1    3    3    0  502 -0.25635360720E+03  0.17817632177E+02 -0.14143707164E+02  0.25736100014E+03  0.00000000000E+00 0.  1.
         11    1    5    5    0    0 -0.10495884330E+03  0.86225291335E+02  0.10277892968E+03  0.17033692506E+03  0.00000000000E+00 0. -1.
        -11    1    5    5    0    0 -0.90462617417E+02  0.96084301861E+02  0.24234503021E+03  0.27594708167E+03  0.00000000000E+00 0.  1.
          3    1    6    6  503    0  0.39438095613E+03 -0.76605756858E+02  0.10285521144E+04  0.11042301538E+04  0.00000000000E+00 0. -1.
         -3    1    6    6    0  503  0.20761016409E+03 -0.94146275569E+02  0.47078324592E+03  0.52307013495E+03  0.00000000000E+00 0.  1.
<mgrwt>
<rscale>  0 0.16439205E+04</rscale>
<asrwt>0</asrwt>
<pdfrwt beam="1">  1        1 0.33516335E+00 0.16439205E+04</pdfrwt>
<pdfrwt beam="2">  1       -2 0.47710986E-01 0.16439205E+04</pdfrwt>
<totfact> 0.78793359E+00</totfact>
</mgrwt>
</event>
<event>
12    4  0.4486176E-008  0.2747995E+04  0.7818608E-02  0.8319598E-01
          1   -1    0    0  501    0  0.00000000000E+00  0.00000000000E+00  0.14453378769E+04  0.14453378769E+04  0.00000000000E+00 0. -1.
         -2   -1    0    0    0  501 -0.00000000000E+00 -0.00000000000E+00 -0.13061780383E+04  0.13061780383E+04  0.00000000000E+00 0.  1.
        -24    2    1    2    0    0  0.48172537022E+03  0.70452507039E+02  0.11882542405E+04  0.12872464150E+04  0.89623127425E+02 0.  0.
        254    2    1    2    0    0 -0.48172537022E+03 -0.70452507039E+02 -0.10490944019E+04  0.14642695002E+04  0.89803297096E+03 0.  0.
         23    2    4    4    0    0 -0.33362207808E+03 -0.68673264324E+02 -0.11868408997E+04  0.12380899963E+04  0.90861484790E+02 0.  0.
         23    2    4    4    0    0 -0.14810329214E+03 -0.17792427145E+01  0.13774649783E+03  0.22617950387E+03  0.10121916547E+03 0.  0.
          1    1    3    3  502    0  0.63363177658E+02  0.11057573300E+02  0.90975639092E+02  0.11141691576E+03  0.00000000000E+00 0. -1.
         -2    1    3    3    0  502  0.41836219256E+03  0.59394933739E+02  0.10972786014E+04  0.11758294993E+04  0.00000000000E+00 0.  1.
         11    1    5    5    0    0 -0.24961098111E+03 -0.39239020506E+02 -0.99532326297E+03  0.10268951945E+04  0.00000000000E+00 0.  1.
        -11    1    5    5    0    0 -0.84011096971E+02 -0.29434243819E+02 -0.19151763676E+03  0.21119480182E+03  0.00000000000E+00 0. -1.
          1    1    6    6  503    0 -0.54559259275E+02 -0.47648558998E+02  0.37372723358E+02  0.81509621508E+02  0.00000000000E+00 0. -1.
         -1    1    6    6    0  503 -0.93544032869E+02  0.45869316283E+02  0.10037377447E+03  0.14466988236E+03  0.00000000000E+00 0.  1.
<mgrwt>
<rscale>  0 0.27479946E+04</rscale>
<asrwt>0</asrwt>
<pdfrwt beam="1">  1        1 0.22235967E+00 0.27479946E+04</pdfrwt>
<pdfrwt beam="2">  1       -2 0.20095047E+00 0.27479946E+04</pdfrwt>
<totfact> 0.71485674E-01</totfact>
</mgrwt>
</event>
<event>
12    4  0.4486176E-008  0.1804095E+04  0.7818608E-02  0.8704125E-01
         -2   -1    0    0    0  501 -0.00000000000E+00  0.00000000000E+00  0.61882563271E+03  0.61882563271E+03  0.00000000000E+00 0.  1.
          1   -1    0    0  501    0  0.00000000000E+00 -0.00000000000E+00 -0.13148931092E+04  0.13148931092E+04  0.00000000000E+00 0. -1.
        -24    2    1    2    0    0  0.37944749584E+03  0.37204971805E+03 -0.70902320593E+03  0.88964169241E+03  0.79668309460E+02 0.  0.
        254    2    1    2    0    0 -0.37944749584E+03 -0.37204971805E+03  0.12955729432E+02  0.10440770495E+04  0.89862541671E+03 0.  0.
         23    2    4    4    0    0  0.20099832059E+03  0.11090177413E+03  0.12124276722E+03  0.27580299269E+03  0.93101846291E+02 0.  0.
         23    2    4    4    0    0 -0.58044581643E+03 -0.48295149219E+03 -0.10828703779E+03  0.76827405681E+03  0.91430050845E+02 0.  0.
          3    1    3    3  502    0  0.30019597405E+03  0.31628398141E+03 -0.53246868256E+03  0.68824129318E+03  0.00000000000E+00 0. -1.
         -4    1    3    3    0  502  0.79251521783E+02  0.55765736647E+02 -0.17655452336E+03  0.20140039923E+03  0.00000000000E+00 0.  1.
         11    1    5    5    0    0  0.13344720284E+03  0.37702419914E+02  0.10706593214E+03  0.17519344234E+03  0.00000000000E+00 0.  1.
        -11    1    5    5    0    0  0.67551117750E+02  0.73199354220E+02  0.14176835082E+02  0.10060955034E+03  0.00000000000E+00 0. -1.
          1    1    6    6  503    0 -0.40909567357E+03 -0.29624819581E+03 -0.98886134508E+02  0.51468507969E+03  0.00000000000E+00 0. -1.
         -1    1    6    6    0  503 -0.17135014286E+03 -0.18670329637E+03 -0.94009032832E+01  0.25358897712E+03  0.00000000000E+00 0.  1.
<mgrwt>
<rscale>  0 0.18040949E+04</rscale>
<asrwt>0</asrwt>
<pdfrwt beam="1">  1        1 0.20229125E+00 0.18040949E+04</pdfrwt>
<pdfrwt beam="2">  1       -2 0.95203944E-01 0.18040949E+04</pdfrwt>
<totfact> 0.67740602E+00</totfact>
</mgrwt>
</event>
<event>
12    4  0.4486176E-008  0.1174857E+04  0.7818608E-02  0.9135153E-01
         -2   -1    0    0    0  501 -0.00000000000E+00  0.00000000000E+00  0.19749980991E+03  0.19749980991E+03  0.00000000000E+00 0.  1.
          1   -1    0    0  501    0  0.00000000000E+00 -0.00000000000E+00 -0.17472028700E+04  0.17472028700E+04  0.00000000000E+00 0. -1.
        -24    2    1    2    0    0 -0.81106539067E+02  0.93771775524E+02 -0.60157579020E+03  0.61936463573E+03  0.79672480093E+02 0.  0.
        254    2    1    2    0    0  0.81106539067E+02 -0.93771775524E+02 -0.94812726991E+03  0.13253380442E+04  0.91771683805E+03 0.  0.
         23    2    4    4    0    0 -0.36253721389E+03  0.40143825167E+02 -0.69742282571E+03  0.79106074143E+03  0.79584801652E+02 0.  0.
         23    2    4    4    0    0  0.44364375296E+03 -0.13391560069E+03 -0.25070444421E+03  0.53427730276E+03  0.88579626620E+02 0.  0.
          3    1    3    3  502    0 -0.61161168671E+02  0.63919568634E+02 -0.54654114572E+03  0.55365478754E+03  0.00000000000E+00 0. -1.
         -4    1    3    3    0  502 -0.19945370396E+02  0.29852206890E+02 -0.55034644479E+02  0.65709848191E+02  0.00000000000E+00 0.  1.
         11    1    5    5    0    0 -0.35800588643E+03  0.45233015748E+02 -0.69616698748E+03  0.78413182239E+03  0.00000000000E+00 0. -1.
        -11    1    5    5    0    0 -0.45313274563E+01 -0.50891905808E+01 -0.12558382263E+01  0.69289190307E+01  0.00000000000E+00 0.  1.
          1    1    6    6  503    0  0.42154053302E+03 -0.13968865249E+03 -0.25336856350E+03  0.51127778124E+03  0.00000000000E+00 0. -1.
         -1    1    6    6    0  503  0.22103219936E+02  0.57730518007E+01  0.26641192964E+01  0.22999521523E+02  0.00000000000E+00 0.  1.
<mgrwt>
<rscale>  0 0.11748570E+04</rscale>
<asrwt>0</asrwt>
<pdfrwt beam="1">  1        1 0.26880046E+00 0.11748570E+04</pdfrwt>
<pdfrwt beam="2">  1       -2 0.30384584E-01 0.11748570E+04</pdfrwt>
<totfact> 0.38587061E+01</totfact>
</mgrwt>
</event>
<event>
12    4  0.4486176E-008  0.1574846E+04  0.7818608E-02  0.8836152E-01
          1   -1    0    0  501    0  0.00000000000E+00  0.00000000000E+00  0.13141986925E+04  0.13141986925E+04  0.00000000000E+00 0. -1.
         -2   -1    0    0    0  501 -0.00000000000E+00 -0.00000000000E+00 -0.47179706095E+03  0.47179706095E+03  0.00000000000E+00 0.  1.
        -24    2    1    2    0    0 -0.55985524033E+02  0.12125399529E+03 -0.28667289713E+03  0.32835630254E+03  0.88315350831E+02 0.  0.
        254    2    1    2    0    0  0.55985524033E+02 -0.12125399529E+03  0.11290745287E+04  0.14576394509E+04  0.91217682893E+03 0.  0.
         23    2    4    4    0    0  0.35411799311E+03 -0.37020242352E+03  0.58905990511E+03  0.78622397253E+03  0.93312248655E+02 0.  0.
         23    2    4    4    0    0 -0.29813246908E+03  0.24894842823E+03  0.54001462360E+03  0.67141547840E+03  0.91239585152E+02 0.  0.
          3    1    3    3  502    0 -0.63218038740E+02  0.63153308756E+02 -0.10711418356E+03  0.13949304337E+03  0.00000000000E+00 0. -1.
         -4    1    3    3    0  502  0.72325147067E+01  0.58100686534E+02 -0.17955871357E+03  0.18886325917E+03  0.00000000000E+00 0.  1.
         11    1    5    5    0    0  0.24729080533E+03 -0.20197669339E+03  0.39690734975E+03  0.50939451445E+03  0.00000000000E+00 0. -1.
        -11    1    5    5    0    0  0.10682718778E+03 -0.16822573012E+03  0.19215255536E+03  0.27682945807E+03  0.00000000000E+00 0.  1.
          3    1    6    6  503    0 -0.23470429973E+03  0.22885045506E+03  0.48331985226E+03  0.58400061531E+03  0.00000000000E+00 0. -1.
         -3    1    6    6    0  503 -0.63428169343E+02  0.20097973170E+02  0.56694771338E+02  0.87414863089E+02  0.00000000000E+00 0.  1.
<mgrwt>
<rscale>  0 0.15748461E+04</rscale>
<asrwt>0</asrwt>
<pdfrwt beam="1">  1        1 0.20218441E+00 0.15748461E+04</pdfrwt>
<pdfrwt beam="2">  1       -2 0.72584164E-01 0.15748461E+04</pdfrwt>
<totfact> 0.12795577E+01</totfact>
</mgrwt>
</event>
<event>
12    4  0.4486176E-008  0.1335299E+04  0.7818608E-02  0.9002032E-01
          1   -1    0    0  501    0  0.00000000000E+00  0.00000000000E+00  0.81694347584E+03  0.81694347584E+03  0.00000000000E+00 0. -1.
         -2   -1    0    0    0  501 -0.00000000000E+00 -0.00000000000E+00 -0.54563846186E+03  0.54563846186E+03  0.00000000000E+00 0.  1.
        -24    2    1    2    0    0  0.44816702063E+02 -0.11904713153E+03 -0.24355201411E+03  0.28642826587E+03  0.80887648040E+02 0.  0.
        254    2    1    2    0    0 -0.44816702063E+02  0.11904713153E+03  0.51485702809E+03  0.10761536718E+04  0.93640173520E+03 0.  0.
         23    2    4    4    0    0 -0.26751022744E+03 -0.32858414874E+03  0.26960575831E+03  0.51152550594E+03  0.97168995676E+02 0.  0.
         23    2    4    4    0    0  0.22269352537E+03  0.44763128027E+03  0.24525126978E+03  0.56462816588E+03  0.93223446917E+02 0.  0.
          3    1    3    3  502    0  0.56922204287E+02 -0.69134791231E+02 -0.10140592139E+03  0.13528827589E+03  0.00000000000E+00 0. -1.
         -4    1    3    3    0  502 -0.12105502224E+02 -0.49912340298E+02 -0.14214609272E+03  0.15113998998E+03  0.00000000000E+00 0.  1.
         11    1    5    5    0    0 -0.24613912146E+03 -0.27163950937E+03  0.26123558239E+03  0.45012944769E+03  0.00000000000E+00 0.  1.
        -11    1    5    5    0    0 -0.21371105971E+02 -0.56944639371E+02  0.83701759173E+01  0.61396058248E+02  0.00000000000E+00 0. -1.
          4    1    6    6  503    0  0.20045438532E+02  0.58353178683E+02  0.66613244846E+02  0.90797783328E+02  0.00000000000E+00 0. -1.
         -4    1    6    6    0  503  0.20264808684E+03  0.38927810159E+03  0.17863802493E+03  0.47383038255E+03  0.00000000000E+00 0.  1.
<mgrwt>
<rscale>  0 0.13352989E+04</rscale>
<asrwt>0</asrwt>
<pdfrwt beam="1">  1        1 0.12568361E+00 0.13352989E+04</pdfrwt>
<pdfrwt beam="2">  1       -2 0.83944379E-01 0.13352989E+04</pdfrwt>
<totfact> 0.22751195E+01</totfact>
</mgrwt>
</event>
<event>
12    4  0.4486176E-008  0.1136329E+04  0.7818608E-02  0.9170489E-01
          1   -1    0    0  501    0  0.00000000000E+00  0.00000000000E+00  0.74511292605E+03  0.74511292605E+03  0.00000000000E+00 0. -1.
         -2   -1    0    0    0  501 -0.00000000000E+00 -0.00000000000E+00 -0.43323752423E+03  0.43323752423E+03  0.00000000000E+00 0.  1.
        -24    2    1    2    0    0  0.55528011783E+01  0.55768246745E+02  0.28747041863E+03  0.30339014807E+03  0.79154339200E+02 0.  0.
        254    2    1    2    0    0 -0.55528011783E+01 -0.55768246745E+02  0.24404983196E+02  0.87496030222E+03  0.87282243114E+03 0.  0.
         23    2    4    4    0    0  0.33451210122E+03 -0.96815344701E+02 -0.23993966220E+03  0.43309856363E+03  0.93443926968E+02 0.  0.
         23    2    4    4    0    0 -0.34006490240E+03  0.41047097956E+02  0.26434464540E+03  0.44186173859E+03  0.89636501413E+02 0.  0.
          3    1    3    3  502    0  0.10767154013E+02  0.20460432754E+02  0.25204442177E+03  0.25310265004E+03  0.00000000000E+00 0. -1.
         -4    1    3    3    0  502 -0.52143528344E+01  0.35307813991E+02  0.35425996855E+02  0.50287498024E+02  0.00000000000E+00 0.  1.
         11    1    5    5    0    0  0.20621782368E+01  0.64943548069E+01 -0.20439136822E+02  0.21545011893E+02  0.00000000000E+00 0.  1.
        -11    1    5    5    0    0  0.33244992298E+03 -0.10330969951E+03 -0.21950052538E+03  0.41155355173E+03  0.00000000000E+00 0. -1.
          3    1    6    6  503    0 -0.28128013388E+03  0.23076075467E+02  0.17066337910E+03  0.32981359575E+03  0.00000000000E+00 0. -1.
         -3    1    6    6    0  503 -0.58784768514E+02  0.17971022490E+02  0.93681266295E+02  0.11204814284E+03  0.00000000000E+00 0.  1.
<mgrwt>
<rscale>  0 0.11363290E+04</rscale>
<asrwt>0</asrwt>
<pdfrwt beam="1">  1        1 0.11463276E+00 0.11363290E+04</pdfrwt>
<pdfrwt beam="2">  1       -2 0.66651927E-01 0.11363290E+04</pdfrwt>
<totfact> 0.44571265E+01</totfact>
</mgrwt>
</event>
<event>
12    4  0.4486176E-008  0.1725748E+04  0.7818608E-02  0.8746814E-01
          1   -1    0    0  501    0  0.00000000000E+00  0.00000000000E+00  0.26081591964E+04  0.26081591964E+04  0.00000000000E+00 0. -1.
         -2   -1    0    0    0  501 -0.00000000000E+00 -0.00000000000E+00 -0.28546999837E+03  0.28546999837E+03  0.00000000000E+00 0.  1.
        -24    2    1    2    0    0 -0.13768203305E+03  0.60880021383E+03  0.74911070193E+03  0.97839863438E+03  0.80641189387E+02 0.  0.
        254    2    1    2    0    0  0.13768203305E+03 -0.60880021383E+03  0.15735784961E+04  0.19152305603E+04  0.89574816409E+03 0.  0.
         23    2    4    4    0    0  0.21491222996E+03 -0.87148398272E+02 -0.34719768289E+01  0.24985865601E+03  0.92925687802E+02 0.  0.
         23    2    4    4    0    0 -0.77230196910E+02 -0.52165181556E+03  0.15770504729E+04  0.16653719043E+04  0.91050896457E+02 0.  0.
          3    1    3    3  502    0 -0.67905586334E+02  0.16367626681E+03  0.24367722168E+03  0.30129666002E+03  0.00000000000E+00 0. -1.
         -4    1    3    3    0  502 -0.69776446716E+02  0.44512394702E+03  0.50543348025E+03  0.67710197436E+03  0.00000000000E+00 0.  1.
         11    1    5    5    0    0  0.45540704949E+02 -0.64417250924E+01  0.35666231262E+02  0.58202505804E+02  0.00000000000E+00 0. -1.
        -11    1    5    5    0    0  0.16937152501E+03 -0.80706673180E+02 -0.39138208090E+02  0.19165615021E+03  0.00000000000E+00 0.  1.
          4    1    6    6  503    0 -0.10846666283E+02 -0.22132197171E+03  0.54077079693E+03  0.58440920608E+03  0.00000000000E+00 0. -1.
         -4    1    6    6    0  503 -0.66383530627E+02 -0.30032984384E+03  0.10362796759E+04  0.10809626983E+04  0.00000000000E+00 0.  1.
<mgrwt>
<rscale>  0 0.17257476E+04</rscale>
<asrwt>0</asrwt>
<pdfrwt beam="1">  1        1 0.40125525E+00 0.17257476E+04</pdfrwt>
<pdfrwt beam="2">  1       -2 0.43918463E-01 0.17257476E+04</pdfrwt>
<totfact> 0.46774658E+00</totfact>
</mgrwt>
</event>
<event>
12    4  0.4486176E-008  0.1388215E+04  0.7818608E-02  0.8962393E-01
         -2   -1    0    0    0  501 -0.00000000000E+00  0.00000000000E+00  0.60692344914E+03  0.60692344914E+03  0.00000000000E+00 0.  1.
          1   -1    0    0  501    0  0.00000000000E+00 -0.00000000000E+00 -0.79381598100E+03  0.79381598100E+03  0.00000000000E+00 0. -1.
        -24    2    1    2    0    0 -0.24747671696E+02 -0.36118435360E+03  0.11278677264E+03  0.38711345821E+03  0.77906282832E+02 0.  0.
        254    2    1    2    0    0  0.24747671696E+02  0.36118435360E+03 -0.29967930450E+03  0.10136259719E+04  0.89808871549E+03 0.  0.
         23    2    4    4    0    0 -0.81190623040E+02 -0.19982664587E+03 -0.36307543242E+03  0.43185705093E+03  0.90300261049E+02 0.  0.
         23    2    4    4    0    0  0.10593829474E+03  0.56101099946E+03  0.63396127915E+02  0.58176892100E+03  0.92085528696E+02 0.  0.
          3    1    3    3  502    0  0.69511242857E+01  0.75153213405E+00  0.24252861627E+01  0.74003339354E+01  0.00000000000E+00 0. -1.
         -4    1    3    3    0  502 -0.31698795982E+02 -0.36193588573E+03  0.11036148648E+03  0.37971312427E+03  0.00000000000E+00 0.  1.
         11    1    5    5    0    0 -0.38471825864E+02 -0.17655566290E+03 -0.24735363971E+03  0.30632630734E+03  0.00000000000E+00 0. -1.
        -11    1    5    5    0    0 -0.42718797177E+02 -0.23270982965E+02 -0.11572179270E+03  0.12553074359E+03  0.00000000000E+00 0.  1.
          3    1    6    6  503    0  0.20111611618E+02  0.34835753410E+03  0.34636968247E+02  0.35065248902E+03  0.00000000000E+00 0. -1.
         -3    1    6    6    0  503  0.85826683119E+02  0.21265346536E+03  0.28759159668E+02  0.23111643198E+03  0.00000000000E+00 0.  1.
<mgrwt>
<rscale>  0 0.13882154E+04</rscale>
<asrwt>0</asrwt>
<pdfrwt beam="1">  1        1 0.12212553E+00 0.13882154E+04</pdfrwt>
<pdfrwt beam="2">  1       -2 0.93372839E-01 0.13882154E+04</pdfrwt>
<totfact> 0.18574423E+01</totfact>
</mgrwt>
</event>
<event>
12    4  0.4486176E-008  0.2503203E+04  0.7818608E-02  0.8401845E-01
          1   -1    0    0  501    0  0.00000000000E+00  0.00000000000E+00  0.11009240697E+04  0.11009240697E+04  0.00000000000E+00 0. -1.
         -2   -1    0    0    0  501 -0.00000000000E+00 -0.00000000000E+00 -0.14229012735E+04  0.14229012735E+04  0.00000000000E+00 0.  1.
        -24    2    1    2    0    0  0.94061111340E+03 -0.11632469913E+03  0.39996722606E+03  0.10317799508E+04  0.79469381936E+02 0.  0.
        254    2    1    2    0    0 -0.94061111340E+03  0.11632469913E+03 -0.72194442984E+03  0.14920453924E+04  0.89817314078E+03 0.  0.
         23    2    4    4    0    0 -0.85084739239E+03 -0.76916103260E+02 -0.86205203887E+03  0.12170516925E+04  0.90684797065E+02 0.  0.
         23    2    4    4    0    0 -0.89763721008E+02  0.19324080239E+03  0.14010760903E+03  0.27499369987E+03  0.10291676025E+03 0.  0.
          1    1    3    3  502    0  0.14740090282E+03 -0.99759385380E+01  0.93277147579E+02  0.17472026717E+03  0.00000000000E+00 0. -1.
         -2    1    3    3    0  502  0.79321021058E+03 -0.10634876060E+03  0.30669007848E+03  0.85705968363E+03  0.00000000000E+00 0.  1.
         11    1    5    5    0    0 -0.45365952949E+02  0.56708132617E+01 -0.23595715995E+02  0.51448864160E+02  0.00000000000E+00 0. -1.
        -11    1    5    5    0    0 -0.80548143944E+03 -0.82586916522E+02 -0.83845632287E+03  0.11656028283E+04  0.00000000000E+00 0.  1.
          4    1    6    6  503    0 -0.10146603078E+03  0.19423237652E+03  0.11546786760E+03  0.24769820334E+03  0.00000000000E+00 0.  1.
         -4    1    6    6    0  503  0.11702309768E+02 -0.99157412692E+00  0.24639741424E+02  0.27295496526E+02  0.00000000000E+00 0. -1.
<mgrwt>
<rscale>  0 0.25032030E+04</rscale>
<asrwt>0</asrwt>
<pdfrwt beam="1">  1        1 0.16937293E+00 0.25032030E+04</pdfrwt>
<pdfrwt beam="2">  1       -2 0.21890789E+00 0.25032030E+04</pdfrwt>
<totfact> 0.99038011E-01</totfact>
</mgrwt>
</event>
<event>
12    4  0.4486176E-008  0.1521349E+04  0.7818608E-02  0.8870379E-01
          1   -1    0    0  501    0  0.00000000000E+00  0.00000000000E+00  0.13951647369E+04  0.13951647369E+04  0.00000000000E+00 0. -1.
         -2   -1    0    0    0  501 -0.00000000000E+00 -0.00000000000E+00 -0.41473667478E+03  0.41473667478E+03  0.00000000000E+00 0.  1.
        -24    2    1    2    0    0  0.23079537685E+03 -0.13855763081E+02  0.82956440894E+03  0.86654083438E+03  0.96215492114E+02 0.  0.
        254    2    1    2    0    0 -0.23079537685E+03  0.13855763081E+02  0.15086365318E+03  0.94336057730E+03  0.90205922689E+03 0.  0.
         23    2    4    4    0    0  0.33617571879E+03  0.10139745864E+02 -0.24389217656E+01  0.34891336379E+03  0.92831345684E+02 0.  0.
         23    2    4    4    0    0 -0.56697109564E+03  0.37160172173E+01  0.15330257495E+03  0.59444721351E+03  0.91628478625E+02 0.  0.
          3    1    3    3  502    0  0.11643476589E+03  0.41111011659E+02  0.39909047250E+03  0.41775635869E+03  0.00000000000E+00 0. -1.
         -4    1    3    3    0  502  0.11436061096E+03 -0.54966774741E+02  0.43047393645E+03  0.44878447569E+03  0.00000000000E+00 0.  1.
         11    1    5    5    0    0  0.17933769686E+03  0.51636363449E+02  0.15378978017E+01  0.18662981722E+03  0.00000000000E+00 0.  1.
        -11    1    5    5    0    0  0.15683802193E+03 -0.41496617585E+02 -0.39768195673E+01  0.16228354657E+03  0.00000000000E+00 0. -1.
          2    1    6    6  503    0 -0.49028843234E+03  0.15558488121E+00  0.98389813677E+02  0.50006332252E+03  0.00000000000E+00 0. -1.
         -2    1    6    6    0  503 -0.76682663300E+02  0.35604323361E+01  0.54912761271E+02  0.94383890996E+02  0.00000000000E+00 0.  1.
<mgrwt>
<rscale>  0 0.15213494E+04</rscale>
<asrwt>0</asrwt>
<pdfrwt beam="1">  1        1 0.21464073E+00 0.15213494E+04</pdfrwt>
<pdfrwt beam="2">  1       -2 0.63805643E-01 0.15213494E+04</pdfrwt>
<totfact> 0.14903944E+01</totfact>
</mgrwt>
</event>
<event>
12    4  0.4486176E-008  0.1278463E+04  0.7818608E-02  0.9046821E-01
         -2   -1    0    0    0  501 -0.00000000000E+00  0.00000000000E+00  0.49794989027E+03  0.49794989027E+03  0.00000000000E+00 0.  1.
          1   -1    0    0  501    0  0.00000000000E+00 -0.00000000000E+00 -0.82059847603E+03  0.82059847603E+03  0.00000000000E+00 0. -1.
        -24    2    1    2    0    0 -0.32932157517E+02  0.22359004735E+03  0.14404499450E+03  0.28377788442E+03  0.93294645998E+02 0.  0.
        254    2    1    2    0    0  0.32932157517E+02 -0.22359004735E+03 -0.46669358026E+03  0.10347704819E+04  0.89547195157E+03 0.  0.
         23    2    4    4    0    0  0.57735419519E+02  0.33669882347E+03 -0.21026381973E+03  0.41148904962E+03  0.91721794989E+02 0.  0.
         23    2    4    4    0    0 -0.24803262002E+02 -0.56028887082E+03 -0.25642976053E+03  0.62328143226E+03  0.90469338116E+02 0.  0.
          3    1    3    3  502    0 -0.43982453913E+02  0.16352987738E+03  0.59512661035E+02  0.17949438396E+03  0.00000000000E+00 0. -1.
         -4    1    3    3    0  502  0.11050296397E+02  0.60060169963E+02  0.84532333467E+02  0.10428350046E+03  0.00000000000E+00 0.  1.
         11    1    5    5    0    0 -0.18988598854E+02  0.46986281836E+02 -0.11798937595E+02  0.52033570852E+02  0.00000000000E+00 0. -1.
        -11    1    5    5    0    0  0.76724018373E+02  0.28971254164E+03 -0.19846488214E+03  0.35945547877E+03  0.00000000000E+00 0.  1.
          1    1    6    6  503    0 -0.43902714374E+02 -0.44579029996E+03 -0.17239440365E+03  0.47997528090E+03  0.00000000000E+00 0.  1.
         -1    1    6    6    0  503  0.19099452372E+02 -0.11449857086E+03 -0.84035356878E+02  0.14330615135E+03  0.00000000000E+00 0. -1.
<mgrwt>
<rscale>  0 0.12784630E+04</rscale>
<asrwt>0</asrwt>
<pdfrwt beam="1">  1        1 0.12624592E+00 0.12784630E+04</pdfrwt>
<pdfrwt beam="2">  1       -2 0.76607677E-01 0.12784630E+04</pdfrwt>
<totfact> 0.27873196E+01</totfact>
</mgrwt>
</event>
<event>
12    4  0.4486176E-008  0.1576976E+04  0.7818608E-02  0.8834819E-01
          1   -1    0    0  501    0  0.00000000000E+00  0.00000000000E+00  0.53310156982E+03  0.53310156982E+03  0.00000000000E+00 0. -1.
         -2   -1    0    0    0  501 -0.00000000000E+00 -0.00000000000E+00 -0.11662190080E+04  0.11662190080E+04  0.00000000000E+00 0.  1.
        -24    2    1    2    0    0 -0.98500970864E+02  0.32080271090E+03  0.22090995685E+03  0.40846449709E+03  0.73656063994E+02 0.  0.
        254    2    1    2    0    0  0.98500970864E+02 -0.32080271090E+03 -0.85402739507E+03  0.12908560808E+04  0.90792610335E+03 0.  0.
         23    2    4    4    0    0  0.46310094949E+03 -0.98116003399E+02 -0.65079473102E+03  0.80888848105E+03  0.81716297684E+02 0.  0.
         23    2    4    4    0    0 -0.36459997862E+03 -0.22268670750E+03 -0.20323266405E+03  0.48196759972E+03  0.92014875606E+02 0.  0.
          3    1    3    3  502    0 -0.96075381387E+02  0.19154359937E+03  0.13704361335E+03  0.25436269642E+03  0.00000000000E+00 0. -1.
         -4    1    3    3    0  502 -0.24255894769E+01  0.12925911153E+03  0.83866343503E+02  0.15410180067E+03  0.00000000000E+00 0.  1.
         11    1    5    5    0    0  0.11258787418E+02 -0.12113196778E+02 -0.77116428704E+01  0.18247171454E+02  0.00000000000E+00 0.  1.
        -11    1    5    5    0    0  0.45184216207E+03 -0.86002806621E+02 -0.64308308815E+03  0.79064130959E+03  0.00000000000E+00 0. -1.
          4    1    6    6  503    0 -0.36278222765E+03 -0.21323012050E+03 -0.20990391585E+03  0.47025278615E+03  0.00000000000E+00 0. -1.
         -4    1    6    6    0  503 -0.18177509716E+01 -0.94565870001E+01  0.66712518085E+01  0.11714813570E+02  0.00000000000E+00 0.  1.
<mgrwt>
<rscale>  0 0.15769758E+04</rscale>
<asrwt>0</asrwt>
<pdfrwt beam="1">  1        1 0.82015626E-01 0.15769758E+04</pdfrwt>
<pdfrwt beam="2">  1       -2 0.17941831E+00 0.15769758E+04</pdfrwt>
<totfact> 0.62332991E+00</totfact>
</mgrwt>
</event>
<event>
12    4  0.4486176E-008  0.1440586E+04  0.7818608E-02  0.8924953E-01
         -2   -1    0    0    0  501 -0.00000000000E+00  0.00000000000E+00  0.76721396789E+03  0.76721396789E+03  0.00000000000E+00 0.  1.
          1   -1    0    0  501    0  0.00000000000E+00 -0.00000000000E+00 -0.67624193279E+03  0.67624193279E+03  0.00000000000E+00 0. -1.
        -24    2    1    2    0    0  0.18430709103E+03  0.37638296244E+03  0.13406267277E+03  0.44748425268E+03  0.81462371361E+02 0.  0.
        254    2    1    2    0    0 -0.18430709103E+03 -0.37638296244E+03 -0.43090637675E+02  0.99597164800E+03  0.90247962988E+03 0.  0.
         23    2    4    4    0    0  0.11844282720E+03  0.14441877250E+03 -0.27408097267E+03  0.34458547214E+03  0.93452035117E+02 0.  0.
         23    2    4    4    0    0 -0.30274991823E+03 -0.52080173494E+03  0.23099033499E+03  0.65138617585E+03  0.89752187347E+02 0.  0.
          1    1    3    3  502    0  0.61974993714E+02  0.65984151593E+02  0.50024708470E+02  0.10342765377E+03  0.00000000000E+00 0. -1.
         -2    1    3    3    0  502  0.12233209731E+03  0.31039881084E+03  0.84037964303E+02  0.34405659890E+03  0.00000000000E+00 0.  1.
         11    1    5    5    0    0  0.93185354574E+02  0.15222046860E+03 -0.25775360925E+03  0.31351475954E+03  0.00000000000E+00 0. -1.
        -11    1    5    5    0    0  0.25257472624E+02 -0.78016960992E+01 -0.16327363415E+02  0.31070712600E+02  0.00000000000E+00 0.  1.
          4    1    6    6  503    0 -0.27021739440E+03 -0.49124416497E+03  0.23354753071E+03  0.60735715930E+03  0.00000000000E+00 0. -1.
         -4    1    6    6    0  503 -0.32532523826E+02 -0.29557569970E+02 -0.25571957131E+01  0.44029016556E+02  0.00000000000E+00 0.  1.
<mgrwt>
<rscale>  0 0.14405863E+04</rscale>
<asrwt>0</asrwt>
<pdfrwt beam="1">  1        1 0.10403722E+00 0.14405863E+04</pdfrwt>
<pdfrwt beam="2">  1       -2 0.11803292E+00 0.14405863E+04</pdfrwt>
<totfact> 0.13510921E+01</totfact>
</mgrwt>
</event>
<event>
12    4  0.4486176E-008  0.1654224E+04  0.7818608E-02  0.8787912E-01
         -2   -1    0    0    0  501 -0.00000000000E+00  0.00000000000E+00  0.38817810823E+03  0.38817810823E+03  0.00000000000E+00 0.  1.
          1   -1    0    0  501    0  0.00000000000E+00 -0.00000000000E+00 -0.17623717798E+04  0.17623717798E+04  0.00000000000E+00 0. -1.
        -24    2    1    2    0    0 -0.44663411329E+03 -0.12870519144E+03  0.17453031470E+01  0.47220688564E+03  0.83242052503E+02 0.  0.
        254    2    1    2    0    0  0.44663411329E+03  0.12870519144E+03 -0.13759389747E+04  0.16783430024E+04  0.84117781360E+03 0.  0.
         23    2    4    4    0    0  0.11397530886E+03  0.29785390500E+03 -0.10307578182E+03  0.34787677200E+03  0.93200385963E+02 0.  0.
         23    2    4    4    0    0  0.33265880443E+03 -0.16914871356E+03 -0.12728631929E+04  0.13304662304E+04  0.10337560123E+03 0.  0.
          3    1    3    3  502    0 -0.32925214092E+02  0.12012912515E+02 -0.31903778564E+01  0.35193157019E+02  0.00000000000E+00 0. -1.
         -4    1    3    3    0  502 -0.41370889920E+03 -0.14071810395E+03  0.49356810034E+01  0.43701372862E+03  0.00000000000E+00 0.  1.
         11    1    5    5    0    0  0.91497427574E+02  0.11074800858E+03 -0.39437823271E+02  0.14897060973E+03  0.00000000000E+00 0. -1.
        -11    1    5    5    0    0  0.22477881287E+02  0.18710589642E+03 -0.63637958551E+02  0.19890616227E+03  0.00000000000E+00 0.  1.
          3    1    6    6  503    0  0.17735593147E+02 -0.38720848857E+02 -0.21026091470E+03  0.21453090139E+03  0.00000000000E+00 0. -1.
         -3    1    6    6    0  503  0.31492321128E+03 -0.13042786471E+03 -0.10626022782E+04  0.11159353290E+04  0.00000000000E+00 0.  1.
<mgrwt>
<rscale>  0 0.16542239E+04</rscale>
<asrwt>0</asrwt>
<pdfrwt beam="1">  1        1 0.27113412E+00 0.16542239E+04</pdfrwt>
<pdfrwt beam="2">  1       -2 0.59719709E-01 0.16542239E+04</pdfrwt>
<totfact> 0.94787965E+00</totfact>
</mgrwt>
</event>
<event>
12    4  0.4486176E-008  0.1469628E+04  0.7818608E-02  0.8904905E-01
         -2   -1    0    0    0  501 -0.00000000000E+00  0.00000000000E+00  0.37650122918E+03  0.37650122918E+03  0.00000000000E+00 0.  1.
          1   -1    0    0  501    0  0.00000000000E+00 -0.00000000000E+00 -0.14341306320E+04  0.14341306320E+04  0.00000000000E+00 0. -1.
        -24    2    1    2    0    0 -0.75430625408E+02 -0.15435938960E+03 -0.79151979018E+03  0.81374107956E+03  0.78449766787E+02 0.  0.
        254    2    1    2    0    0  0.75430625408E+02  0.15435938960E+03 -0.26610961266E+03  0.99689078165E+03  0.94523029161E+03 0.  0.
         23    2    4    4    0    0  0.20764366307E+03  0.50880660816E+03 -0.24044505442E+03  0.60695528528E+03  0.92632817159E+02 0.  0.
         23    2    4    4    0    0 -0.13221303766E+03 -0.35444721856E+03 -0.25664558232E+02  0.38993549636E+03  0.90982985779E+02 0.  0.
          1    1    3    3  502    0 -0.85045342674E+02 -0.13118015470E+03 -0.57864021327E+03  0.59938755385E+03  0.00000000000E+00 0. -1.
         -2    1    3    3    0  502  0.96147172652E+01 -0.23179234902E+02 -0.21287957691E+03  0.21435352571E+03  0.00000000000E+00 0.  1.
         11    1    5    5    0    0  0.65626131383E+01  0.10875500372E+03 -0.58401810239E+02  0.12361832455E+03  0.00000000000E+00 0. -1.
        -11    1    5    5    0    0  0.20108104993E+03  0.40005160444E+03 -0.18204324419E+03  0.48333696074E+03  0.00000000000E+00 0.  1.
          1    1    6    6  503    0 -0.15953810561E+02 -0.69836166128E+01 -0.15629820967E+02  0.23400561443E+02  0.00000000000E+00 0. -1.
         -1    1    6    6    0  503 -0.11625922710E+03 -0.34746360194E+03 -0.10034737265E+02  0.36653493492E+03  0.00000000000E+00 0.  1.
<mgrwt>
<rscale>  0 0.14696285E+04</rscale>
<asrwt>0</asrwt>
<pdfrwt beam="1">  1        1 0.22063548E+00 0.14696285E+04</pdfrwt>
<pdfrwt beam="2">  1       -2 0.57923267E-01 0.14696285E+04</pdfrwt>
<totfact> 0.17257010E+01</totfact>
</mgrwt>
</event>
<event>
12    4  0.4486176E-008  0.1957788E+04  0.7818608E-02  0.8626614E-01
         -4   -1    0    0    0  501 -0.00000000000E+00  0.00000000000E+00  0.19094008529E+03  0.19094008529E+03  0.00000000000E+00 0.  1.
          3   -1    0    0  501    0  0.00000000000E+00 -0.00000000000E+00 -0.50185049930E+04  0.50185049930E+04  0.00000000000E+00 0. -1.
        -24    2    1    2    0    0  0.47818349923E+03 -0.16630005064E+03 -0.36385423405E+03  0.62661619117E+03  0.62791572874E+02 0.  0.
        254    2    1    2    0    0 -0.47818349923E+03  0.16630005064E+03 -0.44637106737E+04  0.45828288871E+04  0.90625187703E+03 0.  0.
         23    2    4    4    0    0 -0.61826249713E+03  0.40018319322E+03 -0.34699364094E+04  0.35483334501E+04  0.88410885520E+02 0.  0.
         23    2    4    4    0    0  0.14007899791E+03 -0.23388314258E+03 -0.99377426433E+03  0.10344954370E+04  0.90939929378E+02 0.  0.
          1    1    3    3  502    0  0.62188027789E+02 -0.25456268647E+02 -0.24242660247E+02  0.71435838272E+02  0.00000000000E+00 0. -1.
         -2    1    3    3    0  502  0.41599547144E+03 -0.14084378199E+03 -0.33961157380E+03  0.55518035289E+03  0.00000000000E+00 0.  1.
         11    1    5    5    0    0 -0.20367707190E+03  0.10325732039E+03 -0.92106656369E+03  0.94895207391E+03  0.00000000000E+00 0.  1.
        -11    1    5    5    0    0 -0.41458542523E+03  0.29692587283E+03 -0.25488698457E+04  0.25993813762E+04  0.00000000000E+00 0. -1.
          2    1    6    6  503    0  0.94603390326E+02 -0.18342714378E+03 -0.59020397036E+03  0.62524878662E+03  0.00000000000E+00 0. -1.
         -2    1    6    6    0  503  0.45475607579E+02 -0.50455998796E+02 -0.40357029398E+03  0.40924665042E+03  0.00000000000E+00 0.  1.
<mgrwt>
<rscale>  0 0.19577883E+04</rscale>
<asrwt>0</asrwt>
<pdfrwt beam="1">  1        3 0.77207764E+00 0.19577883E+04</pdfrwt>
<pdfrwt beam="2">  1       -4 0.29375400E-01 0.19577883E+04</pdfrwt>
<totfact> 0.26701838E-03</totfact>
</mgrwt>
</event>
<event>
12    4  0.4486176E-008  0.1040219E+04  0.7818608E-02  0.9265501E-01
         -2   -1    0    0    0  501 -0.00000000000E+00  0.00000000000E+00  0.52939797584E+03  0.52939797584E+03  0.00000000000E+00 0.  1.
          1   -1    0    0  501    0  0.00000000000E+00 -0.00000000000E+00 -0.51098362858E+03  0.51098362858E+03  0.00000000000E+00 0. -1.
        -24    2    1    2    0    0 -0.73311664440E+02 -0.32285799025E+02  0.70838433006E+02  0.13350054234E+03  0.79920824894E+02 0.  0.
        254    2    1    2    0    0  0.73311664440E+02  0.32285799025E+02 -0.52424085748E+02  0.90688106207E+03  0.90181372967E+03 0.  0.
         23    2    4    4    0    0 -0.80364853315E+02 -0.16105992402E+03  0.36255028034E+03  0.41518643401E+03  0.92402707923E+02 0.  0.
         23    2    4    4    0    0  0.15367651775E+03  0.19334572305E+03 -0.41497436609E+03  0.49169462807E+03  0.92524818441E+02 0.  0.
          3    1    3    3  502    0 -0.35372822070E+02 -0.99449874218E+01 -0.12858935457E+02  0.38929314624E+02  0.00000000000E+00 0. -1.
         -4    1    3    3    0  502 -0.37938842370E+02 -0.22340811603E+02  0.83697368463E+02  0.94571227713E+02  0.00000000000E+00 0.  1.
         11    1    5    5    0    0 -0.42420129848E+02 -0.10324116153E+03  0.30642333336E+03  0.32611878829E+03  0.00000000000E+00 0. -1.
        -11    1    5    5    0    0 -0.37944723466E+02 -0.57818762493E+02  0.56126946983E+02  0.89067645713E+02  0.00000000000E+00 0.  1.
          3    1    6    6  503    0  0.13774086488E+03  0.10315231440E+03 -0.27609540737E+03  0.32533309053E+03  0.00000000000E+00 0. -1.
         -3    1    6    6    0  503  0.15935652874E+02  0.90193408643E+02 -0.13887895872E+03  0.16636153754E+03  0.00000000000E+00 0.  1.
<mgrwt>
<rscale>  0 0.10402186E+04</rscale>
<asrwt>0</asrwt>
<pdfrwt beam="1">  1        1 0.78612866E-01 0.10402186E+04</pdfrwt>
<pdfrwt beam="2">  1       -2 0.81445843E-01 0.10402186E+04</pdfrwt>
<totfact> 0.49975797E+01</totfact>
</mgrwt>
</event>
<event>
12    4  0.4486176E-008  0.1664126E+04  0.7818608E-02  0.8782094E-01
         -2   -1    0    0    0  501 -0.00000000000E+00  0.00000000000E+00  0.67008363257E+03  0.67008363257E+03  0.00000000000E+00 0.  1.
          1   -1    0    0  501    0  0.00000000000E+00 -0.00000000000E+00 -0.10331971196E+04  0.10331971196E+04  0.00000000000E+00 0. -1.
        -24    2    1    2    0    0  0.57057439130E+03  0.89731854663E+02 -0.30528496493E+03  0.65844720917E+03  0.82139367576E+02 0.  0.
        254    2    1    2    0    0 -0.57057439130E+03 -0.89731854663E+02 -0.57828522102E+02  0.10448335430E+04  0.86874970668E+03 0.  0.
         23    2    4    4    0    0 -0.75589573061E+03 -0.18810138588E+03 -0.14917719230E+03  0.79839860130E+03  0.91793272861E+02 0.  0.
         23    2    4    4    0    0  0.18532133931E+03  0.98369531212E+02  0.91348670200E+02  0.24643494169E+03  0.91460578736E+02 0.  0.
          1    1    3    3  502    0  0.49338671598E+03  0.99516118673E+02 -0.24369272302E+03  0.55921378080E+03  0.00000000000E+00 0. -1.
         -2    1    3    3    0  502  0.77187675318E+02 -0.97842640102E+01 -0.61592241906E+02  0.99233428371E+02  0.00000000000E+00 0.  1.
         11    1    5    5    0    0 -0.22795564538E+03 -0.17875015725E+02 -0.61743925173E+02  0.23684510707E+03  0.00000000000E+00 0. -1.
        -11    1    5    5    0    0 -0.52794008523E+03 -0.17022637015E+03 -0.87433267129E+02  0.56155349423E+03  0.00000000000E+00 0.  1.
          1    1    6    6  503    0  0.16642596531E+03  0.57773467416E+02  0.97316858353E+02  0.20126089135E+03  0.00000000000E+00 0. -1.
         -1    1    6    6    0  503  0.18895374004E+02  0.40596063797E+02 -0.59681881530E+01  0.45174050342E+02  0.00000000000E+00 0.  1.
<mgrwt>
<rscale>  0 0.16641256E+04</rscale>
<asrwt>0</asrwt>
<pdfrwt beam="1">  1        1 0.15895340E+00 0.16641256E+04</pdfrwt>
<pdfrwt beam="2">  1       -2 0.10308979E+00 0.16641256E+04</pdfrwt>
<totfact> 0.91651778E+00</totfact>
</mgrwt>
</event>
<event>
12    4  0.4486176E-008  0.2028800E+04  0.7818608E-02  0.8593273E-01
         -2   -1    0    0    0  501 -0.00000000000E+00  0.00000000000E+00  0.11630210680E+04  0.11630210680E+04  0.00000000000E+00 0.  1.
          1   -1    0    0  501    0  0.00000000000E+00 -0.00000000000E+00 -0.88477091581E+03  0.88477091581E+03  0.00000000000E+00 0. -1.
        -24    2    1    2    0    0 -0.71550634282E+02 -0.35800437866E+03  0.83160744976E+03  0.91175537865E+03  0.80251427347E+02 0.  0.
        254    2    1    2    0    0  0.71550634282E+02  0.35800437866E+03 -0.55335729762E+03  0.11360366051E+04  0.92254443845E+03 0.  0.
         23    2    4    4    0    0  0.74298593451E+00  0.36155470859E+03  0.16580262690E+03  0.40818455633E+03  0.91661123732E+02 0.  0.
         23    2    4    4    0    0  0.70807648348E+02 -0.35503299335E+01 -0.71915992452E+03  0.72785204878E+03  0.86898101088E+02 0.  0.
          1    1    3    3  502    0 -0.32316124985E+02 -0.32244257411E+02  0.97531941362E+02  0.10768706355E+03  0.00000000000E+00 0. -1.
         -2    1    3    3    0  502 -0.39234509297E+02 -0.32576012125E+03  0.73407550840E+03  0.80406831510E+03  0.00000000000E+00 0.  1.
         11    1    5    5    0    0 -0.10034163848E+02  0.24368212568E+01 -0.36462768295E+01  0.10950702109E+02  0.00000000000E+00 0. -1.
        -11    1    5    5    0    0  0.10777149783E+02  0.35911788733E+03  0.16944890373E+03  0.39723385422E+03  0.00000000000E+00 0.  1.
          1    1    6    6  503    0 -0.17284170554E+01  0.27258934158E+02 -0.30791923867E+03  0.30912828156E+03  0.00000000000E+00 0. -1.
         -1    1    6    6    0  503  0.72536065403E+02 -0.30809264092E+02 -0.41124068585E+03  0.41872376722E+03  0.00000000000E+00 0.  1.
<mgrwt>
<rscale>  0 0.20287999E+04</rscale>
<asrwt>0</asrwt>
<pdfrwt beam="1">  1        1 0.13611860E+00 0.20287999E+04</pdfrwt>
<pdfrwt beam="2">  1       -2 0.17892632E+00 0.20287999E+04</pdfrwt>
<totfact> 0.28010597E+00</totfact>
</mgrwt>
</event>
<event>
12    4  0.4486176E-008  0.1681570E+04  0.7818608E-02  0.8771946E-01
         -2   -1    0    0    0  501 -0.00000000000E+00  0.00000000000E+00  0.12350851349E+04  0.12350851349E+04  0.00000000000E+00 0.  1.
          1   -1    0    0  501    0  0.00000000000E+00 -0.00000000000E+00 -0.57236519129E+03  0.57236519129E+03  0.00000000000E+00 0. -1.
        -24    2    1    2    0    0  0.51609796273E+03  0.20533893022E+03  0.47606321447E+03  0.73583991052E+03  0.79391475250E+02 0.  0.
        254    2    1    2    0    0 -0.51609796273E+03 -0.20533893022E+03  0.18665672916E+03  0.10716104157E+04  0.89721065814E+03 0.  0.
         23    2    4    4    0    0  0.24774009984E+03 -0.52888933510E+02  0.77608107256E+02  0.27953738817E+03  0.89138861971E+02 0.  0.
         23    2    4    4    0    0 -0.76383806257E+03 -0.15244999671E+03  0.10904862190E+03  0.79207302753E+03  0.93800275410E+02 0.  0.
          1    1    3    3  502    0  0.14704773376E+03  0.22240444888E+02  0.13865335818E+03  0.20332837266E+03  0.00000000000E+00 0. -1.
         -2    1    3    3    0  502  0.36905022897E+03  0.18309848533E+03  0.33740985629E+03  0.53251153786E+03  0.00000000000E+00 0.  1.
         11    1    5    5    0    0  0.13234019306E+03  0.96163464559E+01  0.13199662659E+02  0.13334403591E+03  0.00000000000E+00 0.  1.
        -11    1    5    5    0    0  0.11539990678E+03 -0.62505279966E+02  0.64408444596E+02  0.14619335226E+03  0.00000000000E+00 0. -1.
          4    1    6    6  503    0 -0.58805166279E+03 -0.85053304280E+02  0.10741742100E+03  0.60380238904E+03  0.00000000000E+00 0. -1.
         -4    1    6    6    0  503 -0.17578639978E+03 -0.67396692431E+02  0.16312008991E+01  0.18827063848E+03  0.00000000000E+00 0.  1.
<mgrwt>
<rscale>  0 0.16815704E+04</rscale>
<asrwt>0</asrwt>
<pdfrwt beam="1">  1        1 0.88056184E-01 0.16815704E+04</pdfrwt>
<pdfrwt beam="2">  1       -2 0.19001310E+00 0.16815704E+04</pdfrwt>
<totfact> 0.47334681E+00</totfact>
</mgrwt>
</event>
<event>
12    4  0.4486176E-008  0.1630773E+04  0.7818608E-02  0.8801863E-01
         -4   -1    0    0    0  501 -0.00000000000E+00  0.00000000000E+00  0.44633695501E+03  0.44633695501E+03  0.00000000000E+00 0.  1.
          1   -1    0    0  501    0  0.00000000000E+00 -0.00000000000E+00 -0.14895814026E+04  0.14895814026E+04  0.00000000000E+00 0. -1.
        -24    2    1    2    0    0 -0.22143399074E+03 -0.43592577294E+03 -0.71439713906E+03  0.87027688922E+03  0.89186881525E+02 0.  0.
        254    2    1    2    0    0  0.22143399074E+03  0.43592577294E+03 -0.32884730853E+03  0.10656414684E+04  0.88791153562E+03 0.  0.
         23    2    4    4    0    0 -0.66555500300E+02 -0.24423987493E+03 -0.66088786572E+02  0.27627598468E+03  0.88757765147E+02 0.  0.
         23    2    4    4    0    0  0.28798949104E+03  0.68016564787E+03 -0.26275852196E+03  0.78936548373E+03  0.92155143920E+02 0.  0.
          3    1    3    3  502    0 -0.21546228326E+03 -0.40263146287E+03 -0.62015526167E+03  0.77014845256E+03  0.00000000000E+00 0. -1.
         -4    1    3    3    0  502 -0.59717074786E+01 -0.33294310069E+02 -0.94241877390E+02  0.10012843666E+03  0.00000000000E+00 0.  1.
         11    1    5    5    0    0 -0.42821936850E+02 -0.29023032684E+02 -0.12249150366E+02  0.53161041999E+02  0.00000000000E+00 0.  1.
        -11    1    5    5    0    0 -0.23733563450E+02 -0.21521684224E+03 -0.53839636206E+02  0.22311494268E+03  0.00000000000E+00 0. -1.
          3    1    6    6  503    0  0.29495350282E+03  0.66872057206E+03 -0.25653718478E+03  0.77459415148E+03  0.00000000000E+00 0. -1.
         -3    1    6    6    0  503 -0.69640117790E+01  0.11445075804E+02 -0.62213371751E+01  0.14771332251E+02  0.00000000000E+00 0.  1.
<mgrwt>
<rscale>  0 0.16307731E+04</rscale>
<asrwt>0</asrwt>
<pdfrwt beam="1">  1        1 0.22916637E+00 0.16307731E+04</pdfrwt>
<pdfrwt beam="2">  1       -4 0.68667224E-01 0.16307731E+04</pdfrwt>
<totfact> 0.61009079E+00</totfact>
</mgrwt>
</event>
<event>
12    4  0.4486176E-008  0.9829011E+03  0.7818608E-02  0.9327500E-01
          1   -1    0    0  501    0  0.00000000000E+00  0.00000000000E+00  0.53265248920E+03  0.53265248920E+03  0.00000000000E+00 0. -1.
         -2   -1    0    0    0  501 -0.00000000000E+00 -0.00000000000E+00 -0.45343567490E+03  0.45343567490E+03  0.00000000000E+00 0.  1.
        -24    2    1    2    0    0  0.27523812855E+02  0.55352736366E+01 -0.18428551257E+01  0.85414633302E+02  0.80647777023E+02 0.  0.
        254    2    1    2    0    0 -0.27523812855E+02 -0.55352736366E+01  0.81059669429E+02  0.90067353080E+03  0.89657902024E+03 0.  0.
         23    2    4    4    0    0 -0.15303923341E+03  0.12407537831E+03 -0.35823064628E+03  0.41708290674E+03  0.82542405413E+02 0.  0.
         23    2    4    4    0    0  0.12551542056E+03 -0.12961065195E+03  0.43929031571E+03  0.48359062405E+03  0.91273590365E+02 0.  0.
          3    1    3    3  502    0  0.26060402114E+01 -0.10215744932E+02  0.35961742005E+02  0.37475322255E+02  0.00000000000E+00 0. -1.
         -4    1    3    3    0  502  0.24917772644E+02  0.15751018569E+02 -0.37804597130E+02  0.47939311047E+02  0.00000000000E+00 0.  1.
         11    1    5    5    0    0  0.99706501888E+01  0.12719675123E+02 -0.25202246088E+02  0.29939225246E+02  0.00000000000E+00 0. -1.
        -11    1    5    5    0    0 -0.16300988360E+03  0.11135570319E+03 -0.33302840019E+03  0.38714368149E+03  0.00000000000E+00 0.  1.
          4    1    6    6  503    0  0.38876947549E+02 -0.23169150601E+02  0.36756966160E+02  0.58303526065E+02  0.00000000000E+00 0. -1.
         -4    1    6    6    0  503  0.86638473008E+02 -0.10644150135E+03  0.40253334955E+03  0.42528709799E+03  0.00000000000E+00 0.  1.
<mgrwt>
<rscale>  0 0.98290110E+03</rscale>
<asrwt>0</asrwt>
<pdfrwt beam="1">  1        1 0.81946537E-01 0.98290110E+03</pdfrwt>
<pdfrwt beam="2">  1       -2 0.69759334E-01 0.98290110E+03</pdfrwt>
<totfact> 0.66782854E+01</totfact>
</mgrwt>
</event>
<event>
12    4  0.4486176E-008  0.3730091E+04  0.7818608E-02  0.8061326E-01
         -2   -1    0    0    0  501 -0.00000000000E+00  0.00000000000E+00  0.29160139885E+04  0.29160139885E+04  0.00000000000E+00 0.  1.
          1   -1    0    0  501    0  0.00000000000E+00 -0.00000000000E+00 -0.11928593724E+04  0.11928593724E+04  0.00000000000E+00 0. -1.
        -24    2    1    2    0    0 -0.11423590534E+04  0.12212523821E+04  0.22183645560E+03  0.16887757703E+04  0.79439294538E+02 0.  0.
        254    2    1    2    0    0  0.11423590534E+04 -0.12212523821E+04  0.15013181605E+04  0.24200975906E+04  0.89803927603E+03 0.  0.
         23    2    4    4    0    0  0.89918374996E+03 -0.82240251936E+03  0.51706271462E+03  0.13268811522E+04  0.91555563232E+02 0.  0.
         23    2    4    4    0    0  0.24317530346E+03 -0.39884986274E+03  0.98425544585E+03  0.10932164384E+04  0.90266036080E+02 0.  0.
          1    1    3    3  502    0 -0.97732053581E+03  0.10176272302E+04  0.20929032657E+03  0.14263670812E+04  0.00000000000E+00 0. -1.
         -4    1    3    3    0  502 -0.16503851761E+03  0.20362515188E+03  0.12546129035E+02  0.26240868912E+03  0.00000000000E+00 0.  1.
         11    1    5    5    0    0  0.34830951376E+03 -0.35794469290E+03  0.17449097785E+03  0.52904727757E+03  0.00000000000E+00 0.  1.
        -11    1    5    5    0    0  0.55087423620E+03 -0.46445782646E+03  0.34257173677E+03  0.79783387463E+03  0.00000000000E+00 0. -1.
          1    1    6    6  503    0 -0.27529018024E+01 -0.38587554211E+02  0.10010646833E+03  0.10732139959E+03  0.00000000000E+00 0. -1.
         -1    1    6    6    0  503  0.24592820526E+03 -0.36026230853E+03  0.88414897751E+03  0.98589503880E+03  0.00000000000E+00 0.  1.
<mgrwt>
<rscale>  0 0.37300909E+04</rscale>
<asrwt>0</asrwt>
<pdfrwt beam="1">  1        1 0.18351683E+00 0.37300909E+04</pdfrwt>
<pdfrwt beam="2">  1       -2 0.44861754E+00 0.37300909E+04</pdfrwt>
<totfact> 0.26911886E-02</totfact>
</mgrwt>
</event>
<event>
12    4  0.4486176E-008  0.1301937E+04  0.7818608E-02  0.9028031E-01
         -4   -1    0    0    0  501 -0.00000000000E+00  0.00000000000E+00  0.57508807669E+03  0.57508807669E+03  0.00000000000E+00 0.  1.
          1   -1    0    0  501    0  0.00000000000E+00 -0.00000000000E+00 -0.73686056926E+03  0.73686056926E+03  0.00000000000E+00 0. -1.
        -24    2    1    2    0    0 -0.30318258647E+03 -0.11141710728E+03 -0.12032580063E+03  0.35445670685E+03  0.82630540364E+02 0.  0.
        254    2    1    2    0    0  0.30318258647E+03  0.11141710728E+03 -0.41446691940E+02  0.95749193910E+03  0.90041075773E+03 0.  0.
         23    2    4    4    0    0  0.36185784022E+03  0.45967634872E+03 -0.19933619603E+02  0.59243586214E+03  0.91320640897E+02 0.  0.
         23    2    4    4    0    0 -0.58675253755E+02 -0.34825924145E+03 -0.21513072337E+02  0.36505607696E+03  0.89865690814E+02 0.  0.
          3    1    3    3  502    0 -0.25567582360E+03 -0.11290191496E+03 -0.12601230760E+03  0.30658778651E+03  0.00000000000E+00 0. -1.
         -4    1    3    3    0  502 -0.47506762872E+02  0.14848076778E+01  0.56865069728E+01  0.47868920334E+02  0.00000000000E+00 0.  1.
         11    1    5    5    0    0  0.34339453027E+03  0.42580948919E+03  0.40077627699E+01  0.54703709807E+03  0.00000000000E+00 0.  1.
        -11    1    5    5    0    0  0.18463309949E+02  0.33866859537E+02 -0.23941382373E+02  0.45398764070E+02  0.00000000000E+00 0. -1.
          2    1    6    6  503    0  0.18197199912E+02 -0.15874965659E+03 -0.14182654484E+02  0.16041739070E+03  0.00000000000E+00 0. -1.
         -2    1    6    6    0  503 -0.76872453667E+02 -0.18950958486E+03 -0.73304178534E+01  0.20463868625E+03  0.00000000000E+00 0.  1.
<mgrwt>
<rscale>  0 0.13019366E+04</rscale>
<asrwt>0</asrwt>
<pdfrwt beam="1">  1        1 0.11336316E+00 0.13019366E+04</pdfrwt>
<pdfrwt beam="2">  1       -4 0.88475088E-01 0.13019366E+04</pdfrwt>
<totfact> 0.13177748E+01</totfact>
</mgrwt>
</event>
<event>
12    4  0.4486176E-008  0.1789929E+04  0.7818608E-02  0.8711674E-01
         -2   -1    0    0    0  501 -0.00000000000E+00  0.00000000000E+00  0.56408701073E+03  0.56408701073E+03  0.00000000000E+00 0.  1.
          1   -1    0    0  501    0  0.00000000000E+00 -0.00000000000E+00 -0.14199250547E+04  0.14199250547E+04  0.00000000000E+00 0. -1.
        -24    2    1    2    0    0 -0.56527289108E+03 -0.78363273279E+02  0.51015000552E+02  0.57824322691E+03  0.78028553738E+02 0.  0.
        254    2    1    2    0    0  0.56527289108E+03  0.78363273279E+02 -0.90685304448E+03  0.14057688385E+04  0.91001612018E+03 0.  0.
         23    2    4    4    0    0  0.60274826886E+03  0.29631404343E+03 -0.27661475498E+03  0.73166663153E+03  0.87822827762E+02 0.  0.
         23    2    4    4    0    0 -0.37475377779E+02 -0.21795077015E+03 -0.63023828950E+03  0.67410220696E+03  0.91140231131E+02 0.  0.
          3    1    3    3  502    0 -0.62280641539E+02  0.92142756235E+01 -0.11064378946E+02  0.63923404691E+02  0.00000000000E+00 0. -1.
         -4    1    3    3    0  502 -0.50299224954E+03 -0.87577548902E+02  0.62079379498E+02  0.51431982222E+03  0.00000000000E+00 0.  1.
         11    1    5    5    0    0  0.60567664684E+03  0.29535177497E+03 -0.27699198676E+03  0.72856120692E+03  0.00000000000E+00 0. -1.
        -11    1    5    5    0    0 -0.29283779804E+01  0.96226845906E+00  0.37723177605E+00  0.31054246080E+01  0.00000000000E+00 0.  1.
          1    1    6    6  503    0 -0.40663409924E+02 -0.22418314754E+03 -0.62535241886E+03  0.66556535692E+03  0.00000000000E+00 0. -1.
         -1    1    6    6    0  503  0.31880321453E+01  0.62323773858E+01 -0.48858706324E+01  0.85368500441E+01  0.00000000000E+00 0.  1.
<mgrwt>
<rscale>  0 0.17899288E+04</rscale>
<asrwt>0</asrwt>
<pdfrwt beam="1">  1        1 0.21845001E+00 0.17899288E+04</pdfrwt>
<pdfrwt beam="2">  1       -2 0.86782617E-01 0.17899288E+04</pdfrwt>
<totfact> 0.70841801E+00</totfact>
</mgrwt>
</event>
<event>
12    4  0.4486176E-008  0.1953776E+04  0.7818608E-02  0.8628542E-01
          1   -1    0    0  501    0  0.00000000000E+00  0.00000000000E+00  0.62510779073E+03  0.62510779073E+03  0.00000000000E+00 0. -1.
         -2   -1    0    0    0  501 -0.00000000000E+00 -0.00000000000E+00 -0.15266331678E+04  0.15266331678E+04  0.00000000000E+00 0.  1.
        -24    2    1    2    0    0 -0.60355030284E+03  0.49980979727E+02  0.16480827003E+03  0.63253068221E+03  0.78499883320E+02 0.  0.
        254    2    1    2    0    0  0.60355030284E+03 -0.49980979727E+02 -0.10663336470E+04  0.15192102763E+04  0.89675043926E+03 0.  0.
         23    2    4    4    0    0  0.71390514204E+03  0.21882799292E+03 -0.60246897887E+03  0.96381408756E+03  0.91774084428E+02 0.  0.
         23    2    4    4    0    0 -0.11035483920E+03 -0.26880897265E+03 -0.46386466817E+03  0.55539618871E+03  0.94117170260E+02 0.  0.
          3    1    3    3  502    0 -0.53613693751E+03  0.41261395677E+02  0.11950349323E+03  0.55084154112E+03  0.00000000000E+00 0. -1.
         -4    1    3    3    0  502 -0.67413365332E+02  0.87195840497E+01  0.45304776800E+02  0.81689141091E+02  0.00000000000E+00 0.  1.
         11    1    5    5    0    0  0.14772814286E+03  0.75761215380E+02 -0.10299450495E+03  0.19537459916E+03  0.00000000000E+00 0. -1.
        -11    1    5    5    0    0  0.56617699918E+03  0.14306677754E+03 -0.49947447393E+03  0.76843948840E+03  0.00000000000E+00 0.  1.
          1    1    6    6  503    0 -0.14717943175E+02 -0.15443237501E+03 -0.21173684689E+03  0.26248517793E+03  0.00000000000E+00 0. -1.
         -1    1    6    6    0  503 -0.95636896022E+02 -0.11437659764E+03 -0.25212782128E+03  0.29291101078E+03  0.00000000000E+00 0.  1.
<mgrwt>
<rscale>  0 0.19537761E+04</rscale>
<asrwt>0</asrwt>
<pdfrwt beam="1">  1        1 0.96170432E-01 0.19537761E+04</pdfrwt>
<pdfrwt beam="2">  1       -2 0.23486664E+00 0.19537761E+04</pdfrwt>
<totfact> 0.20967262E+00</totfact>
</mgrwt>
</event>
<event>
12    4  0.4486176E-008  0.1964076E+04  0.7818608E-02  0.8623603E-01
          1   -1    0    0  501    0  0.00000000000E+00  0.00000000000E+00  0.91340863498E+03  0.91340863498E+03  0.00000000000E+00 0. -1.
         -2   -1    0    0    0  501 -0.00000000000E+00 -0.00000000000E+00 -0.10558235305E+04  0.10558235305E+04  0.00000000000E+00 0.  1.
        -24    2    1    2    0    0 -0.38934099237E+03  0.20613570607E+03  0.58218975926E+03  0.73442779959E+03  0.79755497445E+02 0.  0.
        254    2    1    2    0    0  0.38934099237E+03 -0.20613570607E+03 -0.72460465475E+03  0.12348043659E+04  0.89755867698E+03 0.  0.
         23    2    4    4    0    0  0.50300246052E+03 -0.46030480075E+03 -0.38520510617E+03  0.78836682043E+03  0.90814562993E+02 0.  0.
         23    2    4    4    0    0 -0.11366146815E+03  0.25416909468E+03 -0.33939954859E+03  0.44643754544E+03  0.81200802731E+02 0.  0.
          3    1    3    3  502    0 -0.25703286367E+03  0.17716610260E+03  0.39936568868E+03  0.50689907695E+03  0.00000000000E+00 0. -1.
         -4    1    3    3    0  502 -0.13230812870E+03  0.28969603472E+02  0.18282407057E+03  0.22752872264E+03  0.00000000000E+00 0.  1.
         11    1    5    5    0    0  0.26921350120E+03 -0.20436991565E+03 -0.22823884907E+03  0.40784303828E+03  0.00000000000E+00 0. -1.
        -11    1    5    5    0    0  0.23378895932E+03 -0.25593488510E+03 -0.15696625710E+03  0.38052378215E+03  0.00000000000E+00 0.  1.
          2    1    6    6  503    0 -0.77419321512E+02  0.89911179682E+02 -0.10860766329E+03  0.16085209387E+03  0.00000000000E+00 0. -1.
         -2    1    6    6    0  503 -0.36242146636E+02  0.16425791500E+03 -0.23079188529E+03  0.28558545157E+03  0.00000000000E+00 0.  1.
<mgrwt>
<rscale>  0 0.19640757E+04</rscale>
<asrwt>0</asrwt>
<pdfrwt beam="1">  1        1 0.14052441E+00 0.19640757E+04</pdfrwt>
<pdfrwt beam="2">  1       -2 0.16243439E+00 0.19640757E+04</pdfrwt>
<totfact> 0.34965195E+00</totfact>
</mgrwt>
</event>
<event>
12    4  0.4486176E-008  0.1559432E+04  0.7818608E-02  0.8845865E-01
          1   -1    0    0  501    0  0.00000000000E+00  0.00000000000E+00  0.97355448923E+03  0.97355448923E+03  0.00000000000E+00 0. -1.
         -2   -1    0    0    0  501 -0.00000000000E+00 -0.00000000000E+00 -0.62447185551E+03  0.62447185551E+03  0.00000000000E+00 0.  1.
        -24    2    1    2    0    0 -0.38309144508E+03 -0.13607392464E+03  0.43394165257E+03  0.60002301227E+03  0.80293767940E+02 0.  0.
        254    2    1    2    0    0  0.38309144508E+03  0.13607392464E+03 -0.84859018848E+02  0.99800333246E+03  0.90748797803E+03 0.  0.
         23    2    4    4    0    0 -0.16829551348E+03 -0.21883853831E+03 -0.16029883089E+03  0.33168520846E+03  0.90031531248E+02 0.  0.
         23    2    4    4    0    0  0.55138695856E+03  0.35491246295E+03  0.75439812037E+02  0.66631812401E+03  0.91094690908E+02 0.  0.
          3    1    3    3  502    0 -0.33826934813E+03 -0.14327831464E+03  0.36812335006E+03  0.52006694587E+03  0.00000000000E+00 0. -1.
         -4    1    3    3    0  502 -0.44822096947E+02  0.72043899960E+01  0.65818302503E+02  0.79956066401E+02  0.00000000000E+00 0.  1.
         11    1    5    5    0    0 -0.53782731659E+02 -0.12804733970E+03 -0.46486805737E+02  0.14645725157E+03  0.00000000000E+00 0.  1.
        -11    1    5    5    0    0 -0.11451278182E+03 -0.90791198613E+02 -0.11381202515E+03  0.18522795689E+03  0.00000000000E+00 0. -1.
          4    1    6    6  503    0  0.50105606581E+03  0.28689177192E+03  0.63347986891E+02  0.58084166287E+03  0.00000000000E+00 0. -1.
         -4    1    6    6    0  503  0.50330892747E+02  0.68020691030E+02  0.12091825146E+02  0.85476461136E+02  0.00000000000E+00 0.  1.
<mgrwt>
<rscale>  0 0.15594324E+04</rscale>
<asrwt>0</asrwt>
<pdfrwt beam="1">  1        1 0.14977761E+00 0.15594324E+04</pdfrwt>
<pdfrwt beam="2">  1       -2 0.96072593E-01 0.15594324E+04</pdfrwt>
<totfact> 0.12161592E+01</totfact>
</mgrwt>
</event>
<event>
12    4  0.4486176E-008  0.1410892E+04  0.7818608E-02  0.8945972E-01
         -4   -1    0    0    0  501 -0.00000000000E+00  0.00000000000E+00  0.26662662829E+04  0.26662662829E+04  0.00000000000E+00 0.  1.
          3   -1    0    0  501    0  0.00000000000E+00 -0.00000000000E+00 -0.18664828999E+03  0.18664828999E+03  0.00000000000E+00 0. -1.
        -24    2    1    2    0    0  0.28593698558E+03 -0.85969686699E+02  0.15088816605E+04  0.15398591352E+04  0.72743000696E+02 0.  0.
        254    2    1    2    0    0 -0.28593698558E+03  0.85969686699E+02  0.97073633244E+03  0.13130554377E+04  0.83224684357E+03 0.  0.
         23    2    4    4    0    0 -0.41333247883E+03  0.89354767443E+02  0.12220541715E+03  0.45036796702E+03  0.95231975831E+02 0.  0.
         23    2    4    4    0    0  0.12739549325E+03 -0.33850807443E+01  0.84853091529E+03  0.86268747069E+03  0.89352601560E+02 0.  0.
          3    1    3    3  502    0  0.24293032809E+02  0.91463221385E+01  0.79887168947E+02  0.83998609596E+02  0.00000000000E+00 0. -1.
         -2    1    3    3    0  502  0.26164395277E+03 -0.95116008837E+02  0.14289944916E+04  0.14558605256E+04  0.00000000000E+00 0.  1.
         11    1    5    5    0    0 -0.12833563819E+03  0.41079040607E+02  0.84024432774E+02  0.15880059480E+03  0.00000000000E+00 0.  1.
        -11    1    5    5    0    0 -0.28499684063E+03  0.48275726836E+02  0.38180984372E+02  0.29156737222E+03  0.00000000000E+00 0. -1.
          1    1    6    6  503    0  0.10596282198E+03 -0.52894922021E+01  0.82059749494E+03  0.82742754792E+03  0.00000000000E+00 0. -1.
         -1    1    6    6    0  503  0.21432671264E+02  0.19044114578E+01  0.27933420359E+02  0.35259922766E+02  0.00000000000E+00 0.  1.
<mgrwt>
<rscale>  0 0.14108920E+04</rscale>
<asrwt>0</asrwt>
<pdfrwt beam="1">  1        3 0.28715124E-01 0.14108920E+04</pdfrwt>
<pdfrwt beam="2">  1       -4 0.41019478E+00 0.14108920E+04</pdfrwt>
<totfact> 0.15439433E-01</totfact>
</mgrwt>
</event>
<event>
12    4  0.4486176E-008  0.2833980E+04  0.7818608E-02  0.8292796E-01
         -2   -1    0    0    0  501 -0.00000000000E+00  0.00000000000E+00  0.14079477749E+04  0.14079477749E+04  0.00000000000E+00 0.  1.
          1   -1    0    0  501    0  0.00000000000E+00 -0.00000000000E+00 -0.14260902081E+04  0.14260902081E+04  0.00000000000E+00 0. -1.
        -24    2    1    2    0    0 -0.74744279634E+03 -0.57042572989E+03  0.84744948830E+03  0.12683419374E+04  0.80401416555E+02 0.  0.
        254    2    1    2    0    0  0.74744279634E+03  0.57042572989E+03 -0.86559192153E+03  0.15656960456E+04  0.90448796869E+03 0.  0.
         23    2    4    4    0    0  0.45857162901E+03  0.39726271758E+03  0.19239599907E+02  0.61457758053E+03  0.96072027993E+02 0.  0.
         23    2    4    4    0    0  0.28887116733E+03  0.17316301231E+03 -0.88483152143E+03  0.95111846509E+03  0.90925976293E+02 0.  0.
          1    1    3    3  502    0 -0.62535158780E+03 -0.46537564069E+03  0.66172864912E+03  0.10225086310E+04  0.00000000000E+00 0. -1.
         -2    1    3    3    0  502 -0.12209120854E+03 -0.10505008920E+03  0.18572083918E+03  0.24583330643E+03  0.00000000000E+00 0.  1.
         11    1    5    5    0    0  0.32241762067E+02  0.39725096325E+02 -0.23959188577E+02  0.56494753884E+02  0.00000000000E+00 0. -1.
        -11    1    5    5    0    0  0.42632986695E+03  0.35753762126E+03  0.43198788483E+02  0.55808282664E+03  0.00000000000E+00 0.  1.
          1    1    6    6  503    0  0.13953909337E+02  0.37722719462E+02 -0.14103009409E+03  0.14665334156E+03  0.00000000000E+00 0. -1.
         -1    1    6    6    0  503  0.27491725799E+03  0.13544029285E+03 -0.74380142734E+03  0.80446512353E+03  0.00000000000E+00 0.  1.
<mgrwt>
<rscale>  0 0.28339799E+04</rscale>
<asrwt>0</asrwt>
<pdfrwt beam="1">  1        1 0.21939849E+00 0.28339799E+04</pdfrwt>
<pdfrwt beam="2">  1       -2 0.21660735E+00 0.28339799E+04</pdfrwt>
<totfact> 0.57990233E-01</totfact>
</mgrwt>
</event>
<event>
12    4  0.4486176E-008  0.1408060E+04  0.7818608E-02  0.8948005E-01
          1   -1    0    0  501    0  0.00000000000E+00  0.00000000000E+00  0.18070654996E+04  0.18070654996E+04  0.00000000000E+00 0. -1.
         -2   -1    0    0    0  501 -0.00000000000E+00 -0.00000000000E+00 -0.27428907506E+03  0.27428907506E+03  0.00000000000E+00 0.  1.
        -24    2    1    2    0    0 -0.74798135676E+02 -0.49017224752E+02  0.10456452804E+04  0.10524744823E+04  0.79567794376E+02 0.  0.
        254    2    1    2    0    0  0.74798135676E+02  0.49017224752E+02  0.48713114405E+03  0.10288800923E+04  0.90183149395E+03 0.  0.
         23    2    4    4    0    0  0.10188072594E+03  0.27561452895E+03 -0.15349883740E+03  0.34388246126E+03  0.91379446233E+02 0.  0.
         23    2    4    4    0    0 -0.27082590263E+02 -0.22659730419E+03  0.64062998145E+03  0.68499763108E+03  0.82068120986E+02 0.  0.
          1    1    3    3  502    0 -0.90829321483E+02 -0.46987193822E+02  0.94818299562E+03  0.95368168442E+03  0.00000000000E+00 0. -1.
         -2    1    3    3    0  502  0.16031185807E+02 -0.20300309301E+01  0.97462284834E+02  0.98792797860E+02  0.00000000000E+00 0.  1.
         11    1    5    5    0    0  0.24611972884E+02  0.13100324903E+03 -0.11360448823E+03  0.17513874560E+03  0.00000000000E+00 0. -1.
        -11    1    5    5    0    0  0.77268753055E+02  0.14461127992E+03 -0.39894349176E+02  0.16874371566E+03  0.00000000000E+00 0.  1.
          2    1    6    6  503    0 -0.46241611048E+02 -0.19009838461E+03  0.57621155156E+03  0.60851905029E+03  0.00000000000E+00 0.  1.
         -2    1    6    6    0  503  0.19159020785E+02 -0.36498919586E+02  0.64418429894E+02  0.76478580781E+02  0.00000000000E+00 0. -1.
<mgrwt>
<rscale>  0 0.14080601E+04</rscale>
<asrwt>0</asrwt>
<pdfrwt beam="1">  1        1 0.27801007E+00 0.14080601E+04</pdfrwt>
<pdfrwt beam="2">  1       -2 0.42198320E-01 0.14080601E+04</pdfrwt>
<totfact> 0.18349784E+01</totfact>
</mgrwt>
</event>
<event>
12    4  0.4486176E-008  0.2147875E+04  0.7818608E-02  0.8540442E-01
          1   -1    0    0  501    0  0.00000000000E+00  0.00000000000E+00  0.86690054837E+03  0.86690054837E+03  0.00000000000E+00 0. -1.
         -2   -1    0    0    0  501 -0.00000000000E+00 -0.00000000000E+00 -0.13304202116E+04  0.13304202116E+04  0.00000000000E+00 0.  1.
        -24    2    1    2    0    0 -0.21075915846E+03 -0.80267949093E+03  0.11788440437E+03  0.84071161247E+03  0.64695397913E+02 0.  0.
        254    2    1    2    0    0  0.21075915846E+03  0.80267949093E+03 -0.58140406759E+03  0.13566091475E+04  0.90202211792E+03 0.  0.
         23    2    4    4    0    0 -0.40858054967E+02 -0.99763620128E+02 -0.36479372068E+03  0.39086300879E+03  0.89873647067E+02 0.  0.
         23    2    4    4    0    0  0.25161721343E+03  0.90244311105E+03 -0.21661034691E+03  0.96574613870E+03  0.89614570528E+02 0.  0.
          1    1    3    3  502    0 -0.11731355450E+03 -0.42848889650E+03  0.95327258421E+02  0.45437043334E+03  0.00000000000E+00 0. -1.
         -2    1    3    3    0  502 -0.93445603959E+02 -0.37419059442E+03  0.22557145953E+02  0.38634117912E+03  0.00000000000E+00 0.  1.
         11    1    5    5    0    0 -0.25082115586E+02 -0.45554814183E+02 -0.30190010821E+03  0.30634625663E+03  0.00000000000E+00 0.  1.
        -11    1    5    5    0    0 -0.15775939381E+02 -0.54208805945E+02 -0.62893612467E+02  0.84516752153E+02  0.00000000000E+00 0. -1.
          4    1    6    6  503    0  0.20002491406E+03  0.79162784900E+03 -0.16474790480E+03  0.83296247797E+03  0.00000000000E+00 0.  1.
         -4    1    6    6    0  503  0.51592299371E+02  0.11081526205E+03 -0.51862442109E+02  0.13278366074E+03  0.00000000000E+00 0. -1.
<mgrwt>
<rscale>  0 0.21478752E+04</rscale>
<asrwt>0</asrwt>
<pdfrwt beam="1">  1        1 0.13336932E+00 0.21478752E+04</pdfrwt>
<pdfrwt beam="2">  1       -2 0.20468003E+00 0.21478752E+04</pdfrwt>
<totfact> 0.19279898E+00</totfact>
</mgrwt>
</event>
<event>
12    4  0.4486176E-008  0.1189572E+04  0.7818608E-02  0.9122034E-01
         -4   -1    0    0    0  501 -0.00000000000E+00  0.00000000000E+00  0.13927847665E+04  0.13927847665E+04  0.00000000000E+00 0.  1.
          3   -1    0    0  501    0  0.00000000000E+00 -0.00000000000E+00 -0.25400201593E+03  0.25400201593E+03  0.00000000000E+00 0. -1.
        -24    2    1    2    0    0 -0.94696069477E+02  0.18272408215E+03  0.59834481920E+02  0.22894684896E+03  0.80505022517E+02 0.  0.
        254    2    1    2    0    0  0.94696069477E+02 -0.18272408215E+03  0.10789482686E+04  0.14178399335E+04  0.89654072676E+03 0.  0.
         23    2    4    4    0    0 -0.19216476862E+03  0.24770410676E+03  0.16918495789E+03  0.36736505370E+03  0.89715717158E+02 0.  0.
         23    2    4    4    0    0  0.28686083810E+03 -0.43042818891E+03  0.90976331075E+03  0.10504748798E+04  0.90942977583E+02 0.  0.
          1    1    3    3  502    0 -0.96259226344E+02  0.16039825886E+03  0.75396101787E+02  0.20168790808E+03  0.00000000000E+00 0. -1.
         -2    1    3    3    0  502  0.15631568663E+01  0.22325823296E+02 -0.15561619867E+02  0.27258940884E+02  0.00000000000E+00 0.  1.
         11    1    5    5    0    0 -0.13583302764E+03  0.22882755149E+03  0.12971213684E+03  0.29603698783E+03  0.00000000000E+00 0.  1.
        -11    1    5    5    0    0 -0.56331740976E+02  0.18876555267E+02  0.39472821042E+02  0.71328065873E+02  0.00000000000E+00 0. -1.
          3    1    6    6  503    0  0.18960034569E+03 -0.20695679911E+03  0.51570607206E+03  0.58713896187E+03  0.00000000000E+00 0. -1.
         -3    1    6    6    0  503  0.97260492408E+02 -0.22347138980E+03  0.39405723868E+03  0.46333591788E+03  0.00000000000E+00 0.  1.
<mgrwt>
<rscale>  0 0.11895716E+04</rscale>
<asrwt>0</asrwt>
<pdfrwt beam="1">  1        3 0.39077234E-01 0.11895716E+04</pdfrwt>
<pdfrwt beam="2">  1       -4 0.21427458E+00 0.11895716E+04</pdfrwt>
<totfact> 0.15628017E+00</totfact>
</mgrwt>
</event>
<event>
12    4  0.4486176E-008  0.1199985E+04  0.7818608E-02  0.9112869E-01
          1   -1    0    0  501    0  0.00000000000E+00  0.00000000000E+00  0.11071343070E+04  0.11071343070E+04  0.00000000000E+00 0. -1.
         -2   -1    0    0    0  501 -0.00000000000E+00 -0.00000000000E+00 -0.32515593517E+03  0.32515593517E+03  0.00000000000E+00 0.  1.
        -24    2    1    2    0    0  0.15408982112E+03  0.13455344706E+03 -0.16784905235E+02  0.21907344479E+03  0.76571130841E+02 0.  0.
        254    2    1    2    0    0 -0.15408982112E+03 -0.13455344706E+03  0.79876327704E+03  0.12132167974E+04  0.88995725828E+03 0.  0.
         23    2    4    4    0    0  0.37280973171E+02  0.12389402715E+03 -0.14335465967E+03  0.21371968130E+03  0.91574793478E+02 0.  0.
         23    2    4    4    0    0 -0.19137079429E+03 -0.25844747421E+03  0.94211793671E+03  0.99949711606E+03  0.89389040232E+02 0.  0.
          1    1    3    3  502    0  0.36640107237E+02  0.11927400492E+00 -0.17393480652E+02  0.40559152528E+02  0.00000000000E+00 0. -1.
         -2    1    3    3    0  502  0.11744971388E+03  0.13443417306E+03  0.60857541702E+00  0.17851429226E+03  0.00000000000E+00 0.  1.
         11    1    5    5    0    0  0.17302105155E+02  0.10193984544E+03 -0.48271335587E+02  0.11411054627E+03  0.00000000000E+00 0.  1.
        -11    1    5    5    0    0  0.19978868016E+02  0.21954181711E+02 -0.95083324083E+02  0.99609135025E+02  0.00000000000E+00 0. -1.
          3    1    6    6  503    0 -0.40173055245E+02 -0.80669533305E+01  0.13064155717E+03  0.13691664093E+03  0.00000000000E+00 0. -1.
         -3    1    6    6    0  503 -0.15119773905E+03 -0.25038052088E+03  0.81147637954E+03  0.86258047513E+03  0.00000000000E+00 0.  1.
<mgrwt>
<rscale>  0 0.11999855E+04</rscale>
<asrwt>0</asrwt>
<pdfrwt beam="1">  1        1 0.17032835E+00 0.11999855E+04</pdfrwt>
<pdfrwt beam="2">  1       -2 0.50023990E-01 0.11999855E+04</pdfrwt>
<totfact> 0.41082334E+01</totfact>
</mgrwt>
</event>
<event>
12    4  0.4486176E-008  0.1293381E+04  0.7818608E-02  0.9034830E-01
          3   -1    0    0  501    0  0.00000000000E+00  0.00000000000E+00  0.13858738041E+04  0.13858738041E+04  0.00000000000E+00 0. -1.
         -2   -1    0    0    0  501 -0.00000000000E+00 -0.00000000000E+00 -0.30176538215E+03  0.30176538215E+03  0.00000000000E+00 0.  1.
        -24    2    1    2    0    0 -0.14769504435E+03  0.11195447735E+03  0.63231733388E+03  0.66362804156E+03  0.78926140730E+02 0.  0.
        254    2    1    2    0    0  0.14769504435E+03 -0.11195447735E+03  0.45179108803E+03  0.10240111447E+04  0.90007555574E+03 0.  0.
         23    2    4    4    0    0 -0.22877164955E+03 -0.26946020135E+03  0.48185155003E+03  0.60463802468E+03  0.91983459805E+02 0.  0.
         23    2    4    4    0    0  0.37646669390E+03  0.15750572400E+03 -0.30060462002E+02  0.41937311997E+03  0.91842025627E+02 0.  0.
          3    1    3    3  502    0 -0.49469916234E+02  0.44763868565E+02  0.36456541313E+03  0.37061977415E+03  0.00000000000E+00 0. -1.
         -4    1    3    3    0  502 -0.98225128118E+02  0.67190608782E+02  0.26775192075E+03  0.29300826740E+03  0.00000000000E+00 0.  1.
         11    1    5    5    0    0 -0.19584909610E+03 -0.18882955189E+03  0.31344376107E+03  0.41504272005E+03  0.00000000000E+00 0. -1.
        -11    1    5    5    0    0 -0.32922553447E+02 -0.80630649457E+02  0.16840778895E+03  0.18959530463E+03  0.00000000000E+00 0.  1.
          3    1    6    6  503    0  0.10923966359E+03  0.48608362199E+02 -0.51133389029E+02  0.13004114907E+03  0.00000000000E+00 0. -1.
         -3    1    6    6    0  503  0.26722703030E+03  0.10889736180E+03  0.21072927026E+02  0.28933197090E+03  0.00000000000E+00 0.  1.
<mgrwt>
<rscale>  0 0.12933812E+04</rscale>
<asrwt>0</asrwt>
<pdfrwt beam="1">  1        3 0.21321135E+00 0.12933812E+04</pdfrwt>
<pdfrwt beam="2">  1       -2 0.46425444E-01 0.12933812E+04</pdfrwt>
<totfact> 0.21564030E+00</totfact>
</mgrwt>
</event>
<event>
12    4  0.4486176E-008  0.2527063E+04  0.7818608E-02  0.8393407E-01
         -2   -1    0    0    0  501 -0.00000000000E+00  0.00000000000E+00  0.74293139905E+03  0.74293139905E+03  0.00000000000E+00 0.  1.
          1   -1    0    0  501    0  0.00000000000E+00 -0.00000000000E+00 -0.21489355220E+04  0.21489355220E+04  0.00000000000E+00 0. -1.
        -24    2    1    2    0    0 -0.36120134835E+03  0.65482712897E+03  0.30958443050E+03  0.81349353104E+03  0.81634689644E+02 0.  0.
        254    2    1    2    0    0  0.36120134835E+03 -0.65482712897E+03 -0.17155885535E+04  0.20783733900E+04  0.90395070701E+03 0.  0.
         23    2    4    4    0    0  0.20912993891E+03 -0.66280131101E+03 -0.52743128436E+03  0.87695297402E+03  0.88441221637E+02 0.  0.
         23    2    4    4    0    0  0.15207140944E+03  0.79741820439E+01 -0.11881572691E+04  0.12014204160E+04  0.92217236629E+02 0.  0.
          1    1    3    3  502    0 -0.15521892322E+03  0.35329989550E+03  0.13588841344E+03  0.40912026495E+03  0.00000000000E+00 0. -1.
         -2    1    3    3    0  502 -0.20598242513E+03  0.30152723347E+03  0.17369601706E+03  0.40437326610E+03  0.00000000000E+00 0.  1.
         11    1    5    5    0    0  0.16402531465E+03 -0.39612469104E+03 -0.35026319518E+03  0.55362747457E+03  0.00000000000E+00 0. -1.
        -11    1    5    5    0    0  0.45104624256E+02 -0.26667661997E+03 -0.17716808917E+03  0.32332549944E+03  0.00000000000E+00 0.  1.
          1    1    6    6  503    0  0.26107204577E+02  0.10818170652E+02 -0.56212410072E+03  0.56283401066E+03  0.00000000000E+00 0. -1.
         -1    1    6    6    0  503  0.12596420487E+03 -0.28439886083E+01 -0.62603316838E+03  0.63858640534E+03  0.00000000000E+00 0.  1.
<mgrwt>
<rscale>  0 0.25270629E+04</rscale>
<asrwt>0</asrwt>
<pdfrwt beam="1">  1        1 0.33060546E+00 0.25270629E+04</pdfrwt>
<pdfrwt beam="2">  1       -2 0.11429714E+00 0.25270629E+04</pdfrwt>
<totfact> 0.11004438E+00</totfact>
</mgrwt>
</event>
<event>
12    4  0.4486176E-008  0.1294777E+04  0.7818608E-02  0.9033717E-01
         -2   -1    0    0    0  501 -0.00000000000E+00  0.00000000000E+00  0.76834351135E+03  0.76834351135E+03  0.00000000000E+00 0.  1.
          1   -1    0    0  501    0  0.00000000000E+00 -0.00000000000E+00 -0.54547452351E+03  0.54547452351E+03  0.00000000000E+00 0. -1.
        -24    2    1    2    0    0 -0.29545160450E+03  0.49445876673E+02  0.18483535083E+03  0.36117973680E+03  0.80932997226E+02 0.  0.
        254    2    1    2    0    0  0.29545160450E+03 -0.49445876673E+02  0.38033637014E+02  0.95263829806E+03  0.90351348859E+03 0.  0.
         23    2    4    4    0    0  0.37397470489E+02 -0.45302698276E+03  0.10590461617E+02  0.46325591416E+03  0.88667165429E+02 0.  0.
         23    2    4    4    0    0  0.25805413401E+03  0.40358110609E+03  0.27443175397E+02  0.48938238390E+03  0.96293013898E+02 0.  0.
          3    1    3    3  502    0 -0.28695200964E+03  0.59447130342E+02  0.16200321504E+03  0.33484393204E+03  0.00000000000E+00 0. -1.
         -4    1    3    3    0  502 -0.84995948594E+01 -0.10001253670E+02  0.22832135787E+02  0.26335804760E+02  0.00000000000E+00 0.  1.
         11    1    5    5    0    0  0.46832453409E+02 -0.18363761470E+03 -0.25772660238E+02  0.19125972457E+03  0.00000000000E+00 0. -1.
        -11    1    5    5    0    0 -0.94349829206E+01 -0.26938936806E+03  0.36363121855E+02  0.27199618960E+03  0.00000000000E+00 0.  1.
          3    1    6    6  503    0  0.59175110341E+02  0.16550660002E+03  0.34349227078E+02  0.17909214873E+03  0.00000000000E+00 0. -1.
         -3    1    6    6    0  503  0.19887902367E+03  0.23807450606E+03 -0.69060516812E+01  0.31029023517E+03  0.00000000000E+00 0.  1.
<mgrwt>
<rscale>  0 0.12947769E+04</rscale>
<asrwt>0</asrwt>
<pdfrwt beam="1">  1        1 0.83919158E-01 0.12947769E+04</pdfrwt>
<pdfrwt beam="2">  1       -2 0.11820669E+00 0.12947769E+04</pdfrwt>
<totfact> 0.18596166E+01</totfact>
</mgrwt>
</event>
<event>
12    4  0.4486176E-008  0.2062309E+04  0.7818608E-02  0.8578031E-01
         -2   -1    0    0    0  501 -0.00000000000E+00  0.00000000000E+00  0.52470816708E+03  0.52470816708E+03  0.00000000000E+00 0.  1.
          1   -1    0    0  501    0  0.00000000000E+00 -0.00000000000E+00 -0.20264204373E+04  0.20264204373E+04  0.00000000000E+00 0. -1.
        -24    2    1    2    0    0  0.10549622783E+03  0.80446980107E+03 -0.37366394778E+03  0.89676782705E+03  0.79162332266E+02 0.  0.
        254    2    1    2    0    0 -0.10549622783E+03 -0.80446980107E+03 -0.11280483225E+04  0.16543607774E+04  0.89783932245E+03 0.  0.
         23    2    4    4    0    0  0.52027745265E+02 -0.80844330179E+03 -0.12088829872E+04  0.14583458836E+04  0.95326705581E+02 0.  0.
         23    2    4    4    0    0 -0.15752397309E+03  0.39735007188E+01  0.80834664732E+02  0.19601489383E+03  0.84011932329E+02 0.  0.
          3    1    3    3  502    0  0.45431028425E+02  0.55567601563E+03 -0.22861289910E+03  0.60258084132E+03  0.00000000000E+00 0. -1.
         -4    1    3    3    0  502  0.60065199402E+02  0.24879378543E+03 -0.14505104867E+03  0.29418698573E+03  0.00000000000E+00 0.  1.
         11    1    5    5    0    0  0.51664320770E+02 -0.24629182483E+03 -0.32888733002E+03  0.41412044246E+03  0.00000000000E+00 0. -1.
        -11    1    5    5    0    0  0.36342449488E+00 -0.56215147696E+03 -0.87999565720E+03  0.10442254411E+04  0.00000000000E+00 0.  1.
          3    1    6    6  503    0 -0.25194982829E+02  0.23025425241E+02 -0.85591572560E+01  0.35188301184E+02  0.00000000000E+00 0. -1.
         -3    1    6    6    0  503 -0.13232899026E+03 -0.19051924522E+02  0.89393821988E+02  0.16082659264E+03  0.00000000000E+00 0.  1.
<mgrwt>
<rscale>  0 0.20623088E+04</rscale>
<asrwt>0</asrwt>
<pdfrwt beam="1">  1        1 0.31175700E+00 0.20623088E+04</pdfrwt>
<pdfrwt beam="2">  1       -2 0.80724332E-01 0.20623088E+04</pdfrwt>
<totfact> 0.31386398E+00</totfact>
</mgrwt>
</event>
<event>
12    4  0.4486176E-008  0.1389255E+04  0.7818608E-02  0.8961633E-01
          1   -1    0    0  501    0  0.00000000000E+00  0.00000000000E+00  0.31754492230E+04  0.31754492230E+04  0.00000000000E+00 0. -1.
         -2   -1    0    0    0  501 -0.00000000000E+00 -0.00000000000E+00 -0.15194942124E+03  0.15194942124E+03  0.00000000000E+00 0.  1.
        -24    2    1    2    0    0  0.12239432984E+03  0.21825693530E+03  0.16276190187E+04  0.16484841657E+04  0.75762212027E+02 0.  0.
        254    2    1    2    0    0 -0.12239432984E+03 -0.21825693530E+03  0.13958807830E+04  0.16789144785E+04  0.89869583503E+03 0.  0.
         23    2    4    4    0    0  0.12107943927E+03 -0.48482506177E+03  0.10689911138E+04  0.11834603013E+04  0.90114994611E+02 0.  0.
         23    2    4    4    0    0 -0.24347376911E+03  0.26656812648E+03  0.32688966928E+03  0.49545417724E+03  0.90994195223E+02 0.  0.
          3    1    3    3  502    0  0.12590656277E+03  0.18777768962E+03  0.15143608532E+04  0.15311439243E+04  0.00000000000E+00 0. -1.
         -4    1    3    3    0  502 -0.35122329278E+01  0.30479245682E+02  0.11325816553E+03  0.11734024142E+03  0.00000000000E+00 0.  1.
         11    1    5    5    0    0  0.79664286824E+02 -0.42560059306E+03  0.87092207830E+03  0.97261890269E+03  0.00000000000E+00 0. -1.
        -11    1    5    5    0    0  0.41415152441E+02 -0.59224468712E+02  0.19806903546E+03  0.21084139858E+03  0.00000000000E+00 0.  1.
          3    1    6    6  503    0 -0.19897363434E+03  0.25509957335E+03  0.30471569234E+03  0.44442991871E+03  0.00000000000E+00 0. -1.
         -3    1    6    6    0  503 -0.44500134764E+02  0.11468553122E+02  0.22173976943E+02  0.51024258527E+02  0.00000000000E+00 0.  1.
<mgrwt>
<rscale>  0 0.13892554E+04</rscale>
<asrwt>0</asrwt>
<pdfrwt beam="1">  1        1 0.48853060E+00 0.13892554E+04</pdfrwt>
<pdfrwt beam="2">  1       -2 0.23376836E-01 0.13892554E+04</pdfrwt>
<totfact> 0.62179933E+00</totfact>
</mgrwt>
</event>
<event>
12    4  0.4486176E-008  0.1744392E+04  0.7818608E-02  0.8736443E-01
         -4   -1    0    0    0  501 -0.00000000000E+00  0.00000000000E+00  0.66480579223E+03  0.66480579223E+03  0.00000000000E+00 0.  1.
          3   -1    0    0  501    0  0.00000000000E+00 -0.00000000000E+00 -0.11442832826E+04  0.11442832826E+04  0.00000000000E+00 0. -1.
        -24    2    1    2    0    0 -0.19612684116E+03 -0.19801079719E+03  0.43105931289E+03  0.51899235323E+03  0.76595808374E+02 0.  0.
        254    2    1    2    0    0  0.19612684116E+03  0.19801079719E+03 -0.91053680325E+03  0.12900967216E+04  0.87040121056E+03 0.  0.
         23    2    4    4    0    0 -0.21726791536E+03 -0.21258222932E+03 -0.24226722048E+03  0.39921933059E+03  0.91028108436E+02 0.  0.
         23    2    4    4    0    0  0.41339475652E+03  0.41059302651E+03 -0.66826958277E+03  0.89087739099E+03  0.87157514851E+02 0.  0.
          3    1    3    3  502    0 -0.69943310166E+02 -0.37996458220E+02  0.78612669924E+02  0.11187380992E+03  0.00000000000E+00 0. -1.
         -4    1    3    3    0  502 -0.12618353099E+03 -0.16001433897E+03  0.35244664297E+03  0.40711854331E+03  0.00000000000E+00 0.  1.
         11    1    5    5    0    0 -0.42050496797E+02 -0.15891557725E+01 -0.43361095775E+02  0.60423127391E+02  0.00000000000E+00 0.  1.
        -11    1    5    5    0    0 -0.17521741857E+03 -0.21099307355E+03 -0.19890612470E+03  0.33879620320E+03  0.00000000000E+00 0. -1.
          3    1    6    6  503    0  0.36429007310E+03  0.36277493462E+03 -0.62716692339E+03  0.81095700277E+03  0.00000000000E+00 0. -1.
         -3    1    6    6    0  503  0.49104683425E+02  0.47818091884E+02 -0.41102659374E+02  0.79920388221E+02  0.00000000000E+00 0.  1.
<mgrwt>
<rscale>  0 0.17443923E+04</rscale>
<asrwt>0</asrwt>
<pdfrwt beam="1">  1        3 0.17604358E+00 0.17443923E+04</pdfrwt>
<pdfrwt beam="2">  1       -4 0.10227781E+00 0.17443923E+04</pdfrwt>
<totfact> 0.35879095E-01</totfact>
</mgrwt>
</event>
<event>
12    4  0.4486176E-008  0.1599658E+04  0.7818608E-02  0.8820758E-01
         -2   -1    0    0    0  501 -0.00000000000E+00  0.00000000000E+00  0.14138146672E+04  0.14138146672E+04  0.00000000000E+00 0.  1.
          1   -1    0    0  501    0  0.00000000000E+00 -0.00000000000E+00 -0.45248229279E+03  0.45248229279E+03  0.00000000000E+00 0. -1.
        -24    2    1    2    0    0 -0.39409833319E+03  0.30453097241E+03  0.95191454203E+02  0.51328873633E+03  0.79695072069E+02 0.  0.
        254    2    1    2    0    0  0.39409833319E+03 -0.30453097241E+03  0.86614092024E+03  0.13530082237E+04  0.91234782308E+03 0.  0.
         23    2    4    4    0    0 -0.24997740713E+03 -0.10151975731E+03  0.51142455094E+03  0.58531099479E+03  0.90768519447E+02 0.  0.
         23    2    4    4    0    0  0.64407574032E+03 -0.20301121509E+03  0.35471636930E+03  0.76769722890E+03  0.86534501149E+02 0.  0.
          3    1    3    3  502    0 -0.16419957641E+03  0.87397087428E+02  0.12512792832E+02  0.18643047435E+03  0.00000000000E+00 0. -1.
         -4    1    3    3    0  502 -0.22989875678E+03  0.21713388498E+03  0.82678661371E+02  0.32685826197E+03  0.00000000000E+00 0.  1.
         11    1    5    5    0    0 -0.74034555557E+02  0.74599293124E-01  0.20207708946E+03  0.21521215362E+03  0.00000000000E+00 0. -1.
        -11    1    5    5    0    0 -0.17594285157E+03 -0.10159435661E+03  0.30934746148E+03  0.37009884118E+03  0.00000000000E+00 0.  1.
          1    1    6    6  503    0  0.36362104796E+02 -0.30378245214E+02  0.11618943436E+02  0.48785656643E+02  0.00000000000E+00 0. -1.
         -1    1    6    6    0  503  0.60771363552E+03 -0.17263296988E+03  0.34309742587E+03  0.71891157226E+03  0.00000000000E+00 0.  1.
<mgrwt>
<rscale>  0 0.15996576E+04</rscale>
<asrwt>0</asrwt>
<pdfrwt beam="1">  1        1 0.69612661E-01 0.15996576E+04</pdfrwt>
<pdfrwt beam="2">  1       -2 0.21750995E+00 0.15996576E+04</pdfrwt>
<totfact> 0.43684366E+00</totfact>
</mgrwt>
</event>
<event>
12    4  0.4486176E-008  0.1578928E+04  0.7818608E-02  0.8833599E-01
         -2   -1    0    0    0  501 -0.00000000000E+00  0.00000000000E+00  0.47031898950E+03  0.47031898950E+03  0.00000000000E+00 0.  1.
          1   -1    0    0  501    0  0.00000000000E+00 -0.00000000000E+00 -0.13251723941E+04  0.13251723941E+04  0.00000000000E+00 0. -1.
        -24    2    1    2    0    0  0.61931440524E+02  0.20343791235E+03  0.26139526580E+03  0.34657025046E+03  0.80999790191E+02 0.  0.
        254    2    1    2    0    0 -0.61931440524E+02 -0.20343791235E+03 -0.11162486704E+04  0.14489211332E+04  0.89896544339E+03 0.  0.
         23    2    4    4    0    0 -0.77174872010E+02 -0.53411798483E+03 -0.85977783262E+03  0.10192903168E+04  0.92178337688E+02 0.  0.
         23    2    4    4    0    0  0.15243431486E+02  0.33068007248E+03 -0.25647083780E+03  0.42963081633E+03  0.96039966485E+02 0.  0.
          1    1    3    3  502    0 -0.34883920148E+00  0.46769150206E+02  0.17207725312E+02  0.49835538626E+02  0.00000000000E+00 0. -1.
         -2    1    3    3    0  502  0.62280279726E+02  0.15666876215E+03  0.24418754049E+03  0.29673471183E+03  0.00000000000E+00 0.  1.
         11    1    5    5    0    0 -0.42959891697E+02 -0.48013652701E+03 -0.78176492780E+03  0.91844054745E+03  0.00000000000E+00 0. -1.
        -11    1    5    5    0    0 -0.34214980314E+02 -0.53981457818E+02 -0.78012904821E+02  0.10084976938E+03  0.00000000000E+00 0.  1.
          3    1    6    6  503    0  0.53644466444E+02  0.23528756080E+03 -0.19052831600E+03  0.30747195685E+03  0.00000000000E+00 0. -1.
         -3    1    6    6    0  503 -0.38401034958E+02  0.95392511673E+02 -0.65942521795E+02  0.12215885948E+03  0.00000000000E+00 0.  1.
<mgrwt>
<rscale>  0 0.15789284E+04</rscale>
<asrwt>0</asrwt>
<pdfrwt beam="1">  1        1 0.20387268E+00 0.15789284E+04</pdfrwt>
<pdfrwt beam="2">  1       -2 0.72356767E-01 0.15789284E+04</pdfrwt>
<totfact> 0.12650308E+01</totfact>
</mgrwt>
</event>
<event>
12    4  0.4486176E-008  0.1514075E+04  0.7818608E-02  0.8875147E-01
         -2   -1    0    0    0  501 -0.00000000000E+00  0.00000000000E+00  0.38052417552E+03  0.38052417552E+03  0.00000000000E+00 0.  1.
          1   -1    0    0  501    0  0.00000000000E+00 -0.00000000000E+00 -0.15060958045E+04  0.15060958045E+04  0.00000000000E+00 0. -1.
        -24    2    1    2    0    0  0.34635184506E+03 -0.32219808509E+03 -0.49042358391E+03  0.68611175586E+03  0.80391810903E+02 0.  0.
        254    2    1    2    0    0 -0.34635184506E+03  0.32219808509E+03 -0.63514804507E+03  0.12005082242E+04  0.90223929782E+03 0.  0.
         23    2    4    4    0    0 -0.42259846641E+03  0.52344269946E+03 -0.68277679174E+03  0.96192191368E+03  0.80795403698E+02 0.  0.
         23    2    4    4    0    0  0.76246621346E+02 -0.20124461437E+03  0.47628746676E+02  0.23858631048E+03  0.91334483962E+02 0.  0.
          3    1    3    3  502    0  0.84805536208E+01 -0.12494897996E+02 -0.43085788912E+02  0.45655530572E+02  0.00000000000E+00 0. -1.
         -4    1    3    3    0  502  0.33787129144E+03 -0.30970318709E+03 -0.44733779500E+03  0.64045622528E+03  0.00000000000E+00 0.  1.
         11    1    5    5    0    0 -0.39815431338E+02  0.81327385093E+02 -0.66530644249E+02  0.11236431267E+03  0.00000000000E+00 0.  1.
        -11    1    5    5    0    0 -0.38278303507E+03  0.44211531437E+03 -0.61624614749E+03  0.84955760101E+03  0.00000000000E+00 0. -1.
          1    1    6    6  503    0  0.72990921123E+02 -0.19588605576E+03  0.65967921801E+02  0.21920489984E+03  0.00000000000E+00 0. -1.
         -1    1    6    6    0  503  0.32557002235E+01 -0.53585586138E+01 -0.18339175125E+02  0.19381410646E+02  0.00000000000E+00 0.  1.
<mgrwt>
<rscale>  0 0.15140751E+04</rscale>
<asrwt>0</asrwt>
<pdfrwt beam="1">  1        1 0.23170705E+00 0.15140751E+04</pdfrwt>
<pdfrwt beam="2">  1       -2 0.58542179E-01 0.15140751E+04</pdfrwt>
<totfact> 0.14983906E+01</totfact>
</mgrwt>
</event>
<event>
12    4  0.4486176E-008  0.1923345E+04  0.7818608E-02  0.8643323E-01
          1   -1    0    0  501    0  0.00000000000E+00  0.00000000000E+00  0.15735600973E+04  0.15735600973E+04  0.00000000000E+00 0. -1.
         -2   -1    0    0    0  501 -0.00000000000E+00 -0.00000000000E+00 -0.58772052055E+03  0.58772052055E+03  0.00000000000E+00 0.  1.
        -24    2    1    2    0    0  0.73601591886E+02  0.12934343916E+03 -0.43935820272E+03  0.47063541400E+03  0.79467874193E+02 0.  0.
        254    2    1    2    0    0 -0.73601591886E+02 -0.12934343916E+03  0.14251977795E+04  0.16906452038E+04  0.89718759191E+03 0.  0.
         23    2    4    4    0    0  0.30792459236E+03 -0.17034323934E+03  0.22659773132E+03  0.42870570606E+03  0.92777566268E+02 0.  0.
         23    2    4    4    0    0 -0.38152618425E+03  0.40999800183E+02  0.11986000481E+04  0.12619394978E+04  0.92768570928E+02 0.  0.
          3    1    3    3  502    0  0.62678985606E+02  0.38597268701E+02 -0.14830606108E+03  0.16556899511E+03  0.00000000000E+00 0. -1.
         -4    1    3    3    0  502  0.10922606281E+02  0.90746170454E+02 -0.29105214165E+03  0.30506641889E+03  0.00000000000E+00 0.  1.
         11    1    5    5    0    0  0.10044307845E+02  0.31755842061E+01  0.30127437785E+02  0.31916061202E+02  0.00000000000E+00 0. -1.
        -11    1    5    5    0    0  0.29788028451E+03 -0.17351882354E+03  0.19647029354E+03  0.39678964486E+03  0.00000000000E+00 0.  1.
          4    1    6    6  503    0 -0.10953495183E+03 -0.29695380021E+02  0.32439712200E+03  0.34367603063E+03  0.00000000000E+00 0. -1.
         -4    1    6    6    0  503 -0.27199123242E+03  0.70695180205E+02  0.87420292615E+03  0.91826346715E+03  0.00000000000E+00 0.  1.
<mgrwt>
<rscale>  0 0.19233445E+04</rscale>
<asrwt>0</asrwt>
<pdfrwt beam="1">  1        1 0.24208617E+00 0.19233445E+04</pdfrwt>
<pdfrwt beam="2">  1       -2 0.90418542E-01 0.19233445E+04</pdfrwt>
<totfact> 0.49863179E+00</totfact>
</mgrwt>
</event>
<event>
12    4  0.4486176E-008  0.2429940E+04  0.7818608E-02  0.8428379E-01
          1   -1    0    0  501    0  0.00000000000E+00  0.00000000000E+00  0.21566761059E+04  0.21566761059E+04  0.00000000000E+00 0. -1.
         -4   -1    0    0    0  501 -0.00000000000E+00 -0.00000000000E+00 -0.68445695492E+03  0.68445695492E+03  0.00000000000E+00 0.  1.
        -24    2    1    2    0    0 -0.15733650231E+03  0.67427438048E+03 -0.28369785020E+03  0.75238774989E+03  0.78753672023E+02 0.  0.
        254    2    1    2    0    0  0.15733650231E+03 -0.67427438048E+03  0.17559170012E+04  0.20887453110E+04  0.89454555157E+03 0.  0.
         23    2    4    4    0    0 -0.61500632326E+02  0.11527921463E+03  0.12553330486E+02  0.16030523582E+03  0.92024765268E+02 0.  0.
         23    2    4    4    0    0  0.21883713464E+03 -0.78955359511E+03  0.17433636707E+04  0.19284400752E+04  0.90992658940E+02 0.  0.
          1    1    3    3  502    0 -0.10429497807E+03  0.29514070648E+03 -0.10761807732E+03  0.33100925915E+03  0.00000000000E+00 0. -1.
         -2    1    3    3    0  502 -0.53041524245E+02  0.37913367399E+03 -0.17607977287E+03  0.42137849075E+03  0.00000000000E+00 0.  1.
         11    1    5    5    0    0 -0.61017585324E+02  0.53109428495E+02  0.42409542516E+02  0.91336336746E+02  0.00000000000E+00 0.  1.
        -11    1    5    5    0    0 -0.48304700176E+00  0.62169786139E+02 -0.29856212030E+02  0.68968899076E+02  0.00000000000E+00 0. -1.
          3    1    6    6  503    0  0.17063236528E+02 -0.19567310406E+03  0.45088677197E+03  0.49181093810E+03  0.00000000000E+00 0. -1.
         -3    1    6    6    0  503  0.20177389811E+03 -0.59388049105E+03  0.12924768988E+04  0.14366291371E+04  0.00000000000E+00 0.  1.
<mgrwt>
<rscale>  0 0.24299399E+04</rscale>
<asrwt>0</asrwt>
<pdfrwt beam="1">  1        1 0.33179632E+00 0.24299399E+04</pdfrwt>
<pdfrwt beam="2">  1       -4 0.10530107E+00 0.24299399E+04</pdfrwt>
<totfact> 0.74779827E-01</totfact>
</mgrwt>
</event>
<event>
12    4  0.4486176E-008  0.3445375E+04  0.7818608E-02  0.8126859E-01
         -2   -1    0    0    0  501 -0.00000000000E+00  0.00000000000E+00  0.15751098033E+04  0.15751098033E+04  0.00000000000E+00 0.  1.
          1   -1    0    0  501    0  0.00000000000E+00 -0.00000000000E+00 -0.18840927453E+04  0.18840927453E+04  0.00000000000E+00 0. -1.
        -24    2    1    2    0    0 -0.55291962729E+03  0.40520814507E+03 -0.15971867241E+04  0.17398815734E+04  0.79175138892E+02 0.  0.
        254    2    1    2    0    0  0.55291962729E+03 -0.40520814507E+03  0.12882037821E+04  0.17193209753E+04  0.90922047762E+03 0.  0.
         23    2    4    4    0    0  0.70090932542E+02 -0.41729226441E+03  0.11624567826E+03  0.44791691734E+03  0.89838379133E+02 0.  0.
         23    2    4    4    0    0  0.48282869475E+03  0.12084119343E+02  0.11719581038E+04  0.12714040580E+04  0.98554082141E+02 0.  0.
          1    1    3    3  502    0 -0.53382894895E+03  0.39527575778E+03 -0.15024790122E+04  0.16427597066E+04  0.00000000000E+00 0. -1.
         -4    1    3    3    0  502 -0.19090678347E+02  0.99323872932E+01 -0.94707711897E+02  0.97121866795E+02  0.00000000000E+00 0.  1.
         11    1    5    5    0    0  0.38942103128E+02 -0.77829705058E+02  0.50903779401E+02  0.10082234446E+03  0.00000000000E+00 0.  1.
        -11    1    5    5    0    0  0.31148829414E+02 -0.33946255936E+03  0.65341898855E+02  0.34709457288E+03  0.00000000000E+00 0. -1.
          1    1    6    6  503    0  0.34965618613E+03 -0.32909400248E+02  0.79632118683E+03  0.87032747269E+03  0.00000000000E+00 0. -1.
         -1    1    6    6    0  503  0.13317250862E+03  0.44993519590E+02  0.37563691698E+03  0.40107658527E+03  0.00000000000E+00 0.  1.
<mgrwt>
<rscale>  0 0.34453754E+04</rscale>
<asrwt>0</asrwt>
<pdfrwt beam="1">  1        1 0.28986042E+00 0.34453754E+04</pdfrwt>
<pdfrwt beam="2">  1       -2 0.24232458E+00 0.34453754E+04</pdfrwt>
<totfact> 0.18440830E-01</totfact>
</mgrwt>
</event>
<event>
12    4  0.4486176E-008  0.1420538E+04  0.7818608E-02  0.8939085E-01
         -2   -1    0    0    0  501 -0.00000000000E+00  0.00000000000E+00  0.42934692824E+03  0.42934692824E+03  0.00000000000E+00 0.  1.
          1   -1    0    0  501    0  0.00000000000E+00 -0.00000000000E+00 -0.11749985030E+04  0.11749985030E+04  0.00000000000E+00 0. -1.
        -24    2    1    2    0    0  0.26412106696E+03 -0.29614375800E+03 -0.37781985621E+02  0.40648997603E+03  0.79659015530E+02 0.  0.
        254    2    1    2    0    0 -0.26412106696E+03  0.29614375800E+03 -0.70786958914E+03  0.11978554552E+04  0.88108868619E+03 0.  0.
         23    2    4    4    0    0  0.25423352001E+03  0.28987790245E+03 -0.48538214452E+03  0.62644954134E+03  0.90439596387E+02 0.  0.
         23    2    4    4    0    0 -0.51835458697E+03  0.62658555492E+01 -0.22248744462E+03  0.57140591387E+03  0.90957773798E+02 0.  0.
          1    1    3    3  502    0  0.89736498814E+02 -0.13059471896E+03 -0.48767297320E+02  0.16578862786E+03  0.00000000000E+00 0. -1.
         -2    1    3    3    0  502  0.17438456815E+03 -0.16554903904E+03  0.10985311699E+02  0.24070134816E+03  0.00000000000E+00 0.  1.
         11    1    5    5    0    0  0.72059563006E+01  0.72640967702E+01 -0.52519479581E+02  0.53506902765E+02  0.00000000000E+00 0. -1.
        -11    1    5    5    0    0  0.24702756371E+03  0.28261380568E+03 -0.43286266494E+03  0.57294263857E+03  0.00000000000E+00 0.  1.
          1    1    6    6  503    0 -0.57072982318E+02  0.25800191718E+02 -0.11058913026E+02  0.63602474485E+02  0.00000000000E+00 0. -1.
         -1    1    6    6    0  503 -0.46128160465E+03 -0.19534336169E+02 -0.21142853159E+03  0.50780343939E+03  0.00000000000E+00 0.  1.
<mgrwt>
<rscale>  0 0.14205379E+04</rscale>
<asrwt>0</asrwt>
<pdfrwt beam="1">  1        1 0.18076900E+00 0.14205379E+04</pdfrwt>
<pdfrwt beam="2">  1       -2 0.66053374E-01 0.14205379E+04</pdfrwt>
<totfact> 0.20069747E+01</totfact>
</mgrwt>
</event>
<event>
12    4  0.4486176E-008  0.1139513E+04  0.7818608E-02  0.9167513E-01
         -2   -1    0    0    0  501 -0.00000000000E+00  0.00000000000E+00  0.11798848124E+03  0.11798848124E+03  0.00000000000E+00 0.  1.
          1   -1    0    0  501    0  0.00000000000E+00 -0.00000000000E+00 -0.27513063827E+04  0.27513063827E+04  0.00000000000E+00 0. -1.
        -24    2    1    2    0    0 -0.24725521893E+00 -0.17094928320E+03 -0.77168664069E+03  0.79376817576E+03  0.73102167313E+02 0.  0.
        254    2    1    2    0    0  0.24725521893E+00  0.17094928320E+03 -0.18616312608E+04  0.20755266882E+04  0.90161874632E+03 0.  0.
         23    2    4    4    0    0  0.31147688153E+03  0.23154905372E+03 -0.35518020899E+03  0.53337445798E+03  0.87763999248E+02 0.  0.
         23    2    4    4    0    0 -0.31122962631E+03 -0.60599770517E+02 -0.15064510518E+04  0.15421522302E+04  0.91118149674E+02 0.  0.
          1    1    3    3  502    0  0.11221868518E+02 -0.49451145271E+02 -0.38382832091E+03  0.38716343581E+03  0.00000000000E+00 0. -1.
         -2    1    3    3    0  502 -0.11469123737E+02 -0.12149813793E+03 -0.38785831978E+03  0.40660473994E+03  0.00000000000E+00 0.  1.
         11    1    5    5    0    0  0.18454648057E+03  0.12534141156E+03 -0.25947475759E+03  0.34219150015E+03  0.00000000000E+00 0.  1.
        -11    1    5    5    0    0  0.12693040096E+03  0.10620764216E+03 -0.95705451395E+02  0.19118295784E+03  0.00000000000E+00 0. -1.
          4    1    6    6  503    0 -0.18196198068E+03 -0.25866205827E+02 -0.10688827792E+04  0.10845688630E+04  0.00000000000E+00 0. -1.
         -4    1    6    6    0  503 -0.12926764564E+03 -0.34733564690E+02 -0.43756827267E+03  0.45758336724E+03  0.00000000000E+00 0.  1.
<mgrwt>
<rscale>  0 0.11395130E+04</rscale>
<asrwt>0</asrwt>
<pdfrwt beam="1">  1        1 0.42327790E+00 0.11395130E+04</pdfrwt>
<pdfrwt beam="2">  1       -2 0.18152074E-01 0.11395130E+04</pdfrwt>
<totfact> 0.20170525E+01</totfact>
</mgrwt>
</event>
<event>
12    4  0.4486176E-008  0.3007105E+04  0.7818608E-02  0.8241705E-01
         -2   -1    0    0    0  501 -0.00000000000E+00  0.00000000000E+00  0.14744339395E+04  0.14744339395E+04  0.00000000000E+00 0.  1.
          1   -1    0    0  501    0  0.00000000000E+00 -0.00000000000E+00 -0.15332464937E+04  0.15332464937E+04  0.00000000000E+00 0. -1.
        -24    2    1    2    0    0 -0.65654319494E+03  0.16146061469E+03 -0.12134633293E+04  0.13917683598E+04  0.86066362393E+02 0.  0.
        254    2    1    2    0    0  0.65654319494E+03 -0.16146061469E+03  0.11546507752E+04  0.16159120734E+04  0.90599940361E+03 0.  0.
         23    2    4    4    0    0  0.16626073512E+03 -0.49015429309E+03  0.63323999903E+03  0.82270044938E+03  0.89158678532E+02 0.  0.
         23    2    4    4    0    0  0.49028245983E+03  0.32869367840E+03  0.52141077615E+03  0.79321162400E+03  0.94334820347E+02 0.  0.
          1    1    3    3  502    0 -0.45198283206E+03  0.70936771074E+02 -0.79380792316E+03  0.91621587240E+03  0.00000000000E+00 0. -1.
         -2    1    3    3    0  502 -0.20456036289E+03  0.90523843612E+02 -0.41965540618E+03  0.47555248739E+03  0.00000000000E+00 0.  1.
         11    1    5    5    0    0  0.14465445342E+03 -0.34038631523E+03  0.40103528348E+03  0.54554289757E+03  0.00000000000E+00 0. -1.
        -11    1    5    5    0    0  0.21606281694E+02 -0.14976797785E+03  0.23220471555E+03  0.27715755181E+03  0.00000000000E+00 0.  1.
          4    1    6    6  503    0  0.39475288017E+03  0.26873831209E+03  0.36843697160E+03  0.60315497082E+03  0.00000000000E+00 0. -1.
         -4    1    6    6    0  503  0.95529579656E+02  0.59955366316E+02  0.15297380454E+03  0.19005665318E+03  0.00000000000E+00 0.  1.
<mgrwt>
<rscale>  0 0.30071054E+04</rscale>
<asrwt>0</asrwt>
<pdfrwt beam="1">  1        1 0.23588408E+00 0.30071054E+04</pdfrwt>
<pdfrwt beam="2">  1       -2 0.22683599E+00 0.30071054E+04</pdfrwt>
<totfact> 0.41478911E-01</totfact>
</mgrwt>
</event>
<event>
12    4  0.4486176E-008  0.1609669E+04  0.7818608E-02  0.8814630E-01
          1   -1    0    0  501    0  0.00000000000E+00  0.00000000000E+00  0.13276768671E+04  0.13276768671E+04  0.00000000000E+00 0. -1.
         -2   -1    0    0    0  501 -0.00000000000E+00 -0.00000000000E+00 -0.48788857637E+03  0.48788857637E+03  0.00000000000E+00 0.  1.
        -24    2    1    2    0    0 -0.49280777136E+03 -0.22814151128E+03  0.19808817305E+03  0.58352844805E+03  0.79740057059E+02 0.  0.
        254    2    1    2    0    0  0.49280777136E+03  0.22814151128E+03  0.64170011772E+03  0.12320369955E+04  0.90068200182E+03 0.  0.
         23    2    4    4    0    0 -0.81987740645E+02  0.42097564823E+03  0.27942803420E+03  0.51999699748E+03  0.91511557045E+02 0.  0.
         23    2    4    4    0    0  0.57479551201E+03 -0.19283413695E+03  0.36227208351E+03  0.71203999798E+03  0.90471051872E+02 0.  0.
          3    1    3    3  502    0 -0.29559266041E+03 -0.13767990845E+03  0.16005748760E+03  0.36324809348E+03  0.00000000000E+00 0. -1.
         -4    1    3    3    0  502 -0.19721511096E+03 -0.90461602828E+02  0.38030685443E+02  0.22028035457E+03  0.00000000000E+00 0.  1.
         11    1    5    5    0    0 -0.23627154123E+02  0.17768855116E+03  0.16957443065E+03  0.24675281388E+03  0.00000000000E+00 0. -1.
        -11    1    5    5    0    0 -0.58360586523E+02  0.24328709707E+03  0.10985360355E+03  0.27324418361E+03  0.00000000000E+00 0.  1.
          2    1    6    6  503    0  0.54053731712E+03 -0.18846711953E+03  0.31469017563E+03  0.65324601260E+03  0.00000000000E+00 0.  1.
         -2    1    6    6    0  503  0.34258194887E+02 -0.43670174210E+01  0.47581907887E+02  0.58793985374E+02  0.00000000000E+00 0. -1.
<mgrwt>
<rscale>  0 0.16096688E+04</rscale>
<asrwt>0</asrwt>
<pdfrwt beam="1">  1        1 0.20425798E+00 0.16096688E+04</pdfrwt>
<pdfrwt beam="2">  1       -2 0.75059781E-01 0.16096688E+04</pdfrwt>
<totfact> 0.11588152E+01</totfact>
</mgrwt>
</event>
<event>
12    4  0.4486176E-008  0.1527942E+04  0.7818608E-02  0.8866081E-01
          1   -1    0    0  501    0  0.00000000000E+00  0.00000000000E+00  0.14832834678E+04  0.14832834678E+04  0.00000000000E+00 0. -1.
         -2   -1    0    0    0  501 -0.00000000000E+00 -0.00000000000E+00 -0.39348643160E+03  0.39348643160E+03  0.00000000000E+00 0.  1.
        -24    2    1    2    0    0  0.40548378252E+03 -0.34094496187E+02  0.33875305332E+01  0.41482080678E+03  0.80531321992E+02 0.  0.
        254    2    1    2    0    0 -0.40548378252E+03  0.34094496187E+02  0.10864095057E+04  0.14619490927E+04  0.88962351750E+03 0.  0.
         23    2    4    4    0    0 -0.39287481044E+03  0.36840271583E+03  0.35291921497E+03  0.65055922189E+03  0.92758563912E+02 0.  0.
         23    2    4    4    0    0 -0.12608972073E+02 -0.33430821964E+03  0.73349029072E+03  0.81138987077E+03  0.91785314176E+02 0.  0.
          3    1    3    3  502    0  0.62765601390E+02  0.14994818844E+02 -0.20692768637E+02  0.67768399597E+02  0.00000000000E+00 0. -1.
         -4    1    3    3    0  502  0.34271818113E+03 -0.49089315031E+02  0.24080299170E+02  0.34705240719E+03  0.00000000000E+00 0.  1.
         11    1    5    5    0    0 -0.20899151272E+03  0.23015461124E+03  0.24811554264E+03  0.39775610613E+03  0.00000000000E+00 0.  1.
        -11    1    5    5    0    0 -0.18388329772E+03  0.13824810459E+03  0.10480367233E+03  0.25280311576E+03  0.00000000000E+00 0. -1.
          2    1    6    6  503    0 -0.30057133363E+02 -0.29609172129E+03  0.68720273946E+03  0.74888005970E+03  0.00000000000E+00 0. -1.
         -2    1    6    6    0  503  0.17448161290E+02 -0.38216498345E+02  0.46287551263E+02  0.62509811070E+02  0.00000000000E+00 0.  1.
<mgrwt>
<rscale>  0 0.15279423E+04</rscale>
<asrwt>0</asrwt>
<pdfrwt beam="1">  1        1 0.22819745E+00 0.15279423E+04</pdfrwt>
<pdfrwt beam="2">  1       -2 0.60536375E-01 0.15279423E+04</pdfrwt>
<totfact> 0.14461465E+01</totfact>
</mgrwt>
</event>
<event>
12    4  0.4486176E-008  0.2805188E+04  0.7818608E-02  0.8301660E-01
         -2   -1    0    0    0  501 -0.00000000000E+00  0.00000000000E+00  0.11701410525E+04  0.11701410525E+04  0.00000000000E+00 0.  1.
          3   -1    0    0  501    0  0.00000000000E+00 -0.00000000000E+00 -0.16812246310E+04  0.16812246310E+04  0.00000000000E+00 0. -1.
        -24    2    1    2    0    0 -0.84502155347E+02  0.10526641817E+04  0.46278934877E+03  0.11556988142E+04  0.78887731249E+02 0.  0.
        254    2    1    2    0    0  0.84502155347E+02 -0.10526641817E+04 -0.97387292722E+03  0.16956668692E+04  0.90089686382E+03 0.  0.
         23    2    4    4    0    0 -0.53575653091E+02 -0.10688934719E+04 -0.10599376662E+04  0.15090422519E+04  0.91307484868E+02 0.  0.
         23    2    4    4    0    0  0.13807780844E+03  0.16229290188E+02  0.86064738968E+02  0.18662461735E+03  0.89959643536E+02 0.  0.
          1    1    3    3  502    0 -0.84180407784E+02  0.10051811056E+04  0.45851890301E+03  0.11080230054E+04  0.00000000000E+00 0. -1.
         -2    1    3    3    0  502 -0.32174756375E+00  0.47483076111E+02  0.42704457615E+01  0.47675808808E+02  0.00000000000E+00 0.  1.
         11    1    5    5    0    0 -0.59396901591E+02 -0.10605575499E+04 -0.10568576771E+04  0.14984186525E+04  0.00000000000E+00 0.  1.
        -11    1    5    5    0    0  0.58212485003E+01 -0.83359220408E+01 -0.30799890600E+01  0.10623599342E+02  0.00000000000E+00 0. -1.
          4    1    6    6  503    0  0.77173620960E+02  0.18643499225E+02 -0.21239566632E+01  0.79422031121E+02  0.00000000000E+00 0. -1.
         -4    1    6    6    0  503  0.60904187478E+02 -0.24142090368E+01  0.88188695631E+02  0.10720258623E+03  0.00000000000E+00 0.  1.
<mgrwt>
<rscale>  0 0.28051880E+04</rscale>
<asrwt>0</asrwt>
<pdfrwt beam="1">  1        3 0.25864994E+00 0.28051880E+04</pdfrwt>
<pdfrwt beam="2">  1       -2 0.18002170E+00 0.28051880E+04</pdfrwt>
<totfact> 0.42675517E-02</totfact>
</mgrwt>
</event>
<event>
12    4  0.4486176E-008  0.1572825E+04  0.7818608E-02  0.8837419E-01
          1   -1    0    0  501    0  0.00000000000E+00  0.00000000000E+00  0.13114678602E+04  0.13114678602E+04  0.00000000000E+00 0. -1.
         -2   -1    0    0    0  501 -0.00000000000E+00 -0.00000000000E+00 -0.47156692898E+03  0.47156692898E+03  0.00000000000E+00 0.  1.
        -24    2    1    2    0    0 -0.47874717651E+03  0.22691587880E+03  0.32424418742E+03  0.62603712368E+03  0.78092970772E+02 0.  0.
        254    2    1    2    0    0  0.47874717651E+03 -0.22691587880E+03  0.51565674378E+03  0.11569976655E+04  0.88997305885E+03 0.  0.
         23    2    4    4    0    0  0.72727336213E+03 -0.12360063815E+03  0.43235475199E+03  0.85972971887E+03  0.89447732908E+02 0.  0.
         23    2    4    4    0    0 -0.24852618562E+03 -0.10331524065E+03  0.83301991786E+02  0.29726794662E+03  0.94814062025E+02 0.  0.
          1    1    3    3  502    0 -0.39628361452E+03  0.19572687407E+03  0.23494433308E+03  0.50054825144E+03  0.00000000000E+00 0. -1.
         -2    1    3    3    0  502 -0.82463561984E+02  0.31189004735E+02  0.89299854338E+02  0.12548887224E+03  0.00000000000E+00 0.  1.
         11    1    5    5    0    0  0.46181196617E+03 -0.63559055040E+02  0.22529688770E+03  0.51775354483E+03  0.00000000000E+00 0. -1.
        -11    1    5    5    0    0  0.26546139596E+03 -0.60041583107E+02  0.20705786429E+03  0.34197617404E+03  0.00000000000E+00 0.  1.
          1    1    6    6  503    0 -0.14562927928E+03 -0.20541077841E+02  0.74637373433E+02  0.16492592390E+03  0.00000000000E+00 0. -1.
         -1    1    6    6    0  503 -0.10289690635E+03 -0.82774162813E+02  0.86646183537E+01  0.13234202271E+03  0.00000000000E+00 0.  1.
<mgrwt>
<rscale>  0 0.15728253E+04</rscale>
<asrwt>0</asrwt>
<pdfrwt beam="1">  1        1 0.20176428E+00 0.15728253E+04</pdfrwt>
<pdfrwt beam="2">  1       -2 0.72548759E-01 0.15728253E+04</pdfrwt>
<totfact> 0.12869029E+01</totfact>
</mgrwt>
</event>
<event>
12    4  0.4486176E-008  0.1644506E+04  0.7818608E-02  0.8793663E-01
          1   -1    0    0  501    0  0.00000000000E+00  0.00000000000E+00  0.23316082978E+04  0.23316082978E+04  0.00000000000E+00 0. -1.
         -2   -1    0    0    0  501 -0.00000000000E+00 -0.00000000000E+00 -0.28997155534E+03  0.28997155534E+03  0.00000000000E+00 0.  1.
        -24    2    1    2    0    0 -0.47557812884E+03  0.29955983956E+03  0.55719898696E+03  0.79539762609E+03  0.79221325434E+02 0.  0.
        254    2    1    2    0    0  0.47557812884E+03 -0.29955983956E+03  0.14844377555E+04  0.18261822271E+04  0.90303677797E+03 0.  0.
         23    2    4    4    0    0  0.56480559022E+03  0.72504493075E+02  0.49104526113E+03  0.75747803540E+03  0.91571116486E+02 0.  0.
         23    2    4    4    0    0 -0.89227461377E+02 -0.37206433263E+03  0.99339249440E+03  0.10687041917E+04  0.94374752518E+02 0.  0.
          1    1    3    3  502    0 -0.32058636249E+03  0.18801552915E+03  0.41646527286E+03  0.55818346313E+03  0.00000000000E+00 0. -1.
         -4    1    3    3    0  502 -0.15499176635E+03  0.11154431041E+03  0.14073371411E+03  0.23721416296E+03  0.00000000000E+00 0.  1.
         11    1    5    5    0    0  0.29920947087E+03  0.80959937820E+02  0.24147625267E+03  0.39292696470E+03  0.00000000000E+00 0.  1.
        -11    1    5    5    0    0  0.26559611935E+03 -0.84554447454E+01  0.24956900846E+03  0.36455107069E+03  0.00000000000E+00 0. -1.
          3    1    6    6  503    0 -0.11160551341E+02 -0.23260466065E+01  0.70927236588E+02  0.71837603587E+02  0.00000000000E+00 0. -1.
         -3    1    6    6    0  503 -0.78066910035E+02 -0.36973828603E+03  0.92246525781E+03  0.99686658810E+03  0.00000000000E+00 0.  1.
<mgrwt>
<rscale>  0 0.16445061E+04</rscale>
<asrwt>0</asrwt>
<pdfrwt beam="1">  1        1 0.35870896E+00 0.16445061E+04</pdfrwt>
<pdfrwt beam="2">  1       -2 0.44611010E-01 0.16445061E+04</pdfrwt>
<totfact> 0.70910276E+00</totfact>
</mgrwt>
</event>
<event>
12    4  0.4486176E-008  0.2141045E+04  0.7818608E-02  0.8543375E-01
         -2   -1    0    0    0  501 -0.00000000000E+00  0.00000000000E+00  0.58665535261E+03  0.58665535261E+03  0.00000000000E+00 0.  1.
          1   -1    0    0  501    0  0.00000000000E+00 -0.00000000000E+00 -0.19534775909E+04  0.19534775909E+04  0.00000000000E+00 0. -1.
        -24    2    1    2    0    0  0.63035680209E+03 -0.51802205648E+03 -0.18255269632E+03  0.84009985878E+03  0.82132434803E+02 0.  0.
        254    2    1    2    0    0 -0.63035680209E+03  0.51802205648E+03 -0.11842695419E+04  0.17000330847E+04  0.90659891472E+03 0.  0.
         23    2    4    4    0    0  0.15832929734E+03 -0.10386399019E+03 -0.19763875166E+03  0.28920937551E+03  0.93408200221E+02 0.  0.
         23    2    4    4    0    0 -0.78868609943E+03  0.62188604667E+03 -0.98663079028E+03  0.14108237092E+04  0.90637760495E+02 0.  0.
          1    1    3    3  502    0  0.29028859541E+03 -0.24567019251E+03 -0.43544806376E+02  0.38277599491E+03  0.00000000000E+00 0. -1.
         -2    1    3    3    0  502  0.34006820668E+03 -0.27235186397E+03 -0.13900788994E+03  0.45732386387E+03  0.00000000000E+00 0.  1.
         11    1    5    5    0    0  0.84422802431E+02 -0.54491739772E+01 -0.10677036266E+03  0.13622339524E+03  0.00000000000E+00 0. -1.
        -11    1    5    5    0    0  0.73906494912E+02 -0.98414816208E+02 -0.90868389000E+02  0.15298598027E+03  0.00000000000E+00 0.  1.
          2    1    6    6  503    0 -0.12398805952E+03  0.60373149974E+02 -0.14933783001E+03  0.20327258451E+03  0.00000000000E+00 0. -1.
         -2    1    6    6    0  503 -0.66469803991E+03  0.56151289670E+03 -0.83729296027E+03  0.12075511247E+04  0.00000000000E+00 0.  1.
<mgrwt>
<rscale>  0 0.21410447E+04</rscale>
<asrwt>0</asrwt>
<pdfrwt beam="1">  1        1 0.30053501E+00 0.21410447E+04</pdfrwt>
<pdfrwt beam="2">  1       -2 0.90254671E-01 0.21410447E+04</pdfrwt>
<totfact> 0.27082072E+00</totfact>
</mgrwt>
</event>
<event>
12    4  0.4486176E-008  0.2742957E+04  0.7818608E-02  0.8321200E-01
         -2   -1    0    0    0  501 -0.00000000000E+00  0.00000000000E+00  0.99182212420E+03  0.99182212420E+03  0.00000000000E+00 0.  1.
          1   -1    0    0  501    0  0.00000000000E+00 -0.00000000000E+00 -0.18964623043E+04  0.18964623043E+04  0.00000000000E+00 0. -1.
        -24    2    1    2    0    0 -0.52594832559E+03 -0.41657400759E+02  0.75576763895E+03  0.92516658274E+03  0.79946866787E+02 0.  0.
        254    2    1    2    0    0  0.52594832559E+03  0.41657400759E+02 -0.16604078191E+04  0.19631178458E+04  0.90472126678E+03 0.  0.
         23    2    4    4    0    0  0.49671810469E+03 -0.13381756720E+03 -0.16859873343E+04  0.17650692388E+04  0.90995106644E+02 0.  0.
         23    2    4    4    0    0  0.29230220896E+02  0.17547496796E+03  0.25579515242E+02  0.19804860699E+03  0.83204981447E+02 0.  0.
          3    1    3    3  502    0 -0.46458376789E+02 -0.14548817425E+02  0.38993420422E+02  0.62374158900E+02  0.00000000000E+00 0. -1.
         -4    1    3    3    0  502 -0.47948994880E+03 -0.27108583334E+02  0.71677421853E+03  0.86279242384E+03  0.00000000000E+00 0.  1.
         11    1    5    5    0    0  0.24428267611E+03 -0.60664310484E+02 -0.97808994046E+03  0.10099574823E+04  0.00000000000E+00 0.  1.
        -11    1    5    5    0    0  0.25243542859E+03 -0.73153256715E+02 -0.70789739388E+03  0.75511175652E+03  0.00000000000E+00 0. -1.
          1    1    6    6  503    0  0.12413783486E+02  0.14627338097E+02 -0.22270026432E+02  0.29394134066E+02  0.00000000000E+00 0. -1.
         -1    1    6    6    0  503  0.16816437410E+02  0.16084762986E+03  0.47849541674E+02  0.16865447292E+03  0.00000000000E+00 0.  1.
<mgrwt>
<rscale>  0 0.27429570E+04</rscale>
<asrwt>0</asrwt>
<pdfrwt beam="1">  1        1 0.29176343E+00 0.27429570E+04</pdfrwt>
<pdfrwt beam="2">  1       -2 0.15258802E+00 0.27429570E+04</pdfrwt>
<totfact> 0.76685019E-01</totfact>
</mgrwt>
</event>
<event>
12    4  0.4486176E-008  0.2038043E+04  0.7818608E-02  0.8589038E-01
          1   -1    0    0  501    0  0.00000000000E+00  0.00000000000E+00  0.24822970370E+04  0.24822970370E+04  0.00000000000E+00 0. -1.
         -2   -1    0    0    0  501 -0.00000000000E+00 -0.00000000000E+00 -0.41832413563E+03  0.41832413563E+03  0.00000000000E+00 0.  1.
        -24    2    1    2    0    0 -0.27103946192E+02 -0.29764066621E+03 -0.25333500085E+03  0.39981496562E+03  0.79679319789E+02 0.  0.
        254    2    1    2    0    0  0.27103946192E+02  0.29764066621E+03  0.23173079022E+04  0.25008062070E+04  0.89151061757E+03 0.  0.
         23    2    4    4    0    0  0.17702783106E+03  0.31155960629E+02  0.21106898489E+04  0.21208531676E+04  0.10342617470E+03 0.  0.
         23    2    4    4    0    0 -0.14992388487E+03  0.26648470558E+03  0.20661805330E+03  0.37995303935E+03  0.90454533317E+02 0.  0.
          3    1    3    3  502    0 -0.78165041438E+01 -0.14200160561E+03 -0.17189786580E+03  0.22310183774E+03  0.00000000000E+00 0. -1.
         -4    1    3    3    0  502 -0.19287442049E+02 -0.15563906060E+03 -0.81437135047E+02  0.17671312789E+03  0.00000000000E+00 0.  1.
         11    1    5    5    0    0  0.11782092608E+03  0.62036927835E+02  0.16478411799E+04  0.16532122989E+04  0.00000000000E+00 0.  1.
        -11    1    5    5    0    0  0.59206904978E+02 -0.30880967206E+02  0.46284866899E+03  0.46764086875E+03  0.00000000000E+00 0. -1.
          4    1    6    6  503    0 -0.49738779073E+02  0.41308078128E+02  0.80036654030E+02  0.10288911240E+03  0.00000000000E+00 0. -1.
         -4    1    6    6    0  503 -0.10018510579E+03  0.22517662745E+03  0.12658139927E+03  0.27706392695E+03  0.00000000000E+00 0.  1.
<mgrwt>
<rscale>  0 0.20380429E+04</rscale>
<asrwt>0</asrwt>
<pdfrwt beam="1">  1        1 0.38189184E+00 0.20380429E+04</pdfrwt>
<pdfrwt beam="2">  1       -2 0.64357561E-01 0.20380429E+04</pdfrwt>
<totfact> 0.25256318E+00</totfact>
</mgrwt>
</event>
<event>
12    4  0.4486176E-008  0.2604258E+04  0.7818608E-02  0.8366756E-01
          1   -1    0    0  501    0  0.00000000000E+00  0.00000000000E+00  0.17028856448E+04  0.17028856448E+04  0.00000000000E+00 0. -1.
         -2   -1    0    0    0  501 -0.00000000000E+00 -0.00000000000E+00 -0.99568595200E+03  0.99568595200E+03  0.00000000000E+00 0.  1.
        -24    2    1    2    0    0  0.49587857225E+03  0.20482197003E+03  0.13621487092E+04  0.14661627711E+04  0.79602561145E+02 0.  0.
        254    2    1    2    0    0 -0.49587857225E+03 -0.20482197003E+03 -0.65494901637E+03  0.12324088257E+04  0.89555887674E+03 0.  0.
         23    2    4    4    0    0  0.21244641341E+03  0.10451985570E+03 -0.24416983534E+03  0.35225933520E+03  0.91705244874E+02 0.  0.
         23    2    4    4    0    0 -0.70832498566E+03 -0.30934182573E+03 -0.41077918103E+03  0.88014949047E+03  0.92233071886E+02 0.  0.
          3    1    3    3  502    0  0.25993581034E+03  0.13425742192E+03  0.65529602336E+03  0.71763818116E+03  0.00000000000E+00 0. -1.
         -4    1    3    3    0  502  0.23594276191E+03  0.70564548112E+02  0.70685268580E+03  0.74852458996E+03  0.00000000000E+00 0.  1.
         11    1    5    5    0    0  0.70021566505E+01 -0.14330144498E+02 -0.99112444226E+01  0.18778072454E+02  0.00000000000E+00 0. -1.
        -11    1    5    5    0    0  0.20544425676E+03  0.11885000020E+03 -0.23425859092E+03  0.33348126274E+03  0.00000000000E+00 0.  1.
          4    1    6    6  503    0 -0.56023096244E+02 -0.58144903893E+01 -0.12097684732E+02  0.57608589525E+02  0.00000000000E+00 0. -1.
         -4    1    6    6    0  503 -0.65230188941E+03 -0.30352733534E+03 -0.39868149630E+03  0.82254090094E+03  0.00000000000E+00 0.  1.
<mgrwt>
<rscale>  0 0.26042575E+04</rscale>
<asrwt>0</asrwt>
<pdfrwt beam="1">  1        1 0.26198241E+00 0.26042575E+04</pdfrwt>
<pdfrwt beam="2">  1       -2 0.15318245E+00 0.26042575E+04</pdfrwt>
<totfact> 0.10397123E+00</totfact>
</mgrwt>
</event>
<event>
12    4  0.4486176E-008  0.1608934E+04  0.7818608E-02  0.8815078E-01
          1   -1    0    0  501    0  0.00000000000E+00  0.00000000000E+00  0.31727431516E+03  0.31727431516E+03  0.00000000000E+00 0. -1.
         -2   -1    0    0    0  501 -0.00000000000E+00 -0.00000000000E+00 -0.20397720559E+04  0.20397720559E+04  0.00000000000E+00 0.  1.
        -24    2    1    2    0    0  0.35445654023E+02 -0.14836915516E+03  0.18107888720E+03  0.24770547118E+03  0.72791733534E+02 0.  0.
        254    2    1    2    0    0 -0.35445654023E+02  0.14836915516E+03 -0.19035766280E+04  0.21093408999E+04  0.89579308598E+03 0.  0.
         23    2    4    4    0    0 -0.19314832296E+03 -0.26767558670E+03 -0.13515802408E+04  0.13941989675E+04  0.89806010249E+02 0.  0.
         23    2    4    4    0    0  0.15770266894E+03  0.41604474186E+03 -0.55199638721E+03  0.71514193238E+03  0.93619511502E+02 0.  0.
          3    1    3    3  502    0 -0.17896489096E+02 -0.12521780482E+02  0.34693453207E+02  0.40996524289E+02  0.00000000000E+00 0. -1.
         -4    1    3    3    0  502  0.53342143119E+02 -0.13584737468E+03  0.14638543399E+03  0.20670894689E+03  0.00000000000E+00 0.  1.
         11    1    5    5    0    0 -0.15265975376E+03 -0.15097485503E+03 -0.95445880093E+03  0.97830977198E+03  0.00000000000E+00 0.  1.
        -11    1    5    5    0    0 -0.40488569207E+02 -0.11670073167E+03 -0.39712143983E+03  0.41588919556E+03  0.00000000000E+00 0. -1.
          2    1    6    6  503    0  0.82151289157E+02  0.16450870722E+03 -0.29545167361E+03  0.34799948347E+03  0.00000000000E+00 0. -1.
         -2    1    6    6    0  503  0.75551379784E+02  0.25153603464E+03 -0.25654471360E+03  0.36714244890E+03  0.00000000000E+00 0.  1.
<mgrwt>
<rscale>  0 0.16089342E+04</rscale>
<asrwt>0</asrwt>
<pdfrwt beam="1">  1        1 0.48811432E-01 0.16089342E+04</pdfrwt>
<pdfrwt beam="2">  1       -2 0.31381109E+00 0.16089342E+04</pdfrwt>
<totfact> 0.17910450E+00</totfact>
</mgrwt>
</event>
<event>
12    4  0.4486176E-008  0.1453773E+04  0.7818608E-02  0.8915789E-01
          1   -1    0    0  501    0  0.00000000000E+00  0.00000000000E+00  0.22518228180E+04  0.22518228180E+04  0.00000000000E+00 0. -1.
         -2   -1    0    0    0  501 -0.00000000000E+00 -0.00000000000E+00 -0.23463824523E+03  0.23463824523E+03  0.00000000000E+00 0.  1.
        -24    2    1    2    0    0 -0.93463822223E+02  0.38122058858E+03  0.27654092406E+03  0.48682790980E+03  0.80385992902E+02 0.  0.
        254    2    1    2    0    0  0.93463822223E+02 -0.38122058858E+03  0.17406436487E+04  0.19996331534E+04  0.90256734559E+03 0.  0.
         23    2    4    4    0    0  0.30266334481E+03 -0.54864618257E+03  0.15024172582E+04  0.16302902649E+04  0.89280433817E+02 0.  0.
         23    2    4    4    0    0 -0.20919952258E+03  0.16742559399E+03  0.23822639045E+03  0.36934288858E+03  0.88693779156E+02 0.  0.
          1    1    3    3  502    0 -0.12785527134E+01  0.10375782504E+03  0.10606598858E+03  0.14838232673E+03  0.00000000000E+00 0. -1.
         -2    1    3    3    0  502 -0.92185269510E+02  0.27746276354E+03  0.17047493548E+03  0.33844558306E+03  0.00000000000E+00 0.  1.
         11    1    5    5    0    0  0.77180645597E+02 -0.22606656144E+03  0.59815632710E+03  0.64409155708E+03  0.00000000000E+00 0. -1.
        -11    1    5    5    0    0  0.22548269921E+03 -0.32257962114E+03  0.90426093115E+03  0.98619870778E+03  0.00000000000E+00 0.  1.
          2    1    6    6  503    0 -0.11160508347E+03  0.13389288518E+03  0.11599299747E+03  0.20937376822E+03  0.00000000000E+00 0. -1.
         -2    1    6    6    0  503 -0.97594439110E+02  0.33532708813E+02  0.12223339299E+03  0.15996912035E+03  0.00000000000E+00 0.  1.
<mgrwt>
<rscale>  0 0.14537727E+04</rscale>
<asrwt>0</asrwt>
<pdfrwt beam="1">  1        1 0.34643426E+00 0.14537727E+04</pdfrwt>
<pdfrwt beam="2">  1       -2 0.36098193E-01 0.14537727E+04</pdfrwt>
<totfact> 0.12379187E+01</totfact>
</mgrwt>
</event>
<event>
12    4  0.4486176E-008  0.1768374E+04  0.7818608E-02  0.8723301E-01
         -2   -1    0    0    0  501 -0.00000000000E+00  0.00000000000E+00  0.56406545111E+03  0.56406545111E+03  0.00000000000E+00 0.  1.
          1   -1    0    0  501    0  0.00000000000E+00 -0.00000000000E+00 -0.13859855298E+04  0.13859855298E+04  0.00000000000E+00 0. -1.
        -24    2    1    2    0    0 -0.50148680625E+03  0.42094257341E+03 -0.36685951238E+03  0.75422057681E+03  0.74706825008E+02 0.  0.
        254    2    1    2    0    0  0.50148680625E+03 -0.42094257341E+03 -0.45506056633E+03  0.11958304041E+04  0.89120624406E+03 0.  0.
         23    2    4    4    0    0  0.30690020836E+03  0.23101389383E+03 -0.28969830169E+03  0.49016141319E+03  0.93690703648E+02 0.  0.
         23    2    4    4    0    0  0.19458659789E+03 -0.65195646724E+03 -0.16536226465E+03  0.70566899094E+03  0.87822929517E+02 0.  0.
          3    1    3    3  502    0 -0.41554204201E+03  0.37177385767E+03 -0.33367485490E+03  0.64979219657E+03  0.00000000000E+00 0. -1.
         -4    1    3    3    0  502 -0.85944764239E+02  0.49168715739E+02 -0.33184657481E+02  0.10442838024E+03  0.00000000000E+00 0.  1.
         11    1    5    5    0    0  0.30404779884E+03  0.22392479449E+03 -0.29636513838E+03  0.48002049208E+03  0.00000000000E+00 0. -1.
        -11    1    5    5    0    0  0.28524095200E+01  0.70890993344E+01  0.66668366973E+01  0.10140921112E+02  0.00000000000E+00 0.  1.
          4    1    6    6  503    0  0.92492880647E+02 -0.45309220325E+03 -0.11521790508E+03  0.47657385919E+03  0.00000000000E+00 0. -1.
         -4    1    6    6    0  503  0.10209371724E+03 -0.19886426399E+03 -0.50144359567E+02  0.22909513174E+03  0.00000000000E+00 0.  1.
<mgrwt>
<rscale>  0 0.17683739E+04</rscale>
<asrwt>0</asrwt>
<pdfrwt beam="1">  1        1 0.21322854E+00 0.17683739E+04</pdfrwt>
<pdfrwt beam="2">  1       -2 0.86779300E-01 0.17683739E+04</pdfrwt>
<totfact> 0.74980990E+00</totfact>
</mgrwt>
</event>
<event>
12    4  0.4486176E-008  0.2115096E+04  0.7818608E-02  0.8554623E-01
         -2   -1    0    0    0  501 -0.00000000000E+00  0.00000000000E+00  0.10093959401E+04  0.10093959401E+04  0.00000000000E+00 0.  1.
          1   -1    0    0  501    0  0.00000000000E+00 -0.00000000000E+00 -0.11079970238E+04  0.11079970238E+04  0.00000000000E+00 0. -1.
        -24    2    1    2    0    0  0.50571612836E+03  0.13291494049E+03 -0.72829803099E+03  0.90016427820E+03  0.80389812275E+02 0.  0.
        254    2    1    2    0    0 -0.50571612836E+03 -0.13291494049E+03  0.62969694725E+03  0.12172286857E+04  0.90095074449E+03 0.  0.
         23    2    4    4    0    0 -0.30668519067E+03  0.20640972773E+03  0.71042901031E+03  0.80610630634E+03  0.91854322415E+02 0.  0.
         23    2    4    4    0    0 -0.19903093769E+03 -0.33932466822E+03 -0.80732063059E+02  0.41112237936E+03  0.88030677486E+02 0.  0.
          1    1    3    3  502    0  0.36515051807E+03  0.13252224817E+03 -0.53764932512E+03  0.66329770383E+03  0.00000000000E+00 0. -1.
         -2    1    3    3    0  502  0.14056561029E+03  0.39269231719E+00 -0.19064870587E+03  0.23686657437E+03  0.00000000000E+00 0.  1.
         11    1    5    5    0    0 -0.13031321550E+03  0.96798771245E+02  0.40933032933E+03  0.44034401865E+03  0.00000000000E+00 0. -1.
        -11    1    5    5    0    0 -0.17637197518E+03  0.10961095649E+03  0.30109868098E+03  0.36576228769E+03  0.00000000000E+00 0.  1.
          1    1    6    6  503    0 -0.20440964634E+03 -0.29862895968E+03 -0.76204243254E+02  0.36982380368E+03  0.00000000000E+00 0. -1.
         -1    1    6    6    0  503  0.53787086557E+01 -0.40695708541E+02 -0.45278198049E+01  0.41298575673E+02  0.00000000000E+00 0.  1.
<mgrwt>
<rscale>  0 0.21150959E+04</rscale>
<asrwt>0</asrwt>
<pdfrwt beam="1">  1        1 0.17046108E+00 0.21150959E+04</pdfrwt>
<pdfrwt beam="2">  1       -2 0.15529168E+00 0.21150959E+04</pdfrwt>
<totfact> 0.27509896E+00</totfact>
</mgrwt>
</event>
<event>
12    4  0.4486176E-008  0.2170072E+04  0.7818608E-02  0.8530989E-01
          1   -1    0    0  501    0  0.00000000000E+00  0.00000000000E+00  0.15119314999E+04  0.15119314999E+04  0.00000000000E+00 0. -1.
         -2   -1    0    0    0  501 -0.00000000000E+00 -0.00000000000E+00 -0.77867509839E+03  0.77867509839E+03  0.00000000000E+00 0.  1.
        -24    2    1    2    0    0 -0.38302080979E+03 -0.35968868288E+03 -0.45955201542E+03  0.70511588140E+03  0.99596495898E+02 0.  0.
        254    2    1    2    0    0  0.38302080979E+03  0.35968868288E+03  0.11928084169E+04  0.15854907169E+04  0.90272255126E+03 0.  0.
         23    2    4    4    0    0 -0.85557964776E+02 -0.15806330839E+03  0.69496269104E+03  0.72275452230E+03  0.84242404872E+02 0.  0.
         23    2    4    4    0    0  0.46857877457E+03  0.51775199128E+03  0.49784572588E+03  0.86273619459E+03  0.93969049339E+02 0.  0.
          3    1    3    3  502    0 -0.11165783953E+03 -0.65301627409E+02 -0.72712695334E+02  0.14838770749E+03  0.00000000000E+00 0. -1.
         -4    1    3    3    0  502 -0.27136297026E+03 -0.29438705548E+03 -0.38683932009E+03  0.55672817391E+03  0.00000000000E+00 0.  1.
         11    1    5    5    0    0 -0.80280328581E+02 -0.59860465094E+02  0.35447390093E+03  0.36834759790E+03  0.00000000000E+00 0.  1.
        -11    1    5    5    0    0 -0.52776361953E+01 -0.98202843298E+02  0.34048879011E+03  0.35440692440E+03  0.00000000000E+00 0. -1.
          2    1    6    6  503    0  0.14795531876E+03  0.15671161246E+03  0.10237745061E+03  0.23860102309E+03  0.00000000000E+00 0. -1.
         -2    1    6    6    0  503  0.32062345581E+03  0.36104037882E+03  0.39546827528E+03  0.62413517150E+03  0.00000000000E+00 0.  1.
<mgrwt>
<rscale>  0 0.21700723E+04</rscale>
<asrwt>0</asrwt>
<pdfrwt beam="1">  1        1 0.23260485E+00 0.21700723E+04</pdfrwt>
<pdfrwt beam="2">  1       -2 0.11979617E+00 0.21700723E+04</pdfrwt>
<totfact> 0.27465556E+00</totfact>
</mgrwt>
</event>
<event>
12    4  0.4486176E-008  0.2280268E+04  0.7818608E-02  0.8485742E-01
          1   -1    0    0  501    0  0.00000000000E+00  0.00000000000E+00  0.73893585157E+03  0.73893585157E+03  0.00000000000E+00 0. -1.
         -2   -1    0    0    0  501 -0.00000000000E+00 -0.00000000000E+00 -0.17591590057E+04  0.17591590057E+04  0.00000000000E+00 0.  1.
        -24    2    1    2    0    0 -0.36329616099E+03 -0.70079268373E+02  0.54131412185E+03  0.66054211832E+03  0.79998169374E+02 0.  0.
        254    2    1    2    0    0  0.36329616099E+03  0.70079268373E+02 -0.15615372760E+04  0.18375527390E+04  0.89515708103E+03 0.  0.
         23    2    4    4    0    0 -0.15027235615E+02  0.37039077436E+03 -0.30699369175E+03  0.48986294947E+03  0.91134181007E+02 0.  0.
         23    2    4    4    0    0  0.37832339661E+03 -0.30031150599E+03 -0.12545435842E+04  0.13476897895E+04  0.95250044133E+02 0.  0.
          3    1    3    3  502    0 -0.31909700873E+03 -0.34593658122E+02  0.47542290350E+03  0.57362580079E+03  0.00000000000E+00 0. -1.
         -4    1    3    3    0  502 -0.44199152263E+02 -0.35485610251E+02  0.65891218352E+02  0.86916317522E+02  0.00000000000E+00 0.  1.
         11    1    5    5    0    0  0.29203108528E+02  0.49763781399E+02 -0.38915698651E+02  0.69596602563E+02  0.00000000000E+00 0. -1.
        -11    1    5    5    0    0 -0.44230344144E+02  0.32062699296E+03 -0.26807799310E+03  0.42026634691E+03  0.00000000000E+00 0.  1.
          4    1    6    6  503    0  0.49285531081E+01  0.42187154867E+01 -0.42239337793E+01  0.77414347939E+01  0.00000000000E+00 0. -1.
         -4    1    6    6    0  503  0.37339484350E+03 -0.30453022147E+03 -0.12503196505E+04  0.13399483547E+04  0.00000000000E+00 0.  1.
<mgrwt>
<rscale>  0 0.22802681E+04</rscale>
<asrwt>0</asrwt>
<pdfrwt beam="1">  1        1 0.11368244E+00 0.22802681E+04</pdfrwt>
<pdfrwt beam="2">  1       -2 0.27063985E+00 0.22802681E+04</pdfrwt>
<totfact> 0.95543487E-01</totfact>
</mgrwt>
</event>
<event>
12    4  0.4486176E-008  0.1315753E+04  0.7818608E-02  0.9017166E-01
         -2   -1    0    0    0  501 -0.00000000000E+00  0.00000000000E+00  0.12504666547E+04  0.12504666547E+04  0.00000000000E+00 0.  1.
          1   -1    0    0  501    0  0.00000000000E+00 -0.00000000000E+00 -0.34611185837E+03  0.34611185837E+03  0.00000000000E+00 0. -1.
        -24    2    1    2    0    0  0.28272137190E+03 -0.14145485350E+03  0.93053938387E+02  0.33913158056E+03  0.80064622516E+02 0.  0.
        254    2    1    2    0    0 -0.28272137190E+03  0.14145485350E+03  0.81130085791E+03  0.12574469325E+04  0.90720607154E+03 0.  0.
         23    2    4    4    0    0  0.14556380053E+03  0.39997149746E+03  0.25642530967E+03  0.50473716919E+03  0.88541807735E+02 0.  0.
         23    2    4    4    0    0 -0.42828517243E+03 -0.25851664396E+03  0.55487554824E+03  0.75270976329E+03  0.91793624942E+02 0.  0.
          3    1    3    3  502    0  0.26116933898E+03 -0.13559360179E+03  0.10663087195E+03  0.31299391579E+03  0.00000000000E+00 0. -1.
         -4    1    3    3    0  502  0.21552032921E+02 -0.58612517107E+01 -0.13576933567E+02  0.26137664772E+02  0.00000000000E+00 0.  1.
         11    1    5    5    0    0  0.10277614760E+03  0.20041722908E+03  0.94674322466E+02  0.24432197928E+03  0.00000000000E+00 0. -1.
        -11    1    5    5    0    0  0.42787652936E+02  0.19955426838E+03  0.16175098720E+03  0.26041518991E+03  0.00000000000E+00 0.  1.
          1    1    6    6  503    0 -0.22838941219E+03 -0.10750349501E+03  0.22247573545E+03  0.33647314589E+03  0.00000000000E+00 0. -1.
         -1    1    6    6    0  503 -0.19989576024E+03 -0.15101314895E+03  0.33239981279E+03  0.41623661740E+03  0.00000000000E+00 0.  1.
<mgrwt>
<rscale>  0 0.13157528E+04</rscale>
<asrwt>0</asrwt>
<pdfrwt beam="1">  1        1 0.53247979E-01 0.13157528E+04</pdfrwt>
<pdfrwt beam="2">  1       -2 0.19237948E+00 0.13157528E+04</pdfrwt>
<totfact> 0.92983261E+00</totfact>
</mgrwt>
</event>
<event>
12    4  0.4486176E-008  0.2103670E+04  0.7818608E-02  0.8559629E-01
         -2   -1    0    0    0  501 -0.00000000000E+00  0.00000000000E+00  0.77080980973E+03  0.77080980973E+03  0.00000000000E+00 0.  1.
          1   -1    0    0  501    0  0.00000000000E+00 -0.00000000000E+00 -0.14353172963E+04  0.14353172963E+04  0.00000000000E+00 0. -1.
        -24    2    1    2    0    0 -0.43438877221E+03 -0.11422760739E+03 -0.10303019361E+04  0.11269253577E+04  0.81835998770E+02 0.  0.
        254    2    1    2    0    0  0.43438877221E+03  0.11422760739E+03  0.36579444950E+03  0.10792017483E+04  0.91056536424E+03 0.  0.
         23    2    4    4    0    0 -0.79371638993E+02  0.27926418326E+03 -0.14195358978E+03  0.33306782724E+03  0.80591654436E+02 0.  0.
         23    2    4    4    0    0  0.51376041121E+03 -0.16503657587E+03  0.50774803928E+03  0.74613392107E+03  0.87868795766E+02 0.  0.
          3    1    3    3  502    0 -0.43736897101E+03 -0.11578150352E+03 -0.10151866947E+04  0.11114409559E+04  0.00000000000E+00 0. -1.
         -4    1    3    3    0  502  0.29801987972E+01  0.15538961320E+01 -0.15115241381E+02  0.15484401831E+02  0.00000000000E+00 0.  1.
         11    1    5    5    0    0 -0.54543109592E+02  0.20393387463E+03 -0.14078851014E+03  0.25374274495E+03  0.00000000000E+00 0. -1.
        -11    1    5    5    0    0 -0.24828529401E+02  0.75330308633E+02 -0.11650796365E+01  0.79325082297E+02  0.00000000000E+00 0.  1.
          1    1    6    6  503    0  0.40488969921E+03 -0.13414414930E+03  0.44635880683E+03  0.61738683640E+03  0.00000000000E+00 0. -1.
         -1    1    6    6    0  503  0.10887071200E+03 -0.30892426574E+02  0.61389232452E+02  0.12874708467E+03  0.00000000000E+00 0.  1.
<mgrwt>
<rscale>  0 0.21036698E+04</rscale>
<asrwt>0</asrwt>
<pdfrwt beam="1">  1        1 0.22081805E+00 0.21036698E+04</pdfrwt>
<pdfrwt beam="2">  1       -2 0.11858612E+00 0.21036698E+04</pdfrwt>
<totfact> 0.32025581E+00</totfact>
</mgrwt>
</event>
<event>
12    4  0.4486176E-008  0.2462469E+04  0.7818608E-02  0.8416479E-01
         -2   -1    0    0    0  501 -0.00000000000E+00  0.00000000000E+00  0.11400018006E+04  0.11400018006E+04  0.00000000000E+00 0.  1.
          1   -1    0    0  501    0  0.00000000000E+00 -0.00000000000E+00 -0.13297687454E+04  0.13297687454E+04  0.00000000000E+00 0. -1.
        -24    2    1    2    0    0  0.74566024910E+03  0.61406794643E+03 -0.53239069980E+03  0.11058743631E+04  0.80184785979E+02 0.  0.
        254    2    1    2    0    0 -0.74566024910E+03 -0.61406794643E+03  0.34262375502E+03  0.13638961828E+04  0.89985171563E+03 0.  0.
         23    2    4    4    0    0 -0.36039485579E+03 -0.75639118316E+02  0.54666824496E+03  0.66503739696E+03  0.88446825887E+02 0.  0.
         23    2    4    4    0    0 -0.38526539330E+03 -0.53842882811E+03 -0.20404448994E+03  0.69885878587E+03  0.91839111980E+02 0.  0.
          3    1    3    3  502    0  0.72944503486E+03  0.58823547181E+03 -0.50310573051E+03  0.10635912773E+04  0.00000000000E+00 0. -1.
         -4    1    3    3    0  502  0.16215214235E+02  0.25832474621E+02 -0.29284969295E+02  0.42283085795E+02  0.00000000000E+00 0.  1.
         11    1    5    5    0    0 -0.23201378567E+03 -0.79251171180E+02  0.30465613256E+03  0.39105818490E+03  0.00000000000E+00 0. -1.
        -11    1    5    5    0    0 -0.12838107013E+03  0.36120528636E+01  0.24201211240E+03  0.27397921206E+03  0.00000000000E+00 0.  1.
          2    1    6    6  503    0 -0.21402166747E+03 -0.22988327060E+03 -0.73236355251E+02  0.32251380743E+03  0.00000000000E+00 0. -1.
         -2    1    6    6    0  503 -0.17124372583E+03 -0.30854555752E+03 -0.13080813469E+03  0.37634497844E+03  0.00000000000E+00 0.  1.
<mgrwt>
<rscale>  0 0.24624693E+04</rscale>
<asrwt>0</asrwt>
<pdfrwt beam="1">  1        1 0.20457981E+00 0.24624693E+04</pdfrwt>
<pdfrwt beam="2">  1       -2 0.17538489E+00 0.24624693E+04</pdfrwt>
<totfact> 0.13157964E+00</totfact>
</mgrwt>
</event>
<event>
12    4  0.4486176E-008  0.1561746E+04  0.7818608E-02  0.8844400E-01
          1   -1    0    0  501    0  0.00000000000E+00  0.00000000000E+00  0.26375003336E+04  0.26375003336E+04  0.00000000000E+00 0. -1.
         -2   -1    0    0    0  501 -0.00000000000E+00 -0.00000000000E+00 -0.23118957472E+03  0.23118957472E+03  0.00000000000E+00 0.  1.
        -24    2    1    2    0    0  0.41351023533E+03  0.20319774884E+03  0.41870753837E+03  0.62743362009E+03  0.77954506430E+02 0.  0.
        254    2    1    2    0    0 -0.41351023533E+03 -0.20319774884E+03  0.19876032206E+04  0.22412562883E+04  0.92756840583E+03 0.  0.
         23    2    4    4    0    0 -0.28495203276E+01  0.10064464961E+03  0.15683540412E+04  0.15742399962E+04  0.91431405381E+02 0.  0.
         23    2    4    4    0    0 -0.41066071500E+03 -0.30384239845E+03  0.41924917935E+03  0.66701629205E+03  0.90434692038E+02 0.  0.
          3    1    3    3  502    0  0.11551136557E+02  0.41679185667E+01  0.35253550025E+02  0.37331127632E+02  0.00000000000E+00 0. -1.
         -4    1    3    3    0  502  0.40195909877E+03  0.19902983028E+03  0.38345398835E+03  0.59010249246E+03  0.00000000000E+00 0.  1.
         11    1    5    5    0    0  0.21983044808E+02  0.10488870055E+03  0.10997506690E+04  0.11049599214E+04  0.00000000000E+00 0. -1.
        -11    1    5    5    0    0 -0.24832565135E+02 -0.42440509375E+01  0.46860337217E+03  0.46928007487E+03  0.00000000000E+00 0.  1.
          3    1    6    6  503    0 -0.39490865507E+02 -0.35143624523E+02  0.12530846341E+02  0.54328858934E+02  0.00000000000E+00 0. -1.
         -3    1    6    6    0  503 -0.37116984950E+03 -0.26869877393E+03  0.40671833301E+03  0.61268743311E+03  0.00000000000E+00 0.  1.
<mgrwt>
<rscale>  0 0.15617459E+04</rscale>
<asrwt>0</asrwt>
<pdfrwt beam="1">  1        1 0.40576926E+00 0.15617459E+04</pdfrwt>
<pdfrwt beam="2">  1       -2 0.35567629E-01 0.15617459E+04</pdfrwt>
<totfact> 0.68389045E+00</totfact>
</mgrwt>
</event>
<event>
12    4  0.4879843E-008  0.1123039E+04  0.7818608E-02  0.9183023E-01
          1   -1    0    0  501    0  0.00000000000E+00  0.00000000000E+00  0.10677261099E+04  0.10677261099E+04  0.00000000000E+00 0. -1.
         -2   -1    0    0    0  501 -0.00000000000E+00 -0.00000000000E+00 -0.29530446092E+03  0.29530446092E+03  0.00000000000E+00 0.  1.
        -24    2    1    2    0    0 -0.27899007234E+01  0.16927590741E+02  0.37199478565E+03  0.38078737596E+03  0.79527217100E+02 0.  0.
        254    2    1    2    0    0  0.27899007234E+01 -0.16927590741E+02  0.40042686336E+03  0.98224319490E+03  0.89675286124E+03 0.  0.
         23    2    4    4    0    0 -0.16458906817E+03 -0.17709269180E+02 -0.24408766005E+03  0.31002280332E+03  0.95562404795E+02 0.  0.
         23    2    4    4    0    0  0.16737896890E+03  0.78167843910E+00  0.64451452341E+03  0.67222039158E+03  0.92005183082E+02 0.  0.
          1    1    3    3  502    0 -0.34557390279E+01  0.35272293752E+02  0.35146550251E+03  0.35324789637E+03  0.00000000000E+00 0. -1.
         -4    1    3    3    0  502  0.66583830453E+00 -0.18344703011E+02  0.20529283143E+02  0.27539479580E+02  0.00000000000E+00 0.  1.
         11    1    5    5    0    0 -0.12870783596E+03 -0.51508400892E+02 -0.20316168815E+03  0.24595425170E+03  0.00000000000E+00 0.  1.
        -11    1    5    5    0    0 -0.35881232214E+02  0.33799131712E+02 -0.40925971905E+02  0.64068551615E+02  0.00000000000E+00 0. -1.
          3    1    6    6  503    0  0.28774356119E+02 -0.25283847162E+02  0.62019242648E+02  0.72894601693E+02  0.00000000000E+00 0. -1.
         -3    1    6    6    0  503  0.13860461278E+03  0.26065525602E+02  0.58249528077E+03  0.59932578989E+03  0.00000000000E+00 0.  1.
<mgrwt>
<rscale>  0 0.11230392E+04</rscale>
<asrwt>0</asrwt>
<pdfrwt beam="1">  1        1 0.16426555E+00 0.11230392E+04</pdfrwt>
<pdfrwt beam="2">  1       -2 0.45431456E-01 0.11230392E+04</pdfrwt>
<totfact> 0.53751460E+01</totfact>
</mgrwt>
</event>
<event>
12    4  0.4486176E-008  0.1446232E+04  0.7818608E-02  0.8921017E-01
          1   -1    0    0  501    0  0.00000000000E+00  0.00000000000E+00  0.10453993215E+04  0.10453993215E+04  0.00000000000E+00 0. -1.
         -2   -1    0    0    0  501 -0.00000000000E+00 -0.00000000000E+00 -0.50018847504E+03  0.50018847504E+03  0.00000000000E+00 0.  1.
        -24    2    1    2    0    0  0.94331761114E+02  0.29957733180E+03 -0.14739233240E+03  0.35663555134E+03  0.82579403895E+02 0.  0.
        254    2    1    2    0    0 -0.94331761114E+02 -0.29957733180E+03  0.69260317886E+03  0.11889522452E+04  0.91392735987E+03 0.  0.
         23    2    4    4    0    0 -0.45393976044E+03 -0.21896866219E+03  0.16380216515E+03  0.53804146602E+03  0.92999401701E+02 0.  0.
         23    2    4    4    0    0  0.35960799933E+03 -0.80608669605E+02  0.52880101371E+03  0.65091077918E+03  0.90767062110E+02 0.  0.
          1    1    3    3  502    0  0.89019212921E+02  0.28279664177E+03 -0.11166589395E+03  0.31680851115E+03  0.00000000000E+00 0. -1.
         -2    1    3    3    0  502  0.53125481931E+01  0.16780690027E+02 -0.35726438447E+02  0.39827040189E+02  0.00000000000E+00 0.  1.
         11    1    5    5    0    0 -0.24708300131E+03 -0.14191940870E+03  0.13542215483E+03  0.31548421216E+03  0.00000000000E+00 0.  1.
        -11    1    5    5    0    0 -0.20685675913E+03 -0.77049253495E+02  0.28380010329E+02  0.22255725386E+03  0.00000000000E+00 0. -1.
          1    1    6    6  503    0  0.52580414033E+02 -0.35847400953E+02  0.13760345784E+03  0.15160622581E+03  0.00000000000E+00 0. -1.
         -1    1    6    6    0  503  0.30702758529E+03 -0.44761268652E+02  0.39119755587E+03  0.49930455338E+03  0.00000000000E+00 0.  1.
<mgrwt>
<rscale>  0 0.14462319E+04</rscale>
<asrwt>0</asrwt>
<pdfrwt beam="1">  1        1 0.16083066E+00 0.14462319E+04</pdfrwt>
<pdfrwt beam="2">  1       -2 0.76952073E-01 0.14462319E+04</pdfrwt>
<totfact> 0.17923378E+01</totfact>
</mgrwt>
</event>
<event>
12    4  0.4486176E-008  0.2512719E+04  0.7818608E-02  0.8398468E-01
          1   -1    0    0  501    0  0.00000000000E+00  0.00000000000E+00  0.29916011815E+04  0.29916011815E+04  0.00000000000E+00 0. -1.
         -2   -1    0    0    0  501 -0.00000000000E+00 -0.00000000000E+00 -0.52762344411E+03  0.52762344411E+03  0.00000000000E+00 0.  1.
        -24    2    1    2    0    0 -0.87460190683E+03 -0.26475083062E+03  0.24010614476E+03  0.94827227829E+03  0.80918819014E+02 0.  0.
        254    2    1    2    0    0  0.87460190683E+03  0.26475083062E+03  0.22238715926E+04  0.25709523473E+04  0.91058751030E+03 0.  0.
         23    2    4    4    0    0  0.40486095340E+03 -0.28191883987E+03  0.13127849365E+04  0.14056350397E+04  0.94947098012E+02 0.  0.
         23    2    4    4    0    0  0.46974095343E+03  0.54666967049E+03  0.91108665612E+03  0.11653173076E+04  0.91549115321E+02 0.  0.
          1    1    3    3  502    0 -0.29040420788E+03 -0.90764284169E+02  0.11959162187E+03  0.32691729116E+03  0.00000000000E+00 0. -1.
         -2    1    3    3    0  502 -0.58419769895E+03 -0.17398654646E+03  0.12051452289E+03  0.62135498713E+03  0.00000000000E+00 0.  1.
         11    1    5    5    0    0  0.38087864831E+03 -0.28162884228E+03  0.11955453923E+04  0.12859673925E+04  0.00000000000E+00 0.  1.
        -11    1    5    5    0    0  0.23982305089E+02 -0.28999759020E+00  0.11723954422E+03  0.11966764719E+03  0.00000000000E+00 0. -1.
          2    1    6    6  503    0  0.16356921875E+03  0.15608988440E+03  0.34506728972E+03  0.41254136250E+03  0.00000000000E+00 0. -1.
         -2    1    6    6    0  503  0.30617173468E+03  0.39057978609E+03  0.56601936640E+03  0.75277594513E+03  0.00000000000E+00 0.  1.
<mgrwt>
<rscale>  0 0.25127188E+04</rscale>
<asrwt>0</asrwt>
<pdfrwt beam="1">  1        1 0.46024632E+00 0.25127188E+04</pdfrwt>
<pdfrwt beam="2">  1       -2 0.81172840E-01 0.25127188E+04</pdfrwt>
<totfact> 0.63279357E-01</totfact>
</mgrwt>
</event>
<event>
12    4  0.4486176E-008  0.1440001E+04  0.7818608E-02  0.8925362E-01
          1   -1    0    0  501    0  0.00000000000E+00  0.00000000000E+00  0.10502056647E+04  0.10502056647E+04  0.00000000000E+00 0. -1.
         -2   -1    0    0    0  501 -0.00000000000E+00 -0.00000000000E+00 -0.49361847692E+03  0.49361847692E+03  0.00000000000E+00 0.  1.
        -24    2    1    2    0    0  0.10394373567E+03 -0.14211432209E+03  0.59139078370E+03  0.62228413871E+03  0.80583556176E+02 0.  0.
        254    2    1    2    0    0 -0.10394373567E+03  0.14211432209E+03 -0.34803595915E+02  0.92154000292E+03  0.90389374705E+03 0.  0.
         23    2    4    4    0    0  0.15036224609E+03  0.32130077846E+03 -0.32125601378E+03  0.48909591721E+03  0.10082854038E+03 0.  0.
         23    2    4    4    0    0 -0.25430598176E+03 -0.17918645637E+03  0.28645241787E+03  0.43244408571E+03  0.90407859474E+02 0.  0.
          3    1    3    3  502    0  0.86265771038E+02 -0.92225090693E+02  0.50842207703E+03  0.52387046015E+03  0.00000000000E+00 0. -1.
         -4    1    3    3    0  502  0.17677964636E+02 -0.49889231394E+02  0.82968706670E+02  0.98413678567E+02  0.00000000000E+00 0.  1.
         11    1    5    5    0    0  0.22633022501E+02  0.16679804755E+03 -0.14552014770E+03  0.22250832740E+03  0.00000000000E+00 0. -1.
        -11    1    5    5    0    0  0.12772922359E+03  0.15450273091E+03 -0.17573586608E+03  0.26658758981E+03  0.00000000000E+00 0.  1.
          4    1    6    6  503    0 -0.15381001479E+03 -0.14948746595E+03  0.22550038201E+03  0.31121446852E+03  0.00000000000E+00 0. -1.
         -4    1    6    6    0  503 -0.10049596697E+03 -0.29698990421E+02  0.60952035853E+02  0.12122961719E+03  0.00000000000E+00 0.  1.
<mgrwt>
<rscale>  0 0.14400013E+04</rscale>
<asrwt>0</asrwt>
<pdfrwt beam="1">  1        1 0.16157010E+00 0.14400013E+04</pdfrwt>
<pdfrwt beam="2">  1       -2 0.75941304E-01 0.14400013E+04</pdfrwt>
<totfact> 0.18312383E+01</totfact>
</mgrwt>
</event>
<event>
12    4  0.4486176E-008  0.1101454E+04  0.7818608E-02  0.9203776E-01
          1   -1    0    0  501    0  0.00000000000E+00  0.00000000000E+00  0.38024418024E+03  0.38024418024E+03  0.00000000000E+00 0. -1.
         -2   -1    0    0    0  501 -0.00000000000E+00 -0.00000000000E+00 -0.79764627354E+03  0.79764627354E+03  0.00000000000E+00 0.  1.
        -24    2    1    2    0    0  0.81687298345E+02 -0.15147639500E+03 -0.10278051936E+03  0.21591916420E+03  0.80245481823E+02 0.  0.
        254    2    1    2    0    0 -0.81687298345E+02  0.15147639500E+03 -0.31462157394E+03  0.96197128959E+03  0.89262764591E+03 0.  0.
         23    2    4    4    0    0  0.33312185874E+03  0.29341647094E+03 -0.94961011976E+02  0.46342228330E+03  0.93162335067E+02 0.  0.
         23    2    4    4    0    0 -0.41480915708E+03 -0.14194007594E+03 -0.21966056197E+03  0.49854900629E+03  0.89926232170E+02 0.  0.
          1    1    3    3  502    0  0.11760372991E+02 -0.16648974766E+02 -0.51870116900E+02  0.55731532913E+02  0.00000000000E+00 0. -1.
         -2    1    3    3    0  502  0.69926925354E+02 -0.13482742024E+03 -0.50910402462E+02  0.16018763128E+03  0.00000000000E+00 0.  1.
         11    1    5    5    0    0  0.27399942352E+03  0.20290046220E+03 -0.99638901811E+02  0.35520725275E+03  0.00000000000E+00 0. -1.
        -11    1    5    5    0    0  0.59122435218E+02  0.90516008735E+02  0.46778898352E+01  0.10821503055E+03  0.00000000000E+00 0.  1.
          1    1    6    6  503    0 -0.41859821384E+03 -0.14442438728E+03 -0.21886756294E+03  0.49394926701E+03  0.00000000000E+00 0. -1.
         -1    1    6    6    0  503  0.37890567599E+01  0.24843113432E+01 -0.79299902898E+00  0.45997392796E+01  0.00000000000E+00 0.  1.
<mgrwt>
<rscale>  0 0.11014542E+04</rscale>
<asrwt>0</asrwt>
<pdfrwt beam="1">  1        1 0.58499105E-01 0.11014542E+04</pdfrwt>
<pdfrwt beam="2">  1       -2 0.12271481E+00 0.11014542E+04</pdfrwt>
<totfact> 0.28036818E+01</totfact>
</mgrwt>
</event>
<event>
12    4  0.4486176E-008  0.2053390E+04  0.7818608E-02  0.8582058E-01
          1   -1    0    0  501    0  0.00000000000E+00  0.00000000000E+00  0.23738805086E+04  0.23738805086E+04  0.00000000000E+00 0. -1.
         -2   -1    0    0    0  501 -0.00000000000E+00 -0.00000000000E+00 -0.44404208451E+03  0.44404208451E+03  0.00000000000E+00 0.  1.
        -24    2    1    2    0    0 -0.36271014598E+03  0.49814660932E+03  0.15774652561E+04  0.16957376219E+04  0.86143796659E+02 0.  0.
        254    2    1    2    0    0  0.36271014598E+03 -0.49814660932E+03  0.35237316802E+03  0.11221849712E+04  0.86915106039E+03 0.  0.
         23    2    4    4    0    0  0.50978832216E+03 -0.65201489757E+03  0.29143933646E+03  0.88135001519E+03  0.82664396025E+02 0.  0.
         23    2    4    4    0    0 -0.14707817617E+03  0.15386828825E+03  0.60933831560E+02  0.24083495606E+03  0.94768687845E+02 0.  0.
          1    1    3    3  502    0 -0.29777197446E+03  0.45601129179E+03  0.13679956264E+04  0.14724219779E+04  0.00000000000E+00 0. -1.
         -2    1    3    3    0  502 -0.64938171520E+02  0.42135317535E+02  0.20946962966E+03  0.22331564400E+03  0.00000000000E+00 0.  1.
         11    1    5    5    0    0  0.18383921902E+03 -0.26435661532E+03  0.15173285465E+03  0.35595524675E+03  0.00000000000E+00 0. -1.
        -11    1    5    5    0    0  0.32594910313E+03 -0.38765828226E+03  0.13970648181E+03  0.52539476843E+03  0.00000000000E+00 0.  1.
          3    1    6    6  503    0 -0.35218721446E+02  0.13334161311E+02 -0.21325510230E+02  0.43277425810E+02  0.00000000000E+00 0. -1.
         -3    1    6    6    0  503 -0.11185945473E+03  0.14053412694E+03  0.82259341790E+02  0.19755753025E+03  0.00000000000E+00 0.  1.
<mgrwt>
<rscale>  0 0.20533902E+04</rscale>
<asrwt>0</asrwt>
<pdfrwt beam="1">  1        1 0.36521238E+00 0.20533902E+04</pdfrwt>
<pdfrwt beam="2">  1       -2 0.68314168E-01 0.20533902E+04</pdfrwt>
<totfact> 0.26338678E+00</totfact>
</mgrwt>
</event>
<event>
12    4  0.4486176E-008  0.1312807E+04  0.7818608E-02  0.9019470E-01
         -2   -1    0    0    0  501 -0.00000000000E+00  0.00000000000E+00  0.99427908762E+03  0.99427908762E+03  0.00000000000E+00 0.  1.
          1   -1    0    0  501    0  0.00000000000E+00 -0.00000000000E+00 -0.43334486900E+03  0.43334486900E+03  0.00000000000E+00 0. -1.
        -24    2    1    2    0    0  0.27425007130E+03 -0.22465518179E+03  0.17917082606E+03  0.40521948460E+03  0.80109883738E+02 0.  0.
        254    2    1    2    0    0 -0.27425007130E+03  0.22465518179E+03  0.38176339255E+03  0.10224044720E+04  0.87970709001E+03 0.  0.
         23    2    4    4    0    0 -0.43668362589E+03  0.34441995027E+03 -0.18896974697E+02  0.56436851311E+03  0.94005487490E+02 0.  0.
         23    2    4    4    0    0  0.16243355459E+03 -0.11976476848E+03  0.40066036725E+03  0.45803595891E+03  0.92411851765E+02 0.  0.
          1    1    3    3  502    0  0.83861077029E+02 -0.77232628184E+02  0.17884340041E+02  0.11540107762E+03  0.00000000000E+00 0. -1.
         -2    1    3    3    0  502  0.19038899427E+03 -0.14742255361E+03  0.16128648602E+03  0.28981840698E+03  0.00000000000E+00 0.  1.
         11    1    5    5    0    0 -0.14737103322E+01  0.18521447226E+02  0.74628058240E+01  0.20022719602E+02  0.00000000000E+00 0. -1.
        -11    1    5    5    0    0 -0.43520991555E+03  0.32589850305E+03 -0.26359780521E+02  0.54434579351E+03  0.00000000000E+00 0.  1.
          4    1    6    6  503    0  0.30754171776E+02  0.22576547714E+01  0.18891808326E+02  0.36163745776E+02  0.00000000000E+00 0. -1.
         -4    1    6    6    0  503  0.13167938281E+03 -0.12202242325E+03  0.38176855892E+03  0.42187221314E+03  0.00000000000E+00 0.  1.
<mgrwt>
<rscale>  0 0.13128073E+04</rscale>
<asrwt>0</asrwt>
<pdfrwt beam="1">  1        1 0.66668442E-01 0.13128073E+04</pdfrwt>
<pdfrwt beam="2">  1       -2 0.15296601E+00 0.13128073E+04</pdfrwt>
<totfact> 0.13134695E+01</totfact>
</mgrwt>
</event>
<event>
12    4  0.4486176E-008  0.2114717E+04  0.7818608E-02  0.8554788E-01
         -4   -1    0    0    0  501 -0.00000000000E+00  0.00000000000E+00  0.20528622536E+04  0.20528622536E+04  0.00000000000E+00 0.  1.
          1   -1    0    0  501    0  0.00000000000E+00 -0.00000000000E+00 -0.54460912401E+03  0.54460912401E+03  0.00000000000E+00 0. -1.
        -24    2    1    2    0    0  0.30239485123E+03  0.58142595179E+03 -0.69994080467E+02  0.66400063186E+03  0.80615658129E+02 0.  0.
        254    2    1    2    0    0 -0.30239485123E+03 -0.58142595179E+03  0.15782472101E+04  0.19334707458E+04  0.90440371801E+03 0.  0.
         23    2    4    4    0    0 -0.56765850677E+03 -0.58046492171E+03  0.13172896031E+04  0.15499621650E+04  0.89191415710E+02 0.  0.
         23    2    4    4    0    0  0.26526365554E+03 -0.96103008035E+00  0.26095760692E+03  0.38350858079E+03  0.92812867638E+02 0.  0.
          3    1    3    3  502    0  0.26057529332E+03  0.54128106955E+03 -0.50562661354E+02  0.60286089811E+03  0.00000000000E+00 0. -1.
         -4    1    3    3    0  502  0.41819557910E+02  0.40144882237E+02 -0.19431419113E+02  0.61139733745E+02  0.00000000000E+00 0.  1.
         11    1    5    5    0    0 -0.44645892729E+02 -0.76610912022E+02  0.11286281397E+03  0.14352875098E+03  0.00000000000E+00 0.  1.
        -11    1    5    5    0    0 -0.52301261405E+03 -0.50385400969E+03  0.12044267892E+04  0.14064334140E+04  0.00000000000E+00 0. -1.
          4    1    6    6  503    0  0.24001551320E+03 -0.21422500628E+02  0.25429996532E+03  0.35033532861E+03  0.00000000000E+00 0. -1.
         -4    1    6    6    0  503  0.25248142343E+02  0.20461470548E+02  0.66576416053E+01  0.33173252185E+02  0.00000000000E+00 0.  1.
<mgrwt>
<rscale>  0 0.21147175E+04</rscale>
<asrwt>0</asrwt>
<pdfrwt beam="1">  1        1 0.83786020E-01 0.21147175E+04</pdfrwt>
<pdfrwt beam="2">  1       -4 0.31582496E+00 0.21147175E+04</pdfrwt>
<totfact> 0.42364023E-01</totfact>
</mgrwt>
</event>
<event>
12    4  0.4486176E-008  0.1761569E+04  0.7818608E-02  0.8727008E-01
         -2   -1    0    0    0  501 -0.00000000000E+00  0.00000000000E+00  0.78099789620E+03  0.78099789620E+03  0.00000000000E+00 0.  1.
          1   -1    0    0  501    0  0.00000000000E+00 -0.00000000000E+00 -0.99332014845E+03  0.99332014845E+03  0.00000000000E+00 0. -1.
        -24    2    1    2    0    0 -0.18532879160E+03  0.59053607053E+03 -0.27157826891E+03  0.68061120088E+03  0.79982742020E+02 0.  0.
        254    2    1    2    0    0  0.18532879160E+03 -0.59053607053E+03  0.59256016672E+02  0.10937068438E+04  0.89977984697E+03 0.  0.
         23    2    4    4    0    0 -0.25317873578E+03 -0.47690420241E+03  0.23893357727E+03  0.59808204989E+03  0.95266959278E+02 0.  0.
         23    2    4    4    0    0  0.43850752738E+03 -0.11363186812E+03 -0.17967756060E+03  0.49562479388E+03  0.90326394298E+02 0.  0.
          3    1    3    3  502    0 -0.16616884116E+03  0.45413472642E+03 -0.18409575407E+03  0.51743760994E+03  0.00000000000E+00 0. -1.
         -4    1    3    3    0  502 -0.19159950434E+02  0.13640134411E+03 -0.87482514845E+02  0.16317359093E+03  0.00000000000E+00 0.  1.
         11    1    5    5    0    0 -0.20769332982E+03 -0.31525189034E+03  0.19295548037E+03  0.42397180451E+03  0.00000000000E+00 0. -1.
        -11    1    5    5    0    0 -0.45485405962E+02 -0.16165231207E+03  0.45978096894E+02  0.17411024538E+03  0.00000000000E+00 0.  1.
          3    1    6    6  503    0  0.24174201776E+03 -0.16047695370E+02 -0.94546331917E+02  0.26006872276E+03  0.00000000000E+00 0. -1.
         -3    1    6    6    0  503  0.19676550962E+03 -0.97584172750E+02 -0.85131228679E+02  0.23555607112E+03  0.00000000000E+00 0.  1.
<mgrwt>
<rscale>  0 0.17615686E+04</rscale>
<asrwt>0</asrwt>
<pdfrwt beam="1">  1        1 0.15281849E+00 0.17615686E+04</pdfrwt>
<pdfrwt beam="2">  1       -2 0.12015352E+00 0.17615686E+04</pdfrwt>
<totfact> 0.67269551E+00</totfact>
</mgrwt>
</event>
<event>
12    4  0.4486176E-008  0.2872658E+04  0.7818608E-02  0.8281059E-01
          1   -1    0    0  501    0  0.00000000000E+00  0.00000000000E+00  0.62387427881E+03  0.62387427881E+03  0.00000000000E+00 0. -1.
         -2   -1    0    0    0  501 -0.00000000000E+00 -0.00000000000E+00 -0.33068210221E+04  0.33068210221E+04  0.00000000000E+00 0.  1.
        -24    2    1    2    0    0  0.65909973438E+03 -0.42416423129E+03 -0.26569647534E+04  0.27712326100E+04  0.77076087989E+02 0.  0.
        254    2    1    2    0    0 -0.65909973438E+03  0.42416423129E+03 -0.25981989967E+02  0.11594626909E+04  0.85402044056E+03 0.  0.
         23    2    4    4    0    0 -0.27056736225E+03  0.57172731758E+03  0.21147946274E+03  0.67269028136E+03  0.87805627934E+02 0.  0.
         23    2    4    4    0    0 -0.38853237213E+03 -0.14756308629E+03 -0.23746145271E+03  0.48677240957E+03  0.88471286677E+02 0.  0.
          3    1    3    3  502    0  0.12142709265E+03 -0.10041679034E+03 -0.45156010121E+03  0.47826205747E+03  0.00000000000E+00 0. -1.
         -2    1    3    3    0  502  0.53767264173E+03 -0.32374744096E+03 -0.22054046522E+04  0.22929705526E+04  0.00000000000E+00 0.  1.
         11    1    5    5    0    0 -0.21368587356E+03  0.36759139294E+03  0.16256198946E+03  0.45520488260E+03  0.00000000000E+00 0.  1.
        -11    1    5    5    0    0 -0.56881488685E+02  0.20413592463E+03  0.48917473281E+02  0.21748539876E+03  0.00000000000E+00 0. -1.
          4    1    6    6  503    0 -0.41807712668E+02  0.10239939804E+02 -0.14745965853E+02  0.45499282573E+02  0.00000000000E+00 0. -1.
         -4    1    6    6    0  503 -0.34672465946E+03 -0.15780302609E+03 -0.22271548686E+03  0.44127312699E+03  0.00000000000E+00 0.  1.
<mgrwt>
<rscale>  0 0.28726577E+04</rscale>
<asrwt>0</asrwt>
<pdfrwt beam="1">  1        1 0.95980657E-01 0.28726577E+04</pdfrwt>
<pdfrwt beam="2">  1       -2 0.50874170E+00 0.28726577E+04</pdfrwt>
<totfact> 0.35439062E-02</totfact>
</mgrwt>
</event>
<event>
12    4  0.4486176E-008  0.1628662E+04  0.7818608E-02  0.8803131E-01
         -2   -1    0    0    0  501 -0.00000000000E+00  0.00000000000E+00  0.10722213180E+04  0.10722213180E+04  0.00000000000E+00 0.  1.
          1   -1    0    0  501    0  0.00000000000E+00 -0.00000000000E+00 -0.61846828236E+03  0.61846828236E+03  0.00000000000E+00 0. -1.
        -24    2    1    2    0    0  0.49617414334E+03 -0.18679173495E+03  0.27698435715E+03  0.60393524611E+03  0.83291744035E+02 0.  0.
        254    2    1    2    0    0 -0.49617414334E+03  0.18679173495E+03  0.17676867844E+03  0.10867543542E+04  0.93204502464E+03 0.  0.
         23    2    4    4    0    0 -0.30857221293E+03  0.54897854891E+03  0.20302774354E+03  0.66798034493E+03  0.91559919279E+02 0.  0.
         23    2    4    4    0    0 -0.18760193041E+03 -0.36218681395E+03 -0.26259065096E+02  0.41877400928E+03  0.91150204897E+02 0.  0.
          3    1    3    3  502    0  0.10745912171E+02  0.79182327103E+01  0.38693098436E+01  0.13897647150E+02  0.00000000000E+00 0. -1.
         -4    1    3    3    0  502  0.48542823117E+03 -0.19470996766E+03  0.27311504731E+03  0.59003759896E+03  0.00000000000E+00 0.  1.
         11    1    5    5    0    0 -0.12838654281E+03  0.26231615421E+03  0.13879628215E+03  0.32335317699E+03  0.00000000000E+00 0.  1.
        -11    1    5    5    0    0 -0.18018567012E+03  0.28666239470E+03  0.64231461395E+02  0.34462716794E+03  0.00000000000E+00 0. -1.
          1    1    6    6  503    0 -0.38607496890E+02 -0.15944038181E+03  0.11037415582E+02  0.16441897308E+03  0.00000000000E+00 0. -1.
         -1    1    6    6    0  503 -0.14899443351E+03 -0.20274643215E+03 -0.37296480678E+02  0.25435503620E+03  0.00000000000E+00 0.  1.
<mgrwt>
<rscale>  0 0.16286619E+04</rscale>
<asrwt>0</asrwt>
<pdfrwt beam="1">  1        1 0.95148967E-01 0.16286619E+04</pdfrwt>
<pdfrwt beam="2">  1       -2 0.16495713E+00 0.16286619E+04</pdfrwt>
<totfact> 0.63566400E+00</totfact>
</mgrwt>
</event>
<event>
12    4  0.4486176E-008  0.1303555E+04  0.7818608E-02  0.9026751E-01
         -2   -1    0    0    0  501 -0.00000000000E+00  0.00000000000E+00  0.21386003795E+03  0.21386003795E+03  0.00000000000E+00 0.  1.
          1   -1    0    0  501    0  0.00000000000E+00 -0.00000000000E+00 -0.19864108960E+04  0.19864108960E+04  0.00000000000E+00 0. -1.
        -24    2    1    2    0    0 -0.13700851912E+03  0.29547441021E+03 -0.63445069867E+03  0.71756050155E+03  0.79302729755E+02 0.  0.
        254    2    1    2    0    0  0.13700851912E+03 -0.29547441021E+03 -0.11381001594E+04  0.14827104324E+04  0.89279437284E+03 0.  0.
         23    2    4    4    0    0  0.18822504881E+03 -0.55184253036E+03 -0.10299531102E+04  0.11869099838E+04  0.89403876416E+02 0.  0.
         23    2    4    4    0    0 -0.51216529696E+02  0.25636812015E+03 -0.10814704926E+03  0.29580044867E+03  0.86338723772E+02 0.  0.
          1    1    3    3  502    0 -0.75548742962E+01  0.53101983576E+02 -0.58175732067E+02  0.79128456239E+02  0.00000000000E+00 0. -1.
         -2    1    3    3    0  502 -0.12945364482E+03  0.24237242663E+03 -0.57627496660E+03  0.63843204531E+03  0.00000000000E+00 0.  1.
         11    1    5    5    0    0  0.94415003207E+01 -0.80881860817E+02 -0.20135158961E+03  0.21719456710E+03  0.00000000000E+00 0. -1.
        -11    1    5    5    0    0  0.17878354849E+03 -0.47096066955E+03 -0.82860152056E+03  0.96971541668E+03  0.00000000000E+00 0.  1.
          2    1    6    6  503    0 -0.17914634206E+02  0.23371872927E+03 -0.84946373809E+02  0.24932160948E+03  0.00000000000E+00 0.  1.
         -2    1    6    6    0  503 -0.33301895490E+02  0.22649390880E+02 -0.23200675453E+02  0.46478839185E+02  0.00000000000E+00 0. -1.
<mgrwt>
<rscale>  0 0.13035550E+04</rscale>
<asrwt>0</asrwt>
<pdfrwt beam="1">  1        1 0.30560168E+00 0.13035550E+04</pdfrwt>
<pdfrwt beam="2">  1       -2 0.32901544E-01 0.13035550E+04</pdfrwt>
<totfact> 0.22650071E+01</totfact>
</mgrwt>
</event>
<event>
12    4  0.4486176E-008  0.1199672E+04  0.7818608E-02  0.9113143E-01
          1   -1    0    0  501    0  0.00000000000E+00  0.00000000000E+00  0.18792127910E+04  0.18792127910E+04  0.00000000000E+00 0. -1.
         -2   -1    0    0    0  501 -0.00000000000E+00 -0.00000000000E+00 -0.19146499409E+03  0.19146499409E+03  0.00000000000E+00 0.  1.
        -24    2    1    2    0    0 -0.23015193263E+03 -0.64375972488E+02  0.22874965179E+03  0.34079841869E+03  0.81871735435E+02 0.  0.
        254    2    1    2    0    0  0.23015193263E+03  0.64375972488E+02  0.14589981451E+04  0.17298793664E+04  0.89816081906E+03 0.  0.
         23    2    4    4    0    0  0.10189065236E+03  0.26460110358E+03  0.55180172377E+02  0.30314301709E+03  0.91953185566E+02 0.  0.
         23    2    4    4    0    0  0.12826128028E+03 -0.20022513109E+03  0.14038179727E+04  0.14267363493E+04  0.91272398332E+02 0.  0.
          3    1    3    3  502    0 -0.19589726277E+03 -0.64604172471E+02  0.22667291928E+03  0.30648009560E+03  0.00000000000E+00 0. -1.
         -4    1    3    3    0  502 -0.34254669857E+02  0.22819998219E+00  0.20767325099E+01  0.34318323097E+02  0.00000000000E+00 0.  1.
         11    1    5    5    0    0  0.10956258983E+03  0.20641792870E+03  0.19600828533E+02  0.23451335753E+03  0.00000000000E+00 0.  1.
        -11    1    5    5    0    0 -0.76719374767E+01  0.58183174877E+02  0.35579343844E+02  0.68629659564E+02  0.00000000000E+00 0. -1.
          3    1    6    6  503    0  0.23837704698E+02 -0.26944902292E+02  0.82266759323E+02  0.89789106323E+02  0.00000000000E+00 0. -1.
         -3    1    6    6    0  503  0.10442357558E+03 -0.17328022880E+03  0.13215512134E+04  0.13369472430E+04  0.00000000000E+00 0.  1.
<mgrwt>
<rscale>  0 0.11996724E+04</rscale>
<asrwt>0</asrwt>
<pdfrwt beam="1">  1        1 0.28910965E+00 0.11996724E+04</pdfrwt>
<pdfrwt beam="2">  1       -2 0.29456154E-01 0.11996724E+04</pdfrwt>
<totfact> 0.33217657E+01</totfact>
</mgrwt>
</event>
<event>
12    4  0.4486176E-008  0.2531673E+04  0.7818608E-02  0.8391788E-01
         -2   -1    0    0    0  501 -0.00000000000E+00  0.00000000000E+00  0.12768577327E+04  0.12768577327E+04  0.00000000000E+00 0.  1.
          1   -1    0    0  501    0  0.00000000000E+00 -0.00000000000E+00 -0.12549108263E+04  0.12549108263E+04  0.00000000000E+00 0. -1.
        -24    2    1    2    0    0  0.38045778036E+03  0.17543948082E+03  0.10356826690E+04  0.11200146604E+04  0.79165110772E+02 0.  0.
        254    2    1    2    0    0 -0.38045778036E+03 -0.17543948082E+03 -0.10137357625E+04  0.14117538985E+04  0.88874166082E+03 0.  0.
         23    2    4    4    0    0  0.64041203169E+02 -0.11573932091E+03 -0.93233839972E+03  0.94607423234E+03  0.91130101492E+02 0.  0.
         23    2    4    4    0    0 -0.44449898352E+03 -0.59700159913E+02 -0.81397362812E+02  0.46567966617E+03  0.95333967546E+02 0.  0.
          3    1    3    3  502    0  0.14284618627E+02  0.23517429742E+02  0.10218528259E+03  0.10582510009E+03  0.00000000000E+00 0. -1.
         -4    1    3    3    0  502  0.36617316173E+03  0.15192205108E+03  0.93349738638E+03  0.10141895604E+04  0.00000000000E+00 0.  1.
         11    1    5    5    0    0  0.32312093049E+02  0.57134002322E+01 -0.26586805717E+03  0.26788530778E+03  0.00000000000E+00 0.  1.
        -11    1    5    5    0    0  0.31729110120E+02 -0.12145272114E+03 -0.66647034255E+03  0.67818892457E+03  0.00000000000E+00 0. -1.
          2    1    6    6  503    0 -0.18171128461E+03  0.17510014887E+02 -0.54243043951E+02  0.19044132795E+03  0.00000000000E+00 0. -1.
         -2    1    6    6    0  503 -0.26278769892E+03 -0.77210174800E+02 -0.27154318861E+02  0.27523833822E+03  0.00000000000E+00 0.  1.
<mgrwt>
<rscale>  0 0.25316734E+04</rscale>
<asrwt>0</asrwt>
<pdfrwt beam="1">  1        1 0.19306320E+00 0.25316734E+04</pdfrwt>
<pdfrwt beam="2">  1       -2 0.19643965E+00 0.25316734E+04</pdfrwt>
<totfact> 0.10639388E+00</totfact>
</mgrwt>
</event>
<event>
12    4  0.4486176E-008  0.1588859E+04  0.7818608E-02  0.8827422E-01
         -2   -1    0    0    0  501 -0.00000000000E+00  0.00000000000E+00  0.49798975306E+03  0.49798975306E+03  0.00000000000E+00 0.  1.
          1   -1    0    0  501    0  0.00000000000E+00 -0.00000000000E+00 -0.12673311350E+04  0.12673311350E+04  0.00000000000E+00 0. -1.
        -24    2    1    2    0    0  0.21572626811E+03 -0.36868153066E+03  0.99339845530E+02  0.44578022969E+03  0.79923178548E+02 0.  0.
        254    2    1    2    0    0 -0.21572626811E+03  0.36868153066E+03 -0.86868122745E+03  0.13195406583E+04  0.89672547656E+03 0.  0.
         23    2    4    4    0    0 -0.19157546325E+03  0.47582956085E+03 -0.92134467151E+02  0.52990053924E+03  0.95869141798E+02 0.  0.
         23    2    4    4    0    0 -0.24150804861E+02 -0.10714803019E+03 -0.77654676029E+03  0.78964011911E+03  0.91884084765E+02 0.  0.
          3    1    3    3  502    0 -0.57465588441E-01 -0.89033247125E+01  0.15622788828E+02  0.17981769212E+02  0.00000000000E+00 0. -1.
         -4    1    3    3    0  502  0.21578373370E+03 -0.35977820595E+03  0.83717056702E+02  0.42779846048E+03  0.00000000000E+00 0.  1.
         11    1    5    5    0    0 -0.47900122365E+02  0.15276671342E+03 -0.72596087224E+02  0.17579045006E+03  0.00000000000E+00 0.  1.
        -11    1    5    5    0    0 -0.14367534088E+03  0.32306284743E+03 -0.19538379927E+02  0.35411008918E+03  0.00000000000E+00 0. -1.
          4    1    6    6  503    0  0.28076895772E+02 -0.35433540568E+02 -0.41112470332E+03  0.41360291290E+03  0.00000000000E+00 0. -1.
         -4    1    6    6    0  503 -0.52227700634E+02 -0.71714489621E+02 -0.36542205697E+03  0.37603720621E+03  0.00000000000E+00 0.  1.
<mgrwt>
<rscale>  0 0.15888586E+04</rscale>
<asrwt>0</asrwt>
<pdfrwt beam="1">  1        1 0.19497402E+00 0.15888586E+04</pdfrwt>
<pdfrwt beam="2">  1       -2 0.76613809E-01 0.15888586E+04</pdfrwt>
<totfact> 0.12249759E+01</totfact>
</mgrwt>
</event>
<event>
12    4  0.4486176E-008  0.1645208E+04  0.7818608E-02  0.8793246E-01
         -2   -1    0    0    0  501 -0.00000000000E+00  0.00000000000E+00  0.33108200588E+03  0.33108200588E+03  0.00000000000E+00 0.  1.
          1   -1    0    0  501    0  0.00000000000E+00 -0.00000000000E+00 -0.20438357823E+04  0.20438357823E+04  0.00000000000E+00 0. -1.
        -24    2    1    2    0    0 -0.40288694659E+03  0.26117649378E+03 -0.17648744812E+03  0.51779831680E+03  0.80226086179E+02 0.  0.
        254    2    1    2    0    0  0.40288694659E+03 -0.26117649378E+03 -0.15362663283E+04  0.18571194714E+04  0.92641645433E+03 0.  0.
         23    2    4    4    0    0  0.28266282485E+02 -0.52384477906E+03 -0.10816962169E+04  0.12057152582E+04  0.92033922292E+02 0.  0.
         23    2    4    4    0    0  0.37462066411E+03  0.26266828529E+03 -0.45457011143E+03  0.65140421323E+03  0.91423152052E+02 0.  0.
          3    1    3    3  502    0 -0.85429791622E+02  0.23649730176E+02 -0.49219384130E+02  0.10139086156E+03  0.00000000000E+00 0. -1.
         -4    1    3    3    0  502 -0.31745715497E+03  0.23752676360E+03 -0.12726806399E+03  0.41640745524E+03  0.00000000000E+00 0.  1.
         11    1    5    5    0    0  0.81814153709E+01 -0.10262816379E+03 -0.30526505226E+03  0.32215869955E+03  0.00000000000E+00 0.  1.
        -11    1    5    5    0    0  0.20084867114E+02 -0.42121661527E+03 -0.77643116463E+03  0.88355655862E+03  0.00000000000E+00 0. -1.
          1    1    6    6  503    0  0.31268116096E+03  0.20525147844E+03 -0.41324785867E+03  0.55737910843E+03  0.00000000000E+00 0. -1.
         -1    1    6    6    0  503  0.61939503151E+02  0.57416806843E+02 -0.41322252764E+02  0.94025104797E+02  0.00000000000E+00 0.  1.
<mgrwt>
<rscale>  0 0.16452079E+04</rscale>
<asrwt>0</asrwt>
<pdfrwt beam="1">  1        1 0.31443628E+00 0.16452079E+04</pdfrwt>
<pdfrwt beam="2">  1       -2 0.50935693E-01 0.16452079E+04</pdfrwt>
<totfact> 0.85126485E+00</totfact>
</mgrwt>
</event>
<event>
12    4  0.4486176E-008  0.1591285E+04  0.7818608E-02  0.8825920E-01
          1   -1    0    0  501    0  0.00000000000E+00  0.00000000000E+00  0.11886978560E+04  0.11886978560E+04  0.00000000000E+00 0. -1.
         -2   -1    0    0    0  501 -0.00000000000E+00 -0.00000000000E+00 -0.53255517051E+03  0.53255517051E+03  0.00000000000E+00 0.  1.
        -24    2    1    2    0    0 -0.13903342042E+02 -0.55127103310E+03  0.88944990520E+02  0.56448368129E+03  0.81471223418E+02 0.  0.
        254    2    1    2    0    0  0.13903342042E+02  0.55127103310E+03  0.56719769495E+03  0.11567693452E+04  0.84398402710E+03 0.  0.
         23    2    4    4    0    0 -0.10811416866E+03  0.41090250199E+03  0.75904400249E+03  0.87438424018E+03  0.88715625165E+02 0.  0.
         23    2    4    4    0    0  0.12201751070E+03  0.14036853111E+03 -0.19184630754E+03  0.28238510503E+03  0.91349572416E+02 0.  0.
          1    1    3    3  502    0  0.22743752750E+02 -0.80166512174E+02 -0.16643480471E+01  0.83346973656E+02  0.00000000000E+00 0. -1.
         -2    1    3    3    0  502 -0.36647094792E+02 -0.47110452093E+03  0.90609338567E+02  0.48113670763E+03  0.00000000000E+00 0.  1.
         11    1    5    5    0    0 -0.11028897310E+03  0.40390049261E+03  0.75925942353E+03  0.86704909765E+03  0.00000000000E+00 0.  1.
        -11    1    5    5    0    0  0.21748044434E+01  0.70020093762E+01 -0.21542103706E+00  0.73351425272E+01  0.00000000000E+00 0. -1.
          2    1    6    6  503    0  0.54404834133E+02  0.86036348182E+02 -0.16069368181E+03  0.19022249751E+03  0.00000000000E+00 0.  1.
         -2    1    6    6    0  503  0.67612676570E+02  0.54332182933E+02 -0.31152625734E+02  0.92162607522E+02  0.00000000000E+00 0. -1.
<mgrwt>
<rscale>  0 0.15912853E+04</rscale>
<asrwt>0</asrwt>
<pdfrwt beam="1">  1        1 0.18287659E+00 0.15912853E+04</pdfrwt>
<pdfrwt beam="2">  1       -2 0.81931565E-01 0.15912853E+04</pdfrwt>
<totfact> 0.12014539E+01</totfact>
</mgrwt>
</event>
<event>
12    4  0.4486176E-008  0.1509673E+04  0.7818608E-02  0.8878046E-01
         -4   -1    0    0    0  501 -0.00000000000E+00  0.00000000000E+00  0.53434323057E+03  0.53434323057E+03  0.00000000000E+00 0.  1.
          1   -1    0    0  501    0  0.00000000000E+00 -0.00000000000E+00 -0.10663153707E+04  0.10663153707E+04  0.00000000000E+00 0. -1.
        -24    2    1    2    0    0  0.23469318490E+03 -0.19826293032E+03 -0.58078195792E+03  0.66173671365E+03  0.78731918399E+02 0.  0.
        254    2    1    2    0    0 -0.23469318490E+03  0.19826293032E+03  0.48809817818E+02  0.93892188758E+03  0.88589098206E+03 0.  0.
         23    2    4    4    0    0 -0.37002110666E+03  0.25454133229E+03  0.36005272604E+03  0.58285321880E+03  0.91504097825E+02 0.  0.
         23    2    4    4    0    0  0.13532792176E+03 -0.56278401969E+02 -0.31124290822E+03  0.35606866878E+03  0.91825073021E+02 0.  0.
          3    1    3    3  502    0  0.18759743984E+03 -0.19189974404E+03 -0.51301301016E+03  0.57896516285E+03  0.00000000000E+00 0. -1.
         -4    1    3    3    0  502  0.47095745063E+02 -0.63631862819E+01 -0.67768947752E+02  0.82771550801E+02  0.00000000000E+00 0.  1.
         11    1    5    5    0    0 -0.25854494529E+03  0.21788441531E+03  0.29480167736E+03  0.44858347734E+03  0.00000000000E+00 0.  1.
        -11    1    5    5    0    0 -0.11147616138E+03  0.36656916972E+02  0.65251048677E+02  0.13426974146E+03  0.00000000000E+00 0. -1.
          2    1    6    6  503    0  0.36092253407E+02  0.25338625400E+02 -0.69735406968E+02  0.82508930900E+02  0.00000000000E+00 0. -1.
         -2    1    6    6    0  503  0.99235668354E+02 -0.81617027368E+02 -0.24150750125E+03  0.27355973789E+03  0.00000000000E+00 0.  1.
<mgrwt>
<rscale>  0 0.15096733E+04</rscale>
<asrwt>0</asrwt>
<pdfrwt beam="1">  1        1 0.16404852E+00 0.15096733E+04</pdfrwt>
<pdfrwt beam="2">  1       -4 0.82206652E-01 0.15096733E+04</pdfrwt>
<totfact> 0.82589372E+00</totfact>
</mgrwt>
</event>
<event>
12    4  0.4486176E-008  0.1565477E+04  0.7818608E-02  0.8842042E-01
         -2   -1    0    0    0  501 -0.00000000000E+00  0.00000000000E+00  0.45335938185E+03  0.45335938185E+03  0.00000000000E+00 0.  1.
          1   -1    0    0  501    0  0.00000000000E+00 -0.00000000000E+00 -0.13514212092E+04  0.13514212092E+04  0.00000000000E+00 0. -1.
        -24    2    1    2    0    0  0.48872545771E+03  0.14148580864E+02 -0.94155247587E+02  0.50390357375E+03  0.77465125291E+02 0.  0.
        254    2    1    2    0    0 -0.48872545771E+03 -0.14148580864E+02 -0.80390657973E+03  0.13008770173E+04  0.89831089816E+03 0.  0.
         23    2    4    4    0    0 -0.22157522599E+03 -0.30009199550E+02 -0.94930863007E+03  0.98032394790E+03  0.99257417222E+02 0.  0.
         23    2    4    4    0    0 -0.26715023171E+03  0.15860618686E+02  0.14540205034E+03  0.32055306936E+03  0.99958533912E+02 0.  0.
          3    1    3    3  502    0  0.13565229261E+03 -0.30262123682E+02 -0.32682262813E+02  0.14277769756E+03  0.00000000000E+00 0. -1.
         -4    1    3    3    0  502  0.35307316510E+03  0.44410704546E+02 -0.61472984774E+02  0.36112587618E+03  0.00000000000E+00 0.  1.
         11    1    5    5    0    0 -0.22826058171E+03 -0.40551355964E+02 -0.91080075803E+03  0.93984324569E+03  0.00000000000E+00 0.  1.
        -11    1    5    5    0    0  0.66853557159E+01  0.10542156414E+02 -0.38507872040E+02  0.40480702216E+02  0.00000000000E+00 0. -1.
          1    1    6    6  503    0 -0.93497975614E+02  0.25811309353E+02  0.10308220443E+03  0.14154164053E+03  0.00000000000E+00 0. -1.
         -1    1    6    6    0  503 -0.17365225610E+03 -0.99506906670E+01  0.42319845916E+02  0.17901142883E+03  0.00000000000E+00 0.  1.
<mgrwt>
<rscale>  0 0.15654769E+04</rscale>
<asrwt>0</asrwt>
<pdfrwt beam="1">  1        1 0.20791096E+00 0.15654769E+04</pdfrwt>
<pdfrwt beam="2">  1       -2 0.69747596E-01 0.15654769E+04</pdfrwt>
<totfact> 0.13150054E+01</totfact>
</mgrwt>
</event>
<event>
12    4  0.4486176E-008  0.2528957E+04  0.7818608E-02  0.8392742E-01
         -2   -1    0    0    0  501 -0.00000000000E+00  0.00000000000E+00  0.22131821563E+04  0.22131821563E+04  0.00000000000E+00 0.  1.
          1   -1    0    0  501    0  0.00000000000E+00 -0.00000000000E+00 -0.72244644603E+03  0.72244644603E+03  0.00000000000E+00 0. -1.
        -24    2    1    2    0    0 -0.87968851176E+03 -0.51486396410E+03  0.11261660774E+04  0.15212318994E+04  0.83424687458E+02 0.  0.
        254    2    1    2    0    0  0.87968851176E+03  0.51486396410E+03  0.36456963280E+03  0.14143967029E+04  0.91031326301E+03 0.  0.
         23    2    4    4    0    0 -0.66372037721E+01 -0.84156390160E+02  0.31265899470E+03  0.33938846968E+03  0.10150140840E+03 0.  0.
         23    2    4    4    0    0  0.88632571553E+03  0.59902035426E+03  0.51910638101E+02  0.10750082332E+04  0.92462578080E+02 0.  0.
          3    1    3    3  502    0 -0.65095512323E+03 -0.37646775344E+03  0.77471135958E+03  0.10796519034E+04  0.00000000000E+00 0. -1.
         -4    1    3    3    0  502 -0.22873338853E+03 -0.13839621066E+03  0.35145471786E+03  0.44157999599E+03  0.00000000000E+00 0.  1.
         11    1    5    5    0    0  0.10056145060E+02 -0.10433505433E+03  0.26556549224E+03  0.28550299523E+03  0.00000000000E+00 0. -1.
        -11    1    5    5    0    0 -0.16693348832E+02  0.20178664172E+02  0.47093502459E+02  0.53885474451E+02  0.00000000000E+00 0.  1.
          4    1    6    6  503    0  0.78099840845E+03  0.51862366066E+03  0.15694627189E+02  0.93764350194E+03  0.00000000000E+00 0. -1.
         -4    1    6    6    0  503  0.10532730708E+03  0.80396693600E+02  0.36216010912E+02  0.13736473130E+03  0.00000000000E+00 0.  1.
<mgrwt>
<rscale>  0 0.25289568E+04</rscale>
<asrwt>0</asrwt>
<pdfrwt beam="1">  1        1 0.11114561E+00 0.25289568E+04</pdfrwt>
<pdfrwt beam="2">  1       -2 0.34048956E+00 0.25289568E+04</pdfrwt>
<totfact> 0.36019588E-01</totfact>
</mgrwt>
</event>
<event>
12    4  0.4486176E-008  0.1709067E+04  0.7818608E-02  0.8756210E-01
         -4   -1    0    0    0  501 -0.00000000000E+00  0.00000000000E+00  0.12288911862E+04  0.12288911862E+04  0.00000000000E+00 0.  1.
          1   -1    0    0  501    0  0.00000000000E+00 -0.00000000000E+00 -0.59421681264E+03  0.59421681264E+03  0.00000000000E+00 0. -1.
        -24    2    1    2    0    0  0.41832020337E+03  0.10452332192E+03  0.68479158944E+03  0.81326131607E+03  0.80854992957E+02 0.  0.
        254    2    1    2    0    0 -0.41832020337E+03 -0.10452332192E+03 -0.50117215919E+02  0.10098466827E+04  0.91179036511E+03 0.  0.
         23    2    4    4    0    0 -0.59121476358E+03 -0.34647136870E+03 -0.85028972606E+02  0.69665989155E+03  0.92345938225E+02 0.  0.
         23    2    4    4    0    0  0.17289456021E+03  0.24194804678E+03  0.34911756687E+02  0.31318679117E+03  0.91846334282E+02 0.  0.
          3    1    3    3  502    0  0.11797496712E+03  0.40204696984E+02  0.26752748497E+03  0.29513635110E+03  0.00000000000E+00 0. -1.
         -4    1    3    3    0  502  0.30034523625E+03  0.64318624934E+02  0.41726410446E+03  0.51812496497E+03  0.00000000000E+00 0.  1.
         11    1    5    5    0    0 -0.23187164249E+03 -0.14264205322E+03  0.11236211832E+02  0.27246553249E+03  0.00000000000E+00 0. -1.
        -11    1    5    5    0    0 -0.35934312109E+03 -0.20382931547E+03 -0.96265184438E+02  0.42419435906E+03  0.00000000000E+00 0.  1.
          2    1    6    6  503    0  0.14593605361E+02  0.18669049399E+01 -0.15341523865E+02  0.21256081624E+02  0.00000000000E+00 0. -1.
         -2    1    6    6    0  503  0.15830095485E+03  0.24008114184E+03  0.50253280552E+02  0.29193070955E+03  0.00000000000E+00 0.  1.
<mgrwt>
<rscale>  0 0.17090674E+04</rscale>
<asrwt>0</asrwt>
<pdfrwt beam="1">  1        1 0.91417972E-01 0.17090674E+04</pdfrwt>
<pdfrwt beam="2">  1       -4 0.18906018E+00 0.17090674E+04</pdfrwt>
<totfact> 0.24673345E+00</totfact>
</mgrwt>
</event>
<event>
12    4  0.4486176E-008  0.1504322E+04  0.7818608E-02  0.8881584E-01
          1   -1    0    0  501    0  0.00000000000E+00  0.00000000000E+00  0.88195649491E+03  0.88195649491E+03  0.00000000000E+00 0. -1.
         -2   -1    0    0    0  501 -0.00000000000E+00 -0.00000000000E+00 -0.64146761072E+03  0.64146761072E+03  0.00000000000E+00 0.  1.
        -24    2    1    2    0    0  0.28448705082E+02 -0.45254339530E+03 -0.94980170098E+02  0.46963912593E+03  0.77037798747E+02 0.  0.
        254    2    1    2    0    0 -0.28448705082E+02  0.45254339530E+03  0.33546905428E+03  0.10537849797E+04  0.89012271267E+03 0.  0.
         23    2    4    4    0    0  0.35476411173E+03  0.38812719647E+03  0.25013156775E+01  0.53406325898E+03  0.93364942046E+02 0.  0.
         23    2    4    4    0    0 -0.38321281681E+03  0.64416198834E+02  0.33296773860E+03  0.51972172072E+03  0.90783491882E+02 0.  0.
          3    1    3    3  502    0 -0.23190181621E+02 -0.10904295955E+03 -0.93058241124E+01  0.11186934304E+03  0.00000000000E+00 0. -1.
         -4    1    3    3    0  502  0.51638886703E+02 -0.34350043576E+03 -0.85674345986E+02  0.35776978288E+03  0.00000000000E+00 0.  1.
         11    1    5    5    0    0  0.19383351143E+01  0.29221749842E+02 -0.90184255876E+01  0.30643103741E+02  0.00000000000E+00 0.  1.
        -11    1    5    5    0    0  0.35282577661E+03  0.35890544663E+03  0.11519741265E+02  0.50342015524E+03  0.00000000000E+00 0. -1.
          2    1    6    6  503    0 -0.31268977180E+03  0.27673423971E+02  0.29806661882E+03  0.43287922223E+03  0.00000000000E+00 0. -1.
         -2    1    6    6    0  503 -0.70523045007E+02  0.36742774863E+02  0.34901119782E+02  0.86842498489E+02  0.00000000000E+00 0.  1.
<mgrwt>
<rscale>  0 0.15043225E+04</rscale>
<asrwt>0</asrwt>
<pdfrwt beam="1">  1        1 0.13568562E+00 0.15043225E+04</pdfrwt>
<pdfrwt beam="2">  1       -2 0.98687324E-01 0.15043225E+04</pdfrwt>
<totfact> 0.13600295E+01</totfact>
</mgrwt>
</event>
<event>
12    4  0.4486176E-008  0.1875518E+04  0.7818608E-02  0.8667140E-01
         -2   -1    0    0    0  501 -0.00000000000E+00  0.00000000000E+00  0.12110622191E+04  0.12110622191E+04  0.00000000000E+00 0.  1.
          1   -1    0    0  501    0  0.00000000000E+00 -0.00000000000E+00 -0.72613259781E+03  0.72613259781E+03  0.00000000000E+00 0. -1.
        -24    2    1    2    0    0  0.39755393351E+03  0.85654668602E+02 -0.42631547497E+03  0.59439528470E+03  0.78581282574E+02 0.  0.
        254    2    1    2    0    0 -0.39755393351E+03 -0.85654668602E+02  0.91124509626E+03  0.13427995322E+04  0.89853052588E+03 0.  0.
         23    2    4    4    0    0 -0.86109740249E+02 -0.67004752791E+02  0.99659284979E+03  0.10068644002E+04  0.93134783222E+02 0.  0.
         23    2    4    4    0    0 -0.31144419326E+03 -0.18649915811E+02 -0.85347753532E+02  0.33593513202E+03  0.90680036487E+02 0.  0.
          3    1    3    3  502    0  0.94261504808E+02 -0.57691006245E+01 -0.12963445404E+03  0.16038580201E+03  0.00000000000E+00 0. -1.
         -4    1    3    3    0  502  0.30329242870E+03  0.91423769226E+02 -0.29668102093E+03  0.43400948269E+03  0.00000000000E+00 0.  1.
         11    1    5    5    0    0 -0.80785500316E+02 -0.88087166093E+02  0.89682147041E+03  0.90475101309E+03  0.00000000000E+00 0. -1.
        -11    1    5    5    0    0 -0.53242399331E+01  0.21082413303E+02  0.99771379377E+02  0.10211338710E+03  0.00000000000E+00 0.  1.
          2    1    6    6  503    0 -0.16520440196E+03  0.23449002476E+02 -0.76327891053E+02  0.18348922883E+03  0.00000000000E+00 0. -1.
         -2    1    6    6    0  503 -0.14623979130E+03 -0.42098918286E+02 -0.90198624792E+01  0.15244590319E+03  0.00000000000E+00 0.  1.
<mgrwt>
<rscale>  0 0.18755178E+04</rscale>
<asrwt>0</asrwt>
<pdfrwt beam="1">  1        1 0.11171271E+00 0.18755178E+04</pdfrwt>
<pdfrwt beam="2">  1       -2 0.18631726E+00 0.18755178E+04</pdfrwt>
<totfact> 0.34691985E+00</totfact>
</mgrwt>
</event>
<event>
12    4  0.4486176E-008  0.1591634E+04  0.7818608E-02  0.8825704E-01
         -2   -1    0    0    0  501 -0.00000000000E+00  0.00000000000E+00  0.74355788767E+03  0.74355788767E+03  0.00000000000E+00 0.  1.
          1   -1    0    0  501    0  0.00000000000E+00 -0.00000000000E+00 -0.85174876346E+03  0.85174876346E+03  0.00000000000E+00 0. -1.
        -24    2    1    2    0    0 -0.23753327232E+03  0.36756892558E+03  0.28164661343E+03  0.52687784828E+03  0.82136968765E+02 0.  0.
        254    2    1    2    0    0  0.23753327232E+03 -0.36756892558E+03 -0.38983748921E+03  0.10684288029E+04  0.89332965263E+03 0.  0.
         23    2    4    4    0    0  0.63571565206E+02  0.60697450671E+02  0.24605062154E+03  0.27731970242E+03  0.92950441449E+02 0.  0.
         23    2    4    4    0    0  0.17396170712E+03 -0.42826637625E+03 -0.63588811076E+03  0.79110910044E+03  0.88459905187E+02 0.  0.
          3    1    3    3  502    0 -0.78457160315E+01  0.44625711083E+02  0.99469196458E+01  0.46389121141E+02  0.00000000000E+00 0. -1.
         -4    1    3    3    0  502 -0.22968755629E+03  0.32294321449E+03  0.27169969378E+03  0.48048872714E+03  0.00000000000E+00 0.  1.
         11    1    5    5    0    0  0.31667655261E+02 -0.16363743108E+02  0.33201421833E+02  0.48712902705E+02  0.00000000000E+00 0. -1.
        -11    1    5    5    0    0  0.31903909945E+02  0.77061193780E+02  0.21284919971E+03  0.22860679971E+03  0.00000000000E+00 0.  1.
          3    1    6    6  503    0  0.99469841985E+02 -0.22108391426E+03 -0.26000444596E+03  0.35549213567E+03  0.00000000000E+00 0. -1.
         -3    1    6    6    0  503  0.74491865131E+02 -0.20718246199E+03 -0.37588366480E+03  0.43561696477E+03  0.00000000000E+00 0.  1.
<mgrwt>
<rscale>  0 0.15916338E+04</rscale>
<asrwt>0</asrwt>
<pdfrwt beam="1">  1        1 0.13103827E+00 0.15916338E+04</pdfrwt>
<pdfrwt beam="2">  1       -2 0.11439352E+00 0.15916338E+04</pdfrwt>
<totfact> 0.10029495E+01</totfact>
</mgrwt>
</event>
<event>
12    4  0.4486176E-008  0.1660727E+04  0.7818608E-02  0.8784086E-01
         -2   -1    0    0    0  501 -0.00000000000E+00  0.00000000000E+00  0.33390229916E+04  0.33390229916E+04  0.00000000000E+00 0.  1.
          1   -1    0    0  501    0  0.00000000000E+00 -0.00000000000E+00 -0.20649865327E+03  0.20649865327E+03  0.00000000000E+00 0. -1.
        -24    2    1    2    0    0  0.99026196414E+01  0.58145633335E+03  0.96435142037E+03  0.11281321042E+04  0.67222414595E+02 0.  0.
        254    2    1    2    0    0 -0.99026196414E+01 -0.58145633335E+03  0.21681729180E+04  0.24173895407E+04  0.89699992188E+03 0.  0.
         23    2    4    4    0    0  0.13692796919E+03 -0.63733360440E+03  0.79580337084E+03  0.10325616503E+04  0.89090766455E+02 0.  0.
         23    2    4    4    0    0 -0.14683058883E+03  0.55877271051E+02  0.13723695472E+04  0.13848278904E+04  0.98329145324E+02 0.  0.
          3    1    3    3  502    0  0.63951095075E+01  0.40294415574E+03  0.72563474360E+03  0.83003052425E+03  0.00000000000E+00 0. -1.
         -4    1    3    3    0  502  0.35075101339E+01  0.17851217761E+03  0.23871667677E+03  0.29810157992E+03  0.00000000000E+00 0.  1.
         11    1    5    5    0    0  0.64005865121E+02 -0.18133859656E+03  0.28671837031E+03  0.34523595011E+03  0.00000000000E+00 0. -1.
        -11    1    5    5    0    0  0.72922104069E+02 -0.45599500784E+03  0.50908500053E+03  0.68732570023E+03  0.00000000000E+00 0.  1.
          4    1    6    6  503    0 -0.39110417231E+02 -0.18348880481E+02  0.17163970864E+03  0.17699292566E+03  0.00000000000E+00 0. -1.
         -4    1    6    6    0  503 -0.10772017160E+03  0.74226151532E+02  0.12007298385E+04  0.12078349647E+04  0.00000000000E+00 0.  1.
<mgrwt>
<rscale>  0 0.16607273E+04</rscale>
<asrwt>0</asrwt>
<pdfrwt beam="1">  1        1 0.31769026E-01 0.16607273E+04</pdfrwt>
<pdfrwt beam="2">  1       -2 0.51369580E+00 0.16607273E+04</pdfrwt>
<totfact> 0.16139603E-01</totfact>
</mgrwt>
</event>
<event>
12    4  0.4486176E-008  0.1898354E+04  0.7818608E-02  0.8655676E-01
          1   -1    0    0  501    0  0.00000000000E+00  0.00000000000E+00  0.13487828900E+04  0.13487828900E+04  0.00000000000E+00 0. -1.
         -2   -1    0    0    0  501 -0.00000000000E+00 -0.00000000000E+00 -0.66796307690E+03  0.66796307690E+03  0.00000000000E+00 0.  1.
        -24    2    1    2    0    0 -0.59546274011E+03 -0.24522532551E+03  0.63061470838E+03  0.90491030430E+03  0.80476165933E+02 0.  0.
        254    2    1    2    0    0  0.59546274011E+03  0.24522532551E+03  0.50205104736E+02  0.11118356626E+04  0.90495671332E+03 0.  0.
         23    2    4    4    0    0  0.42051989076E+03  0.29134564790E+03  0.43460712849E+03  0.67691645428E+03  0.87254024909E+02 0.  0.
         23    2    4    4    0    0  0.17494284935E+03 -0.46120322396E+02 -0.38440202375E+03  0.43491920833E+03  0.93046855052E+02 0.  0.
          3    1    3    3  502    0 -0.35293308727E+03 -0.17072956932E+03  0.42615393171E+03  0.57906607865E+03  0.00000000000E+00 0. -1.
         -4    1    3    3    0  502 -0.24252965284E+03 -0.74495756185E+02  0.20446077666E+03  0.32584422565E+03  0.00000000000E+00 0.  1.
         11    1    5    5    0    0  0.96970239705E+02  0.27934502028E+02  0.10035703774E+03  0.14232040900E+03  0.00000000000E+00 0. -1.
        -11    1    5    5    0    0  0.32354965106E+03  0.26341114588E+03  0.33425009075E+03  0.53459604528E+03  0.00000000000E+00 0.  1.
          3    1    6    6  503    0  0.41471269510E+01  0.38245899316E+01  0.45146762090E+01  0.72255415966E+01  0.00000000000E+00 0. -1.
         -3    1    6    6    0  503  0.17079572239E+03 -0.49944912327E+02 -0.38891669996E+03  0.42769366673E+03  0.00000000000E+00 0.  1.
<mgrwt>
<rscale>  0 0.18983542E+04</rscale>
<asrwt>0</asrwt>
<pdfrwt beam="1">  1        1 0.20750506E+00 0.18983542E+04</pdfrwt>
<pdfrwt beam="2">  1       -2 0.10276355E+00 0.18983542E+04</pdfrwt>
<totfact> 0.53067115E+00</totfact>
</mgrwt>
</event>
<event>
12    4  0.4486176E-008  0.2794352E+04  0.7818608E-02  0.8305024E-01
         -2   -1    0    0    0  501 -0.00000000000E+00  0.00000000000E+00  0.71186806528E+03  0.71186806528E+03  0.00000000000E+00 0.  1.
          1   -1    0    0  501    0  0.00000000000E+00 -0.00000000000E+00 -0.27422225201E+04  0.27422225201E+04  0.00000000000E+00 0. -1.
        -24    2    1    2    0    0  0.30019507789E+03 -0.11621735788E+04 -0.13491792486E+04  0.18075958277E+04  0.79708966731E+02 0.  0.
        254    2    1    2    0    0 -0.30019507789E+03  0.11621735788E+04 -0.68117520615E+03  0.16464947576E+04  0.89787572261E+03 0.  0.
         23    2    4    4    0    0 -0.23524442171E+03  0.97418215875E+03 -0.84149676904E+02  0.10102412318E+04  0.95579087640E+02 0.  0.
         23    2    4    4    0    0 -0.64950656183E+02  0.18799142007E+03 -0.59702552924E+03  0.63625352577E+03  0.93913283051E+02 0.  0.
          3    1    3    3  502    0  0.25526455981E+03 -0.93661090925E+03 -0.10462399493E+04  0.14272414030E+04  0.00000000000E+00 0. -1.
         -4    1    3    3    0  502  0.44930518075E+02 -0.22556266958E+03 -0.30293929931E+03  0.38035442475E+03  0.00000000000E+00 0.  1.
         11    1    5    5    0    0 -0.73097709863E+02  0.28822849261E+03  0.18598493368E+02  0.29793429325E+03  0.00000000000E+00 0. -1.
        -11    1    5    5    0    0 -0.16214671184E+03  0.68595366615E+03 -0.10274817027E+03  0.71230693858E+03  0.00000000000E+00 0.  1.
          4    1    6    6  503    0 -0.40675044939E+02  0.16153260543E+03 -0.36181805901E+03  0.39832091299E+03  0.00000000000E+00 0. -1.
         -4    1    6    6    0  503 -0.24275611244E+02  0.26458814639E+02 -0.23520747024E+03  0.23793261279E+03  0.00000000000E+00 0.  1.
<mgrwt>
<rscale>  0 0.27943519E+04</rscale>
<asrwt>0</asrwt>
<pdfrwt beam="1">  1        1 0.42188039E+00 0.27943519E+04</pdfrwt>
<pdfrwt beam="2">  1       -2 0.10951816E+00 0.27943519E+04</pdfrwt>
<totfact> 0.46330022E-01</totfact>
</mgrwt>
</event>
<event>
12    4  0.4486176E-008  0.2289955E+04  0.7818608E-02  0.8481892E-01
         -2   -1    0    0    0  501 -0.00000000000E+00  0.00000000000E+00  0.19054602711E+04  0.19054602711E+04  0.00000000000E+00 0.  1.
          1   -1    0    0  501    0  0.00000000000E+00 -0.00000000000E+00 -0.68800853461E+03  0.68800853461E+03  0.00000000000E+00 0. -1.
        -24    2    1    2    0    0 -0.75231990972E+03  0.33240319521E+03  0.10875464743E+04  0.13658977549E+04  0.80263393360E+02 0.  0.
        254    2    1    2    0    0  0.75231990972E+03 -0.33240319521E+03  0.12990526219E+03  0.12275710508E+04  0.90198568554E+03 0.  0.
         23    2    4    4    0    0  0.65961035626E+03  0.21866420749E+02  0.38839724391E+03  0.76993537756E+03  0.79900588932E+02 0.  0.
         23    2    4    4    0    0  0.92709553466E+02 -0.35426961596E+03 -0.25849198172E+03  0.45763567326E+03  0.92251193678E+02 0.  0.
          3    1    3    3  502    0 -0.15962109412E+02  0.64615917396E+01  0.47621147334E+02  0.50639063756E+02  0.00000000000E+00 0. -1.
         -4    1    3    3    0  502 -0.73635780031E+03  0.32594160347E+03  0.10399253270E+04  0.13152586911E+04  0.00000000000E+00 0.  1.
         11    1    5    5    0    0  0.44877364281E+03  0.26199499876E+02  0.22231304714E+03  0.50150502211E+03  0.00000000000E+00 0.  1.
        -11    1    5    5    0    0  0.21083671345E+03 -0.43330791267E+01  0.16608419677E+03  0.26843035545E+03  0.00000000000E+00 0. -1.
          1    1    6    6  503    0  0.10703632573E+03 -0.28925289344E+03 -0.23218958672E+03  0.38605183016E+03  0.00000000000E+00 0. -1.
         -1    1    6    6    0  503 -0.14326772265E+02 -0.65016722515E+02 -0.26302394996E+02  0.71583843098E+02  0.00000000000E+00 0.  1.
<mgrwt>
<rscale>  0 0.22899545E+04</rscale>
<asrwt>0</asrwt>
<pdfrwt beam="1">  1        1 0.10584747E+00 0.22899545E+04</pdfrwt>
<pdfrwt beam="2">  1       -2 0.29314773E+00 0.22899545E+04</pdfrwt>
<totfact> 0.77638391E-01</totfact>
</mgrwt>
</event>
<event>
12    4  0.4486176E-008  0.1382870E+04  0.7818608E-02  0.8966312E-01
          1   -1    0    0  501    0  0.00000000000E+00  0.00000000000E+00  0.16165070525E+04  0.16165070525E+04  0.00000000000E+00 0. -1.
         -2   -1    0    0    0  501 -0.00000000000E+00 -0.00000000000E+00 -0.29575036497E+03  0.29575036497E+03  0.00000000000E+00 0.  1.
        -24    2    1    2    0    0  0.31922583955E+03  0.13631726308E+03  0.12507197084E+03  0.37736582994E+03  0.79211355681E+02 0.  0.
        254    2    1    2    0    0 -0.31922583955E+03 -0.13631726308E+03  0.11956847167E+04  0.15348915875E+04  0.89763172341E+03 0.  0.
         23    2    4    4    0    0 -0.39851966471E+03 -0.45044729910E+03  0.62397033235E+03  0.87118076668E+03  0.88860903443E+02 0.  0.
         23    2    4    4    0    0  0.79293825162E+02  0.31413003603E+03  0.57171438432E+03  0.66371082082E+03  0.93217628126E+02 0.  0.
          3    1    3    3  502    0  0.13524223196E+02  0.29012712542E+02  0.12859202402E+02  0.34496393848E+02  0.00000000000E+00 0. -1.
         -2    1    3    3    0  502  0.30570161636E+03  0.10730455053E+03  0.11221276844E+03  0.34286943610E+03  0.00000000000E+00 0.  1.
         11    1    5    5    0    0  0.22097950396E+01 -0.18920323478E+02  0.20646851846E+02  0.28091890747E+02  0.00000000000E+00 0.  1.
        -11    1    5    5    0    0 -0.40072945975E+03 -0.43152697562E+03  0.60332348050E+03  0.84308887594E+03  0.00000000000E+00 0. -1.
          4    1    6    6  503    0  0.56677274903E+02  0.18334563635E+03  0.42230001912E+03  0.46385907559E+03  0.00000000000E+00 0. -1.
         -4    1    6    6    0  503  0.22616550259E+02  0.13078439967E+03  0.14941436521E+03  0.19985174523E+03  0.00000000000E+00 0.  1.
<mgrwt>
<rscale>  0 0.13828703E+04</rscale>
<asrwt>0</asrwt>
<pdfrwt beam="1">  1        1 0.24869339E+00 0.13828703E+04</pdfrwt>
<pdfrwt beam="2">  1       -2 0.45500057E-01 0.13828703E+04</pdfrwt>
<totfact> 0.21337697E+01</totfact>
</mgrwt>
</event>
<event>
12    4  0.4486176E-008  0.1603672E+04  0.7818608E-02  0.8818296E-01
         -2   -1    0    0    0  501 -0.00000000000E+00  0.00000000000E+00  0.72130364578E+03  0.72130364578E+03  0.00000000000E+00 0.  1.
          1   -1    0    0  501    0  0.00000000000E+00 -0.00000000000E+00 -0.89135934618E+03  0.89135934618E+03  0.00000000000E+00 0. -1.
        -24    2    1    2    0    0  0.41053106106E+03 -0.51412597323E+02 -0.41646869115E+03  0.59247656917E+03  0.80020666424E+02 0.  0.
        254    2    1    2    0    0 -0.41053106106E+03  0.51412597323E+02  0.24641299076E+03  0.10201864228E+04  0.89937865661E+03 0.  0.
         23    2    4    4    0    0  0.12906196075E+03  0.28345999966E+03 -0.90824026679E+02  0.33698371984E+03  0.91117849492E+02 0.  0.
         23    2    4    4    0    0 -0.53959302180E+03 -0.23204740234E+03  0.33723701744E+03  0.68320270295E+03  0.89613064193E+02 0.  0.
          1    1    3    3  502    0  0.18176726050E+03 -0.14260301859E+02 -0.23882015734E+03  0.30046257795E+03  0.00000000000E+00 0. -1.
         -2    1    3    3    0  502  0.22876380056E+03 -0.37152295464E+02 -0.17764853381E+03  0.29201399122E+03  0.00000000000E+00 0.  1.
         11    1    5    5    0    0  0.14196640650E+03  0.24870582364E+03 -0.71436988277E+02  0.29514791305E+03  0.00000000000E+00 0. -1.
        -11    1    5    5    0    0 -0.12904445758E+02  0.34754176027E+02 -0.19387038402E+02  0.41835806788E+02  0.00000000000E+00 0.  1.
          3    1    6    6  503    0 -0.34962695575E+03 -0.19009769882E+03  0.25017190017E+03  0.47006608357E+03  0.00000000000E+00 0. -1.
         -3    1    6    6    0  503 -0.18996606605E+03 -0.41949703516E+02  0.87065117266E+02  0.21313661938E+03  0.00000000000E+00 0.  1.
<mgrwt>
<rscale>  0 0.16036717E+04</rscale>
<asrwt>0</asrwt>
<pdfrwt beam="1">  1        1 0.13713221E+00 0.16036717E+04</pdfrwt>
<pdfrwt beam="2">  1       -2 0.11096979E+00 0.16036717E+04</pdfrwt>
<totfact> 0.10000226E+01</totfact>
</mgrwt>
</event>
<event>
12    4  0.4486176E-008  0.1877739E+04  0.7818608E-02  0.8666017E-01
         -2   -1    0    0    0  501 -0.00000000000E+00  0.00000000000E+00  0.95947632175E+03  0.95947632175E+03  0.00000000000E+00 0.  1.
          1   -1    0    0  501    0  0.00000000000E+00 -0.00000000000E+00 -0.91870492783E+03  0.91870492783E+03  0.00000000000E+00 0. -1.
        -24    2    1    2    0    0 -0.14690589737E+02  0.26138582055E+03 -0.65501692394E+03  0.70976997699E+03  0.78663136065E+02 0.  0.
        254    2    1    2    0    0  0.14690589737E+02 -0.26138582055E+03  0.69578831786E+03  0.11684112726E+04  0.90140177393E+03 0.  0.
         23    2    4    4    0    0  0.27021972286E+03 -0.49981992227E+03  0.46396473444E+03  0.73891990993E+03  0.88885910956E+02 0.  0.
         23    2    4    4    0    0 -0.25552913313E+03  0.23843410173E+03  0.23182358342E+03  0.42949136266E+03  0.92599665379E+02 0.  0.
          3    1    3    3  502    0  0.18234691973E+02  0.21163691536E+03 -0.48119921439E+03  0.52599940291E+03  0.00000000000E+00 0. -1.
         -4    1    3    3    0  502 -0.32925281710E+02  0.49748905190E+02 -0.17381770955E+03  0.18377057408E+03  0.00000000000E+00 0.  1.
         11    1    5    5    0    0 -0.35009110498E+00 -0.37218365753E+02  0.16320798896E+02  0.40641084996E+02  0.00000000000E+00 0. -1.
        -11    1    5    5    0    0  0.27056981397E+03 -0.46260155652E+03  0.44764393554E+03  0.69827882494E+03  0.00000000000E+00 0.  1.
          3    1    6    6  503    0 -0.94193738703E+02  0.38511847562E+02  0.91048195305E+02  0.13654814785E+03  0.00000000000E+00 0. -1.
         -3    1    6    6    0  503 -0.16133539442E+03  0.19992225417E+03  0.14077538812E+03  0.29294321481E+03  0.00000000000E+00 0.  1.
<mgrwt>
<rscale>  0 0.18777387E+04</rscale>
<asrwt>0</asrwt>
<pdfrwt beam="1">  1        1 0.14133922E+00 0.18777387E+04</pdfrwt>
<pdfrwt beam="2">  1       -2 0.14761174E+00 0.18777387E+04</pdfrwt>
<totfact> 0.45109389E+00</totfact>
</mgrwt>
</event>
<event>
12    4  0.4486176E-008  0.1157855E+04  0.7818608E-02  0.9150567E-01
         -2   -1    0    0    0  501 -0.00000000000E+00  0.00000000000E+00  0.23036342314E+03  0.23036342314E+03  0.00000000000E+00 0.  1.
          1   -1    0    0  501    0  0.00000000000E+00 -0.00000000000E+00 -0.14549054089E+04  0.14549054089E+04  0.00000000000E+00 0. -1.
        -24    2    1    2    0    0  0.53620441638E+02  0.20731299963E+03 -0.21798994382E+03  0.31564057592E+03  0.79091883176E+02 0.  0.
        254    2    1    2    0    0 -0.53620441638E+02 -0.20731299963E+03 -0.10065520420E+04  0.13696282561E+04  0.90381453588E+03 0.  0.
         23    2    4    4    0    0 -0.18376561505E+03 -0.36331967595E+03 -0.90659696675E+02  0.42714167754E+03  0.91977409620E+02 0.  0.
         23    2    4    4    0    0  0.13014517342E+03  0.15600667632E+03 -0.91589234530E+03  0.94248657861E+03  0.90256930304E+02 0.  0.
          3    1    3    3  502    0  0.58667956418E+02  0.16918332318E+03 -0.13527290144E+03  0.22441854606E+03  0.00000000000E+00 0. -1.
         -4    1    3    3    0  502 -0.50475147800E+01  0.38129676445E+02 -0.82717042375E+02  0.91222029853E+02  0.00000000000E+00 0.  1.
         11    1    5    5    0    0  0.22283048248E+01 -0.21676088811E+01 -0.13237403108E+02  0.13597525940E+02  0.00000000000E+00 0. -1.
        -11    1    5    5    0    0 -0.18599391988E+03 -0.36115206707E+03 -0.77422293567E+02  0.41354415160E+03  0.00000000000E+00 0.  1.
          4    1    6    6  503    0 -0.96780861486E+01  0.30232605590E+02 -0.18964345751E+03  0.19228186802E+03  0.00000000000E+00 0. -1.
         -4    1    6    6    0  503  0.13982325956E+03  0.12577407073E+03 -0.72624888779E+03  0.75020471059E+03  0.00000000000E+00 0.  1.
<mgrwt>
<rscale>  0 0.11578549E+04</rscale>
<asrwt>0</asrwt>
<pdfrwt beam="1">  1        1 0.22383160E+00 0.11578549E+04</pdfrwt>
<pdfrwt beam="2">  1       -2 0.35440527E-01 0.11578549E+04</pdfrwt>
<totfact> 0.45796856E+01</totfact>
</mgrwt>
</event>
<event>
12    4  0.4486176E-008  0.4452862E+04  0.7818608E-02  0.7918942E-01
         -2   -1    0    0    0  501 -0.00000000000E+00  0.00000000000E+00  0.16388163020E+04  0.16388163020E+04  0.00000000000E+00 0.  1.
          1   -1    0    0  501    0  0.00000000000E+00 -0.00000000000E+00 -0.30247411536E+04  0.30247411536E+04  0.00000000000E+00 0. -1.
        -24    2    1    2    0    0 -0.63553867559E+03 -0.98439041444E+02  0.14686008969E+04  0.16052224849E+04  0.79693027887E+02 0.  0.
        254    2    1    2    0    0  0.63553867559E+03  0.98439041444E+02 -0.28545257484E+04  0.30583349708E+04  0.88966054873E+03 0.  0.
         23    2    4    4    0    0 -0.17231554263E+03 -0.94848033429E+02 -0.10048657086E+04  0.10281916744E+04  0.93457109331E+02 0.  0.
         23    2    4    4    0    0  0.80785421823E+03  0.19328707487E+03 -0.18496600398E+04  0.20301432964E+04  0.10124825775E+03 0.  0.
          3    1    3    3  502    0 -0.18982724289E+03 -0.54056911968E+02  0.51968305815E+03  0.55590198129E+03  0.00000000000E+00 0. -1.
         -2    1    3    3    0  502 -0.44571143270E+03 -0.44382129476E+02  0.94891783871E+03  0.10493205036E+04  0.00000000000E+00 0.  1.
         11    1    5    5    0    0 -0.11916721038E+03 -0.60637996985E+02 -0.44180581899E+03  0.46159524738E+03  0.00000000000E+00 0. -1.
        -11    1    5    5    0    0 -0.53148332257E+02 -0.34210036444E+02 -0.56305988964E+03  0.56659642704E+03  0.00000000000E+00 0.  1.
          2    1    6    6  503    0  0.58718265629E+03  0.14968721331E+03 -0.14501281959E+04  0.15716429360E+04  0.00000000000E+00 0. -1.
         -2    1    6    6    0  503  0.22067156194E+03  0.43599861560E+02 -0.39953184391E+03  0.45850036039E+03  0.00000000000E+00 0.  1.
<mgrwt>
<rscale>  0 0.44528621E+04</rscale>
<asrwt>0</asrwt>
<pdfrwt beam="1">  1        1 0.46534479E+00 0.44528621E+04</pdfrwt>
<pdfrwt beam="2">  1       -2 0.25212559E+00 0.44528621E+04</pdfrwt>
<totfact> 0.23732357E-02</totfact>
</mgrwt>
</event>
<event>
12    4  0.4486176E-008  0.1868518E+04  0.7818608E-02  0.8670688E-01
          1   -1    0    0  501    0  0.00000000000E+00  0.00000000000E+00  0.12344120512E+04  0.12344120512E+04  0.00000000000E+00 0. -1.
         -2   -1    0    0    0  501 -0.00000000000E+00 -0.00000000000E+00 -0.70708932263E+03  0.70708932263E+03  0.00000000000E+00 0.  1.
        -24    2    1    2    0    0 -0.16081657849E+03  0.15558899264E+03  0.90119195782E+03  0.93204060994E+03  0.80516129987E+02 0.  0.
        254    2    1    2    0    0  0.16081657849E+03 -0.15558899264E+03 -0.37386922924E+03  0.10094607639E+04  0.91058383839E+03 0.  0.
         23    2    4    4    0    0 -0.26559908124E+03  0.20487349717E+03 -0.41995376586E+02  0.35348714053E+03  0.10331275364E+03 0.  0.
         23    2    4    4    0    0  0.42641565973E+03 -0.36046248981E+03 -0.33187385265E+03  0.65597362337E+03  0.91638523920E+02 0.  0.
          3    1    3    3  502    0 -0.16050243963E+03  0.16390626460E+03  0.87383048212E+03  0.90344120350E+03  0.00000000000E+00 0. -1.
         -4    1    3    3    0  502 -0.31413885502E+00 -0.83172719584E+01  0.27361475694E+02  0.28599406431E+02  0.00000000000E+00 0.  1.
         11    1    5    5    0    0  0.87954155585E+00  0.16498159565E+02  0.14875181119E+02  0.22231371431E+02  0.00000000000E+00 0.  1.
        -11    1    5    5    0    0 -0.26647862280E+03  0.18837533760E+03 -0.56870557705E+02  0.33125576909E+03  0.00000000000E+00 0. -1.
          1    1    6    6  503    0  0.33148369057E+03 -0.29037275275E+03 -0.21668566949E+03  0.49107071998E+03  0.00000000000E+00 0. -1.
         -1    1    6    6    0  503  0.94931969153E+02 -0.70089737061E+02 -0.11518818316E+03  0.16490290340E+03  0.00000000000E+00 0.  1.
<mgrwt>
<rscale>  0 0.18685177E+04</rscale>
<asrwt>0</asrwt>
<pdfrwt beam="1">  1        1 0.18990955E+00 0.18685177E+04</pdfrwt>
<pdfrwt beam="2">  1       -2 0.10878297E+00 0.18685177E+04</pdfrwt>
<totfact> 0.56023168E+00</totfact>
</mgrwt>
</event>
<event>
12    4  0.4486176E-008  0.2068889E+04  0.7818608E-02  0.8575073E-01
         -2   -1    0    0    0  501 -0.00000000000E+00  0.00000000000E+00  0.81033389345E+03  0.81033389345E+03  0.00000000000E+00 0.  1.
          1   -1    0    0  501    0  0.00000000000E+00 -0.00000000000E+00 -0.13205363245E+04  0.13205363245E+04  0.00000000000E+00 0. -1.
        -24    2    1    2    0    0 -0.30171534481E+03  0.19109153106E+03  0.57219113486E+03  0.67892238251E+03  0.77361386565E+02 0.  0.
        254    2    1    2    0    0  0.30171534481E+03 -0.19109153106E+03 -0.10823935659E+04  0.14519478355E+04  0.89946015076E+03 0.  0.
         23    2    4    4    0    0  0.64527949301E+02 -0.18516149620E+03  0.10285882426E+03  0.23963131248E+03  0.91622007617E+02 0.  0.
         23    2    4    4    0    0  0.23718739551E+03 -0.59300348608E+01 -0.11852523902E+04  0.12123165230E+04  0.92709748835E+02 0.  0.
          3    1    3    3  502    0 -0.11625008365E+02  0.17058958294E+00  0.27624456450E+01  0.11949938336E+02  0.00000000000E+00 0. -1.
         -4    1    3    3    0  502 -0.29009033645E+03  0.19092094147E+03  0.56942868921E+03  0.66697244418E+03  0.00000000000E+00 0.  1.
         11    1    5    5    0    0  0.19294675981E+02 -0.15918158674E+03  0.57001638395E+02  0.17017711026E+03  0.00000000000E+00 0.  1.
        -11    1    5    5    0    0  0.45233273320E+02 -0.25979909459E+02  0.45857185866E+02  0.69454202222E+02  0.00000000000E+00 0. -1.
          1    1    6    6  503    0  0.31312549057E+02  0.31732055975E+02 -0.17276371852E+03  0.17842281677E+03  0.00000000000E+00 0. -1.
         -1    1    6    6    0  503  0.20587484646E+03 -0.37662090835E+02 -0.10124886717E+04  0.10338937062E+04  0.00000000000E+00 0.  1.
<mgrwt>
<rscale>  0 0.20688889E+04</rscale>
<asrwt>0</asrwt>
<pdfrwt beam="1">  1        1 0.20315943E+00 0.20688889E+04</pdfrwt>
<pdfrwt beam="2">  1       -2 0.12466675E+00 0.20688889E+04</pdfrwt>
<totfact> 0.34159306E+00</totfact>
</mgrwt>
</event>
<event>
12    4  0.4486176E-008  0.1749060E+04  0.7818608E-02  0.8733868E-01
          1   -1    0    0  501    0  0.00000000000E+00  0.00000000000E+00  0.90564562013E+03  0.90564562013E+03  0.00000000000E+00 0. -1.
         -2   -1    0    0    0  501 -0.00000000000E+00 -0.00000000000E+00 -0.84448311403E+03  0.84448311403E+03  0.00000000000E+00 0.  1.
        -24    2    1    2    0    0  0.38904075562E+03  0.16711297451E+01  0.52742408017E+03  0.66050914393E+03  0.82101563103E+02 0.  0.
        254    2    1    2    0    0 -0.38904075562E+03 -0.16711297451E+01 -0.46626157407E+03  0.10896195902E+04  0.90471846103E+03 0.  0.
         23    2    4    4    0    0 -0.60169802103E+03 -0.14557793577E+02 -0.46527125109E+02  0.61034887722E+03  0.90047435763E+02 0.  0.
         23    2    4    4    0    0  0.21265726540E+03  0.12886663832E+02 -0.41973444896E+03  0.47927071300E+03  0.90189966535E+02 0.  0.
          3    1    3    3  502    0  0.31874671551E+03 -0.98223427989E+01  0.47478631334E+03  0.57194229639E+03  0.00000000000E+00 0. -1.
         -4    1    3    3    0  502  0.70294040115E+02  0.11493472544E+02  0.52637766835E+02  0.88566847546E+02  0.00000000000E+00 0.  1.
         11    1    5    5    0    0 -0.11908530695E+03 -0.28610075956E+02  0.15942254964E+02  0.12350709401E+03  0.00000000000E+00 0. -1.
        -11    1    5    5    0    0 -0.48261271408E+03  0.14052282379E+02 -0.62469380073E+02  0.48684178321E+03  0.00000000000E+00 0.  1.
          3    1    6    6  503    0  0.57644159332E+02  0.37214204533E+02 -0.18118898264E+03  0.19374517685E+03  0.00000000000E+00 0. -1.
         -3    1    6    6    0  503  0.15501310607E+03 -0.24327540701E+02 -0.23854546632E+03  0.28552553615E+03  0.00000000000E+00 0.  1.
<mgrwt>
<rscale>  0 0.17490597E+04</rscale>
<asrwt>0</asrwt>
<pdfrwt beam="1">  1        1 0.13933010E+00 0.17490597E+04</pdfrwt>
<pdfrwt beam="2">  1       -2 0.12992048E+00 0.17490597E+04</pdfrwt>
<totfact> 0.65029690E+00</totfact>
</mgrwt>
</event>
<event>
12    4  0.4486176E-008  0.1417272E+04  0.7818608E-02  0.8941410E-01
          1   -1    0    0  501    0  0.00000000000E+00  0.00000000000E+00  0.32485847267E+03  0.32485847267E+03  0.00000000000E+00 0. -1.
         -4   -1    0    0    0  501 -0.00000000000E+00 -0.00000000000E+00 -0.15457956777E+04  0.15457956777E+04  0.00000000000E+00 0.  1.
        -24    2    1    2    0    0 -0.34345204073E+03  0.22895752844E+03 -0.45384870431E+03  0.61947719328E+03  0.85979605047E+02 0.  0.
        254    2    1    2    0    0  0.34345204073E+03 -0.22895752844E+03 -0.76708850076E+03  0.12511769571E+04  0.89813036690E+03 0.  0.
         23    2    4    4    0    0 -0.24219854465E+03 -0.18893705552E+03 -0.51397667817E+03  0.60566865246E+03  0.91132567685E+02 0.  0.
         23    2    4    4    0    0  0.58565058538E+03 -0.40020472917E+02 -0.25311182259E+03  0.64550830467E+03  0.89594253462E+02 0.  0.
          1    1    3    3  502    0 -0.33499196917E+03  0.21782274088E+03 -0.45487365512E+03  0.60545553757E+03  0.00000000000E+00 0. -1.
         -2    1    3    3    0  502 -0.84600715618E+01  0.11134787554E+02  0.10249508117E+01  0.14021655711E+02  0.00000000000E+00 0.  1.
         11    1    5    5    0    0 -0.16630240714E+03 -0.16763124812E+03 -0.42946462524E+03  0.49009855162E+03  0.00000000000E+00 0.  1.
        -11    1    5    5    0    0 -0.75896137515E+02 -0.21305807402E+02 -0.84512052928E+02  0.11557010084E+03  0.00000000000E+00 0. -1.
          3    1    6    6  503    0  0.42204286698E+03 -0.33309435190E+02 -0.22478537714E+03  0.47933095646E+03  0.00000000000E+00 0. -1.
         -3    1    6    6    0  503  0.16360771839E+03 -0.67110377270E+01 -0.28326445450E+02  0.16617734821E+03  0.00000000000E+00 0.  1.
<mgrwt>
<rscale>  0 0.14172718E+04</rscale>
<asrwt>0</asrwt>
<pdfrwt beam="1">  1        1 0.49978227E-01 0.14172718E+04</pdfrwt>
<pdfrwt beam="2">  1       -4 0.23781472E+00 0.14172718E+04</pdfrwt>
<totfact> 0.27512074E+00</totfact>
</mgrwt>
</event>
<event>
12    4  0.4486176E-008  0.1655728E+04  0.7818608E-02  0.8787025E-01
          1   -1    0    0  501    0  0.00000000000E+00  0.00000000000E+00  0.21782406050E+04  0.21782406050E+04  0.00000000000E+00 0. -1.
         -2   -1    0    0    0  501 -0.00000000000E+00 -0.00000000000E+00 -0.31463875788E+03  0.31463875788E+03  0.00000000000E+00 0.  1.
        -24    2    1    2    0    0 -0.29977691917E+03 -0.46569342773E+02 -0.80873839692E+02  0.32373109187E+03  0.78907141266E+02 0.  0.
        254    2    1    2    0    0  0.29977691917E+03  0.46569342773E+02  0.19444756868E+04  0.21691482710E+04  0.91224098794E+03 0.  0.
         23    2    4    4    0    0  0.98156310933E+01  0.43903712742E+03  0.11247354792E+04  0.12108468394E+04  0.90940774212E+02 0.  0.
         23    2    4    4    0    0  0.28996128808E+03 -0.39246778465E+03  0.81974020765E+03  0.95830143166E+03  0.90879674878E+02 0.  0.
          3    1    3    3  502    0 -0.71818606101E+01 -0.59778851375E+01  0.10946408369E+02  0.14392292685E+02  0.00000000000E+00 0. -1.
         -4    1    3    3    0  502 -0.29259505856E+03 -0.40591457635E+02 -0.91820248061E+02  0.30933879919E+03  0.00000000000E+00 0.  1.
         11    1    5    5    0    0  0.16024044773E+02  0.65721140000E+02  0.26576950038E+03  0.27424344219E+03  0.00000000000E+00 0. -1.
        -11    1    5    5    0    0 -0.62084136796E+01  0.37331598742E+03  0.85896597881E+03  0.93660339719E+03  0.00000000000E+00 0.  1.
          1    1    6    6  503    0  0.71596983798E+02 -0.17007621565E+03  0.29360648924E+03  0.34678064788E+03  0.00000000000E+00 0. -1.
         -1    1    6    6    0  503  0.21836430428E+03 -0.22239156900E+03  0.52613371841E+03  0.61152078378E+03  0.00000000000E+00 0.  1.
<mgrwt>
<rscale>  0 0.16557281E+04</rscale>
<asrwt>0</asrwt>
<pdfrwt beam="1">  1        1 0.33511393E+00 0.16557281E+04</pdfrwt>
<pdfrwt beam="2">  1       -2 0.48405964E-01 0.16557281E+04</pdfrwt>
<totfact> 0.76478264E+00</totfact>
</mgrwt>
</event>
<event>
12    4  0.4486176E-008  0.1014121E+04  0.7818608E-02  0.9293192E-01
          1   -1    0    0  501    0  0.00000000000E+00  0.00000000000E+00  0.11564639909E+04  0.11564639909E+04  0.00000000000E+00 0. -1.
         -2   -1    0    0    0  501 -0.00000000000E+00 -0.00000000000E+00 -0.22232440660E+03  0.22232440660E+03  0.00000000000E+00 0.  1.
        -24    2    1    2    0    0 -0.10419175872E+02  0.52752084835E+02  0.20308189680E+03  0.22120802125E+03  0.69277631147E+02 0.  0.
        254    2    1    2    0    0  0.10419175872E+02 -0.52752084835E+02  0.73105768754E+03  0.11575803763E+04  0.89591051082E+03 0.  0.
         23    2    4    4    0    0  0.37122395094E+03 -0.25844204438E+03  0.28661598609E+03  0.54236887238E+03  0.86114796545E+02 0.  0.
         23    2    4    4    0    0 -0.36080477507E+03  0.20568995954E+03  0.44444170145E+03  0.61521150392E+03  0.92023493725E+02 0.  0.
          3    1    3    3  502    0  0.21398693176E+02  0.47612536801E+02  0.94682805922E+02  0.10811887655E+03  0.00000000000E+00 0. -1.
         -2    1    3    3    0  502 -0.31817869048E+02  0.51395480340E+01  0.10839909088E+03  0.11308914470E+03  0.00000000000E+00 0.  1.
         11    1    5    5    0    0  0.26284831056E+03 -0.13455827078E+03  0.19681099239E+03  0.35486579058E+03  0.00000000000E+00 0.  1.
        -11    1    5    5    0    0  0.10837564038E+03 -0.12388377360E+03  0.89804993703E+02  0.18750308180E+03  0.00000000000E+00 0. -1.
          4    1    6    6  503    0 -0.35308636477E+02  0.37548669895E+02  0.99303780086E+02  0.11188316746E+03  0.00000000000E+00 0. -1.
         -4    1    6    6    0  503 -0.32549613859E+03  0.16814128965E+03  0.34513792136E+03  0.50332833646E+03  0.00000000000E+00 0.  1.
<mgrwt>
<rscale>  0 0.10141206E+04</rscale>
<asrwt>0</asrwt>
<pdfrwt beam="1">  1        1 0.17791753E+00 0.10141206E+04</pdfrwt>
<pdfrwt beam="2">  1       -2 0.34203756E-01 0.10141206E+04</pdfrwt>
<totfact> 0.80861240E+01</totfact>
</mgrwt>
</event>
<event>
12    4  0.4486176E-008  0.1813911E+04  0.7818608E-02  0.8698937E-01
         -2   -1    0    0    0  501 -0.00000000000E+00  0.00000000000E+00  0.69135753056E+03  0.69135753056E+03  0.00000000000E+00 0.  1.
          1   -1    0    0  501    0  0.00000000000E+00 -0.00000000000E+00 -0.11897869584E+04  0.11897869584E+04  0.00000000000E+00 0. -1.
        -24    2    1    2    0    0 -0.40646434238E+03  0.28862797516E+03  0.28068090726E+03  0.57768176502E+03  0.80094196165E+02 0.  0.
        254    2    1    2    0    0  0.40646434238E+03 -0.28862797516E+03 -0.77911033510E+03  0.13034627240E+04  0.91841319067E+03 0.  0.
         23    2    4    4    0    0  0.31549043529E+03 -0.61070461684E+03 -0.57130397424E+03  0.89847721741E+03  0.91535432598E+02 0.  0.
         23    2    4    4    0    0  0.90973907092E+02  0.32207664168E+03 -0.20780636086E+03  0.40498550655E+03  0.93915717591E+02 0.  0.
          1    1    3    3  502    0 -0.56507466517E+02  0.45739106570E+02  0.11051969569E+02  0.73534384293E+02  0.00000000000E+00 0. -1.
         -2    1    3    3    0  502 -0.34995687587E+03  0.24288886859E+03  0.26962893769E+03  0.50414738072E+03  0.00000000000E+00 0.  1.
         11    1    5    5    0    0  0.15613778806E+03 -0.20753694206E+03 -0.20312317618E+03  0.32971141303E+03  0.00000000000E+00 0. -1.
        -11    1    5    5    0    0  0.15935264724E+03 -0.40316767478E+03 -0.36818079806E+03  0.56876580438E+03  0.00000000000E+00 0.  1.
          3    1    6    6  503    0  0.10546387447E+03  0.21418061481E+03 -0.14348448774E+03  0.27853861995E+03  0.00000000000E+00 0. -1.
         -3    1    6    6    0  503 -0.14489967382E+02  0.10789602687E+03 -0.64321873121E+02  0.12644688660E+03  0.00000000000E+00 0.  1.
<mgrwt>
<rscale>  0 0.18139109E+04</rscale>
<asrwt>0</asrwt>
<pdfrwt beam="1">  1        1 0.18304414E+00 0.18139109E+04</pdfrwt>
<pdfrwt beam="2">  1       -2 0.10636270E+00 0.18139109E+04</pdfrwt>
<totfact> 0.64047002E+00</totfact>
</mgrwt>
</event>
<event>
12    4  0.4486176E-008  0.2185980E+04  0.7818608E-02  0.8524286E-01
          1   -1    0    0  501    0  0.00000000000E+00  0.00000000000E+00  0.11280889336E+04  0.11280889336E+04  0.00000000000E+00 0. -1.
         -2   -1    0    0    0  501 -0.00000000000E+00 -0.00000000000E+00 -0.10589828200E+04  0.10589828200E+04  0.00000000000E+00 0.  1.
        -24    2    1    2    0    0  0.42643742249E+03 -0.71222349530E+03  0.38011394597E+03  0.91658895573E+03  0.80854927425E+02 0.  0.
        254    2    1    2    0    0 -0.42643742249E+03  0.71222349530E+03 -0.31100783240E+03  0.12704827979E+04  0.91010410696E+03 0.  0.
         23    2    4    4    0    0 -0.66347065472E+03  0.31057854299E+03 -0.29513237225E+03  0.79495278478E+03  0.90523322090E+02 0.  0.
         23    2    4    4    0    0  0.23703323223E+03  0.40164495231E+03 -0.15875460152E+02  0.47553001316E+03  0.91505968581E+02 0.  0.
          1    1    3    3  502    0  0.36893121810E+03 -0.56626181319E+03  0.32839221596E+03  0.75140144548E+03  0.00000000000E+00 0. -1.
         -2    1    3    3    0  502  0.57506204391E+02 -0.14596168210E+03  0.51721730009E+02  0.16518751025E+03  0.00000000000E+00 0.  1.
         11    1    5    5    0    0 -0.59572889459E+03  0.25293583932E+03 -0.27794598332E+03  0.70436029439E+03  0.00000000000E+00 0. -1.
        -11    1    5    5    0    0 -0.67741760133E+02  0.57642703667E+02 -0.17186388925E+02  0.90592490397E+02  0.00000000000E+00 0.  1.
          1    1    6    6  503    0  0.17238023751E+03  0.27760222130E+03  0.30433404270E+02  0.32818307642E+03  0.00000000000E+00 0. -1.
         -1    1    6    6    0  503  0.64652994721E+02  0.12404273100E+03 -0.46308864422E+02  0.14734693674E+03  0.00000000000E+00 0.  1.
<mgrwt>
<rscale>  0 0.21859797E+04</rscale>
<asrwt>0</asrwt>
<pdfrwt beam="1">  1        1 0.17355214E+00 0.21859797E+04</pdfrwt>
<pdfrwt beam="2">  1       -2 0.16292043E+00 0.21859797E+04</pdfrwt>
<totfact> 0.23181774E+00</totfact>
</mgrwt>
</event>
<event>
12    4  0.4486176E-008  0.1662512E+04  0.7818608E-02  0.8783039E-01
         -4   -1    0    0    0  501 -0.00000000000E+00  0.00000000000E+00  0.16081332008E+04  0.16081332008E+04  0.00000000000E+00 0.  1.
          3   -1    0    0  501    0  0.00000000000E+00 -0.00000000000E+00 -0.42968249073E+03  0.42968249073E+03  0.00000000000E+00 0. -1.
        -24    2    1    2    0    0  0.15608968533E+03 -0.11942254200E+03  0.11150334795E+04  0.11349167637E+04  0.78170753631E+02 0.  0.
        254    2    1    2    0    0 -0.15608968533E+03  0.11942254200E+03  0.63417230641E+02  0.90289892789E+03  0.87896472935E+03 0.  0.
         23    2    4    4    0    0 -0.24467463342E+03  0.21701248967E+03 -0.33344624804E+03  0.47566570732E+03  0.90063132769E+02 0.  0.
         23    2    4    4    0    0  0.88584948088E+02 -0.97589947669E+02  0.39686347868E+03  0.42723322057E+03  0.87501503604E+02 0.  0.
          3    1    3    3  502    0  0.17687443214E+02 -0.52046762651E+02  0.37841297505E+03  0.38238474190E+03  0.00000000000E+00 0. -1.
         -4    1    3    3    0  502  0.13840224211E+03 -0.67375779350E+02  0.73662050440E+03  0.75253202175E+03  0.00000000000E+00 0.  1.
         11    1    5    5    0    0 -0.16935820000E+03  0.12884803485E+03 -0.15666932719E+03  0.26425233031E+03  0.00000000000E+00 0.  1.
        -11    1    5    5    0    0 -0.75316433417E+02  0.88164454815E+02 -0.17677692085E+03  0.21141337701E+03  0.00000000000E+00 0. -1.
          1    1    6    6  503    0  0.38619006681E+02  0.96930455765E+01  0.95978328182E+02  0.10390968333E+03  0.00000000000E+00 0. -1.
         -1    1    6    6    0  503  0.49965941407E+02 -0.10728299325E+03  0.30088515050E+03  0.32332353723E+03  0.00000000000E+00 0.  1.
<mgrwt>
<rscale>  0 0.16625122E+04</rscale>
<asrwt>0</asrwt>
<pdfrwt beam="1">  1        3 0.66104999E-01 0.16625122E+04</pdfrwt>
<pdfrwt beam="2">  1       -4 0.24740511E+00 0.16625122E+04</pdfrwt>
<totfact> 0.31628741E-01</totfact>
</mgrwt>
</event>
<event>
12    4  0.4486176E-008  0.1483931E+04  0.7818608E-02  0.8895210E-01
         -2   -1    0    0    0  501 -0.00000000000E+00  0.00000000000E+00  0.29416988455E+03  0.29416988455E+03  0.00000000000E+00 0.  1.
          1   -1    0    0  501    0  0.00000000000E+00 -0.00000000000E+00 -0.18714105891E+04  0.18714105891E+04  0.00000000000E+00 0. -1.
        -24    2    1    2    0    0 -0.90087500088E+02  0.73463526950E+02 -0.11504139406E+04  0.11590403991E+04  0.80061005132E+02 0.  0.
        254    2    1    2    0    0  0.90087500088E+02 -0.73463526950E+02 -0.42682676400E+03  0.10065400746E+04  0.90411790594E+03 0.  0.
         23    2    4    4    0    0  0.18038489589E+03 -0.57359573215E+02 -0.68587603287E+03  0.71708149025E+03  0.89168940174E+02 0.  0.
         23    2    4    4    0    0 -0.90297395805E+02 -0.16103953735E+02  0.25904926887E+03  0.28945858435E+03  0.90921896906E+02 0.  0.
          3    1    3    3  502    0 -0.28110569746E+02  0.45880851134E+02 -0.81840144110E+03  0.82016838237E+03  0.00000000000E+00 0. -1.
         -4    1    3    3    0  502 -0.61976930342E+02  0.27582675816E+02 -0.33201249947E+03  0.33887201670E+03  0.00000000000E+00 0.  1.
         11    1    5    5    0    0  0.29151969527E+01 -0.18670971394E+02 -0.15161201444E+03  0.15278516442E+03  0.00000000000E+00 0. -1.
        -11    1    5    5    0    0  0.17746969894E+03 -0.38688601821E+02 -0.53426401843E+03  0.56429632583E+03  0.00000000000E+00 0.  1.
          2    1    6    6  503    0 -0.62024705426E+02 -0.49579173324E+02  0.12191087985E+03  0.14549027849E+03  0.00000000000E+00 0. -1.
         -2    1    6    6    0  503 -0.28272690379E+02  0.33475219590E+02  0.13713838902E+03  0.14396830585E+03  0.00000000000E+00 0.  1.
<mgrwt>
<rscale>  0 0.14839308E+04</rscale>
<asrwt>0</asrwt>
<pdfrwt beam="1">  1        1 0.28790932E+00 0.14839308E+04</pdfrwt>
<pdfrwt beam="2">  1       -2 0.45256905E-01 0.14839308E+04</pdfrwt>
<totfact> 0.14348103E+01</totfact>
</mgrwt>
</event>
<event>
12    4  0.4486176E-008  0.1383908E+04  0.7818608E-02  0.8965550E-01
         -2   -1    0    0    0  501 -0.00000000000E+00  0.00000000000E+00  0.26983891204E+03  0.26983891204E+03  0.00000000000E+00 0.  1.
          1   -1    0    0  501    0  0.00000000000E+00 -0.00000000000E+00 -0.17743941209E+04  0.17743941209E+04  0.00000000000E+00 0. -1.
        -24    2    1    2    0    0  0.23949491498E+03  0.27480323423E+03 -0.28152474711E+03  0.46732912709E+03  0.79156161740E+02 0.  0.
        254    2    1    2    0    0 -0.23949491498E+03 -0.27480323423E+03 -0.12230304618E+04  0.15769039059E+04  0.92625470908E+03 0.  0.
         23    2    4    4    0    0 -0.37939988161E+03 -0.41871687094E+03 -0.12298986460E+04  0.13564845801E+04  0.90175652271E+02 0.  0.
         23    2    4    4    0    0  0.13990496663E+03  0.14391363670E+03  0.68681842699E+01  0.22041932580E+03  0.90845873408E+02 0.  0.
          3    1    3    3  502    0 -0.11556021817E+01  0.89276443290E+00 -0.16529951498E+02  0.16594328587E+02  0.00000000000E+00 0. -1.
         -4    1    3    3    0  502  0.24065051716E+03  0.27391046980E+03 -0.26499479562E+03  0.45073479850E+03  0.00000000000E+00 0.  1.
         11    1    5    5    0    0 -0.25112017006E+03 -0.25800318139E+03 -0.68070147225E+03  0.77005290451E+03  0.00000000000E+00 0. -1.
        -11    1    5    5    0    0 -0.12827971155E+03 -0.16071368955E+03 -0.54919717378E+03  0.58643167555E+03  0.00000000000E+00 0.  1.
          1    1    6    6  503    0  0.75286437578E+02  0.10637484384E+03 -0.34758431795E+02  0.13487699458E+03  0.00000000000E+00 0. -1.
         -1    1    6    6    0  503  0.64618529054E+02  0.37538792862E+02  0.41626616065E+02  0.85542331226E+02  0.00000000000E+00 0.  1.
<mgrwt>
<rscale>  0 0.13839083E+04</rscale>
<asrwt>0</asrwt>
<pdfrwt beam="1">  1        1 0.27298371E+00 0.13839083E+04</pdfrwt>
<pdfrwt beam="2">  1       -2 0.41513679E-01 0.13839083E+04</pdfrwt>
<totfact> 0.19984039E+01</totfact>
</mgrwt>
</event>
<event>
12    4  0.4486176E-008  0.2201581E+04  0.7818608E-02  0.8517770E-01
          1   -1    0    0  501    0  0.00000000000E+00  0.00000000000E+00  0.14200278001E+04  0.14200278001E+04  0.00000000000E+00 0. -1.
         -2   -1    0    0    0  501 -0.00000000000E+00 -0.00000000000E+00 -0.85332115004E+03  0.85332115004E+03  0.00000000000E+00 0.  1.
        -24    2    1    2    0    0  0.40869200410E+03 -0.67566403818E+03  0.70976752128E+03  0.10651230179E+04  0.84652597440E+02 0.  0.
        254    2    1    2    0    0 -0.40869200410E+03  0.67566403818E+03 -0.14306087123E+03  0.12082259322E+04  0.90321229165E+03 0.  0.
         23    2    4    4    0    0  0.15148564859E+03  0.55260765363E+03 -0.22440517581E+03  0.62214245303E+03  0.91544679571E+02 0.  0.
         23    2    4    4    0    0 -0.56017765269E+03  0.12305638455E+03  0.81344304587E+02  0.58608347922E+03  0.89079023141E+02 0.  0.
          3    1    3    3  502    0  0.13500252401E+02 -0.31342207926E+02  0.56866185584E+02  0.66320086516E+02  0.00000000000E+00 0. -1.
         -4    1    3    3    0  502  0.39519175170E+03 -0.64432183025E+03  0.65290133569E+03  0.99880293136E+03  0.00000000000E+00 0.  1.
         11    1    5    5    0    0  0.18282909931E+02  0.90498218038E+01 -0.48049257806E+01  0.20958324885E+02  0.00000000000E+00 0.  1.
        -11    1    5    5    0    0  0.13320273866E+03  0.54355783182E+03 -0.21960025003E+03  0.60118412815E+03  0.00000000000E+00 0. -1.
          4    1    6    6  503    0 -0.42816609104E+03  0.66347610311E+02  0.33162845782E+02  0.43454341699E+03  0.00000000000E+00 0. -1.
         -4    1    6    6    0  503 -0.13201156165E+03  0.56708774239E+02  0.48181458805E+02  0.15154006222E+03  0.00000000000E+00 0.  1.
<mgrwt>
<rscale>  0 0.22015810E+04</rscale>
<asrwt>0</asrwt>
<pdfrwt beam="1">  1        1 0.21846582E+00 0.22015810E+04</pdfrwt>
<pdfrwt beam="2">  1       -2 0.13128018E+00 0.22015810E+04</pdfrwt>
<totfact> 0.25214152E+00</totfact>
</mgrwt>
</event>
<event>
12    4  0.4486176E-008  0.1354332E+04  0.7818608E-02  0.8987555E-01
         -2   -1    0    0    0  501 -0.00000000000E+00  0.00000000000E+00  0.35694629416E+03  0.35694629416E+03  0.00000000000E+00 0.  1.
          1   -1    0    0  501    0  0.00000000000E+00 -0.00000000000E+00 -0.12846576014E+04  0.12846576014E+04  0.00000000000E+00 0. -1.
        -24    2    1    2    0    0 -0.94177852836E+02  0.25753845840E+02  0.16078378267E+03  0.20334860201E+03  0.77243126736E+02 0.  0.
        254    2    1    2    0    0  0.94177852836E+02 -0.25753845840E+02 -0.10884950899E+04  0.14382552935E+04  0.93499946531E+03 0.  0.
         23    2    4    4    0    0  0.44950615323E+03 -0.88726520279E+02 -0.26968823733E+03  0.53913291483E+03  0.89467185647E+02 0.  0.
         23    2    4    4    0    0 -0.35532830039E+03  0.62972674439E+02 -0.81880685253E+03  0.89912237868E+03  0.88049027843E+02 0.  0.
          3    1    3    3  502    0 -0.23075621934E+01  0.10554884041E+02  0.78022326516E+02  0.78766832204E+02  0.00000000000E+00 0. -1.
         -4    1    3    3    0  502 -0.91870290643E+02  0.15198961799E+02  0.82761456155E+02  0.12458176980E+03  0.00000000000E+00 0.  1.
         11    1    5    5    0    0  0.16607929364E+03 -0.71688445100E+02 -0.12953536943E+03  0.22248814996E+03  0.00000000000E+00 0.  1.
        -11    1    5    5    0    0  0.28342685959E+03 -0.17038075179E+02 -0.14015286790E+03  0.31664476487E+03  0.00000000000E+00 0. -1.
          2    1    6    6  503    0 -0.29251073414E+02  0.32736616276E+02 -0.91102373480E+02  0.10112840251E+03  0.00000000000E+00 0. -1.
         -2    1    6    6    0  503 -0.32607722698E+03  0.30236058163E+02 -0.72770447905E+03  0.79799397617E+03  0.00000000000E+00 0.  1.
<mgrwt>
<rscale>  0 0.13543320E+04</rscale>
<asrwt>0</asrwt>
<pdfrwt beam="1">  1        1 0.19763963E+00 0.13543320E+04</pdfrwt>
<pdfrwt beam="2">  1       -2 0.54914815E-01 0.13543320E+04</pdfrwt>
<totfact> 0.24835803E+01</totfact>
</mgrwt>
</event>
<event>
12    4  0.4486176E-008  0.1951187E+04  0.7818608E-02  0.8629789E-01
          1   -1    0    0  501    0  0.00000000000E+00  0.00000000000E+00  0.98923274838E+03  0.98923274838E+03  0.00000000000E+00 0. -1.
         -2   -1    0    0    0  501 -0.00000000000E+00 -0.00000000000E+00 -0.96214226658E+03  0.96214226658E+03  0.00000000000E+00 0.  1.
        -24    2    1    2    0    0  0.55838646709E+03 -0.44199437361E+03 -0.25746579452E+03  0.76150877089E+03  0.80327453926E+02 0.  0.
        254    2    1    2    0    0 -0.55838646709E+03  0.44199437361E+03  0.28455627632E+03  0.11898662441E+04  0.90975542398E+03 0.  0.
         23    2    4    4    0    0 -0.58092422088E+03  0.11885252847E+02  0.42711577974E+03  0.72686722334E+03  0.91070639745E+02 0.  0.
         23    2    4    4    0    0  0.22537753790E+02  0.43010912076E+03 -0.14255950342E+03  0.46299902073E+03  0.92428756755E+02 0.  0.
          1    1    3    3  502    0  0.39963485371E+03 -0.35705349799E+03 -0.17787862599E+03  0.56465566704E+03  0.00000000000E+00 0. -1.
         -2    1    3    3    0  502  0.15875161338E+03 -0.84940875618E+02 -0.79587168531E+02  0.19685310385E+03  0.00000000000E+00 0.  1.
         11    1    5    5    0    0 -0.47824752441E+03  0.36189645502E+02  0.32036256925E+03  0.57676907062E+03  0.00000000000E+00 0.  1.
        -11    1    5    5    0    0 -0.10267669647E+03 -0.24304392655E+02  0.10675321049E+03  0.15009815272E+03  0.00000000000E+00 0. -1.
          1    1    6    6  503    0 -0.58666068836E+00  0.37596109428E+03 -0.14761662223E+03  0.40390315144E+03  0.00000000000E+00 0. -1.
         -1    1    6    6    0  503  0.23124414478E+02  0.54148026480E+02  0.50571188125E+01  0.59095869291E+02  0.00000000000E+00 0.  1.
<mgrwt>
<rscale>  0 0.19511870E+04</rscale>
<asrwt>0</asrwt>
<pdfrwt beam="1">  1        1 0.15218965E+00 0.19511870E+04</pdfrwt>
<pdfrwt beam="2">  1       -2 0.14802189E+00 0.19511870E+04</pdfrwt>
<totfact> 0.39094725E+00</totfact>
</mgrwt>
</event>
<event>
12    4  0.4486176E-008  0.1195510E+04  0.7818608E-02  0.9116796E-01
          1   -1    0    0  501    0  0.00000000000E+00  0.00000000000E+00  0.10249009034E+04  0.10249009034E+04  0.00000000000E+00 0. -1.
         -2   -1    0    0    0  501 -0.00000000000E+00 -0.00000000000E+00 -0.34862962971E+03  0.34862962971E+03  0.00000000000E+00 0.  1.
        -24    2    1    2    0    0 -0.22805860406E+03 -0.84325020287E+02  0.21786663292E+03  0.33615731841E+03  0.80090180730E+02 0.  0.
        254    2    1    2    0    0  0.22805860406E+03  0.84325020287E+02  0.45840464073E+03  0.10373732147E+04  0.89826885503E+03 0.  0.
         23    2    4    4    0    0 -0.59795587312E+02 -0.14064669159E+03  0.60713796341E+03  0.63272642685E+03  0.91483443937E+02 0.  0.
         23    2    4    4    0    0  0.28785419137E+03  0.22497171187E+03 -0.14873332268E+03  0.40464678780E+03  0.90250290697E+02 0.  0.
          3    1    3    3  502    0 -0.20386401875E+03 -0.43375446924E+02  0.17849740800E+03  0.27441445333E+03  0.00000000000E+00 0. -1.
         -4    1    3    3    0  502 -0.24194585309E+02 -0.40949573363E+02  0.39369224922E+02  0.61742865077E+02  0.00000000000E+00 0.  1.
         11    1    5    5    0    0 -0.30660628252E+02 -0.37667516904E+02  0.36202164144E+03  0.36526508843E+03  0.00000000000E+00 0. -1.
        -11    1    5    5    0    0 -0.29134959060E+02 -0.10297917468E+03  0.24511632196E+03  0.26746133842E+03  0.00000000000E+00 0.  1.
          3    1    6    6  503    0  0.10449892630E+03  0.33807022709E+02 -0.26841756946E+02  0.11306378862E+03  0.00000000000E+00 0. -1.
         -3    1    6    6    0  503  0.18335526507E+03  0.19116468916E+03 -0.12189156573E+03  0.29158299918E+03  0.00000000000E+00 0.  1.
<mgrwt>
<rscale>  0 0.11955096E+04</rscale>
<asrwt>0</asrwt>
<pdfrwt beam="1">  1        1 0.15767706E+00 0.11955096E+04</pdfrwt>
<pdfrwt beam="2">  1       -2 0.53635328E-01 0.11955096E+04</pdfrwt>
<totfact> 0.41137811E+01</totfact>
</mgrwt>
</event>
<event>
12    4  0.4486176E-008  0.1177211E+04  0.7818608E-02  0.9133041E-01
         -2   -1    0    0    0  501 -0.00000000000E+00  0.00000000000E+00  0.15844454692E+03  0.15844454692E+03  0.00000000000E+00 0.  1.
          1   -1    0    0  501    0  0.00000000000E+00 -0.00000000000E+00 -0.21866101588E+04  0.21866101588E+04  0.00000000000E+00 0. -1.
        -24    2    1    2    0    0 -0.62075330089E+02 -0.34263192996E+02 -0.87705628702E+03  0.88393691249E+03  0.84198703387E+02 0.  0.
        254    2    1    2    0    0  0.62075330089E+02  0.34263192996E+02 -0.11511093248E+04  0.14611177932E+04  0.89709821921E+03 0.  0.
         23    2    4    4    0    0 -0.14463180941E+02  0.47183242433E+02 -0.12803501585E+04  0.12844790310E+04  0.90301775450E+02 0.  0.
         23    2    4    4    0    0  0.76538511031E+02 -0.12920049437E+02  0.12924083368E+03  0.17663876223E+03  0.92048834219E+02 0.  0.
          3    1    3    3  502    0 -0.53836600192E+02 -0.61318116709E+02 -0.62748386934E+03  0.63276717459E+03  0.00000000000E+00 0. -1.
         -4    1    3    3    0  502 -0.82387298971E+01  0.27054923713E+02 -0.24957241768E+03  0.25116973789E+03  0.00000000000E+00 0.  1.
         11    1    5    5    0    0 -0.52379832379E+02  0.35153220838E+02 -0.80362552719E+03  0.80609762667E+03  0.00000000000E+00 0. -1.
        -11    1    5    5    0    0  0.37916651437E+02  0.12030021594E+02 -0.47672463132E+03  0.47838140431E+03  0.00000000000E+00 0.  1.
          1    1    6    6  503    0  0.34284345791E+02 -0.16511712351E+02  0.12872212396E+03  0.13422905128E+03  0.00000000000E+00 0. -1.
         -1    1    6    6    0  503  0.42254165240E+02  0.35916629146E+01  0.51870972374E+00  0.42409710944E+02  0.00000000000E+00 0.  1.
<mgrwt>
<rscale>  0 0.11772110E+04</rscale>
<asrwt>0</asrwt>
<pdfrwt beam="1">  1        1 0.33640154E+00 0.11772110E+04</pdfrwt>
<pdfrwt beam="2">  1       -2 0.24376085E-01 0.11772110E+04</pdfrwt>
<totfact> 0.29183341E+01</totfact>
</mgrwt>
</event>
<event>
12    4  0.4486176E-008  0.1358639E+04  0.7818608E-02  0.8984314E-01
         -2   -1    0    0    0  501 -0.00000000000E+00  0.00000000000E+00  0.59385405531E+03  0.59385405531E+03  0.00000000000E+00 0.  1.
          1   -1    0    0  501    0  0.00000000000E+00 -0.00000000000E+00 -0.77708460924E+03  0.77708460924E+03  0.00000000000E+00 0. -1.
        -24    2    1    2    0    0 -0.66875418805E+00  0.28328470043E+03  0.20640628313E+03  0.35924151150E+03  0.78741609928E+02 0.  0.
        254    2    1    2    0    0  0.66875418805E+00 -0.28328470043E+03 -0.38963683706E+03  0.10116971531E+04  0.88964239780E+03 0.  0.
         23    2    4    4    0    0 -0.10445586657E+03 -0.25233100422E+03 -0.65213718096E+03  0.71276099812E+03  0.90351391266E+02 0.  0.
         23    2    4    4    0    0  0.10512462076E+03 -0.30953696211E+02  0.26250034390E+03  0.29893615493E+03  0.91907981055E+02 0.  0.
          1    1    3    3  502    0  0.28719098569E+01  0.64894549504E+02  0.10429191498E+02  0.65789957112E+02  0.00000000000E+00 0. -1.
         -2    1    3    3    0  502 -0.35406640449E+01  0.21839015093E+03  0.19597709164E+03  0.29345155438E+03  0.00000000000E+00 0.  1.
         11    1    5    5    0    0  0.12549380881E+02 -0.14541977806E+02 -0.22256748028E+02  0.29399301213E+02  0.00000000000E+00 0.  1.
        -11    1    5    5    0    0 -0.11700524745E+03 -0.23778902642E+03 -0.62988043293E+03  0.68336169691E+03  0.00000000000E+00 0. -1.
          2    1    6    6  503    0  0.88803949473E+02 -0.30120536575E+02  0.26615445001E+03  0.28219067920E+03  0.00000000000E+00 0. -1.
         -2    1    6    6    0  503  0.16320671284E+02 -0.83315963599E+00 -0.36541061129E+01  0.16745475736E+02  0.00000000000E+00 0.  1.
<mgrwt>
<rscale>  0 0.13586388E+04</rscale>
<asrwt>0</asrwt>
<pdfrwt beam="1">  1        1 0.11955148E+00 0.13586388E+04</pdfrwt>
<pdfrwt beam="2">  1       -2 0.91362163E-01 0.13586388E+04</pdfrwt>
<totfact> 0.20259258E+01</totfact>
</mgrwt>
</event>
<event>
12    4  0.4486176E-008  0.1499418E+04  0.7818608E-02  0.8884840E-01
         -2   -1    0    0    0  501 -0.00000000000E+00  0.00000000000E+00  0.19048199952E+03  0.19048199952E+03  0.00000000000E+00 0.  1.
          1   -1    0    0  501    0  0.00000000000E+00 -0.00000000000E+00 -0.29507451792E+04  0.29507451792E+04  0.00000000000E+00 0. -1.
        -24    2    1    2    0    0 -0.29031319338E+03 -0.32935337698E+03 -0.50209021138E+03  0.67171071613E+03  0.79657445488E+02 0.  0.
        254    2    1    2    0    0  0.29031319338E+03  0.32935337698E+03 -0.22581729683E+04  0.24695164626E+04  0.89800390149E+03 0.  0.
         23    2    4    4    0    0  0.57255753402E+03  0.32825882294E+03 -0.18413126895E+04  0.19581765221E+04  0.91906944443E+02 0.  0.
         23    2    4    4    0    0 -0.28224434065E+03  0.10945540417E+01 -0.41686027878E+03  0.51133994051E+03  0.89626875799E+02 0.  0.
          1    1    3    3  502    0 -0.48465345667E+02 -0.45531153724E+02 -0.12382807852E+03  0.14055379298E+03  0.00000000000E+00 0. -1.
         -2    1    3    3    0  502 -0.24184784771E+03 -0.28382222326E+03 -0.37826213285E+03  0.53115692315E+03  0.00000000000E+00 0.  1.
         11    1    5    5    0    0  0.24866253364E+03  0.19276134540E+03 -0.82785437117E+03  0.88562568378E+03  0.00000000000E+00 0. -1.
        -11    1    5    5    0    0  0.32389500038E+03  0.13549747754E+03 -0.10134583184E+04  0.10725508383E+04  0.00000000000E+00 0.  1.
          2    1    6    6  503    0 -0.28686614398E+03  0.21404394258E+01 -0.41749823231E+03  0.50655852576E+03  0.00000000000E+00 0.  1.
         -2    1    6    6    0  503  0.46218033339E+01 -0.10458853841E+01  0.63795353108E+00  0.47814147490E+01  0.00000000000E+00 0. -1.
<mgrwt>
<rscale>  0 0.14994183E+04</rscale>
<asrwt>0</asrwt>
<pdfrwt beam="1">  1        1 0.45396078E+00 0.14994183E+04</pdfrwt>
<pdfrwt beam="2">  1       -2 0.29304924E-01 0.14994183E+04</pdfrwt>
<totfact> 0.59425287E+00</totfact>
</mgrwt>
</event>
<event>
12    4  0.4486176E-008  0.1231081E+04  0.7818608E-02  0.9086078E-01
         -2   -1    0    0    0  501 -0.00000000000E+00  0.00000000000E+00  0.27543897440E+03  0.27543897440E+03  0.00000000000E+00 0.  1.
          1   -1    0    0  501    0  0.00000000000E+00 -0.00000000000E+00 -0.13755872924E+04  0.13755872924E+04  0.00000000000E+00 0. -1.
        -24    2    1    2    0    0 -0.20220344970E+03  0.11616071093E+03 -0.55998361670E+02  0.25283802869E+03  0.80073131622E+02 0.  0.
        254    2    1    2    0    0  0.20220344970E+03 -0.11616071093E+03 -0.10441499563E+04  0.13981882381E+04  0.90016757997E+03 0.  0.
         23    2    4    4    0    0  0.78446325544E+02 -0.33141319807E+03 -0.32409100425E+02  0.35237067555E+03  0.84416878379E+02 0.  0.
         23    2    4    4    0    0  0.12375712416E+03  0.21525248714E+03 -0.10117408559E+04  0.10458175625E+04  0.92007367227E+02 0.  0.
          3    1    3    3  502    0 -0.18921430407E+03  0.83785474291E+02 -0.64832291578E+02  0.21685314062E+03  0.00000000000E+00 0. -1.
         -4    1    3    3    0  502 -0.12989145631E+02  0.32375236638E+02  0.88339299079E+01  0.35984888067E+02  0.00000000000E+00 0.  1.
         11    1    5    5    0    0  0.37100283356E+02 -0.27512151770E+03 -0.45483468440E+02  0.28131303992E+03  0.00000000000E+00 0. -1.
        -11    1    5    5    0    0  0.41346042188E+02 -0.56291680370E+02  0.13074368015E+02  0.71057635638E+02  0.00000000000E+00 0.  1.
          3    1    6    6  503    0  0.75452138648E+02  0.19938925150E+03 -0.84642749919E+03  0.87286230886E+03  0.00000000000E+00 0. -1.
         -3    1    6    6    0  503  0.48304985508E+02  0.15863235638E+02 -0.16531335671E+03  0.17295525369E+03  0.00000000000E+00 0.  1.
<mgrwt>
<rscale>  0 0.12310814E+04</rscale>
<asrwt>0</asrwt>
<pdfrwt beam="1">  1        1 0.21162881E+00 0.12310814E+04</pdfrwt>
<pdfrwt beam="2">  1       -2 0.42375227E-01 0.12310814E+04</pdfrwt>
<totfact> 0.36548021E+01</totfact>
</mgrwt>
</event>
<event>
12    4  0.4486176E-008  0.2241316E+04  0.7818608E-02  0.8501425E-01
          1   -1    0    0  501    0  0.00000000000E+00  0.00000000000E+00  0.87801308603E+03  0.87801308603E+03  0.00000000000E+00 0. -1.
         -2   -1    0    0    0  501 -0.00000000000E+00 -0.00000000000E+00 -0.14303599404E+04  0.14303599404E+04  0.00000000000E+00 0.  1.
        -24    2    1    2    0    0 -0.89060966546E+03  0.14531726254E+03 -0.28329965628E+03  0.94921568586E+03  0.80305915232E+02 0.  0.
        254    2    1    2    0    0  0.89060966546E+03 -0.14531726254E+03 -0.26904719807E+03  0.13591573406E+04  0.98011203369E+03 0.  0.
         23    2    4    4    0    0  0.39520065360E+03 -0.54949680295E+03 -0.18697793497E+03  0.70839869694E+03  0.93475518731E+02 0.  0.
         23    2    4    4    0    0  0.49540901186E+03  0.40417954041E+03 -0.82069263106E+02  0.65075864361E+03  0.89220280051E+02 0.  0.
          3    1    3    3  502    0 -0.80356951060E+03  0.14937049925E+03 -0.27170896900E+03  0.86131368748E+03  0.00000000000E+00 0. -1.
         -4    1    3    3    0  502 -0.87040154861E+02 -0.40532367120E+01 -0.11590687281E+02  0.87901998372E+02  0.00000000000E+00 0.  1.
         11    1    5    5    0    0  0.18958128416E+03 -0.34085477393E+03 -0.11737867644E+03  0.40730921165E+03  0.00000000000E+00 0. -1.
        -11    1    5    5    0    0  0.20561936944E+03 -0.20864202903E+03 -0.69599258526E+02  0.30108948529E+03  0.00000000000E+00 0.  1.
          3    1    6    6  503    0  0.27607358476E+03  0.23802911944E+03 -0.32626575138E+01  0.36453412850E+03  0.00000000000E+00 0. -1.
         -3    1    6    6    0  503  0.21933542710E+03  0.16615042097E+03 -0.78806605592E+02  0.28622451511E+03  0.00000000000E+00 0.  1.
<mgrwt>
<rscale>  0 0.22413164E+04</rscale>
<asrwt>0</asrwt>
<pdfrwt beam="1">  1        1 0.13507894E+00 0.22413164E+04</pdfrwt>
<pdfrwt beam="2">  1       -2 0.22005537E+00 0.22413164E+04</pdfrwt>
<totfact> 0.14918033E+00</totfact>
</mgrwt>
</event>
<event>
12    4  0.4486176E-008  0.1660968E+04  0.7818608E-02  0.8783945E-01
          1   -1    0    0  501    0  0.00000000000E+00  0.00000000000E+00  0.92421026625E+03  0.92421026625E+03  0.00000000000E+00 0. -1.
         -2   -1    0    0    0  501 -0.00000000000E+00 -0.00000000000E+00 -0.74626231480E+03  0.74626231480E+03  0.00000000000E+00 0.  1.
        -24    2    1    2    0    0  0.19409703396E+03 -0.90810466111E+02 -0.47290064456E+03  0.52617055776E+03  0.85441423703E+02 0.  0.
        254    2    1    2    0    0 -0.19409703396E+03  0.90810466111E+02  0.65084859602E+03  0.11443020233E+04  0.91646223393E+03 0.  0.
         23    2    4    4    0    0 -0.41093650217E+03 -0.77757020492E+01  0.75832993142E+03  0.86726872943E+03  0.90340986311E+02 0.  0.
         23    2    4    4    0    0  0.21683946821E+03  0.98586168160E+02 -0.10748133540E+03  0.27703329386E+03  0.91959887553E+02 0.  0.
          3    1    3    3  502    0  0.47579606553E+02  0.11501761902E+02 -0.70007369635E+02  0.85423306479E+02  0.00000000000E+00 0. -1.
         -2    1    3    3    0  502  0.14651742741E+03 -0.10231222801E+03 -0.40289327492E+03  0.44074725128E+03  0.00000000000E+00 0.  1.
         11    1    5    5    0    0 -0.32921767334E+02  0.32546655909E+01  0.12790491545E+03  0.13211397734E+03  0.00000000000E+00 0. -1.
        -11    1    5    5    0    0 -0.37801473484E+03 -0.11030367640E+02  0.63042501596E+03  0.73515475209E+03  0.00000000000E+00 0.  1.
          4    1    6    6  503    0 -0.52972815417E+01 -0.61185674413E+01 -0.98820215921E+01  0.12773112777E+02  0.00000000000E+00 0. -1.
         -4    1    6    6    0  503  0.22213674975E+03  0.10470473560E+03 -0.97599313808E+02  0.26426018108E+03  0.00000000000E+00 0.  1.
<mgrwt>
<rscale>  0 0.16609675E+04</rscale>
<asrwt>0</asrwt>
<pdfrwt beam="1">  1        1 0.14218619E+00 0.16609675E+04</pdfrwt>
<pdfrwt beam="2">  1       -2 0.11480959E+00 0.16609675E+04</pdfrwt>
<totfact> 0.86127677E+00</totfact>
</mgrwt>
</event>
<event>
12    4  0.4486176E-008  0.2138770E+04  0.7818608E-02  0.8544355E-01
         -2   -1    0    0    0  501 -0.00000000000E+00  0.00000000000E+00  0.92718632637E+03  0.92718632637E+03  0.00000000000E+00 0.  1.
          1   -1    0    0  501    0  0.00000000000E+00 -0.00000000000E+00 -0.12333915484E+04  0.12333915484E+04  0.00000000000E+00 0. -1.
        -24    2    1    2    0    0  0.31614166691E+03  0.15693597712E+03 -0.94019237407E+03  0.10075288141E+04  0.81105835619E+02 0.  0.
        254    2    1    2    0    0 -0.31614166691E+03 -0.15693597712E+03  0.63398715199E+03  0.11530490607E+04  0.89610712138E+03 0.  0.
         23    2    4    4    0    0  0.99313243953E+02 -0.43151029781E+03  0.24192569050E+03  0.51278560474E+03  0.91415420789E+02 0.  0.
         23    2    4    4    0    0 -0.41545491086E+03  0.27457432069E+03  0.39206146149E+03  0.64026345595E+03  0.90726307630E+02 0.  0.
          3    1    3    3  502    0  0.19811665983E+03  0.78159407291E+02 -0.65900570355E+03  0.69256596882E+03  0.00000000000E+00 0. -1.
         -4    1    3    3    0  502  0.11802500708E+03  0.78776569832E+02 -0.28118667052E+03  0.31496284532E+03  0.00000000000E+00 0.  1.
         11    1    5    5    0    0 -0.11782971667E+02 -0.70758394249E+02  0.61148279442E+02  0.94258691147E+02  0.00000000000E+00 0. -1.
        -11    1    5    5    0    0  0.11109621562E+03 -0.36075190356E+03  0.18077741106E+03  0.41852691359E+03  0.00000000000E+00 0.  1.
          2    1    6    6  503    0 -0.10971592953E+03  0.29441466111E+02  0.10261067935E+03  0.15307951083E+03  0.00000000000E+00 0. -1.
         -2    1    6    6    0  503 -0.30573898134E+03  0.24513285458E+03  0.28945078214E+03  0.48718394512E+03  0.00000000000E+00 0.  1.
<mgrwt>
<rscale>  0 0.21387695E+04</rscale>
<asrwt>0</asrwt>
<pdfrwt beam="1">  1        1 0.18975255E+00 0.21387695E+04</pdfrwt>
<pdfrwt beam="2">  1       -2 0.14264405E+00 0.21387695E+04</pdfrwt>
<totfact> 0.27790286E+00</totfact>
</mgrwt>
</event>
<event>
12    4  0.4486176E-008  0.1147672E+04  0.7818608E-02  0.9159934E-01
          1   -1    0    0  501    0  0.00000000000E+00  0.00000000000E+00  0.19291295665E+03  0.19291295665E+03  0.00000000000E+00 0. -1.
         -2   -1    0    0    0  501 -0.00000000000E+00 -0.00000000000E+00 -0.17069249395E+04  0.17069249395E+04  0.00000000000E+00 0.  1.
        -24    2    1    2    0    0 -0.13461602617E+03 -0.12159852180E+03 -0.47469437261E+03  0.51490328662E+03  0.82963679916E+02 0.  0.
        254    2    1    2    0    0  0.13461602617E+03  0.12159852180E+03 -0.10393176103E+04  0.13849346096E+04  0.89719290163E+03 0.  0.
         23    2    4    4    0    0  0.39047727191E+03  0.23858314048E+03 -0.97882040735E+03  0.10841800454E+04  0.89233212637E+02 0.  0.
         23    2    4    4    0    0 -0.25586124574E+03 -0.11698461868E+03 -0.60497202939E+02  0.30075456416E+03  0.87424357107E+02 0.  0.
          3    1    3    3  502    0 -0.17043922952E+02 -0.68256754038E+02 -0.16426273641E+03  0.17869450567E+03  0.00000000000E+00 0. -1.
         -4    1    3    3    0  502 -0.11757210321E+03 -0.53341767764E+02 -0.31043163619E+03  0.33620878096E+03  0.00000000000E+00 0.  1.
         11    1    5    5    0    0  0.25778321412E+03  0.18175519258E+03 -0.58291567120E+03  0.66278036727E+03  0.00000000000E+00 0.  1.
        -11    1    5    5    0    0  0.13269405779E+03  0.56827947904E+02 -0.39590473615E+03  0.42139967815E+03  0.00000000000E+00 0. -1.
          1    1    6    6  503    0 -0.11082754454E+03 -0.22825885927E+02 -0.59478136655E+02  0.12783354191E+03  0.00000000000E+00 0. -1.
         -1    1    6    6    0  503 -0.14503370120E+03 -0.94158732753E+02 -0.10190662837E+01  0.17292102224E+03  0.00000000000E+00 0.  1.
<mgrwt>
<rscale>  0 0.11476723E+04</rscale>
<asrwt>0</asrwt>
<pdfrwt beam="1">  1        1 0.29678916E-01 0.11476723E+04</pdfrwt>
<pdfrwt beam="2">  1       -2 0.26260384E+00 0.11476723E+04</pdfrwt>
<totfact> 0.72962937E+00</totfact>
</mgrwt>
</event>
<event>
12    4  0.4486176E-008  0.1377433E+04  0.7818608E-02  0.8970318E-01
          1   -1    0    0  501    0  0.00000000000E+00  0.00000000000E+00  0.11967390411E+04  0.11967390411E+04  0.00000000000E+00 0. -1.
         -2   -1    0    0    0  501 -0.00000000000E+00 -0.00000000000E+00 -0.39635234317E+03  0.39635234317E+03  0.00000000000E+00 0.  1.
        -24    2    1    2    0    0  0.22875580863E+03  0.52021298547E+01 -0.13056953527E+03  0.27563279857E+03  0.81047849875E+02 0.  0.
        254    2    1    2    0    0 -0.22875580863E+03 -0.52021298547E+01  0.93095623318E+03  0.13174585857E+04  0.90369316405E+03 0.  0.
         23    2    4    4    0    0 -0.98305028545E+01 -0.35042644073E+02  0.10475444162E+04  0.10520926987E+04  0.90692431796E+02 0.  0.
         23    2    4    4    0    0 -0.21892530578E+03  0.29840514218E+02 -0.11658818301E+03  0.26536588693E+03  0.89484656400E+02 0.  0.
          3    1    3    3  502    0  0.40984872936E+02  0.42722680718E+01 -0.64570052716E+02  0.76598327605E+02  0.00000000000E+00 0. -1.
         -4    1    3    3    0  502  0.18777093570E+03  0.92986178291E+00 -0.65999482551E+02  0.19903447097E+03  0.00000000000E+00 0.  1.
         11    1    5    5    0    0 -0.41112223868E+02 -0.36558772361E+02  0.87508136176E+03  0.87680907185E+03  0.00000000000E+00 0.  1.
        -11    1    5    5    0    0  0.31281721013E+02  0.15161282879E+01  0.17246305443E+03  0.17528362690E+03  0.00000000000E+00 0. -1.
          3    1    6    6  503    0 -0.16128626732E+03  0.46371403004E+02 -0.48605148220E+02  0.17471699253E+03  0.00000000000E+00 0. -1.
         -3    1    6    6    0  503 -0.57639038454E+02 -0.16530888786E+02 -0.67983034788E+02  0.90648894406E+02  0.00000000000E+00 0.  1.
<mgrwt>
<rscale>  0 0.13774329E+04</rscale>
<asrwt>0</asrwt>
<pdfrwt beam="1">  1        1 0.18411370E+00 0.13774329E+04</pdfrwt>
<pdfrwt beam="2">  1       -2 0.60977284E-01 0.13774329E+04</pdfrwt>
<totfact> 0.23035951E+01</totfact>
</mgrwt>
</event>
<event>
12    4  0.4486176E-008  0.1460951E+04  0.7818608E-02  0.8910843E-01
          1   -1    0    0  501    0  0.00000000000E+00  0.00000000000E+00  0.80910540401E+03  0.80910540401E+03  0.00000000000E+00 0. -1.
         -2   -1    0    0    0  501 -0.00000000000E+00 -0.00000000000E+00 -0.65948698150E+03  0.65948698150E+03  0.00000000000E+00 0.  1.
        -24    2    1    2    0    0  0.17062790672E+03  0.15782765649E+03  0.43716731148E+03  0.50154173640E+03  0.80033764280E+02 0.  0.
        254    2    1    2    0    0 -0.17062790672E+03 -0.15782765649E+03 -0.28754888896E+03  0.96705064911E+03  0.89357660147E+03 0.  0.
         23    2    4    4    0    0 -0.30521124346E+03 -0.46508391022E+03 -0.10237994699E+03  0.57295507270E+03  0.91317660457E+02 0.  0.
         23    2    4    4    0    0  0.13458333673E+03  0.30725625373E+03 -0.18516894198E+03  0.39409557640E+03  0.92220964461E+02 0.  0.
          3    1    3    3  502    0  0.96626770051E+02  0.13510849441E+03  0.32867852885E+03  0.36826704072E+03  0.00000000000E+00 0. -1.
         -4    1    3    3    0  502  0.74001136671E+02  0.22719162086E+02  0.10848878262E+03  0.13327469568E+03  0.00000000000E+00 0.  1.
         11    1    5    5    0    0 -0.30325739906E+03 -0.43175359510E+03 -0.10940290006E+03  0.53883690622E+03  0.00000000000E+00 0. -1.
        -11    1    5    5    0    0 -0.19538443967E+01 -0.33330315120E+02  0.70229530753E+01  0.34118166478E+02  0.00000000000E+00 0.  1.
          2    1    6    6  503    0  0.66814504126E+02  0.16998244173E+03 -0.15161347543E+03  0.23737071089E+03  0.00000000000E+00 0.  1.
         -2    1    6    6    0  503  0.67768832607E+02  0.13727381200E+03 -0.33555466546E+02  0.15672486551E+03  0.00000000000E+00 0. -1.
<mgrwt>
<rscale>  0 0.14609510E+04</rscale>
<asrwt>0</asrwt>
<pdfrwt beam="1">  1        1 0.12447776E+00 0.14609510E+04</pdfrwt>
<pdfrwt beam="2">  1       -2 0.10145954E+00 0.14609510E+04</pdfrwt>
<totfact> 0.14728012E+01</totfact>
</mgrwt>
</event>
<event>
12    4  0.4486176E-008  0.1077810E+04  0.7818608E-02  0.9227094E-01
         -2   -1    0    0    0  501 -0.00000000000E+00  0.00000000000E+00  0.13270452273E+03  0.13270452273E+03  0.00000000000E+00 0.  1.
          1   -1    0    0  501    0  0.00000000000E+00 -0.00000000000E+00 -0.21884605528E+04  0.21884605528E+04  0.00000000000E+00 0. -1.
        -24    2    1    2    0    0 -0.11722230992E+02  0.13233516203E+03 -0.21097779424E+03  0.26081824683E+03  0.76580169820E+02 0.  0.
        254    2    1    2    0    0  0.11722230992E+02 -0.13233516203E+03 -0.18447782358E+04  0.20603468287E+04  0.90783936316E+03 0.  0.
         23    2    4    4    0    0  0.25334671667E+03 -0.40137378340E+03 -0.13926742302E+04  0.14742348262E+04  0.92419361665E+02 0.  0.
         23    2    4    4    0    0 -0.24162448568E+03  0.26903862137E+03 -0.45210400565E+03  0.58611200253E+03  0.91460787880E+02 0.  0.
          3    1    3    3  502    0 -0.59702926827E+01 -0.90714858783E+01 -0.85362338448E+01  0.13813165423E+02  0.00000000000E+00 0. -1.
         -4    1    3    3    0  502 -0.57519383097E+01  0.14140664790E+03 -0.20244156039E+03  0.24700508141E+03  0.00000000000E+00 0.  1.
         11    1    5    5    0    0  0.12141376128E+03 -0.26868836685E+03 -0.90928540933E+03  0.95589470944E+03  0.00000000000E+00 0. -1.
        -11    1    5    5    0    0  0.13193295539E+03 -0.13268541655E+03 -0.48338882085E+03  0.51834011673E+03  0.00000000000E+00 0.  1.
          3    1    6    6  503    0 -0.77191215688E+02  0.13544640141E+03 -0.14421296304E+03  0.21237134962E+03  0.00000000000E+00 0. -1.
         -3    1    6    6    0  503 -0.16443326999E+03  0.13359221996E+03 -0.30789104261E+03  0.37374065291E+03  0.00000000000E+00 0.  1.
<mgrwt>
<rscale>  0 0.10778100E+04</rscale>
<asrwt>0</asrwt>
<pdfrwt beam="1">  1        1 0.33668621E+00 0.10778100E+04</pdfrwt>
<pdfrwt beam="2">  1       -2 0.20416082E-01 0.10778100E+04</pdfrwt>
<totfact> 0.40273223E+01</totfact>
</mgrwt>
</event>
<event>
12    4  0.4486176E-008  0.2722729E+04  0.7818608E-02  0.8327668E-01
          1   -1    0    0  501    0  0.00000000000E+00  0.00000000000E+00  0.11033492671E+04  0.11033492671E+04  0.00000000000E+00 0. -1.
         -2   -1    0    0    0  501 -0.00000000000E+00 -0.00000000000E+00 -0.16797159274E+04  0.16797159274E+04  0.00000000000E+00 0.  1.
        -24    2    1    2    0    0  0.49027349763E+03 -0.11023606050E+04 -0.96150629942E+02  0.12128733696E+04  0.79056062994E+02 0.  0.
        254    2    1    2    0    0 -0.49027349763E+03  0.11023606050E+04 -0.48021603036E+03  0.15701918249E+04  0.88279551719E+03 0.  0.
         23    2    4    4    0    0 -0.34166289431E+02  0.77315354258E+03 -0.60521864164E+03  0.98662956465E+03  0.90634198328E+02 0.  0.
         23    2    4    4    0    0 -0.45610720820E+03  0.32920706238E+03  0.12500261128E+03  0.58356226021E+03  0.92239814712E+02 0.  0.
          3    1    3    3  502    0  0.21630359137E+02 -0.19520006585E+02 -0.13134288736E+01  0.29165530835E+02  0.00000000000E+00 0. -1.
         -4    1    3    3    0  502  0.46864313850E+03 -0.10828405984E+04 -0.94837201068E+02  0.11837078387E+04  0.00000000000E+00 0.  1.
         11    1    5    5    0    0 -0.42870186141E+02  0.70310908492E+03 -0.57718687730E+03  0.91068377030E+03  0.00000000000E+00 0.  1.
        -11    1    5    5    0    0  0.87038967107E+01  0.70044457663E+02 -0.28031764336E+02  0.75945794347E+02  0.00000000000E+00 0. -1.
          4    1    6    6  503    0 -0.40191573606E+02  0.32773839295E+02 -0.14985759448E+02  0.53982035135E+02  0.00000000000E+00 0. -1.
         -4    1    6    6    0  503 -0.41591563460E+03  0.29643322308E+03  0.13998837073E+03  0.52958022507E+03  0.00000000000E+00 0.  1.
<mgrwt>
<rscale>  0 0.27227290E+04</rscale>
<asrwt>0</asrwt>
<pdfrwt beam="1">  1        1 0.16974604E+00 0.27227290E+04</pdfrwt>
<pdfrwt beam="2">  1       -2 0.25841783E+00 0.27227290E+04</pdfrwt>
<totfact> 0.54987855E-01</totfact>
</mgrwt>
</event>
<event>
12    4  0.4486176E-008  0.1185602E+04  0.7818608E-02  0.9125554E-01
         -2   -1    0    0    0  501 -0.00000000000E+00  0.00000000000E+00  0.53005453519E+03  0.53005453519E+03  0.00000000000E+00 0.  1.
          1   -1    0    0  501    0  0.00000000000E+00 -0.00000000000E+00 -0.66297467748E+03  0.66297467748E+03  0.00000000000E+00 0. -1.
        -24    2    1    2    0    0 -0.16508325906E+02 -0.73564554849E+01 -0.26631568188E+03  0.27814443576E+03  0.78189784932E+02 0.  0.
        254    2    1    2    0    0  0.16508325906E+02  0.73564554849E+01  0.13339553959E+03  0.91488477691E+03  0.90492714777E+03 0.  0.
         23    2    4    4    0    0  0.26036258951E+02 -0.18492009101E+03 -0.33839433200E+03  0.39734106255E+03  0.92173039566E+02 0.  0.
         23    2    4    4    0    0 -0.95279330451E+01  0.19227654650E+03  0.47178987159E+03  0.51754371436E+03  0.90580138517E+02 0.  0.
          1    1    3    3  502    0 -0.33942745071E+02 -0.34136847670E+02 -0.16845508000E+03  0.17519859671E+03  0.00000000000E+00 0. -1.
         -2    1    3    3    0  502  0.17434419165E+02  0.26780392185E+02 -0.97860601879E+02  0.10294583905E+03  0.00000000000E+00 0.  1.
         11    1    5    5    0    0 -0.74913871003E+01 -0.13528114189E+03 -0.16276224488E+03  0.21177501408E+03  0.00000000000E+00 0.  1.
        -11    1    5    5    0    0  0.33527646051E+02 -0.49638949124E+02 -0.17563208712E+03  0.18556604847E+03  0.00000000000E+00 0. -1.
          4    1    6    6  503    0  0.27696430592E+02  0.22805436263E+02  0.50730995135E+02  0.62135449287E+02  0.00000000000E+00 0. -1.
         -4    1    6    6    0  503 -0.37224363637E+02  0.16947111023E+03  0.42105887645E+03  0.45540826507E+03  0.00000000000E+00 0.  1.
<mgrwt>
<rscale>  0 0.11856015E+04</rscale>
<asrwt>0</asrwt>
<pdfrwt beam="1">  1        1 0.10199610E+00 0.11856015E+04</pdfrwt>
<pdfrwt beam="2">  1       -2 0.81546851E-01 0.11856015E+04</pdfrwt>
<totfact> 0.33969341E+01</totfact>
</mgrwt>
</event>
<event>
12    4  0.4486176E-008  0.1637799E+04  0.7818608E-02  0.8797657E-01
         -2   -1    0    0    0  501 -0.00000000000E+00  0.00000000000E+00  0.60914098333E+03  0.60914098333E+03  0.00000000000E+00 0.  1.
          1   -1    0    0  501    0  0.00000000000E+00 -0.00000000000E+00 -0.11008886813E+04  0.11008886813E+04  0.00000000000E+00 0. -1.
        -24    2    1    2    0    0  0.11962815413E+03 -0.99126434027E+02  0.39587409231E+03  0.43293129373E+03  0.81094160976E+02 0.  0.
        254    2    1    2    0    0 -0.11962815413E+03  0.99126434027E+02 -0.88762179031E+03  0.12770983709E+04  0.90497008859E+03 0.  0.
         23    2    4    4    0    0  0.27690132099E+03 -0.23495484879E+03 -0.25486944983E+03  0.45400651366E+03  0.96360549250E+02 0.  0.
         23    2    4    4    0    0 -0.39652947512E+03  0.33408128282E+03 -0.63275234048E+03  0.82309185728E+03  0.90877681325E+02 0.  0.
          3    1    3    3  502    0  0.13208004114E+02 -0.27685860809E+01  0.19157205748E+01  0.13630349477E+02  0.00000000000E+00 0. -1.
         -4    1    3    3    0  502  0.10642015002E+03 -0.96357847946E+02  0.39395837173E+03  0.41930094425E+03  0.00000000000E+00 0.  1.
         11    1    5    5    0    0  0.21622060378E+03 -0.22757635437E+03 -0.22308296470E+03  0.38510823895E+03  0.00000000000E+00 0. -1.
        -11    1    5    5    0    0  0.60680717213E+02 -0.73784944230E+01 -0.31786485129E+02  0.68898274712E+02  0.00000000000E+00 0.  1.
          3    1    6    6  503    0 -0.38156535202E+03  0.33881542451E+03 -0.61907933806E+03  0.80227628443E+03  0.00000000000E+00 0. -1.
         -3    1    6    6    0  503 -0.14964123108E+02 -0.47341416886E+01 -0.13673002424E+02  0.20815572853E+02  0.00000000000E+00 0.  1.
<mgrwt>
<rscale>  0 0.16377990E+04</rscale>
<asrwt>0</asrwt>
<pdfrwt beam="1">  1        1 0.16936749E+00 0.16377990E+04</pdfrwt>
<pdfrwt beam="2">  1       -2 0.93713998E-01 0.16377990E+04</pdfrwt>
<totfact> 0.10216720E+01</totfact>
</mgrwt>
</event>
<event>
12    4  0.4486176E-008  0.3043231E+04  0.7818608E-02  0.8231493E-01
         -2   -1    0    0    0  501 -0.00000000000E+00  0.00000000000E+00  0.48784637712E+04  0.48784637712E+04  0.00000000000E+00 0.  1.
          1   -1    0    0  501    0  0.00000000000E+00 -0.00000000000E+00 -0.47459890616E+03  0.47459890616E+03  0.00000000000E+00 0. -1.
        -24    2    1    2    0    0  0.54778308474E+03  0.78601395667E+03  0.24346733347E+03  0.99163080579E+03  0.78556123406E+02 0.  0.
        254    2    1    2    0    0 -0.54778308474E+03 -0.78601395667E+03  0.41603975316E+04  0.43614318716E+04  0.89179375510E+03 0.  0.
         23    2    4    4    0    0 -0.60545218510E+03 -0.93931488841E+03  0.36127363345E+04  0.37826649774E+04  0.88349876870E+02 0.  0.
         23    2    4    4    0    0  0.57669100364E+02  0.15330093174E+03  0.54766119710E+03  0.57876689417E+03  0.90616941997E+02 0.  0.
          3    1    3    3  502    0  0.42194892782E+03  0.61536061833E+03  0.22232766574E+03  0.77854940706E+03  0.00000000000E+00 0. -1.
         -4    1    3    3    0  502  0.12583415692E+03  0.17065333833E+03  0.21139667726E+02  0.21308139872E+03  0.00000000000E+00 0.  1.
         11    1    5    5    0    0 -0.43962243378E+02 -0.69433862166E+02  0.35365727446E+03  0.36308016723E+03  0.00000000000E+00 0. -1.
        -11    1    5    5    0    0 -0.56148994172E+03 -0.86988102624E+03  0.32590790600E+04  0.34195848102E+04  0.00000000000E+00 0.  1.
          1    1    6    6  503    0 -0.22619354661E+02  0.48918415698E+02  0.19535931173E+03  0.20265711751E+03  0.00000000000E+00 0. -1.
         -1    1    6    6    0  503  0.80288455025E+02  0.10438251605E+03  0.35230188537E+03  0.37610977666E+03  0.00000000000E+00 0.  1.
<mgrwt>
<rscale>  0 0.30432309E+04</rscale>
<asrwt>0</asrwt>
<pdfrwt beam="1">  1        1 0.73015220E-01 0.30432309E+04</pdfrwt>
<pdfrwt beam="2">  1       -2 0.75053285E+00 0.30432309E+04</pdfrwt>
<totfact> 0.50389366E-03</totfact>
</mgrwt>
</event>
<event>
12    4  0.4486176E-008  0.1477929E+04  0.7818608E-02  0.8899264E-01
         -2   -1    0    0    0  501 -0.00000000000E+00  0.00000000000E+00  0.43588932926E+03  0.43588932926E+03  0.00000000000E+00 0.  1.
          1   -1    0    0  501    0  0.00000000000E+00 -0.00000000000E+00 -0.12527692984E+04  0.12527692984E+04  0.00000000000E+00 0. -1.
        -24    2    1    2    0    0 -0.40074431668E+03 -0.33672754403E+02 -0.11404616959E+02  0.41077931902E+03  0.82944089062E+02 0.  0.
        254    2    1    2    0    0  0.40074431668E+03  0.33672754403E+02 -0.80547535222E+03  0.12778793087E+04  0.90689311541E+03 0.  0.
         23    2    4    4    0    0  0.56670925166E+03 -0.62138192220E+02 -0.16144199465E+03  0.59970277772E+03  0.92516880165E+02 0.  0.
         23    2    4    4    0    0 -0.16596493498E+03  0.95810946623E+02 -0.64403335757E+03  0.67817653096E+03  0.91762434273E+02 0.  0.
          3    1    3    3  502    0 -0.14226812185E+01  0.36925915228E+01 -0.88618711697E+01  0.97052570617E+01  0.00000000000E+00 0. -1.
         -2    1    3    3    0  502 -0.39932163546E+03 -0.37365345926E+02 -0.25427457889E+01  0.40107406196E+03  0.00000000000E+00 0.  1.
         11    1    5    5    0    0  0.56114015174E+03 -0.68651627559E+02 -0.14906162377E+03  0.58464577613E+03  0.00000000000E+00 0.  1.
        -11    1    5    5    0    0  0.55690999177E+01  0.65134353387E+01 -0.12380370875E+02  0.15057001587E+02  0.00000000000E+00 0. -1.
          1    1    6    6  503    0 -0.48098610589E+02  0.10019739510E+01 -0.27778554675E+03  0.28192071630E+03  0.00000000000E+00 0. -1.
         -1    1    6    6    0  503 -0.11786632440E+03  0.94808972672E+02 -0.36624781082E+03  0.39625581466E+03  0.00000000000E+00 0.  1.
<mgrwt>
<rscale>  0 0.14779293E+04</rscale>
<asrwt>0</asrwt>
<pdfrwt beam="1">  1        1 0.19273374E+00 0.14779293E+04</pdfrwt>
<pdfrwt beam="2">  1       -2 0.67059897E-01 0.14779293E+04</pdfrwt>
<totfact> 0.16968856E+01</totfact>
</mgrwt>
</event>
<event>
12    4  0.4486176E-008  0.2358450E+04  0.7818608E-02  0.8455225E-01
         -2   -1    0    0    0  501 -0.00000000000E+00  0.00000000000E+00  0.10487177432E+04  0.10487177432E+04  0.00000000000E+00 0.  1.
          1   -1    0    0  501    0  0.00000000000E+00 -0.00000000000E+00 -0.13259734710E+04  0.13259734710E+04  0.00000000000E+00 0. -1.
        -24    2    1    2    0    0 -0.43140279197E+03 -0.57291520952E+03 -0.82021086178E+03  0.10924259394E+04  0.79425242120E+02 0.  0.
        254    2    1    2    0    0  0.43140279197E+03  0.57291520952E+03  0.54295513399E+03  0.12822652748E+04  0.91381822654E+03 0.  0.
         23    2    4    4    0    0  0.46512752422E+03  0.71301390929E+03  0.17146126722E+03  0.87347774040E+03  0.93978445250E+02 0.  0.
         23    2    4    4    0    0 -0.33724732252E+02 -0.14009869978E+03  0.37149386677E+03  0.40878753438E+03  0.91293767429E+02 0.  0.
          3    1    3    3  502    0 -0.10956523660E+03 -0.18831448120E+03 -0.21024038236E+03  0.30276707760E+03  0.00000000000E+00 0. -1.
         -4    1    3    3    0  502 -0.32183755537E+03 -0.38460072831E+03 -0.60997047942E+03  0.78965886181E+03  0.00000000000E+00 0.  1.
         11    1    5    5    0    0  0.21351134850E+02  0.83928267380E+02  0.15495056397E+02  0.87976825344E+02  0.00000000000E+00 0.  1.
        -11    1    5    5    0    0  0.44377638937E+03  0.62908564191E+03  0.15596621083E+03  0.78550091505E+03  0.00000000000E+00 0. -1.
          1    1    6    6  503    0 -0.76078642536E+01 -0.11342438409E+03  0.17432529636E+03  0.20811602402E+03  0.00000000000E+00 0. -1.
         -1    1    6    6    0  503 -0.26116867999E+02 -0.26674315692E+02  0.19716857041E+03  0.20067151035E+03  0.00000000000E+00 0.  1.
<mgrwt>
<rscale>  0 0.23584503E+04</rscale>
<asrwt>0</asrwt>
<pdfrwt beam="1">  1        1 0.20399592E+00 0.23584503E+04</pdfrwt>
<pdfrwt beam="2">  1       -2 0.16134119E+00 0.23584503E+04</pdfrwt>
<totfact> 0.16844988E+00</totfact>
</mgrwt>
</event>
<event>
12    4  0.4486176E-008  0.1647541E+04  0.7818608E-02  0.8791862E-01
          3   -1    0    0  501    0  0.00000000000E+00  0.00000000000E+00  0.11110754894E+04  0.11110754894E+04  0.00000000000E+00 0. -1.
         -4   -1    0    0    0  501 -0.00000000000E+00 -0.00000000000E+00 -0.61075792179E+03  0.61075792179E+03  0.00000000000E+00 0.  1.
        -24    2    1    2    0    0 -0.43963525928E+03 -0.33127783343E+03  0.33784634985E+03  0.65074890736E+03  0.79434376739E+02 0.  0.
        254    2    1    2    0    0  0.43963525928E+03  0.33127783343E+03  0.16247121772E+03  0.10710845038E+04  0.90432347838E+03 0.  0.
         23    2    4    4    0    0  0.27714973415E+03  0.61277281029E+03 -0.34355717878E+02  0.67981177105E+03  0.93065764586E+02 0.  0.
         23    2    4    4    0    0  0.16248552513E+03 -0.28149497686E+03  0.19682693560E+03  0.39127273274E+03  0.93340992789E+02 0.  0.
          3    1    3    3  502    0 -0.41968142481E+03 -0.32783588566E+03  0.33751817796E+03  0.63049772934E+03  0.00000000000E+00 0. -1.
         -4    1    3    3    0  502 -0.19953834469E+02 -0.34419477712E+01  0.32817189190E+00  0.20251178022E+02  0.00000000000E+00 0.  1.
         11    1    5    5    0    0  0.18602966096E+03  0.37306366553E+03 -0.63633603483E+02  0.42170222763E+03  0.00000000000E+00 0.  1.
        -11    1    5    5    0    0  0.91120073195E+02  0.23970914476E+03  0.29277885604E+02  0.25810954342E+03  0.00000000000E+00 0. -1.
          4    1    6    6  503    0  0.54489332796E+02 -0.43906949584E+02  0.10867918247E+02  0.70816800671E+02  0.00000000000E+00 0. -1.
         -4    1    6    6    0  503  0.10799619233E+03 -0.23758802728E+03  0.18595901735E+03  0.32045593207E+03  0.00000000000E+00 0.  1.
<mgrwt>
<rscale>  0 0.16475414E+04</rscale>
<asrwt>0</asrwt>
<pdfrwt beam="1">  1        3 0.17093469E+00 0.16475414E+04</pdfrwt>
<pdfrwt beam="2">  1       -4 0.93962757E-01 0.16475414E+04</pdfrwt>
<totfact> 0.47926832E-01</totfact>
</mgrwt>
</event>
<event>
12    4  0.4486176E-008  0.1742083E+04  0.7818608E-02  0.8737720E-01
         -2   -1    0    0    0  501 -0.00000000000E+00  0.00000000000E+00  0.64887819385E+03  0.64887819385E+03  0.00000000000E+00 0.  1.
          1   -1    0    0  501    0  0.00000000000E+00 -0.00000000000E+00 -0.11692694259E+04  0.11692694259E+04  0.00000000000E+00 0. -1.
        -24    2    1    2    0    0 -0.32498909455E+03  0.40322719891E+03 -0.57660343228E+03  0.78094996820E+03  0.95923142125E+02 0.  0.
        254    2    1    2    0    0  0.32498909455E+03 -0.40322719891E+03  0.56212200216E+02  0.10371976516E+04  0.89688855018E+03 0.  0.
         23    2    4    4    0    0  0.50389367169E+03 -0.56526263022E+03 -0.35929807515E+02  0.76352012750E+03  0.90781939471E+02 0.  0.
         23    2    4    4    0    0 -0.17890457714E+03  0.16203543131E+03  0.92142007731E+02  0.27367752407E+03  0.90260228628E+02 0.  0.
          1    1    3    3  502    0 -0.21908649803E+03  0.30120818452E+03 -0.46812070061E+03  0.59821589279E+03  0.00000000000E+00 0. -1.
         -2    1    3    3    0  502 -0.10590259652E+03  0.10201901440E+03 -0.10848273167E+03  0.18273407542E+03  0.00000000000E+00 0.  1.
         11    1    5    5    0    0  0.32652790862E+03 -0.31105036766E+03 -0.46561824858E+02  0.45336608813E+03  0.00000000000E+00 0. -1.
        -11    1    5    5    0    0  0.17736576307E+03 -0.25421226256E+03  0.10632017343E+02  0.31015403937E+03  0.00000000000E+00 0.  1.
          4    1    6    6  503    0 -0.13576128477E+03  0.16164988062E+03  0.58748531548E+02  0.21911914637E+03  0.00000000000E+00 0. -1.
         -4    1    6    6    0  503 -0.43143292372E+02  0.38555069002E+00  0.33393476183E+02  0.54558377703E+02  0.00000000000E+00 0.  1.
<mgrwt>
<rscale>  0 0.17420832E+04</rscale>
<asrwt>0</asrwt>
<pdfrwt beam="1">  1        1 0.17988760E+00 0.17420832E+04</pdfrwt>
<pdfrwt beam="2">  1       -2 0.99827415E-01 0.17420832E+04</pdfrwt>
<totfact> 0.77646552E+00</totfact>
</mgrwt>
</event>
<event>
12    4  0.4486176E-008  0.1830342E+04  0.7818608E-02  0.8690328E-01
          1   -1    0    0  501    0  0.00000000000E+00  0.00000000000E+00  0.23908936292E+04  0.23908936292E+04  0.00000000000E+00 0. -1.
         -2   -1    0    0    0  501 -0.00000000000E+00 -0.00000000000E+00 -0.35030336541E+03  0.35030336541E+03  0.00000000000E+00 0.  1.
        -24    2    1    2    0    0 -0.75387218351E+02  0.53435380450E+03  0.12962010299E+03  0.56074923063E+03  0.80131813142E+02 0.  0.
        254    2    1    2    0    0  0.75387218351E+02 -0.53435380450E+03  0.19109701608E+04  0.21804477640E+04  0.90073762821E+03 0.  0.
         23    2    4    4    0    0  0.29740026097E+03 -0.50172249134E+03  0.57936473856E+03  0.82684692679E+03  0.88543585367E+02 0.  0.
         23    2    4    4    0    0 -0.22201304262E+03 -0.32631313163E+02  0.13316054222E+04  0.13536008372E+04  0.93314694448E+02 0.  0.
          1    1    3    3  502    0  0.70697911503E+01  0.29851689744E+02  0.23525767210E+02  0.38659630757E+02  0.00000000000E+00 0. -1.
         -2    1    3    3    0  502 -0.82457009502E+02  0.50450211476E+03  0.10609433578E+03  0.52208959987E+03  0.00000000000E+00 0.  1.
         11    1    5    5    0    0  0.26798028065E+03 -0.44571855637E+03  0.55048365623E+03  0.75730490431E+03  0.00000000000E+00 0.  1.
        -11    1    5    5    0    0  0.29419980323E+02 -0.56003934967E+02  0.28881082327E+02  0.69542022479E+02  0.00000000000E+00 0. -1.
          2    1    6    6  503    0 -0.96610415593E+01  0.13916676965E+02  0.23770537318E+03  0.23830831723E+03  0.00000000000E+00 0. -1.
         -2    1    6    6    0  503 -0.21235200106E+03 -0.46547990128E+02  0.10939000491E+04  0.11152925200E+04  0.00000000000E+00 0.  1.
<mgrwt>
<rscale>  0 0.18303421E+04</rscale>
<asrwt>0</asrwt>
<pdfrwt beam="1">  1        1 0.36782978E+00 0.18303421E+04</pdfrwt>
<pdfrwt beam="2">  1       -2 0.53892827E-01 0.18303421E+04</pdfrwt>
<totfact> 0.43239659E+00</totfact>
</mgrwt>
</event>
<event>
12    4  0.4486176E-008  0.1772177E+04  0.7818608E-02  0.8721237E-01
          1   -1    0    0  501    0  0.00000000000E+00  0.00000000000E+00  0.97242202556E+03  0.97242202556E+03  0.00000000000E+00 0. -1.
         -2   -1    0    0    0  501 -0.00000000000E+00 -0.00000000000E+00 -0.80741961031E+03  0.80741961031E+03  0.00000000000E+00 0.  1.
        -24    2    1    2    0    0  0.22344340322E+03  0.51004842758E+03  0.40531966209E+03  0.69362781731E+03  0.82214156590E+02 0.  0.
        254    2    1    2    0    0 -0.22344340322E+03 -0.51004842758E+03 -0.24031724684E+03  0.10862138186E+04  0.90112803062E+03 0.  0.
         23    2    4    4    0    0  0.14675925434E+03  0.18597768943E+03 -0.12768526439E+03  0.28475956742E+03  0.93051087008E+02 0.  0.
         23    2    4    4    0    0 -0.37020265757E+03 -0.69602611701E+03 -0.11263198245E+03  0.80145425114E+03  0.90225217986E+02 0.  0.
          3    1    3    3  502    0  0.13180128154E+03  0.39116413006E+03  0.29828854777E+03  0.50927105964E+03  0.00000000000E+00 0. -1.
         -4    1    3    3    0  502  0.91642121681E+02  0.11888429753E+03  0.10703111433E+03  0.18435675767E+03  0.00000000000E+00 0.  1.
         11    1    5    5    0    0  0.41676858759E+02  0.11204407950E+02  0.17977821596E+01  0.43194112263E+02  0.00000000000E+00 0.  1.
        -11    1    5    5    0    0  0.10508239558E+03  0.17477328148E+03 -0.12948304655E+03  0.24156545516E+03  0.00000000000E+00 0. -1.
          4    1    6    6  503    0 -0.20431434942E+03 -0.43085011466E+03 -0.29221116066E+02  0.47773428630E+03  0.00000000000E+00 0. -1.
         -4    1    6    6    0  503 -0.16588830814E+03 -0.26517600235E+03 -0.83410866386E+02  0.32371996484E+03  0.00000000000E+00 0.  1.
<mgrwt>
<rscale>  0 0.17721768E+04</rscale>
<asrwt>0</asrwt>
<pdfrwt beam="1">  1        1 0.14960339E+00 0.17721768E+04</pdfrwt>
<pdfrwt beam="2">  1       -2 0.12421840E+00 0.17721768E+04</pdfrwt>
<totfact> 0.64234294E+00</totfact>
</mgrwt>
</event>
<event>
12    4  0.4486176E-008  0.1832411E+04  0.7818608E-02  0.8689251E-01
         -4   -1    0    0    0  501 -0.00000000000E+00  0.00000000000E+00  0.87693408626E+03  0.87693408626E+03  0.00000000000E+00 0.  1.
          1   -1    0    0  501    0  0.00000000000E+00 -0.00000000000E+00 -0.95723585800E+03  0.95723585800E+03  0.00000000000E+00 0. -1.
        -24    2    1    2    0    0  0.39026877135E+03 -0.48120586221E+03 -0.32512735386E+03  0.70376995753E+03  0.75601330566E+02 0.  0.
        254    2    1    2    0    0 -0.39026877135E+03  0.48120586221E+03  0.24482558211E+03  0.11303999867E+04  0.91323368785E+03 0.  0.
         23    2    4    4    0    0 -0.16148925342E+03  0.72414827028E+03  0.94671129661E+02  0.75355927128E+03  0.91757594902E+02 0.  0.
         23    2    4    4    0    0 -0.22877951793E+03 -0.24294240807E+03  0.15015445245E+03  0.37684071545E+03  0.90008242780E+02 0.  0.
          1    1    3    3  502    0  0.34473171356E+03 -0.41782021778E+03 -0.25439580909E+03  0.59844040338E+03  0.00000000000E+00 0. -1.
         -2    1    3    3    0  502  0.45537057784E+02 -0.63385644431E+02 -0.70731544767E+02  0.10532955415E+03  0.00000000000E+00 0.  1.
         11    1    5    5    0    0 -0.38843580380E+02  0.12435860315E+03  0.50632482081E+02  0.13977672966E+03  0.00000000000E+00 0. -1.
        -11    1    5    5    0    0 -0.12264567304E+03  0.59978966713E+03  0.44038647580E+02  0.61378254161E+03  0.00000000000E+00 0.  1.
          3    1    6    6  503    0 -0.25961043437E+02 -0.51034506030E+02 -0.48819725773E+01  0.57465905008E+02  0.00000000000E+00 0. -1.
         -3    1    6    6    0  503 -0.20281847449E+03 -0.19190790204E+03  0.15503642503E+03  0.31937481044E+03  0.00000000000E+00 0.  1.
<mgrwt>
<rscale>  0 0.18324113E+04</rscale>
<asrwt>0</asrwt>
<pdfrwt beam="1">  1        1 0.14726706E+00 0.18324113E+04</pdfrwt>
<pdfrwt beam="2">  1       -4 0.13491294E+00 0.18324113E+04</pdfrwt>
<totfact> 0.29350554E+00</totfact>
</mgrwt>
</event>
<event>
12    4  0.4486176E-008  0.1563348E+04  0.7818608E-02  0.8843387E-01
         -2   -1    0    0    0  501 -0.00000000000E+00  0.00000000000E+00  0.25901328215E+03  0.25901328215E+03  0.00000000000E+00 0.  1.
          1   -1    0    0  501    0  0.00000000000E+00 -0.00000000000E+00 -0.23590062801E+04  0.23590062801E+04  0.00000000000E+00 0. -1.
        -24    2    1    2    0    0  0.28081664116E+02 -0.30122864451E+03  0.21378965534E+01  0.31342803871E+03  0.81885827334E+02 0.  0.
        254    2    1    2    0    0 -0.28081664116E+02  0.30122864451E+03 -0.21021308945E+04  0.23045915236E+04  0.89479635483E+03 0.  0.
         23    2    4    4    0    0 -0.30666798143E+03 -0.17252072105E+03 -0.10921642750E+04  0.11506607039E+04  0.85956976720E+02 0.  0.
         23    2    4    4    0    0  0.27858631732E+03  0.47374936556E+03 -0.10099666195E+04  0.11539308196E+04  0.97339439438E+02 0.  0.
          1    1    3    3  502    0 -0.16737958861E+02 -0.42335661674E+02  0.20740565504E+02  0.50026378778E+02  0.00000000000E+00 0. -1.
         -2    1    3    3    0  502  0.44819622977E+02 -0.25889298283E+03 -0.18602668951E+02  0.26340165993E+03  0.00000000000E+00 0.  1.
         11    1    5    5    0    0 -0.26229817477E+03 -0.15607666035E+03 -0.10172492928E+04  0.10620529083E+04  0.00000000000E+00 0. -1.
        -11    1    5    5    0    0 -0.44369806664E+02 -0.16444060703E+02 -0.74914982265E+02  0.88607795614E+02  0.00000000000E+00 0.  1.
          1    1    6    6  503    0  0.27946150386E+03  0.47635554443E+03 -0.10100508915E+04  0.11511803249E+04  0.00000000000E+00 0. -1.
         -1    1    6    6    0  503 -0.87518654470E+00 -0.26061788669E+01  0.84272046928E-01  0.27504947831E+01  0.00000000000E+00 0.  1.
<mgrwt>
<rscale>  0 0.15633476E+04</rscale>
<asrwt>0</asrwt>
<pdfrwt beam="1">  1        1 0.36292404E+00 0.15633476E+04</pdfrwt>
<pdfrwt beam="2">  1       -2 0.39848198E-01 0.15633476E+04</pdfrwt>
<totfact> 0.85504355E+00</totfact>
</mgrwt>
</event>
<event>
12    4  0.4486176E-008  0.1766185E+04  0.7818608E-02  0.8724492E-01
         -2   -1    0    0    0  501 -0.00000000000E+00  0.00000000000E+00  0.21308673665E+03  0.21308673665E+03  0.00000000000E+00 0.  1.
          1   -1    0    0  501    0  0.00000000000E+00 -0.00000000000E+00 -0.36597876686E+04  0.36597876686E+04  0.00000000000E+00 0. -1.
        -24    2    1    2    0    0 -0.27418354563E+03 -0.53926509805E+03 -0.77629602121E+03  0.98723866435E+03  0.77596424948E+02 0.  0.
        254    2    1    2    0    0  0.27418354563E+03  0.53926509805E+03 -0.26704049107E+04  0.28856357409E+04  0.91095981204E+03 0.  0.
         23    2    4    4    0    0  0.57603967233E+03  0.51410886457E+03 -0.19343416226E+04  0.20848936868E+04  0.94734066485E+02 0.  0.
         23    2    4    4    0    0 -0.30185612670E+03  0.25156233478E+02 -0.73606328813E+03  0.80074205415E+03  0.87456937009E+02 0.  0.
          1    1    3    3  502    0 -0.70418828422E+02 -0.75868313812E+02 -0.14124004532E+03  0.17511014488E+03  0.00000000000E+00 0. -1.
         -2    1    3    3    0  502 -0.20376471721E+03 -0.46339678424E+03 -0.63505597589E+03  0.81212851947E+03  0.00000000000E+00 0.  1.
         11    1    5    5    0    0  0.25035891736E+03  0.19486912311E+03 -0.68454561506E+03  0.75449073006E+03  0.00000000000E+00 0.  1.
        -11    1    5    5    0    0  0.32568075497E+03  0.31923974147E+03 -0.12497960076E+04  0.13304029567E+04  0.00000000000E+00 0. -1.
          3    1    6    6  503    0 -0.19971581462E+03 -0.22284484794E+02 -0.51045407802E+03  0.54858579150E+03  0.00000000000E+00 0. -1.
         -3    1    6    6    0  503 -0.10214031208E+03  0.47440718272E+02 -0.22560921012E+03  0.25215626265E+03  0.00000000000E+00 0.  1.
<mgrwt>
<rscale>  0 0.17661848E+04</rscale>
<asrwt>0</asrwt>
<pdfrwt beam="1">  1        1 0.56304429E+00 0.17661848E+04</pdfrwt>
<pdfrwt beam="2">  1       -2 0.32782573E-01 0.17661848E+04</pdfrwt>
<totfact> 0.13539201E+00</totfact>
</mgrwt>
</event>
<event>
12    4  0.4486176E-008  0.1665506E+04  0.7818608E-02  0.8781286E-01
          1   -1    0    0  501    0  0.00000000000E+00  0.00000000000E+00  0.57815160550E+03  0.57815160550E+03  0.00000000000E+00 0. -1.
         -2   -1    0    0    0  501 -0.00000000000E+00 -0.00000000000E+00 -0.11994742324E+04  0.11994742324E+04  0.00000000000E+00 0.  1.
        -24    2    1    2    0    0  0.18419213699E+03  0.51833398075E+03 -0.43266203707E+03  0.70465482321E+03  0.82128695473E+02 0.  0.
        254    2    1    2    0    0 -0.18419213699E+03 -0.51833398075E+03 -0.18866058979E+03  0.10729710147E+04  0.90170789129E+03 0.  0.
         23    2    4    4    0    0  0.23678696044E+03 -0.54007531280E+03 -0.22930997491E+03  0.63961051257E+03  0.93643660042E+02 0.  0.
         23    2    4    4    0    0 -0.42097909743E+03  0.21741332048E+02  0.40649385126E+02  0.43336050208E+03  0.91939470667E+02 0.  0.
          3    1    3    3  502    0 -0.73982726433E+01  0.13235488253E+02 -0.61432195616E+01  0.16360065219E+02  0.00000000000E+00 0. -1.
         -4    1    3    3    0  502  0.19159040963E+03  0.50509849250E+03 -0.42651881751E+03  0.68829475799E+03  0.00000000000E+00 0.  1.
         11    1    5    5    0    0  0.17519721761E+03 -0.35813663443E+03 -0.19744397640E+03  0.44490452661E+03  0.00000000000E+00 0. -1.
        -11    1    5    5    0    0  0.61589742824E+02 -0.18193867837E+03 -0.31865998515E+02  0.19470598596E+03  0.00000000000E+00 0.  1.
          1    1    6    6  503    0 -0.36273428344E+03  0.25763901024E+02  0.66210629792E+02  0.36962655001E+03  0.00000000000E+00 0. -1.
         -1    1    6    6    0  503 -0.58244813990E+02 -0.40225689759E+01 -0.25561244666E+02  0.63733952072E+02  0.00000000000E+00 0.  1.
<mgrwt>
<rscale>  0 0.16655065E+04</rscale>
<asrwt>0</asrwt>
<pdfrwt beam="1">  1        1 0.88946402E-01 0.16655065E+04</pdfrwt>
<pdfrwt beam="2">  1       -2 0.18453450E+00 0.16655065E+04</pdfrwt>
<totfact> 0.50884349E+00</totfact>
</mgrwt>
</event>
<event>
12    4  0.4486176E-008  0.2220940E+04  0.7818608E-02  0.8509763E-01
         -4   -1    0    0    0  501 -0.00000000000E+00  0.00000000000E+00  0.13717789080E+04  0.13717789080E+04  0.00000000000E+00 0.  1.
          1   -1    0    0  501    0  0.00000000000E+00 -0.00000000000E+00 -0.89893766270E+03  0.89893766270E+03  0.00000000000E+00 0. -1.
        -24    2    1    2    0    0  0.64046573237E+03 -0.46304619681E+03  0.68422832515E+03  0.10482956963E+04  0.78404918671E+02 0.  0.
        254    2    1    2    0    0 -0.64046573237E+03  0.46304619681E+03 -0.21138707987E+03  0.12224208743E+04  0.90830620486E+03 0.  0.
         23    2    4    4    0    0 -0.33446001332E+03  0.22496816906E+03 -0.55818026263E+03  0.69467332962E+03  0.92366940555E+02 0.  0.
         23    2    4    4    0    0 -0.30600571906E+03  0.23807802775E+03  0.34679318276E+03  0.52774754472E+03  0.89057913551E+02 0.  0.
          3    1    3    3  502    0  0.23890087246E+03 -0.14734056022E+03  0.20191028510E+03  0.34576094455E+03  0.00000000000E+00 0. -1.
         -4    1    3    3    0  502  0.40156485991E+03 -0.31570563659E+03  0.48231804005E+03  0.70253475177E+03  0.00000000000E+00 0.  1.
         11    1    5    5    0    0 -0.22964254148E+03  0.19791633328E+03 -0.44090753834E+03  0.53507572287E+03  0.00000000000E+00 0. -1.
        -11    1    5    5    0    0 -0.10481747184E+03  0.27051835782E+02 -0.11727272429E+03  0.15959760676E+03  0.00000000000E+00 0.  1.
          1    1    6    6  503    0 -0.29207652096E+03  0.19210161962E+03  0.29958555055E+03  0.46039464425E+03  0.00000000000E+00 0. -1.
         -1    1    6    6    0  503 -0.13929198098E+02  0.45976408126E+02  0.47207632211E+02  0.67352900478E+02  0.00000000000E+00 0.  1.
<mgrwt>
<rscale>  0 0.22209401E+04</rscale>
<asrwt>0</asrwt>
<pdfrwt beam="1">  1        1 0.13829810E+00 0.22209401E+04</pdfrwt>
<pdfrwt beam="2">  1       -4 0.21104291E+00 0.22209401E+04</pdfrwt>
<totfact> 0.89092427E-01</totfact>
</mgrwt>
</event>
<event>
12    4  0.4486176E-008  0.2147856E+04  0.7818608E-02  0.8540451E-01
          1   -1    0    0  501    0  0.00000000000E+00  0.00000000000E+00  0.65403414963E+03  0.65403414963E+03  0.00000000000E+00 0. -1.
         -2   -1    0    0    0  501 -0.00000000000E+00 -0.00000000000E+00 -0.17633962035E+04  0.17633962035E+04  0.00000000000E+00 0.  1.
        -24    2    1    2    0    0 -0.16379605134E+03 -0.33350796094E+03  0.44409925150E+03  0.58432327521E+03  0.78440030129E+02 0.  0.
        254    2    1    2    0    0  0.16379605134E+03  0.33350796094E+03 -0.15534613054E+04  0.18331070779E+04  0.89943472548E+03 0.  0.
         23    2    4    4    0    0  0.40353500302E+03  0.37802410493E+03 -0.14464507257E+04  0.15513575130E+04  0.93529186050E+02 0.  0.
         23    2    4    4    0    0 -0.23973895167E+03 -0.44516143988E+02 -0.10701057967E+03  0.28174956494E+03  0.92060312599E+02 0.  0.
          1    1    3    3  502    0 -0.10569938492E+03 -0.24318700203E+03  0.36403344427E+03  0.45036943333E+03  0.00000000000E+00 0. -1.
         -2    1    3    3    0  502 -0.58096666427E+02 -0.90320958914E+02  0.80065807226E+02  0.13395384189E+03  0.00000000000E+00 0.  1.
         11    1    5    5    0    0  0.38407327896E+03  0.35633341597E+03 -0.14129522372E+04  0.15069571366E+04  0.00000000000E+00 0.  1.
        -11    1    5    5    0    0  0.19461724055E+02  0.21690688957E+02 -0.33498488483E+02  0.44400376364E+02  0.00000000000E+00 0. -1.
          4    1    6    6  503    0 -0.11079454610E+03 -0.47220224104E+02 -0.92706981179E+02  0.15198606966E+03  0.00000000000E+00 0. -1.
         -4    1    6    6    0  503 -0.12894440557E+03  0.27040801162E+01 -0.14303598487E+02  0.12976349528E+03  0.00000000000E+00 0.  1.
<mgrwt>
<rscale>  0 0.21478560E+04</rscale>
<asrwt>0</asrwt>
<pdfrwt beam="1">  1        1 0.10062064E+00 0.21478560E+04</pdfrwt>
<pdfrwt beam="2">  1       -2 0.27129173E+00 0.21478560E+04</pdfrwt>
<totfact> 0.11525166E+00</totfact>
</mgrwt>
</event>
<event>
12    4  0.4486176E-008  0.1364270E+04  0.7818608E-02  0.8980095E-01
         -2   -1    0    0    0  501 -0.00000000000E+00  0.00000000000E+00  0.67098453709E+03  0.67098453709E+03  0.00000000000E+00 0.  1.
          1   -1    0    0  501    0  0.00000000000E+00 -0.00000000000E+00 -0.69347109557E+03  0.69347109557E+03  0.00000000000E+00 0. -1.
        -24    2    1    2    0    0  0.49763440202E+02 -0.10482614726E+03  0.35173441609E+03  0.37919597423E+03  0.81286937967E+02 0.  0.
        254    2    1    2    0    0 -0.49763440202E+02  0.10482614726E+03 -0.37422097457E+03  0.98525965842E+03  0.90400792893E+03 0.  0.
         23    2    4    4    0    0  0.30521326538E+03  0.29902502420E+03 -0.15545475491E+02  0.43732994533E+03  0.91895140314E+02 0.  0.
         23    2    4    4    0    0 -0.35497670558E+03 -0.19419887694E+03 -0.35867549908E+03  0.54792971309E+03  0.88640800634E+02 0.  0.
          1    1    3    3  502    0 -0.98520685088E+01  0.71810763659E+01  0.14877859103E+02  0.19234911051E+02  0.00000000000E+00 0. -1.
         -2    1    3    3    0  502  0.59615508711E+02 -0.11200722363E+03  0.33685655699E+03  0.35996106318E+03  0.00000000000E+00 0.  1.
         11    1    5    5    0    0  0.24839713644E+03  0.25589463798E+03  0.20874639980E+02  0.35723795113E+03  0.00000000000E+00 0.  1.
        -11    1    5    5    0    0  0.56816128939E+02  0.43130386227E+02 -0.36420115471E+02  0.80091994198E+02  0.00000000000E+00 0. -1.
          4    1    6    6  503    0 -0.13025297526E+01 -0.47142130625E+01 -0.26755196961E+02  0.27198546891E+02  0.00000000000E+00 0. -1.
         -4    1    6    6    0  503 -0.35367417583E+03 -0.18948466388E+03 -0.33192030212E+03  0.52073116620E+03  0.00000000000E+00 0.  1.
<mgrwt>
<rscale>  0 0.13642703E+04</rscale>
<asrwt>0</asrwt>
<pdfrwt beam="1">  1        1 0.10668786E+00 0.13642703E+04</pdfrwt>
<pdfrwt beam="2">  1       -2 0.10322839E+00 0.13642703E+04</pdfrwt>
<totfact> 0.18116437E+01</totfact>
</mgrwt>
</event>
<event>
12    4  0.4486176E-008  0.2643531E+04  0.7818608E-02  0.8353563E-01
         -2   -1    0    0    0  501 -0.00000000000E+00  0.00000000000E+00  0.11843752011E+04  0.11843752011E+04  0.00000000000E+00 0.  1.
          1   -1    0    0  501    0  0.00000000000E+00 -0.00000000000E+00 -0.14750938585E+04  0.14750938585E+04  0.00000000000E+00 0. -1.
        -24    2    1    2    0    0  0.16765932239E+03  0.86585159846E+03  0.64782747397E+03  0.10970971887E+04  0.78314535917E+02 0.  0.
        254    2    1    2    0    0 -0.16765932239E+03 -0.86585159846E+03 -0.93854613136E+03  0.15623718708E+04  0.88449329172E+03 0.  0.
         23    2    4    4    0    0 -0.10297253552E+03 -0.13589338620E+03 -0.78319030594E+03  0.80735182249E+03  0.96744790442E+02 0.  0.
         23    2    4    4    0    0 -0.64686786879E+02 -0.72995821225E+03 -0.15535582542E+03  0.75502004833E+03  0.94321094444E+02 0.  0.
          1    1    3    3  502    0  0.13354944874E+03  0.54346838521E+03  0.44152785571E+03  0.71283952496E+03  0.00000000000E+00 0. -1.
         -2    1    3    3    0  502  0.34109873657E+02  0.32238321324E+03  0.20629961826E+03  0.38425766376E+03  0.00000000000E+00 0.  1.
         11    1    5    5    0    0 -0.70743782908E+02 -0.11263847578E+03 -0.38795497446E+03  0.41012336102E+03  0.00000000000E+00 0.  1.
        -11    1    5    5    0    0 -0.32228752608E+02 -0.23254910426E+02 -0.39523533147E+03  0.39722846146E+03  0.00000000000E+00 0. -1.
          4    1    6    6  503    0 -0.51458605392E+02 -0.26062270592E+03 -0.92559920105E+02  0.28131747496E+03  0.00000000000E+00 0. -1.
         -4    1    6    6    0  503 -0.13228181487E+02 -0.46933550634E+03 -0.62795905316E+02  0.47370257337E+03  0.00000000000E+00 0.  1.
<mgrwt>
<rscale>  0 0.26435314E+04</rscale>
<asrwt>0</asrwt>
<pdfrwt beam="1">  1        1 0.22693752E+00 0.26435314E+04</pdfrwt>
<pdfrwt beam="2">  1       -2 0.18221157E+00 0.26435314E+04</pdfrwt>
<totfact> 0.91831504E-01</totfact>
</mgrwt>
</event>
<event>
12    4  0.4486176E-008  0.1367940E+04  0.7818608E-02  0.8977358E-01
         -2   -1    0    0    0  501 -0.00000000000E+00  0.00000000000E+00  0.20156536001E+04  0.20156536001E+04  0.00000000000E+00 0.  1.
          1   -1    0    0  501    0  0.00000000000E+00 -0.00000000000E+00 -0.23209087271E+03  0.23209087271E+03  0.00000000000E+00 0. -1.
        -24    2    1    2    0    0  0.13722244060E+02  0.19109686273E+03  0.10575921397E+04  0.10777699603E+04  0.79878923677E+02 0.  0.
        254    2    1    2    0    0 -0.13722244060E+02 -0.19109686273E+03  0.72597058764E+03  0.11699745125E+04  0.89727406892E+03 0.  0.
         23    2    4    4    0    0  0.34316478870E+03  0.17075667593E+03  0.38581548371E+03  0.55163356095E+03  0.92336793934E+02 0.  0.
         23    2    4    4    0    0 -0.35688703276E+03 -0.36185353866E+03  0.34015510393E+03  0.61834095151E+03  0.91289101186E+02 0.  0.
          1    1    3    3  502    0 -0.18862175620E+02  0.12201322943E+03  0.50238324660E+03  0.51733155354E+03  0.00000000000E+00 0. -1.
         -2    1    3    3    0  502  0.32584419680E+02  0.69083633305E+02  0.55520889314E+03  0.56043840681E+03  0.00000000000E+00 0.  1.
         11    1    5    5    0    0  0.32147991454E+02  0.46859899252E+02  0.80475664013E+02  0.98517389382E+02  0.00000000000E+00 0. -1.
        -11    1    5    5    0    0  0.31101679724E+03  0.12389677668E+03  0.30533981970E+03  0.45311617156E+03  0.00000000000E+00 0.  1.
          4    1    6    6  503    0 -0.98638141482E+02 -0.14318472339E+03  0.79422893172E+02  0.19115267178E+03  0.00000000000E+00 0. -1.
         -4    1    6    6    0  503 -0.25824889128E+03 -0.21866881527E+03  0.26073221076E+03  0.42718827974E+03  0.00000000000E+00 0.  1.
<mgrwt>
<rscale>  0 0.13679398E+04</rscale>
<asrwt>0</asrwt>
<pdfrwt beam="1">  1        1 0.35706289E-01 0.13679398E+04</pdfrwt>
<pdfrwt beam="2">  1       -2 0.31010054E+00 0.13679398E+04</pdfrwt>
<totfact> 0.28968108E+00</totfact>
</mgrwt>
</event>
<event>
12    4  0.4486176E-008  0.1411334E+04  0.7818608E-02  0.8945655E-01
         -2   -1    0    0    0  501 -0.00000000000E+00  0.00000000000E+00  0.34096837119E+03  0.34096837119E+03  0.00000000000E+00 0.  1.
          1   -1    0    0  501    0  0.00000000000E+00 -0.00000000000E+00 -0.14604457406E+04  0.14604457406E+04  0.00000000000E+00 0. -1.
        -24    2    1    2    0    0  0.35333385974E+03 -0.20283834298E+03 -0.27846276356E+03  0.49993032525E+03  0.80003809856E+02 0.  0.
        254    2    1    2    0    0 -0.35333385974E+03  0.20283834298E+03 -0.84101460590E+03  0.13014837866E+04  0.90585112992E+03 0.  0.
         23    2    4    4    0    0 -0.55890130117E+02  0.47194180794E+03 -0.16722076653E+03  0.51187555199E+03  0.90559478997E+02 0.  0.
         23    2    4    4    0    0 -0.29744372963E+03 -0.26910346496E+03 -0.67379383937E+03  0.78960823459E+03  0.92701558886E+02 0.  0.
          3    1    3    3  502    0  0.32388427476E+03 -0.20014325344E+03 -0.27601203736E+03  0.47025630257E+03  0.00000000000E+00 0. -1.
         -4    1    3    3    0  502  0.29449584985E+02 -0.26950895398E+01 -0.24507261975E+01  0.29674022685E+02  0.00000000000E+00 0.  1.
         11    1    5    5    0    0 -0.78045486161E+02  0.34051615418E+03 -0.13674696958E+03  0.37515607799E+03  0.00000000000E+00 0.  1.
        -11    1    5    5    0    0  0.22155356043E+02  0.13142565376E+03 -0.30473796946E+02  0.13671947399E+03  0.00000000000E+00 0. -1.
          4    1    6    6  503    0 -0.53375077973E+02 -0.76042761830E+01 -0.93114798590E+02  0.10759688509E+03  0.00000000000E+00 0. -1.
         -4    1    6    6    0  503 -0.24406865165E+03 -0.26149918878E+03 -0.58067904078E+03  0.68201134950E+03  0.00000000000E+00 0.  1.
<mgrwt>
<rscale>  0 0.14113338E+04</rscale>
<asrwt>0</asrwt>
<pdfrwt beam="1">  1        1 0.22468396E+00 0.14113338E+04</pdfrwt>
<pdfrwt beam="2">  1       -2 0.52456673E-01 0.14113338E+04</pdfrwt>
<totfact> 0.20429397E+01</totfact>
</mgrwt>
</event>
<event>
12    4  0.4486176E-008  0.2899405E+04  0.7818608E-02  0.8273054E-01
          1   -1    0    0  501    0  0.00000000000E+00  0.00000000000E+00  0.31559490714E+04  0.31559490714E+04  0.00000000000E+00 0. -1.
         -2   -1    0    0    0  501 -0.00000000000E+00 -0.00000000000E+00 -0.66592886849E+03  0.66592886849E+03  0.00000000000E+00 0.  1.
        -24    2    1    2    0    0  0.62145488606E+03 -0.92812800833E+03  0.20282365319E+04  0.23169007297E+04  0.81595261311E+02 0.  0.
        254    2    1    2    0    0 -0.62145488606E+03  0.92812800833E+03  0.46178367101E+03  0.15049772102E+04  0.89670757168E+03 0.  0.
         23    2    4    4    0    0 -0.27781822132E+03 -0.49070883093E+02 -0.11207615509E+03  0.31715220887E+03  0.91834325773E+02 0.  0.
         23    2    4    4    0    0 -0.34363666474E+03  0.97719889143E+03  0.57385982609E+03  0.11878250013E+04  0.92786329732E+02 0.  0.
          3    1    3    3  502    0  0.51636076062E+03 -0.80199238455E+03  0.17760692467E+04  0.20159965747E+04  0.00000000000E+00 0. -1.
         -4    1    3    3    0  502  0.10509412544E+03 -0.12613562378E+03  0.25216728518E+03  0.30090415501E+03  0.00000000000E+00 0.  1.
         11    1    5    5    0    0 -0.27408952781E+03 -0.60579071419E+02 -0.11697333488E+03  0.30410138807E+03  0.00000000000E+00 0.  1.
        -11    1    5    5    0    0 -0.37286935027E+01  0.11508188326E+02  0.48971797917E+01  0.13050820805E+02  0.00000000000E+00 0. -1.
          4    1    6    6  503    0 -0.44808089006E+02  0.24656191700E+03  0.13507311697E+03  0.28468454592E+03  0.00000000000E+00 0. -1.
         -4    1    6    6    0  503 -0.29882857574E+03  0.73063697442E+03  0.43878670912E+03  0.90314045540E+03  0.00000000000E+00 0.  1.
<mgrwt>
<rscale>  0 0.28994052E+04</rscale>
<asrwt>0</asrwt>
<pdfrwt beam="1">  1        1 0.48553062E+00 0.28994052E+04</pdfrwt>
<pdfrwt beam="2">  1       -2 0.10245060E+00 0.28994052E+04</pdfrwt>
<totfact> 0.26992422E-01</totfact>
</mgrwt>
</event>
<event>
12    4  0.4486176E-008  0.1760665E+04  0.7818608E-02  0.8727502E-01
         -4   -1    0    0    0  501 -0.00000000000E+00  0.00000000000E+00  0.92580981146E+03  0.92580981146E+03  0.00000000000E+00 0.  1.
          1   -1    0    0  501    0  0.00000000000E+00 -0.00000000000E+00 -0.83708931724E+03  0.83708931724E+03  0.00000000000E+00 0. -1.
        -24    2    1    2    0    0 -0.53717066052E+02 -0.46193801023E+03 -0.41711156201E+03  0.62987014792E+03  0.80511487358E+02 0.  0.
        254    2    1    2    0    0  0.53717066052E+02  0.46193801023E+03  0.50583205623E+03  0.11330289808E+04  0.90089752675E+03 0.  0.
         23    2    4    4    0    0  0.35589802929E+03 -0.81468188594E+02  0.26384041590E+03  0.46000768101E+03  0.93246064386E+02 0.  0.
         23    2    4    4    0    0 -0.30218096323E+03  0.54340619883E+03  0.24199164033E+03  0.67302129977E+03  0.88284112344E+02 0.  0.
          3    1    3    3  502    0  0.57701881494E+01 -0.28818386859E+03 -0.26011871023E+03  0.38825890924E+03  0.00000000000E+00 0. -1.
         -4    1    3    3    0  502 -0.59487254201E+02 -0.17375414164E+03 -0.15699285177E+03  0.24161123868E+03  0.00000000000E+00 0.  1.
         11    1    5    5    0    0  0.35785745467E+03 -0.89187511840E+02  0.25935436131E+03  0.45086700352E+03  0.00000000000E+00 0.  1.
        -11    1    5    5    0    0 -0.19594253848E+01  0.77193232452E+01  0.44860545835E+01  0.91406774874E+01  0.00000000000E+00 0. -1.
          2    1    6    6  503    0 -0.36264674578E+02  0.22971257491E+02  0.24515793071E+02  0.49435102942E+02  0.00000000000E+00 0. -1.
         -2    1    6    6    0  503 -0.26591628866E+03  0.52043494134E+03  0.21747584726E+03  0.62358619683E+03  0.00000000000E+00 0.  1.
<mgrwt>
<rscale>  0 0.17606652E+04</rscale>
<asrwt>0</asrwt>
<pdfrwt beam="1">  1        1 0.12878297E+00 0.17606652E+04</pdfrwt>
<pdfrwt beam="2">  1       -4 0.14243228E+00 0.17606652E+04</pdfrwt>
<totfact> 0.32116130E+00</totfact>
</mgrwt>
</event>
<event>
12    4  0.4486176E-008  0.1266293E+04  0.7818608E-02  0.9056731E-01
         -2   -1    0    0    0  501 -0.00000000000E+00  0.00000000000E+00  0.93846366069E+02  0.93846366069E+02  0.00000000000E+00 0.  1.
          1   -1    0    0  501    0  0.00000000000E+00 -0.00000000000E+00 -0.42716017945E+04  0.42716017945E+04  0.00000000000E+00 0. -1.
        -24    2    1    2    0    0  0.15227335945E+03  0.16776044378E+03 -0.17349306752E+04  0.17514637794E+04  0.79436643857E+02 0.  0.
        254    2    1    2    0    0 -0.15227335945E+03 -0.16776044378E+03 -0.24428247532E+04  0.26139843811E+04  0.90232523370E+03 0.  0.
         23    2    4    4    0    0 -0.46856691915E+03  0.78835765255E+02 -0.95843027837E+03  0.10735763106E+04  0.90595035788E+02 0.  0.
         23    2    4    4    0    0  0.31629355970E+03 -0.24659620904E+03 -0.14843944748E+04  0.15404080705E+04  0.92621599448E+02 0.  0.
          3    1    3    3  502    0  0.15934133915E+03  0.15065617099E+03 -0.16521649667E+04  0.16666541397E+04  0.00000000000E+00 0. -1.
         -4    1    3    3    0  502 -0.70679797076E+01  0.17104272788E+02 -0.82765708480E+02  0.84809639694E+02  0.00000000000E+00 0.  1.
         11    1    5    5    0    0 -0.40509430011E+03  0.59600734478E+02 -0.74533783573E+03  0.85040115763E+03  0.00000000000E+00 0. -1.
        -11    1    5    5    0    0 -0.63472619035E+02  0.19235030777E+02 -0.21309244264E+03  0.22317515293E+03  0.00000000000E+00 0.  1.
          4    1    6    6  503    0  0.30023898496E+03 -0.24969407758E+03 -0.14577443866E+04  0.15091419010E+04  0.00000000000E+00 0. -1.
         -4    1    6    6    0  503  0.16054574745E+02  0.30978685455E+01 -0.26650088174E+02  0.31266169568E+02  0.00000000000E+00 0.  1.
<mgrwt>
<rscale>  0 0.12662927E+04</rscale>
<asrwt>0</asrwt>
<pdfrwt beam="1">  1        1 0.65716929E+00 0.12662927E+04</pdfrwt>
<pdfrwt beam="2">  1       -2 0.14437907E-01 0.12662927E+04</pdfrwt>
<totfact> 0.18215483E+00</totfact>
</mgrwt>
</event>
<event>
12    4  0.4486176E-008  0.1203999E+04  0.7818608E-02  0.9109363E-01
         -2   -1    0    0    0  501 -0.00000000000E+00  0.00000000000E+00  0.20067839917E+03  0.20067839917E+03  0.00000000000E+00 0.  1.
          1   -1    0    0  501    0  0.00000000000E+00 -0.00000000000E+00 -0.18058917511E+04  0.18058917511E+04  0.00000000000E+00 0. -1.
        -24    2    1    2    0    0 -0.21072795131E+02  0.52405780470E+02  0.58166437939E+02  0.11314009316E+03  0.78910820907E+02 0.  0.
        254    2    1    2    0    0  0.21072795131E+02 -0.52405780470E+02 -0.16633797899E+04  0.18934300571E+04  0.90280375904E+03 0.  0.
         23    2    4    4    0    0 -0.22119967832E+03  0.88289379178E+02 -0.15611404847E+04  0.15818902445E+04  0.92156499937E+02 0.  0.
         23    2    4    4    0    0  0.24227247345E+03 -0.14069515965E+03 -0.10223930518E+03  0.31153981264E+03  0.90072748365E+02 0.  0.
          3    1    3    3  502    0  0.49183184164E+01 -0.18731981316E+00 -0.17052729833E+02  0.17748817975E+02  0.00000000000E+00 0. -1.
         -4    1    3    3    0  502 -0.25991113548E+02  0.52593100284E+02  0.75219167772E+02  0.95391275184E+02  0.00000000000E+00 0.  1.
         11    1    5    5    0    0  0.89177141465E+01  0.10972254650E+01 -0.42292164967E+02  0.43236058411E+02  0.00000000000E+00 0. -1.
        -11    1    5    5    0    0 -0.23011739246E+03  0.87192153713E+02 -0.15188483197E+04  0.15386541861E+04  0.00000000000E+00 0.  1.
          4    1    6    6  503    0  0.29205725634E+02 -0.42620912155E+02 -0.48593316099E+02  0.70928322497E+02  0.00000000000E+00 0. -1.
         -4    1    6    6    0  503  0.21306674781E+03 -0.98074247493E+02 -0.53645989085E+02  0.24061149015E+03  0.00000000000E+00 0.  1.
<mgrwt>
<rscale>  0 0.12039991E+04</rscale>
<asrwt>0</asrwt>
<pdfrwt beam="1">  1        1 0.27782951E+00 0.12039991E+04</pdfrwt>
<pdfrwt beam="2">  1       -2 0.30873599E-01 0.12039991E+04</pdfrwt>
<totfact> 0.34095564E+01</totfact>
</mgrwt>
</event>
<event>
12    4  0.4486176E-008  0.1960143E+04  0.7818608E-02  0.8625485E-01
         -2   -1    0    0    0  501 -0.00000000000E+00  0.00000000000E+00  0.65292389957E+03  0.65292389957E+03  0.00000000000E+00 0.  1.
          1   -1    0    0  501    0  0.00000000000E+00 -0.00000000000E+00 -0.14711365475E+04  0.14711365475E+04  0.00000000000E+00 0. -1.
        -24    2    1    2    0    0  0.36206017521E+03  0.53497571326E+02 -0.10605564669E+04  0.11249157712E+04  0.81889634077E+02 0.  0.
        254    2    1    2    0    0 -0.36206017521E+03 -0.53497571326E+02  0.24234381897E+03  0.99914467588E+03  0.89755779543E+03 0.  0.
         23    2    4    4    0    0 -0.26297807838E+02 -0.39479024417E+03 -0.80607687875E+02  0.41387072340E+03  0.90777005650E+02 0.  0.
         23    2    4    4    0    0 -0.33576236737E+03  0.34129267284E+03  0.32295150684E+03  0.58527395248E+03  0.95030878166E+02 0.  0.
          1    1    3    3  502    0  0.23488900933E+03  0.15465626336E+02 -0.77610271291E+03  0.81101630889E+03  0.00000000000E+00 0. -1.
         -2    1    3    3    0  502  0.12717116588E+03  0.38031944991E+02 -0.28445375404E+03  0.31389946234E+03  0.00000000000E+00 0.  1.
         11    1    5    5    0    0 -0.21645981517E+02 -0.24277956052E+03 -0.93910789792E+02  0.26120815447E+03  0.00000000000E+00 0. -1.
        -11    1    5    5    0    0 -0.46518263206E+01 -0.15201068365E+03  0.13303101917E+02  0.15266256893E+03  0.00000000000E+00 0.  1.
          4    1    6    6  503    0 -0.76897718429E+02  0.11836658104E+03  0.13520403545E+03  0.19545853220E+03  0.00000000000E+00 0. -1.
         -4    1    6    6    0  503 -0.25886464894E+03  0.22292609180E+03  0.18774747139E+03  0.38981542028E+03  0.00000000000E+00 0.  1.
<mgrwt>
<rscale>  0 0.19601431E+04</rscale>
<asrwt>0</asrwt>
<pdfrwt beam="1">  1        1 0.22632870E+00 0.19601431E+04</pdfrwt>
<pdfrwt beam="2">  1       -2 0.10044983E+00 0.19601431E+04</pdfrwt>
<totfact> 0.45740722E+00</totfact>
</mgrwt>
</event>
<event>
12    4  0.4486176E-008  0.2794230E+04  0.7818608E-02  0.8305062E-01
         -2   -1    0    0    0  501 -0.00000000000E+00  0.00000000000E+00  0.12844193633E+04  0.12844193633E+04  0.00000000000E+00 0.  1.
          1   -1    0    0  501    0  0.00000000000E+00 -0.00000000000E+00 -0.15196981348E+04  0.15196981348E+04  0.00000000000E+00 0. -1.
        -24    2    1    2    0    0 -0.17673106468E+03 -0.89996772022E+03  0.73779749170E+03  0.11797940593E+04  0.79956969020E+02 0.  0.
        254    2    1    2    0    0  0.17673106468E+03  0.89996772022E+03 -0.97307626318E+03  0.16243234388E+04  0.92215695692E+03 0.  0.
         23    2    4    4    0    0  0.26042598404E+03  0.29958520636E+03 -0.92351938927E+03  0.10095132746E+04  0.93037628001E+02 0.  0.
         23    2    4    4    0    0 -0.83694919362E+02  0.60038251386E+03 -0.49556873913E+02  0.61481016419E+03  0.89842371725E+02 0.  0.
          1    1    3    3  502    0 -0.99576326189E+02 -0.37253288855E+03  0.34807181380E+03  0.51947106305E+03  0.00000000000E+00 0. -1.
         -2    1    3    3    0  502 -0.77154738491E+02 -0.52743483167E+03  0.38972567790E+03  0.66032299623E+03  0.00000000000E+00 0.  1.
         11    1    5    5    0    0  0.21169492907E+03  0.27755058392E+03 -0.73714776224E+03  0.81561994397E+03  0.00000000000E+00 0.  1.
        -11    1    5    5    0    0  0.48731054973E+02  0.22034622438E+02 -0.18637162702E+03  0.19389333063E+03  0.00000000000E+00 0. -1.
          1    1    6    6  503    0 -0.61142448563E+02  0.30308530890E+03 -0.66185098258E+02  0.31619546284E+03  0.00000000000E+00 0. -1.
         -1    1    6    6    0  503 -0.22552470800E+02  0.29729720496E+03  0.16628224346E+02  0.29861470135E+03  0.00000000000E+00 0.  1.
<mgrwt>
<rscale>  0 0.27942296E+04</rscale>
<asrwt>0</asrwt>
<pdfrwt beam="1">  1        1 0.23379971E+00 0.27942296E+04</pdfrwt>
<pdfrwt beam="2">  1       -2 0.19760298E+00 0.27942296E+04</pdfrwt>
<totfact> 0.66513854E-01</totfact>
</mgrwt>
</event>
<event>
12    4  0.4486176E-008  0.1427446E+04  0.7818608E-02  0.8934188E-01
         -2   -1    0    0    0  501 -0.00000000000E+00  0.00000000000E+00  0.24963204332E+03  0.24963204332E+03  0.00000000000E+00 0.  1.
          1   -1    0    0  501    0  0.00000000000E+00 -0.00000000000E+00 -0.20406059637E+04  0.20406059637E+04  0.00000000000E+00 0. -1.
        -24    2    1    2    0    0  0.11124992767E+03  0.28427391313E+03 -0.68333899427E+02  0.32295689880E+03  0.80270994644E+02 0.  0.
        254    2    1    2    0    0 -0.11124992767E+03 -0.28427391313E+03 -0.17226400210E+04  0.19672811083E+04  0.89973224513E+03 0.  0.
         23    2    4    4    0    0  0.31843411999E+03  0.63704309145E+02 -0.35766404559E+03  0.49186633041E+03  0.92468317336E+02 0.  0.
         23    2    4    4    0    0 -0.42968404765E+03 -0.34797822227E+03 -0.13649759754E+04  0.14754147779E+04  0.89286781175E+02 0.  0.
          3    1    3    3  502    0  0.36146181436E+02  0.72979912073E+02 -0.55085601051E+02  0.98321093575E+02  0.00000000000E+00 0. -1.
         -4    1    3    3    0  502  0.75103746229E+02  0.21129400105E+03 -0.13248298376E+02  0.22463580523E+03  0.00000000000E+00 0.  1.
         11    1    5    5    0    0  0.13397285281E+03 -0.16140069510E+02 -0.16826647082E+03  0.21569152124E+03  0.00000000000E+00 0. -1.
        -11    1    5    5    0    0  0.18446126718E+03  0.79844378655E+02 -0.18939757477E+03  0.27617480917E+03  0.00000000000E+00 0.  1.
          3    1    6    6  503    0 -0.28222270932E+03 -0.18105213596E+03 -0.75749006913E+03  0.82838441464E+03  0.00000000000E+00 0. -1.
         -3    1    6    6    0  503 -0.14746133833E+03 -0.16692608631E+03 -0.60748590628E+03  0.64703036322E+03  0.00000000000E+00 0.  1.
<mgrwt>
<rscale>  0 0.14274462E+04</rscale>
<asrwt>0</asrwt>
<pdfrwt beam="1">  1        1 0.31393937E+00 0.14274462E+04</pdfrwt>
<pdfrwt beam="2">  1       -2 0.38404931E-01 0.14274462E+04</pdfrwt>
<totfact> 0.15311892E+01</totfact>
</mgrwt>
</event>
<event>
12    4  0.4486176E-008  0.1578744E+04  0.7818608E-02  0.8833714E-01
         -2   -1    0    0    0  501 -0.00000000000E+00  0.00000000000E+00  0.48482585039E+03  0.48482585039E+03  0.00000000000E+00 0.  1.
          1   -1    0    0  501    0  0.00000000000E+00 -0.00000000000E+00 -0.12852206938E+04  0.12852206938E+04  0.00000000000E+00 0. -1.
        -24    2    1    2    0    0 -0.23877677019E+03  0.25467452488E+03  0.13525460350E+03  0.38301909920E+03  0.80847776611E+02 0.  0.
        254    2    1    2    0    0  0.23877677019E+03 -0.25467452488E+03 -0.93564944694E+03  0.13870274450E+04  0.96256521135E+03 0.  0.
         23    2    4    4    0    0  0.80557759438E+01  0.25459945673E+03  0.25675250555E+02  0.27115770556E+03  0.89339262924E+02 0.  0.
         23    2    4    4    0    0  0.23072099425E+03 -0.50927398161E+03 -0.96132469750E+03  0.11158697395E+04  0.91803790320E+02 0.  0.
          3    1    3    3  502    0 -0.65345089756E+02  0.26938862047E+02  0.13556650216E+02  0.71968505672E+02  0.00000000000E+00 0. -1.
         -4    1    3    3    0  502 -0.17343168043E+03  0.22773566283E+03  0.12169795328E+03  0.31105059353E+03  0.00000000000E+00 0.  1.
         11    1    5    5    0    0  0.19284465436E+02  0.14658660606E+03  0.56492346680E+02  0.15827478926E+03  0.00000000000E+00 0.  1.
        -11    1    5    5    0    0 -0.11228689492E+02  0.10801285067E+03 -0.30817096125E+02  0.11288291630E+03  0.00000000000E+00 0. -1.
          1    1    6    6  503    0  0.12118814799E+03 -0.20529116102E+03 -0.33573107967E+03  0.41176010717E+03  0.00000000000E+00 0. -1.
         -1    1    6    6    0  503  0.10953284626E+03 -0.30398282059E+03 -0.62559361783E+03  0.70410963229E+03  0.00000000000E+00 0.  1.
<mgrwt>
<rscale>  0 0.15787441E+04</rscale>
<asrwt>0</asrwt>
<pdfrwt beam="1">  1        1 0.19772626E+00 0.15787441E+04</pdfrwt>
<pdfrwt beam="2">  1       -2 0.74588592E-01 0.15787441E+04</pdfrwt>
<totfact> 0.12632721E+01</totfact>
</mgrwt>
</event>
<event>
12    4  0.4486176E-008  0.3102739E+04  0.7818608E-02  0.8214987E-01
          1   -1    0    0  501    0  0.00000000000E+00  0.00000000000E+00  0.13145452551E+04  0.13145452551E+04  0.00000000000E+00 0. -1.
         -2   -1    0    0    0  501 -0.00000000000E+00 -0.00000000000E+00 -0.18308596796E+04  0.18308596796E+04  0.00000000000E+00 0.  1.
        -24    2    1    2    0    0  0.10555537017E+04  0.86425300539E+03 -0.64247884583E+03  0.15100352167E+04  0.79375147075E+02 0.  0.
        254    2    1    2    0    0 -0.10555537017E+04 -0.86425300539E+03  0.12616442131E+03  0.16353697180E+04  0.89296684095E+03 0.  0.
         23    2    4    4    0    0 -0.93092639629E+03 -0.78491590117E+03 -0.22602423980E+03  0.12417859116E+04  0.90710341296E+02 0.  0.
         23    2    4    4    0    0 -0.12462730537E+03 -0.79337104220E+02  0.35218866111E+03  0.39358380644E+03  0.95105301282E+02 0.  0.
          1    1    3    3  502    0  0.30870053750E+03  0.20761902660E+03 -0.16911325459E+03  0.40865752769E+03  0.00000000000E+00 0. -1.
         -2    1    3    3    0  502  0.74685316416E+03  0.65663397880E+03 -0.47336559124E+03  0.11013776890E+04  0.00000000000E+00 0.  1.
         11    1    5    5    0    0 -0.45438350120E+03 -0.38483033256E+03 -0.15663617032E+03  0.61570580708E+03  0.00000000000E+00 0. -1.
        -11    1    5    5    0    0 -0.47654289509E+03 -0.40008556861E+03 -0.69388069480E+02  0.62608010451E+03  0.00000000000E+00 0.  1.
          3    1    6    6  503    0 -0.26939246580E+02 -0.64833535088E+02  0.95326330066E+02  0.11839011564E+03  0.00000000000E+00 0. -1.
         -3    1    6    6    0  503 -0.97688058791E+02 -0.14503569132E+02  0.25686233104E+03  0.27519369080E+03  0.00000000000E+00 0.  1.
<mgrwt>
<rscale>  0 0.31027394E+04</rscale>
<asrwt>0</asrwt>
<pdfrwt beam="1">  1        1 0.20223773E+00 0.31027394E+04</pdfrwt>
<pdfrwt beam="2">  1       -2 0.28167072E+00 0.31027394E+04</pdfrwt>
<totfact> 0.26907650E-01</totfact>
</mgrwt>
</event>
<event>
12    4  0.4486176E-008  0.2068411E+04  0.7818608E-02  0.8575288E-01
         -2   -1    0    0    0  501 -0.00000000000E+00  0.00000000000E+00  0.13960078243E+04  0.13960078243E+04  0.00000000000E+00 0.  1.
          1   -1    0    0  501    0  0.00000000000E+00 -0.00000000000E+00 -0.76617111920E+03  0.76617111920E+03  0.00000000000E+00 0. -1.
        -24    2    1    2    0    0 -0.39002273102E+02  0.50809796598E+03 -0.43927073832E+03  0.67757706827E+03  0.80418788627E+02 0.  0.
        254    2    1    2    0    0  0.39002273102E+02 -0.50809796598E+03  0.10691074434E+04  0.14846018752E+04  0.89519119858E+03 0.  0.
         23    2    4    4    0    0  0.32732904477E+03  0.36032740689E+02  0.65026467840E+03  0.73445600490E+03  0.90215349061E+02 0.  0.
         23    2    4    4    0    0 -0.28832677166E+03 -0.54413070667E+03  0.41884276501E+03  0.75014587033E+03  0.89883323083E+02 0.  0.
          3    1    3    3  502    0 -0.19077958339E+02  0.47265931718E+03 -0.41997874171E+03  0.63257643182E+03  0.00000000000E+00 0. -1.
         -4    1    3    3    0  502 -0.19924314763E+02  0.35438648801E+02 -0.19291996612E+02  0.45000636450E+02  0.00000000000E+00 0.  1.
         11    1    5    5    0    0  0.13041331157E+03 -0.19287939656E+02  0.31852543442E+03  0.34472903682E+03  0.00000000000E+00 0. -1.
        -11    1    5    5    0    0  0.19691573320E+03  0.55320680344E+02  0.33173924397E+03  0.38972696808E+03  0.00000000000E+00 0.  1.
          1    1    6    6  503    0 -0.23609117661E+02 -0.18345580791E+02  0.40657745232E+02  0.50467841430E+02  0.00000000000E+00 0. -1.
         -1    1    6    6    0  503 -0.26471765400E+03 -0.52578512588E+03  0.37818501978E+03  0.69967802890E+03  0.00000000000E+00 0.  1.
<mgrwt>
<rscale>  0 0.20684109E+04</rscale>
<asrwt>0</asrwt>
<pdfrwt beam="1">  1        1 0.11787248E+00 0.20684109E+04</pdfrwt>
<pdfrwt beam="2">  1       -2 0.21477043E+00 0.20684109E+04</pdfrwt>
<totfact> 0.20413307E+00</totfact>
</mgrwt>
</event>
<event>
12    4  0.4486176E-008  0.2341576E+04  0.7818608E-02  0.8461706E-01
         -4   -1    0    0    0  501 -0.00000000000E+00  0.00000000000E+00  0.56521522269E+03  0.56521522269E+03  0.00000000000E+00 0.  1.
          3   -1    0    0  501    0  0.00000000000E+00 -0.00000000000E+00 -0.24251723841E+04  0.24251723841E+04  0.00000000000E+00 0. -1.
        -24    2    1    2    0    0  0.35958829209E+03  0.68941766843E+03 -0.15951870409E+04  0.17763781180E+04  0.79354025675E+02 0.  0.
        254    2    1    2    0    0 -0.35958829209E+03 -0.68941766843E+03 -0.26477012044E+03  0.12140094887E+04  0.89393252577E+03 0.  0.
         23    2    4    4    0    0 -0.15042314962E+03 -0.66657707067E+03  0.18045694441E+03  0.71235377661E+03  0.89056606624E+02 0.  0.
         23    2    4    4    0    0 -0.20916514248E+03 -0.22840597764E+02 -0.44522706485E+03  0.50165571209E+03  0.95705613544E+02 0.  0.
          1    1    3    3  502    0  0.20695853932E+03  0.47364568285E+03 -0.10825854282E+04  0.11996513157E+04  0.00000000000E+00 0. -1.
         -2    1    3    3    0  502  0.15262975277E+03  0.21577198558E+03 -0.51260161270E+03  0.57672680234E+03  0.00000000000E+00 0.  1.
         11    1    5    5    0    0 -0.14347708341E+03 -0.65830453419E+03  0.16529663518E+03  0.69373879148E+03  0.00000000000E+00 0.  1.
        -11    1    5    5    0    0 -0.69460662076E+01 -0.82725364781E+01  0.15160309229E+02  0.18614985132E+02  0.00000000000E+00 0. -1.
          3    1    6    6  503    0 -0.64030412760E+02  0.33134944115E+02 -0.10289716048E+03  0.12564093248E+03  0.00000000000E+00 0. -1.
         -3    1    6    6    0  503 -0.14513472972E+03 -0.55975541879E+02 -0.34232990437E+03  0.37601477961E+03  0.00000000000E+00 0.  1.
<mgrwt>
<rscale>  0 0.23415758E+04</rscale>
<asrwt>0</asrwt>
<pdfrwt beam="1">  1        3 0.37310344E+00 0.23415758E+04</pdfrwt>
<pdfrwt beam="2">  1       -4 0.86956189E-01 0.23415758E+04</pdfrwt>
<totfact> 0.36757190E-02</totfact>
</mgrwt>
</event>
<event>
12    4  0.4486176E-008  0.2312665E+04  0.7818608E-02  0.8472944E-01
          1   -1    0    0  501    0  0.00000000000E+00  0.00000000000E+00  0.94713269952E+03  0.94713269952E+03  0.00000000000E+00 0. -1.
         -2   -1    0    0    0  501 -0.00000000000E+00 -0.00000000000E+00 -0.14117402237E+04  0.14117402237E+04  0.00000000000E+00 0.  1.
        -24    2    1    2    0    0 -0.26604937497E+03 -0.73350736112E+03 -0.80329063704E+03  0.11225922345E+04  0.78244224713E+02 0.  0.
        254    2    1    2    0    0  0.26604937497E+03  0.73350736112E+03  0.33868311285E+03  0.12362806887E+04  0.89714456561E+03 0.  0.
         23    2    4    4    0    0  0.49844174179E+02  0.57887331028E+03 -0.20613294803E+03  0.62321793209E+03  0.91274572393E+02 0.  0.
         23    2    4    4    0    0  0.21620520079E+03  0.15463405084E+03  0.54481606089E+03  0.61306275661E+03  0.91460509618E+02 0.  0.
          1    1    3    3  502    0 -0.12528540567E+03 -0.23966457337E+03 -0.29013516836E+03  0.39662823465E+03  0.00000000000E+00 0. -1.
         -2    1    3    3    0  502 -0.14076396930E+03 -0.49384278775E+03 -0.51315546867E+03  0.72596399986E+03  0.00000000000E+00 0.  1.
         11    1    5    5    0    0  0.18856137962E+02  0.39570196165E+03 -0.18173823254E+03  0.43584903528E+03  0.00000000000E+00 0.  1.
        -11    1    5    5    0    0  0.30988036217E+02  0.18317134863E+03 -0.24394715493E+02  0.18736889681E+03  0.00000000000E+00 0. -1.
          3    1    6    6  503    0  0.70680457044E+02  0.14411077356E+02  0.89775269091E+02  0.11516512102E+03  0.00000000000E+00 0. -1.
         -3    1    6    6    0  503  0.14552474374E+03  0.14022297349E+03  0.45504079179E+03  0.49789763560E+03  0.00000000000E+00 0.  1.
<mgrwt>
<rscale>  0 0.23126654E+04</rscale>
<asrwt>0</asrwt>
<pdfrwt beam="1">  1        1 0.14571272E+00 0.23126654E+04</pdfrwt>
<pdfrwt beam="2">  1       -2 0.21719080E+00 0.23126654E+04</pdfrwt>
<totfact> 0.13581829E+00</totfact>
</mgrwt>
</event>
<event>
12    4  0.4486176E-008  0.2104574E+04  0.7818608E-02  0.8559231E-01
         -2   -1    0    0    0  501 -0.00000000000E+00  0.00000000000E+00  0.10920467136E+04  0.10920467136E+04  0.00000000000E+00 0.  1.
          1   -1    0    0  501    0  0.00000000000E+00 -0.00000000000E+00 -0.10139753166E+04  0.10139753166E+04  0.00000000000E+00 0. -1.
        -24    2    1    2    0    0 -0.79476939521E+03 -0.33390893537E+03 -0.72430681095E+02  0.86857602701E+03  0.77617926151E+02 0.  0.
        254    2    1    2    0    0  0.79476939521E+03  0.33390893537E+03  0.15050207816E+03  0.12374460032E+04  0.87491037630E+03 0.  0.
         23    2    4    4    0    0 -0.91117633510E+01 -0.56911983244E+01  0.32962144364E+03  0.34212948524E+03  0.91032272283E+02 0.  0.
         23    2    4    4    0    0  0.80388115856E+03  0.33960013369E+03 -0.17911936548E+03  0.89531651792E+03  0.89189418036E+02 0.  0.
          1    1    3    3  502    0 -0.66845865278E+03 -0.31029868166E+03 -0.65975836159E+02  0.73991557172E+03  0.00000000000E+00 0. -1.
         -2    1    3    3    0  502 -0.12631074243E+03 -0.23610253704E+02 -0.64548449359E+01  0.12866045529E+03  0.00000000000E+00 0.  1.
         11    1    5    5    0    0 -0.32037089621E+02 -0.67435462469E+01  0.31060335161E+03  0.31232401855E+03  0.00000000000E+00 0. -1.
        -11    1    5    5    0    0  0.22925326270E+02  0.10523479225E+01  0.19018092024E+02  0.29805466696E+02  0.00000000000E+00 0.  1.
          4    1    6    6  503    0  0.72879122118E+03  0.27792897695E+03 -0.15600822721E+03  0.79543681538E+03  0.00000000000E+00 0. -1.
         -4    1    6    6    0  503  0.75089937376E+02  0.61671156736E+02 -0.23111138269E+02  0.99879702544E+02  0.00000000000E+00 0.  1.
<mgrwt>
<rscale>  0 0.21045745E+04</rscale>
<asrwt>0</asrwt>
<pdfrwt beam="1">  1        1 0.15599620E+00 0.21045745E+04</pdfrwt>
<pdfrwt beam="2">  1       -2 0.16800719E+00 0.21045745E+04</pdfrwt>
<totfact> 0.26190229E+00</totfact>
</mgrwt>
</event>
<event>
12    4  0.4486176E-008  0.1617681E+04  0.7818608E-02  0.8809759E-01
          1   -1    0    0  501    0  0.00000000000E+00  0.00000000000E+00  0.88775001962E+03  0.88775001962E+03  0.00000000000E+00 0. -1.
         -2   -1    0    0    0  501 -0.00000000000E+00 -0.00000000000E+00 -0.73694540821E+03  0.73694540821E+03  0.00000000000E+00 0.  1.
        -24    2    1    2    0    0  0.52520075860E+03  0.63676157603E+02  0.20760566602E+03  0.57354667884E+03  0.77234644781E+02 0.  0.
        254    2    1    2    0    0 -0.52520075860E+03 -0.63676157603E+02 -0.56801054617E+02  0.10511487490E+04  0.90653011138E+03 0.  0.
         23    2    4    4    0    0 -0.20363545660E+03 -0.35465784572E+03  0.27206083357E+03  0.49960123831E+03  0.91294651745E+02 0.  0.
         23    2    4    4    0    0 -0.32156530200E+03  0.29098168812E+03 -0.32886188819E+03  0.55154751069E+03  0.89330447102E+02 0.  0.
          1    1    3    3  502    0  0.14502590770E+03  0.17218779492E+02  0.95413609605E+02  0.17444987008E+03  0.00000000000E+00 0. -1.
         -2    1    3    3    0  502  0.38017485090E+03  0.46457378112E+02  0.11219205642E+03  0.39909680876E+03  0.00000000000E+00 0.  1.
         11    1    5    5    0    0 -0.10672887199E+03 -0.21612748963E+03  0.20941558028E+03  0.31930710790E+03  0.00000000000E+00 0.  1.
        -11    1    5    5    0    0 -0.96906584618E+02 -0.13853035609E+03  0.62645253291E+02  0.18029413041E+03  0.00000000000E+00 0. -1.
          4    1    6    6  503    0  0.30729697761E+01 -0.22223791903E+01 -0.85961470072E+01  0.93955231829E+01  0.00000000000E+00 0. -1.
         -4    1    6    6    0  503 -0.32463827177E+03  0.29320406731E+03 -0.32026574118E+03  0.54215198751E+03  0.00000000000E+00 0.  1.
<mgrwt>
<rscale>  0 0.16176814E+04</rscale>
<asrwt>0</asrwt>
<pdfrwt beam="1">  1        1 0.13657693E+00 0.16176814E+04</pdfrwt>
<pdfrwt beam="2">  1       -2 0.11337622E+00 0.16176814E+04</pdfrwt>
<totfact> 0.95457939E+00</totfact>
</mgrwt>
</event>
<event>
12    4  0.4486176E-008  0.1398058E+04  0.7818608E-02  0.8955226E-01
         -2   -1    0    0    0  501 -0.00000000000E+00  0.00000000000E+00  0.81332237061E+03  0.81332237061E+03  0.00000000000E+00 0.  1.
          1   -1    0    0  501    0  0.00000000000E+00 -0.00000000000E+00 -0.60079650967E+03  0.60079650967E+03  0.00000000000E+00 0. -1.
        -24    2    1    2    0    0 -0.18104563284E+03 -0.14551102778E+03 -0.27164690637E+03  0.36656508623E+03  0.81406021471E+02 0.  0.
        254    2    1    2    0    0  0.18104563284E+03  0.14551102778E+03  0.48417276731E+03  0.10475537941E+04  0.89944132797E+03 0.  0.
         23    2    4    4    0    0  0.28904960641E+03 -0.31440172352E+03  0.15431060869E+03  0.46378719065E+03  0.94279772677E+02 0.  0.
         23    2    4    4    0    0 -0.10800397357E+03  0.45991275130E+03  0.32986215862E+03  0.58376660341E+03  0.93753967671E+02 0.  0.
          1    1    3    3  502    0 -0.14407644784E+03 -0.12634142299E+03 -0.16791193282E+03  0.25478342797E+03  0.00000000000E+00 0. -1.
         -2    1    3    3    0  502 -0.36969184994E+02 -0.19169604787E+02 -0.10373497354E+03  0.11178165826E+03  0.00000000000E+00 0.  1.
         11    1    5    5    0    0  0.12706920825E+03 -0.16090310322E+03  0.26808432652E+02  0.20677302622E+03  0.00000000000E+00 0. -1.
        -11    1    5    5    0    0  0.16198039815E+03 -0.15349862030E+03  0.12750217604E+03  0.25701416442E+03  0.00000000000E+00 0.  1.
          1    1    6    6  503    0 -0.57939075949E+02  0.24746394430E+03  0.23364417866E+03  0.34523172286E+03  0.00000000000E+00 0. -1.
         -1    1    6    6    0  503 -0.50064897619E+02  0.21244880700E+03  0.96217979957E+02  0.23853488054E+03  0.00000000000E+00 0.  1.
<mgrwt>
<rscale>  0 0.13980576E+04</rscale>
<asrwt>0</asrwt>
<pdfrwt beam="1">  1        1 0.92430232E-01 0.13980576E+04</pdfrwt>
<pdfrwt beam="2">  1       -2 0.12512652E+00 0.13980576E+04</pdfrwt>
<totfact> 0.13946908E+01</totfact>
</mgrwt>
</event>
<event>
12    4  0.4486176E-008  0.3801902E+04  0.7818608E-02  0.8045747E-01
          1   -1    0    0  501    0  0.00000000000E+00  0.00000000000E+00  0.29204610223E+04  0.29204610223E+04  0.00000000000E+00 0. -1.
         -2   -1    0    0    0  501 -0.00000000000E+00 -0.00000000000E+00 -0.12373437704E+04  0.12373437704E+04  0.00000000000E+00 0.  1.
        -24    2    1    2    0    0  0.18109428052E+03  0.16541607926E+04  0.15467259001E+04  0.22731380843E+04  0.75846384814E+02 0.  0.
        254    2    1    2    0    0 -0.18109428052E+03 -0.16541607926E+04  0.13639135177E+03  0.18846667084E+04  0.87425564599E+03 0.  0.
         23    2    4    4    0    0 -0.42306785757E+03 -0.10501149917E+04  0.35941939728E+03  0.11913567926E+04  0.91764895837E+02 0.  0.
         23    2    4    4    0    0  0.24197357705E+03 -0.60404580089E+03 -0.22302804551E+03  0.69330991581E+03  0.86686727386E+02 0.  0.
          1    1    3    3  502    0  0.15723444796E+03  0.13777021704E+04  0.12501842102E+04  0.18670153993E+04  0.00000000000E+00 0. -1.
         -2    1    3    3    0  502  0.23859832565E+02  0.27645862225E+03  0.29654168989E+03  0.40612268500E+03  0.00000000000E+00 0.  1.
         11    1    5    5    0    0 -0.42696059556E+03 -0.10250804612E+04  0.34945482835E+03  0.11641322859E+04  0.00000000000E+00 0.  1.
        -11    1    5    5    0    0  0.38927379879E+01 -0.25034530543E+02  0.99645689386E+01  0.27224506657E+02  0.00000000000E+00 0. -1.
          3    1    6    6  503    0  0.41967652520E+02 -0.61162720719E+02 -0.49932691775E+02  0.89417201766E+02  0.00000000000E+00 0. -1.
         -3    1    6    6    0  503  0.20000592453E+03 -0.54288308018E+03 -0.17309535374E+03  0.60389271404E+03  0.00000000000E+00 0.  1.
<mgrwt>
<rscale>  0 0.38019018E+04</rscale>
<asrwt>0</asrwt>
<pdfrwt beam="1">  1        1 0.44930169E+00 0.38019018E+04</pdfrwt>
<pdfrwt beam="2">  1       -2 0.19036058E+00 0.38019018E+04</pdfrwt>
<totfact> 0.73691244E-02</totfact>
</mgrwt>
</event>
<event>
12    4  0.4486176E-008  0.4074688E+04  0.7818608E-02  0.7989647E-01
         -2   -1    0    0    0  501 -0.00000000000E+00  0.00000000000E+00  0.30489666014E+04  0.30489666014E+04  0.00000000000E+00 0.  1.
          1   -1    0    0  501    0  0.00000000000E+00 -0.00000000000E+00 -0.13613695918E+04  0.13613695918E+04  0.00000000000E+00 0. -1.
        -24    2    1    2    0    0 -0.24517462402E+03 -0.12019488565E+04  0.24226400301E+04  0.27166847506E+04  0.79997929358E+02 0.  0.
        254    2    1    2    0    0  0.24517462402E+03  0.12019488565E+04 -0.73504302053E+03  0.16936514425E+04  0.90740030679E+03 0.  0.
         23    2    4    4    0    0  0.29721244737E+03  0.51576543686E+03  0.97021056639E+02  0.60990260117E+03  0.90657998872E+02 0.  0.
         23    2    4    4    0    0 -0.52037823342E+02  0.68618341968E+03 -0.83206407717E+03  0.10837488414E+04  0.92872504680E+02 0.  0.
          3    1    3    3  502    0 -0.39438731077E+02 -0.14460057803E+03  0.24539395033E+03  0.28754639892E+03  0.00000000000E+00 0. -1.
         -4    1    3    3    0  502 -0.20573589295E+03 -0.10573482785E+04  0.21772460798E+04  0.24291383517E+04  0.00000000000E+00 0.  1.
         11    1    5    5    0    0  0.27559603357E+02  0.11732884430E+03  0.29501660787E+02  0.12408036683E+03  0.00000000000E+00 0. -1.
        -11    1    5    5    0    0  0.26965284401E+03  0.39843659255E+03  0.67519395852E+02  0.48582223434E+03  0.00000000000E+00 0.  1.
          1    1    6    6  503    0  0.14620592468E+02  0.19986642464E+02 -0.33305732412E+02  0.41503004862E+02  0.00000000000E+00 0. -1.
         -1    1    6    6    0  503 -0.66658415810E+02  0.66619677722E+03 -0.79875834476E+03  0.10422458365E+04  0.00000000000E+00 0.  1.
<mgrwt>
<rscale>  0 0.40746879E+04</rscale>
<asrwt>0</asrwt>
<pdfrwt beam="1">  1        1 0.20944148E+00 0.40746879E+04</pdfrwt>
<pdfrwt beam="2">  1       -2 0.46907178E+00 0.40746879E+04</pdfrwt>
<totfact> 0.14531230E-02</totfact>
</mgrwt>
</event>
<event>
12    4  0.4486176E-008  0.1893484E+04  0.7818608E-02  0.8658106E-01
         -2   -1    0    0    0  501 -0.00000000000E+00  0.00000000000E+00  0.41814472953E+03  0.41814472953E+03  0.00000000000E+00 0.  1.
          1   -1    0    0  501    0  0.00000000000E+00 -0.00000000000E+00 -0.21435656575E+04  0.21435656575E+04  0.00000000000E+00 0. -1.
        -24    2    1    2    0    0 -0.28669918022E+03  0.28668936141E+03 -0.14818921811E+04  0.15392744130E+04  0.94731579662E+02 0.  0.
        254    2    1    2    0    0  0.28669918022E+03 -0.28668936141E+03 -0.24352874678E+03  0.10224359740E+04  0.90646669020E+03 0.  0.
         23    2    4    4    0    0  0.29224741661E+03  0.11866238086E+03 -0.45082806846E+03  0.55781141344E+03  0.91751362435E+02 0.  0.
         23    2    4    4    0    0 -0.55482363863E+01 -0.40535174227E+03  0.20729932168E+03  0.46462456052E+03  0.92531916556E+02 0.  0.
          3    1    3    3  502    0 -0.14601991909E+03  0.20470369122E+03 -0.97318479687E+03  0.10051438041E+04  0.00000000000E+00 0. -1.
         -4    1    3    3    0  502 -0.14067926113E+03  0.81985670187E+02 -0.50870738428E+03  0.53413060898E+03  0.00000000000E+00 0.  1.
         11    1    5    5    0    0  0.21500061639E+02  0.41725068642E+02 -0.60010438908E+02  0.76187182528E+02  0.00000000000E+00 0. -1.
        -11    1    5    5    0    0  0.27074735497E+03  0.76937312215E+02 -0.39081762955E+03  0.48162423091E+03  0.00000000000E+00 0.  1.
          4    1    6    6  503    0  0.25002938462E+02 -0.99078659095E+02  0.19399567560E+02  0.10400995549E+03  0.00000000000E+00 0. -1.
         -4    1    6    6    0  503 -0.30551174849E+02 -0.30627308317E+03  0.18789975411E+03  0.36061460502E+03  0.00000000000E+00 0.  1.
<mgrwt>
<rscale>  0 0.18934843E+04</rscale>
<asrwt>0</asrwt>
<pdfrwt beam="1">  1        1 0.32977932E+00 0.18934843E+04</pdfrwt>
<pdfrwt beam="2">  1       -2 0.64329960E-01 0.18934843E+04</pdfrwt>
<totfact> 0.43692156E+00</totfact>
</mgrwt>
</event>
<event>
12    4  0.4486176E-008  0.1646691E+04  0.7818608E-02  0.8792366E-01
          1   -1    0    0  501    0  0.00000000000E+00  0.00000000000E+00  0.94216687735E+03  0.94216687735E+03  0.00000000000E+00 0. -1.
         -2   -1    0    0    0  501 -0.00000000000E+00 -0.00000000000E+00 -0.71950950525E+03  0.71950950525E+03  0.00000000000E+00 0.  1.
        -24    2    1    2    0    0 -0.54402416894E+03 -0.44184003433E+02 -0.12967077610E+03  0.56637874746E+03  0.77819360333E+02 0.  0.
        254    2    1    2    0    0  0.54402416894E+03  0.44184003433E+02  0.35232814821E+03  0.10952976351E+04  0.88183176569E+03 0.  0.
         23    2    4    4    0    0  0.46507882128E+03 -0.11502737029E+03  0.60337083434E+03  0.77568609939E+03  0.90016415917E+02 0.  0.
         23    2    4    4    0    0  0.78945347662E+02  0.15921137372E+03 -0.25104268613E+03  0.31961153576E+03  0.86881954895E+02 0.  0.
          3    1    3    3  502    0 -0.97297870819E+01  0.52707988221E+01  0.64441047884E+01  0.12805333397E+02  0.00000000000E+00 0. -1.
         -4    1    3    3    0  502 -0.53429438186E+03 -0.49454802255E+02 -0.13611488089E+03  0.55357341406E+03  0.00000000000E+00 0.  1.
         11    1    5    5    0    0  0.21740023427E+03 -0.39147339721E+02  0.21071237650E+03  0.30527869510E+03  0.00000000000E+00 0. -1.
        -11    1    5    5    0    0  0.24767858701E+03 -0.75880030571E+02  0.39265845784E+03  0.47040740429E+03  0.00000000000E+00 0.  1.
          2    1    6    6  503    0  0.96692311841E+02  0.12943421858E+03 -0.18992213437E+03  0.24934521698E+03  0.00000000000E+00 0.  1.
         -2    1    6    6    0  503 -0.17746964179E+02  0.29777155148E+02 -0.61120551764E+02  0.70266318775E+02  0.00000000000E+00 0. -1.
<mgrwt>
<rscale>  0 0.16466913E+04</rscale>
<asrwt>0</asrwt>
<pdfrwt beam="1">  1        1 0.14494875E+00 0.16466913E+04</pdfrwt>
<pdfrwt beam="2">  1       -2 0.11069377E+00 0.16466913E+04</pdfrwt>
<totfact> 0.91159791E+00</totfact>
</mgrwt>
</event>
<event>
12    4  0.4486176E-008  0.2324552E+04  0.7818608E-02  0.8468303E-01
          3   -1    0    0  501    0  0.00000000000E+00  0.00000000000E+00  0.18963343735E+04  0.18963343735E+04  0.00000000000E+00 0. -1.
         -4   -1    0    0    0  501 -0.00000000000E+00 -0.00000000000E+00 -0.71236680777E+03  0.71236680777E+03  0.00000000000E+00 0.  1.
        -24    2    1    2    0    0 -0.91003914131E+03  0.27733469105E+03  0.21675651061E+03  0.97918064004E+03  0.82009580900E+02 0.  0.
        254    2    1    2    0    0  0.91003914131E+03 -0.27733469105E+03  0.96721105508E+03  0.16295205412E+04  0.90263735773E+03 0.  0.
         23    2    4    4    0    0  0.34877664481E+02  0.29212482864E+02 -0.14605451529E+03  0.17802698738E+03  0.91059684630E+02 0.  0.
         23    2    4    4    0    0  0.87516147683E+03 -0.30654717391E+03  0.11132655704E+04  0.14514935538E+04  0.87146579145E+02 0.  0.
          3    1    3    3  502    0 -0.55229607243E+03  0.18489452653E+03  0.17009271739E+03  0.60675239601E+03  0.00000000000E+00 0. -1.
         -4    1    3    3    0  502 -0.35774306888E+03  0.92440164522E+02  0.46663793221E+02  0.37242824402E+03  0.00000000000E+00 0.  1.
         11    1    5    5    0    0 -0.30873180355E+02  0.15816472992E+02 -0.49253544302E+02  0.60243055280E+02  0.00000000000E+00 0. -1.
        -11    1    5    5    0    0  0.65750844836E+02  0.13396009871E+02 -0.96800970987E+02  0.11778393210E+03  0.00000000000E+00 0.  1.
          3    1    6    6  503    0  0.63876427384E+03 -0.25549201229E+03  0.78582929033E+03  0.10444250281E+04  0.00000000000E+00 0. -1.
         -3    1    6    6    0  503  0.23639720299E+03 -0.51055161625E+02  0.32743628005E+03  0.40706852568E+03  0.00000000000E+00 0.  1.
<mgrwt>
<rscale>  0 0.23245521E+04</rscale>
<asrwt>0</asrwt>
<pdfrwt beam="1">  1        3 0.29174375E+00 0.23245521E+04</pdfrwt>
<pdfrwt beam="2">  1       -4 0.10959489E+00 0.23245521E+04</pdfrwt>
<totfact> 0.58887916E-02</totfact>
</mgrwt>
</event>
<event>
12    4  0.4486176E-008  0.2602591E+04  0.7818608E-02  0.8367322E-01
          1   -1    0    0  501    0  0.00000000000E+00  0.00000000000E+00  0.17114356448E+04  0.17114356448E+04  0.00000000000E+00 0. -1.
         -2   -1    0    0    0  501 -0.00000000000E+00 -0.00000000000E+00 -0.98944421153E+03  0.98944421153E+03  0.00000000000E+00 0.  1.
        -24    2    1    2    0    0 -0.33335934734E+03 -0.80517398985E+03  0.11027992258E+04  0.14077555862E+04  0.78587845348E+02 0.  0.
        254    2    1    2    0    0  0.33335934734E+03  0.80517398985E+03 -0.38080779263E+03  0.12931242701E+04  0.87619757743E+03 0.  0.
         23    2    4    4    0    0  0.28369711474E+01  0.24270045046E+03  0.26500441085E+03  0.37042294774E+03  0.89856916184E+02 0.  0.
         23    2    4    4    0    0  0.33052237619E+03  0.56247353939E+03 -0.64581220347E+03  0.92270132239E+03  0.93181567454E+02 0.  0.
          3    1    3    3  502    0 -0.25036145314E+03 -0.55133119987E+03  0.71594726925E+03  0.93767128649E+03  0.00000000000E+00 0. -1.
         -4    1    3    3    0  502 -0.82997894201E+02 -0.25384278998E+03  0.38685195660E+03  0.47008429966E+03  0.00000000000E+00 0.  1.
         11    1    5    5    0    0 -0.29640479982E+02  0.18219705368E+03  0.22469962734E+03  0.29079932419E+03  0.00000000000E+00 0. -1.
        -11    1    5    5    0    0  0.32477451129E+02  0.60503396782E+02  0.40304783509E+02  0.79623623553E+02  0.00000000000E+00 0.  1.
          3    1    6    6  503    0  0.22203248961E+03  0.31372288782E+03 -0.33259351749E+03  0.50827052310E+03  0.00000000000E+00 0. -1.
         -3    1    6    6    0  503  0.10848988659E+03  0.24875065157E+03 -0.31321868599E+03  0.41443079929E+03  0.00000000000E+00 0.  1.
<mgrwt>
<rscale>  0 0.26025911E+04</rscale>
<asrwt>0</asrwt>
<pdfrwt beam="1">  1        1 0.26329779E+00 0.26025911E+04</pdfrwt>
<pdfrwt beam="2">  1       -2 0.15222219E+00 0.26025911E+04</pdfrwt>
<totfact> 0.10433584E+00</totfact>
</mgrwt>
</event>
<event>
12    4  0.4486176E-008  0.1387488E+04  0.7818608E-02  0.8962925E-01
          1   -1    0    0  501    0  0.00000000000E+00  0.00000000000E+00  0.47466339873E+03  0.47466339873E+03  0.00000000000E+00 0. -1.
         -2   -1    0    0    0  501 -0.00000000000E+00 -0.00000000000E+00 -0.10139414770E+04  0.10139414770E+04  0.00000000000E+00 0.  1.
        -24    2    1    2    0    0 -0.74348981079E+02  0.72352004150E+02 -0.56604299457E+03  0.58098829250E+03  0.79875783764E+02 0.  0.
        254    2    1    2    0    0  0.74348981079E+02 -0.72352004150E+02  0.26764916268E+02  0.90761658325E+03  0.90127072401E+03 0.  0.
         23    2    4    4    0    0  0.16766891164E+02  0.10471039170E+02  0.45204483629E+03  0.46142149400E+03  0.90412885232E+02 0.  0.
         23    2    4    4    0    0  0.57582089916E+02 -0.82823043320E+02 -0.42527992002E+03  0.44619508925E+03  0.89731230424E+02 0.  0.
          3    1    3    3  502    0  0.79933039534E+01  0.16883292168E+02 -0.26713910759E+02  0.32597108622E+02  0.00000000000E+00 0. -1.
         -4    1    3    3    0  502 -0.82342285033E+02  0.55468711982E+02 -0.53932908381E+03  0.54839118388E+03  0.00000000000E+00 0.  1.
         11    1    5    5    0    0  0.27322128743E+02 -0.27274461791E+02  0.34976810704E+03  0.35189220464E+03  0.00000000000E+00 0. -1.
        -11    1    5    5    0    0 -0.10555237580E+02  0.37745500961E+02  0.10227672925E+03  0.10952928936E+03  0.00000000000E+00 0.  1.
          2    1    6    6  503    0 -0.22245899845E+02 -0.34351619272E+02 -0.10966694654E+03  0.11705448719E+03  0.00000000000E+00 0.  1.
         -2    1    6    6    0  503  0.79827989761E+02 -0.48471424048E+02 -0.31561297347E+03  0.32914060206E+03  0.00000000000E+00 0. -1.
<mgrwt>
<rscale>  0 0.13874882E+04</rscale>
<asrwt>0</asrwt>
<pdfrwt beam="1">  1        1 0.73025139E-01 0.13874882E+04</pdfrwt>
<pdfrwt beam="2">  1       -2 0.15599099E+00 0.13874882E+04</pdfrwt>
<totfact> 0.10953549E+01</totfact>
</mgrwt>
</event>
<event>
12    4  0.4486176E-008  0.1765834E+04  0.7818608E-02  0.8724683E-01
         -2   -1    0    0    0  501 -0.00000000000E+00  0.00000000000E+00  0.61151196002E+03  0.61151196002E+03  0.00000000000E+00 0.  1.
          1   -1    0    0  501    0  0.00000000000E+00 -0.00000000000E+00 -0.12747787918E+04  0.12747787918E+04  0.00000000000E+00 0. -1.
        -24    2    1    2    0    0  0.40420063165E+02 -0.41822545753E+03 -0.77662097340E+03  0.88628526418E+03  0.76256923237E+02 0.  0.
        254    2    1    2    0    0 -0.40420063165E+02  0.41822545753E+03  0.11335414164E+03  0.10000054876E+04  0.90034187897E+03 0.  0.
         23    2    4    4    0    0 -0.14729488644E+03 -0.24082611985E+03 -0.63284646063E+02  0.30321749031E+03  0.90790398322E+02 0.  0.
         23    2    4    4    0    0  0.10687482328E+03  0.65905157738E+03  0.17663878770E+03  0.69678799732E+03  0.92417760124E+02 0.  0.
          3    1    3    3  502    0  0.74878692836E+01 -0.16825867957E+03 -0.23790716311E+03  0.29149077120E+03  0.00000000000E+00 0. -1.
         -4    1    3    3    0  502  0.32932193881E+02 -0.24996677796E+03 -0.53871381029E+03  0.59479449297E+03  0.00000000000E+00 0.  1.
         11    1    5    5    0    0 -0.14108894995E+03 -0.23972565439E+03 -0.76573322563E+02  0.28850988700E+03  0.00000000000E+00 0. -1.
        -11    1    5    5    0    0 -0.62059364939E+01 -0.11004654672E+01  0.13288676501E+02  0.14707603311E+02  0.00000000000E+00 0.  1.
          3    1    6    6  503    0  0.10505006804E+03  0.65199432127E+03  0.18487226763E+03  0.68579141662E+03  0.00000000000E+00 0. -1.
         -3    1    6    6    0  503  0.18247552359E+01  0.70572561117E+01 -0.82334799257E+01  0.10996580704E+02  0.00000000000E+00 0.  1.
<mgrwt>
<rscale>  0 0.17658341E+04</rscale>
<asrwt>0</asrwt>
<pdfrwt beam="1">  1        1 0.19611981E+00 0.17658341E+04</pdfrwt>
<pdfrwt beam="2">  1       -2 0.94078764E-01 0.17658341E+04</pdfrwt>
<totfact> 0.74649748E+00</totfact>
</mgrwt>
</event>
<event>
12    4  0.4486176E-008  0.1579673E+04  0.7818608E-02  0.8833134E-01
         -2   -1    0    0    0  501 -0.00000000000E+00  0.00000000000E+00  0.87898088562E+03  0.87898088562E+03  0.00000000000E+00 0.  1.
          1   -1    0    0  501    0  0.00000000000E+00 -0.00000000000E+00 -0.70973333238E+03  0.70973333238E+03  0.00000000000E+00 0. -1.
        -24    2    1    2    0    0  0.12401369948E+03  0.98691982046E+02 -0.44671340053E+03  0.48016306761E+03  0.76708567348E+02 0.  0.
        254    2    1    2    0    0 -0.12401369948E+03 -0.98691982046E+02  0.61596095377E+03  0.11085511504E+04  0.90794176656E+03 0.  0.
         23    2    4    4    0    0 -0.31621193642E+03  0.31417165143E+03  0.27685796940E+03  0.53358608474E+03  0.96798550150E+02 0.  0.
         23    2    4    4    0    0  0.19219823694E+03 -0.41286363348E+03  0.33910298437E+03  0.57496506565E+03  0.90539773441E+02 0.  0.
          3    1    3    3  502    0  0.91572281954E+02  0.26553235166E+02 -0.27629216782E+03  0.29228054865E+03  0.00000000000E+00 0. -1.
         -4    1    3    3    0  502  0.32441417524E+02  0.72138746881E+02 -0.17042123272E+03  0.18788251897E+03  0.00000000000E+00 0.  1.
         11    1    5    5    0    0 -0.22474163714E+03  0.21342323383E+03  0.13832542546E+03  0.33939976949E+03  0.00000000000E+00 0.  1.
        -11    1    5    5    0    0 -0.91470299277E+02  0.10074841760E+03  0.13853254394E+03  0.19418631525E+03  0.00000000000E+00 0. -1.
          2    1    6    6  503    0  0.91152071960E+02 -0.26036818910E+03  0.15976595883E+03  0.31878747736E+03  0.00000000000E+00 0. -1.
         -2    1    6    6    0  503  0.10104616498E+03 -0.15249544438E+03  0.17933702554E+03  0.25617758829E+03  0.00000000000E+00 0.  1.
<mgrwt>
<rscale>  0 0.15796734E+04</rscale>
<asrwt>0</asrwt>
<pdfrwt beam="1">  1        1 0.10918974E+00 0.15796734E+04</pdfrwt>
<pdfrwt beam="2">  1       -2 0.13522783E+00 0.15796734E+04</pdfrwt>
<totfact> 0.88153848E+00</totfact>
</mgrwt>
</event>
<event>
12    4  0.4486176E-008  0.1770448E+04  0.7818608E-02  0.8722175E-01
          1   -1    0    0  501    0  0.00000000000E+00  0.00000000000E+00  0.28740509442E+04  0.28740509442E+04  0.00000000000E+00 0. -1.
         -2   -1    0    0    0  501 -0.00000000000E+00 -0.00000000000E+00 -0.27265394680E+03  0.27265394680E+03  0.00000000000E+00 0.  1.
        -24    2    1    2    0    0 -0.83298826697E+02 -0.46689475262E+03  0.15723306699E+03  0.50582394721E+03  0.78779589178E+02 0.  0.
        254    2    1    2    0    0  0.83298826697E+02  0.46689475262E+03  0.24441639304E+04  0.26408809438E+04  0.88055972881E+03 0.  0.
         23    2    4    4    0    0 -0.24718129010E+03 -0.14219757968E+03  0.66523691121E+03  0.72940623549E+03  0.90413309296E+02 0.  0.
         23    2    4    4    0    0  0.33048011680E+03  0.60909233230E+03  0.17789270192E+04  0.19114747083E+04  0.94570840922E+02 0.  0.
          1    1    3    3  502    0  0.11430510375E+01 -0.16400568748E+03  0.30583910384E+02  0.16683688940E+03  0.00000000000E+00 0. -1.
         -2    1    3    3    0  502 -0.84441877735E+02 -0.30288906514E+03  0.12664915661E+03  0.33898705782E+03  0.00000000000E+00 0.  1.
         11    1    5    5    0    0 -0.24527406994E+03 -0.13491521073E+03  0.58191512048E+03  0.64574506650E+03  0.00000000000E+00 0.  1.
        -11    1    5    5    0    0 -0.19072201608E+01 -0.72823689538E+01  0.83321790732E+02  0.83661168992E+02  0.00000000000E+00 0. -1.
          1    1    6    6  503    0  0.47719986432E+02  0.14616387552E+03  0.32164022628E+03  0.35650176827E+03  0.00000000000E+00 0. -1.
         -1    1    6    6    0  503  0.28276013036E+03  0.46292845677E+03  0.14572867930E+04  0.15549729401E+04  0.00000000000E+00 0.  1.
<mgrwt>
<rscale>  0 0.17704478E+04</rscale>
<asrwt>0</asrwt>
<pdfrwt beam="1">  1        1 0.44216166E+00 0.17704478E+04</pdfrwt>
<pdfrwt beam="2">  1       -2 0.41946763E-01 0.17704478E+04</pdfrwt>
<totfact> 0.33096387E+00</totfact>
</mgrwt>
</event>
<event>
12    4  0.4486176E-008  0.1829517E+04  0.7818608E-02  0.8690758E-01
          1   -1    0    0  501    0  0.00000000000E+00  0.00000000000E+00  0.11563278756E+04  0.11563278756E+04  0.00000000000E+00 0. -1.
         -2   -1    0    0    0  501 -0.00000000000E+00 -0.00000000000E+00 -0.72365596893E+03  0.72365596893E+03  0.00000000000E+00 0.  1.
        -24    2    1    2    0    0 -0.17221834358E+03  0.60918402132E+03  0.43463287039E+03  0.77195669345E+03  0.79038439062E+02 0.  0.
        254    2    1    2    0    0  0.17221834358E+03 -0.60918402132E+03 -0.19609637397E+01  0.11080271511E+04  0.90937120716E+03 0.  0.
         23    2    4    4    0    0  0.39326143313E+03 -0.10366198665E+03  0.25943000095E+03  0.49159851085E+03  0.94682671108E+02 0.  0.
         23    2    4    4    0    0 -0.22104308955E+03 -0.50552203467E+03 -0.26139096469E+03  0.61642864021E+03  0.85126124519E+02 0.  0.
          1    1    3    3  502    0 -0.16049172820E+03  0.44105195106E+03  0.32546039954E+03  0.57114699511E+03  0.00000000000E+00 0. -1.
         -2    1    3    3    0  502 -0.11726615381E+02  0.16813207026E+03  0.10917247085E+03  0.20080969835E+03  0.00000000000E+00 0.  1.
         11    1    5    5    0    0  0.37344247792E+03 -0.11199727316E+03  0.22258622910E+03  0.44894019969E+03  0.00000000000E+00 0. -1.
        -11    1    5    5    0    0  0.19818955213E+02  0.83352865072E+01  0.36843771852E+02  0.42658311162E+02  0.00000000000E+00 0.  1.
          1    1    6    6  503    0 -0.92573572045E+02 -0.12059951575E+03 -0.82179352413E+02  0.17282232322E+03  0.00000000000E+00 0. -1.
         -1    1    6    6    0  503 -0.12846951751E+03 -0.38492251891E+03 -0.17921161228E+03  0.44360631699E+03  0.00000000000E+00 0.  1.
<mgrwt>
<rscale>  0 0.18295175E+04</rscale>
<asrwt>0</asrwt>
<pdfrwt beam="1">  1        1 0.17789660E+00 0.18295175E+04</pdfrwt>
<pdfrwt beam="2">  1       -2 0.11133169E+00 0.18295175E+04</pdfrwt>
<totfact> 0.60617487E+00</totfact>
</mgrwt>
</event>
<event>
12    4  0.4486176E-008  0.1668113E+04  0.7818608E-02  0.8779763E-01
         -2   -1    0    0    0  501 -0.00000000000E+00  0.00000000000E+00  0.50632580276E+03  0.50632580276E+03  0.00000000000E+00 0.  1.
          1   -1    0    0  501    0  0.00000000000E+00 -0.00000000000E+00 -0.13739182696E+04  0.13739182696E+04  0.00000000000E+00 0. -1.
        -24    2    1    2    0    0 -0.58339308055E+03  0.73293647062E+02 -0.35986862550E+03  0.69408323481E+03  0.80787771897E+02 0.  0.
        254    2    1    2    0    0  0.58339308055E+03 -0.73293647062E+02 -0.50772384137E+03  0.11861608376E+04  0.89636744048E+03 0.  0.
         23    2    4    4    0    0  0.49986079132E+03  0.10434561573E+03 -0.71752708058E+03  0.88535725837E+03  0.90904044748E+02 0.  0.
         23    2    4    4    0    0  0.83532289231E+02 -0.17763926279E+03  0.20980323921E+03  0.30080357921E+03  0.89062018005E+02 0.  0.
          1    1    3    3  502    0 -0.29331835702E+03  0.43442881711E+02 -0.22802412463E+03  0.37405607060E+03  0.00000000000E+00 0. -1.
         -2    1    3    3    0  502 -0.29007472353E+03  0.29850765351E+02 -0.13184450086E+03  0.32002716421E+03  0.00000000000E+00 0.  1.
         11    1    5    5    0    0  0.48928928263E+03  0.94366497130E+02 -0.71348182755E+03  0.87026740495E+03  0.00000000000E+00 0. -1.
        -11    1    5    5    0    0  0.10571508697E+02  0.99791185968E+01 -0.40452530332E+01  0.15089853419E+02  0.00000000000E+00 0.  1.
          1    1    6    6  503    0  0.10014397168E+03 -0.13950408813E+03  0.15035154993E+03  0.22824503113E+03  0.00000000000E+00 0. -1.
         -1    1    6    6    0  503 -0.16611682454E+02 -0.38135174657E+02  0.59451689281E+02  0.72558548072E+02  0.00000000000E+00 0.  1.
<mgrwt>
<rscale>  0 0.16681130E+04</rscale>
<asrwt>0</asrwt>
<pdfrwt beam="1">  1        1 0.21137204E+00 0.16681130E+04</pdfrwt>
<pdfrwt beam="2">  1       -2 0.77896279E-01 0.16681130E+04</pdfrwt>
<totfact> 0.98461682E+00</totfact>
</mgrwt>
</event>
<event>
12    4  0.4486176E-008  0.2078224E+04  0.7818608E-02  0.8570897E-01
         -2   -1    0    0    0  501 -0.00000000000E+00  0.00000000000E+00  0.12568799582E+04  0.12568799582E+04  0.00000000000E+00 0.  1.
          1   -1    0    0  501    0  0.00000000000E+00 -0.00000000000E+00 -0.85907467705E+03  0.85907467705E+03  0.00000000000E+00 0. -1.
        -24    2    1    2    0    0  0.67392587024E+03 -0.28048180081E+03  0.58749696213E+03  0.94032193417E+03  0.78781598210E+02 0.  0.
        254    2    1    2    0    0 -0.67392587024E+03  0.28048180081E+03 -0.18969168101E+03  0.11756327011E+04  0.90182215254E+03 0.  0.
         23    2    4    4    0    0 -0.44452845992E+03  0.43029912822E+02 -0.52561025068E+03  0.69612846018E+03  0.94189024712E+02 0.  0.
         23    2    4    4    0    0 -0.22939741032E+03  0.23745188798E+03  0.33591856967E+03  0.47950424088E+03  0.89869130448E+02 0.  0.
          1    1    3    3  502    0  0.13095152775E+02  0.45359245292E+01  0.17137056886E+02  0.22039427312E+02  0.00000000000E+00 0. -1.
         -2    1    3    3    0  502  0.66083071746E+03 -0.28501772533E+03  0.57035990525E+03  0.91828250686E+03  0.00000000000E+00 0.  1.
         11    1    5    5    0    0 -0.23084928786E+03  0.30060522525E+02 -0.34416537568E+03  0.41550551686E+03  0.00000000000E+00 0.  1.
        -11    1    5    5    0    0 -0.21367917205E+03  0.12969390298E+02 -0.18144487500E+03  0.28062294332E+03  0.00000000000E+00 0. -1.
          2    1    6    6  503    0 -0.86907704479E+02  0.99457830965E+02  0.19761988489E+03  0.23769398003E+03  0.00000000000E+00 0. -1.
         -2    1    6    6    0  503 -0.14248970584E+03  0.13799405702E+03  0.13829868479E+03  0.24181026086E+03  0.00000000000E+00 0.  1.
<mgrwt>
<rscale>  0 0.20782240E+04</rscale>
<asrwt>0</asrwt>
<pdfrwt beam="1">  1        1 0.13216534E+00 0.20782240E+04</pdfrwt>
<pdfrwt beam="2">  1       -2 0.19336615E+00 0.20782240E+04</pdfrwt>
<totfact> 0.23376035E+00</totfact>
</mgrwt>
</event>
<event>
12    4  0.4486176E-008  0.2191996E+04  0.7818608E-02  0.8521767E-01
          1   -1    0    0  501    0  0.00000000000E+00  0.00000000000E+00  0.19691912180E+04  0.19691912180E+04  0.00000000000E+00 0. -1.
         -2   -1    0    0    0  501 -0.00000000000E+00 -0.00000000000E+00 -0.61000274296E+03  0.61000274296E+03  0.00000000000E+00 0.  1.
        -24    2    1    2    0    0 -0.54908029377E+03 -0.59476412375E+02  0.14297809400E+04  0.15350324135E+04  0.83811464100E+02 0.  0.
        254    2    1    2    0    0  0.54908029377E+03  0.59476412375E+02 -0.70592464980E+02  0.10441615474E+04  0.88332521099E+03 0.  0.
         23    2    4    4    0    0 -0.12002941222E+03  0.34119285344E+02 -0.29408628783E+03  0.33274533825E+03  0.93067341261E+02 0.  0.
         23    2    4    4    0    0  0.66910970598E+03  0.25357127031E+02  0.22349382285E+03  0.71141620917E+03  0.88389769124E+02 0.  0.
          3    1    3    3  502    0 -0.39405059857E+03 -0.14350479680E+02  0.94110864571E+03  0.10203760550E+04  0.00000000000E+00 0. -1.
         -4    1    3    3    0  502 -0.15502969520E+03 -0.45125932694E+02  0.48867229430E+03  0.51465635857E+03  0.00000000000E+00 0.  1.
         11    1    5    5    0    0 -0.92171291075E+02  0.31252930033E+02 -0.28811660749E+03  0.30411095351E+03  0.00000000000E+00 0.  1.
        -11    1    5    5    0    0 -0.27858121141E+02  0.28663553114E+01 -0.59696803436E+01  0.28634384744E+02  0.00000000000E+00 0. -1.
          2    1    6    6  503    0  0.25834427976E+03  0.78320074642E+01  0.41403178741E+02  0.26175815256E+03  0.00000000000E+00 0. -1.
         -2    1    6    6    0  503  0.41076542623E+03  0.17525119566E+02  0.18209064411E+03  0.44965805661E+03  0.00000000000E+00 0.  1.
<mgrwt>
<rscale>  0 0.21919964E+04</rscale>
<asrwt>0</asrwt>
<pdfrwt beam="1">  1        1 0.30295249E+00 0.21919964E+04</pdfrwt>
<pdfrwt beam="2">  1       -2 0.93846577E-01 0.21919964E+04</pdfrwt>
<totfact> 0.24031082E+00</totfact>
</mgrwt>
</event>
<event>
12    4  0.4486176E-008  0.1921847E+04  0.7818608E-02  0.8644058E-01
          1   -1    0    0  501    0  0.00000000000E+00  0.00000000000E+00  0.87691765148E+03  0.87691765148E+03  0.00000000000E+00 0. -1.
         -2   -1    0    0    0  501 -0.00000000000E+00 -0.00000000000E+00 -0.10529765910E+04  0.10529765910E+04  0.00000000000E+00 0.  1.
        -24    2    1    2    0    0  0.70683482548E+03 -0.20417897144E+03  0.28337385347E+02  0.74081325929E+03  0.81833702411E+02 0.  0.
        254    2    1    2    0    0 -0.70683482548E+03  0.20417897144E+03 -0.20439632487E+03  0.11890809832E+04  0.91149942628E+03 0.  0.
         23    2    4    4    0    0 -0.58820527299E+03  0.25685481306E+03  0.25938840416E+03  0.69887934775E+03  0.95865323937E+02 0.  0.
         23    2    4    4    0    0 -0.11862955249E+03 -0.52675841623E+02 -0.46378472904E+03  0.49020163545E+03  0.91398323268E+02 0.  0.
          3    1    3    3  502    0  0.22468105894E+03 -0.48926520697E+02  0.43632359067E+02  0.23404949355E+03  0.00000000000E+00 0. -1.
         -4    1    3    3    0  502  0.48215376654E+03 -0.15525245074E+03 -0.15294973719E+02  0.50676376574E+03  0.00000000000E+00 0.  1.
         11    1    5    5    0    0 -0.53935574497E+03  0.24566511491E+03  0.21069948402E+03  0.62900734565E+03  0.00000000000E+00 0.  1.
        -11    1    5    5    0    0 -0.48849528019E+02  0.11189698146E+02  0.48688920148E+02  0.69872002100E+02  0.00000000000E+00 0. -1.
          3    1    6    6  503    0 -0.85853640067E+02 -0.89270356307E+01 -0.16254178670E+03  0.18403904994E+03  0.00000000000E+00 0. -1.
         -3    1    6    6    0  503 -0.32775912418E+02 -0.43748805992E+02 -0.30124294233E+03  0.30616258551E+03  0.00000000000E+00 0.  1.
<mgrwt>
<rscale>  0 0.19218468E+04</rscale>
<asrwt>0</asrwt>
<pdfrwt beam="1">  1        1 0.13491041E+00 0.19218468E+04</pdfrwt>
<pdfrwt beam="2">  1       -2 0.16199640E+00 0.19218468E+04</pdfrwt>
<totfact> 0.37878045E+00</totfact>
</mgrwt>
</event>
<event>
12    4  0.4486176E-008  0.1176936E+04  0.7818608E-02  0.9133287E-01
         -2   -1    0    0    0  501 -0.00000000000E+00  0.00000000000E+00  0.30184870880E+03  0.30184870880E+03  0.00000000000E+00 0.  1.
          1   -1    0    0  501    0  0.00000000000E+00 -0.00000000000E+00 -0.11472457171E+04  0.11472457171E+04  0.00000000000E+00 0. -1.
        -24    2    1    2    0    0 -0.18524470550E+03 -0.17780365066E+02  0.10302868479E+02  0.20263890457E+03  0.79527569116E+02 0.  0.
        254    2    1    2    0    0  0.18524470550E+03  0.17780365066E+02 -0.85569987681E+03  0.12464555214E+04  0.88701597801E+03 0.  0.
         23    2    4    4    0    0  0.24525333196E+03 -0.38557062459E+03 -0.58670390239E+03  0.74951698462E+03  0.93489773603E+02 0.  0.
         23    2    4    4    0    0 -0.60008626461E+02  0.40335098966E+03 -0.26899597442E+03  0.49693853674E+03  0.91082484242E+02 0.  0.
          3    1    3    3  502    0 -0.16889624978E+02  0.22465628473E+02 -0.61133779013E+01  0.28763471348E+02  0.00000000000E+00 0. -1.
         -4    1    3    3    0  502 -0.16835508053E+03 -0.40245993539E+02  0.16416246381E+02  0.17387543323E+03  0.00000000000E+00 0.  1.
         11    1    5    5    0    0  0.13721112742E+03 -0.16888808975E+03 -0.34136080213E+03  0.40481758555E+03  0.00000000000E+00 0. -1.
        -11    1    5    5    0    0  0.10804220455E+03 -0.21668253484E+03 -0.24534310026E+03  0.34469939907E+03  0.00000000000E+00 0.  1.
          1    1    6    6  503    0 -0.36233640763E+02  0.19318094948E+03 -0.76389709355E+02  0.21087233972E+03  0.00000000000E+00 0. -1.
         -1    1    6    6    0  503 -0.23774985698E+02  0.21017004017E+03 -0.19260626507E+03  0.28606619702E+03  0.00000000000E+00 0.  1.
<mgrwt>
<rscale>  0 0.11769361E+04</rscale>
<asrwt>0</asrwt>
<pdfrwt beam="1">  1        1 0.17649934E+00 0.11769361E+04</pdfrwt>
<pdfrwt beam="2">  1       -2 0.46438263E-01 0.11769361E+04</pdfrwt>
<totfact> 0.44658878E+01</totfact>
</mgrwt>
</event>
<event>
12    4  0.4486176E-008  0.1417821E+04  0.7818608E-02  0.8941019E-01
         -2   -1    0    0    0  501 -0.00000000000E+00  0.00000000000E+00  0.24708023813E+03  0.24708023813E+03  0.00000000000E+00 0.  1.
          1   -1    0    0  501    0  0.00000000000E+00 -0.00000000000E+00 -0.20339724759E+04  0.20339724759E+04  0.00000000000E+00 0. -1.
        -24    2    1    2    0    0  0.14849658328E+02 -0.30496550341E+03 -0.99242593270E+03  0.10413414065E+04  0.79108926651E+02 0.  0.
        254    2    1    2    0    0 -0.14849658328E+02  0.30496550341E+03 -0.79446630509E+03  0.12397113076E+04  0.90137835876E+03 0.  0.
         23    2    4    4    0    0 -0.24923313461E+03  0.16210303177E+03 -0.88342286508E+03  0.93660030142E+03  0.91594856682E+02 0.  0.
         23    2    4    4    0    0  0.23438347629E+03  0.14286247163E+03  0.88956559994E+02  0.30311100618E+03  0.92831636551E+02 0.  0.
          1    1    3    3  502    0  0.16163327789E+02 -0.30964279769E+03 -0.98292490608E+03  0.10306703092E+04  0.00000000000E+00 0. -1.
         -2    1    3    3    0  502 -0.13136694610E+01  0.46772942781E+01 -0.95010266149E+01  0.10671097223E+02  0.00000000000E+00 0.  1.
         11    1    5    5    0    0 -0.50185525868E+02  0.12220613831E+02 -0.26278775730E+03  0.26781586173E+03  0.00000000000E+00 0. -1.
        -11    1    5    5    0    0 -0.19904760875E+03  0.14988241794E+03 -0.62063510778E+03  0.66878443969E+03  0.00000000000E+00 0.  1.
          1    1    6    6  503    0  0.63054926618E+02  0.73387545334E+02 -0.26271715707E+01  0.96791309586E+02  0.00000000000E+00 0. -1.
         -1    1    6    6    0  503  0.17132854967E+03  0.69474926301E+02  0.91583731565E+02  0.20631969660E+03  0.00000000000E+00 0.  1.
<mgrwt>
<rscale>  0 0.14178214E+04</rscale>
<asrwt>0</asrwt>
<pdfrwt beam="1">  1        1 0.31291884E+00 0.14178214E+04</pdfrwt>
<pdfrwt beam="2">  1       -2 0.38012345E-01 0.14178214E+04</pdfrwt>
<totfact> 0.15795814E+01</totfact>
</mgrwt>
</event>
<event>
12    4  0.4486176E-008  0.1527889E+04  0.7818608E-02  0.8866116E-01
          1   -1    0    0  501    0  0.00000000000E+00  0.00000000000E+00  0.25468542901E+04  0.25468542901E+04  0.00000000000E+00 0. -1.
         -2   -1    0    0    0  501 -0.00000000000E+00 -0.00000000000E+00 -0.22914971405E+03  0.22914971405E+03  0.00000000000E+00 0.  1.
        -24    2    1    2    0    0  0.37468733596E+03 -0.44333448461E+02  0.14469250052E+04  0.14974313308E+04  0.79702982642E+02 0.  0.
        254    2    1    2    0    0 -0.37468733596E+03  0.44333448461E+02  0.87077957087E+03  0.12785726734E+04  0.85681676316E+03 0.  0.
         23    2    4    4    0    0 -0.41947797090E+03 -0.25130053293E+03  0.82708823187E+03  0.96503534262E+03  0.90025236977E+02 0.  0.
         23    2    4    4    0    0  0.44790634938E+02  0.29563398139E+03  0.43691338998E+02  0.31353733073E+03  0.83612634990E+02 0.  0.
          3    1    3    3  502    0  0.32811952402E+03 -0.46974533912E+02  0.13465815093E+04  0.13867771235E+04  0.00000000000E+00 0. -1.
         -4    1    3    3    0  502  0.46567811937E+02  0.26410854509E+01  0.10034349585E+03  0.11065420733E+03  0.00000000000E+00 0.  1.
         11    1    5    5    0    0 -0.22533618305E+02 -0.43425600293E+02  0.89958584960E+02  0.10240162949E+03  0.00000000000E+00 0. -1.
        -11    1    5    5    0    0 -0.39694435260E+03 -0.20787493264E+03  0.73712964691E+03  0.86263371313E+03  0.00000000000E+00 0.  1.
          3    1    6    6  503    0  0.42666907822E+02  0.22699457593E+03  0.67866574575E+02  0.24073403263E+03  0.00000000000E+00 0. -1.
         -3    1    6    6    0  503  0.21237271157E+01  0.68639405461E+02 -0.24175235577E+02  0.72803298099E+02  0.00000000000E+00 0.  1.
<mgrwt>
<rscale>  0 0.15278887E+04</rscale>
<asrwt>0</asrwt>
<pdfrwt beam="1">  1        1 0.39182372E+00 0.15278887E+04</pdfrwt>
<pdfrwt beam="2">  1       -2 0.35253804E-01 0.15278887E+04</pdfrwt>
<totfact> 0.80692900E+00</totfact>
</mgrwt>
</event>
<event>
12    4  0.4486176E-008  0.1458747E+04  0.7818608E-02  0.8912359E-01
         -2   -1    0    0    0  501 -0.00000000000E+00  0.00000000000E+00  0.28201196102E+03  0.28201196102E+03  0.00000000000E+00 0.  1.
          1   -1    0    0  501    0  0.00000000000E+00 -0.00000000000E+00 -0.18863936362E+04  0.18863936362E+04  0.00000000000E+00 0. -1.
        -24    2    1    2    0    0  0.84904807309E+02 -0.26177312086E+02  0.14724685568E+03  0.18968828821E+03  0.80037067685E+02 0.  0.
        254    2    1    2    0    0 -0.84904807309E+02  0.26177312086E+02 -0.17516285308E+04  0.19787173090E+04  0.91609257221E+03 0.  0.
         23    2    4    4    0    0 -0.41972161989E+03 -0.22884160697E+03 -0.10067745778E+04  0.11179522112E+04  0.87677686605E+02 0.  0.
         23    2    4    4    0    0  0.33481681258E+03  0.25501891906E+03 -0.74485395303E+03  0.86076509778E+03  0.94721672023E+02 0.  0.
          3    1    3    3  502    0  0.49160580763E+02 -0.14850820312E+02  0.16913095962E+02  0.54068127209E+02  0.00000000000E+00 0. -1.
         -4    1    3    3    0  502  0.35744226546E+02 -0.11326491775E+02  0.13033375972E+03  0.13562016100E+03  0.00000000000E+00 0.  1.
         11    1    5    5    0    0 -0.32854474620E+01 -0.11997429178E+02 -0.58524603741E+02  0.59831945605E+02  0.00000000000E+00 0. -1.
        -11    1    5    5    0    0 -0.41643617243E+03 -0.21684417779E+03 -0.94824997405E+03  0.10581202656E+04  0.00000000000E+00 0.  1.
          3    1    6    6  503    0  0.16821181860E+03  0.11857101455E+03 -0.45763072118E+03  0.50177702057E+03  0.00000000000E+00 0. -1.
         -3    1    6    6    0  503  0.16660499398E+03  0.13644790450E+03 -0.28722323185E+03  0.35898807721E+03  0.00000000000E+00 0.  1.
<mgrwt>
<rscale>  0 0.14587468E+04</rscale>
<asrwt>0</asrwt>
<pdfrwt beam="1">  1        1 0.29021441E+00 0.14587468E+04</pdfrwt>
<pdfrwt beam="2">  1       -2 0.43386455E-01 0.14587468E+04</pdfrwt>
<totfact> 0.15280692E+01</totfact>
</mgrwt>
</event>
<event>
12    4  0.4486176E-008  0.1865152E+04  0.7818608E-02  0.8672400E-01
          1   -1    0    0  501    0  0.00000000000E+00  0.00000000000E+00  0.11304005397E+04  0.11304005397E+04  0.00000000000E+00 0. -1.
         -2   -1    0    0    0  501 -0.00000000000E+00 -0.00000000000E+00 -0.76937127449E+03  0.76937127449E+03  0.00000000000E+00 0.  1.
        -24    2    1    2    0    0 -0.51364835851E+03 -0.49377147159E+03  0.23442069302E+03  0.75439523777E+03  0.80710662812E+02 0.  0.
        254    2    1    2    0    0  0.51364835851E+03  0.49377147159E+03  0.12660857214E+03  0.11453765764E+04  0.88781353268E+03 0.  0.
         23    2    4    4    0    0  0.28090038938E+03  0.47424327552E+03 -0.31244669136E+03  0.64012339273E+03  0.91232175539E+02 0.  0.
         23    2    4    4    0    0  0.23274796913E+03  0.19528196075E+02  0.43905526350E+03  0.50525318365E+03  0.89209234954E+02 0.  0.
          1    1    3    3  502    0 -0.35797154608E+03 -0.31661386321E+03  0.12251815858E+03  0.49335450273E+03  0.00000000000E+00 0. -1.
         -2    1    3    3    0  502 -0.15567681243E+03 -0.17715760838E+03  0.11190253444E+03  0.26104073504E+03  0.00000000000E+00 0.  1.
         11    1    5    5    0    0  0.28753137584E+03  0.46662826447E+03 -0.30291510586E+03  0.62623780679E+03  0.00000000000E+00 0.  1.
        -11    1    5    5    0    0 -0.66309864647E+01  0.76150110467E+01 -0.95315855006E+01  0.13885585940E+02  0.00000000000E+00 0. -1.
          3    1    6    6  503    0  0.72732616297E+00  0.10667974783E+02  0.58404894367E+02  0.59375637894E+02  0.00000000000E+00 0. -1.
         -3    1    6    6    0  503  0.23202064297E+03  0.88602212915E+01  0.38065036913E+03  0.44587754575E+03  0.00000000000E+00 0.  1.
<mgrwt>
<rscale>  0 0.18651517E+04</rscale>
<asrwt>0</asrwt>
<pdfrwt beam="1">  1        1 0.17390778E+00 0.18651517E+04</pdfrwt>
<pdfrwt beam="2">  1       -2 0.11836481E+00 0.18651517E+04</pdfrwt>
<totfact> 0.54392513E+00</totfact>
</mgrwt>
</event>
<event>
12    4  0.4486176E-008  0.1301199E+04  0.7818608E-02  0.9028615E-01
         -2   -1    0    0    0  501 -0.00000000000E+00  0.00000000000E+00  0.74007575954E+03  0.74007575954E+03  0.00000000000E+00 0.  1.
          1   -1    0    0  501    0  0.00000000000E+00 -0.00000000000E+00 -0.57194129380E+03  0.57194129380E+03  0.00000000000E+00 0. -1.
        -24    2    1    2    0    0 -0.23948398426E+03  0.22297043994E+03  0.11119543463E+03  0.35455924547E+03  0.79242905445E+02 0.  0.
        254    2    1    2    0    0  0.23948398426E+03 -0.22297043994E+03  0.56939031104E+02  0.95745780787E+03  0.89800612736E+03 0.  0.
         23    2    4    4    0    0  0.46849911049E+03 -0.18121746442E+03  0.31359536979E+03  0.59930823156E+03  0.92179794542E+02 0.  0.
         23    2    4    4    0    0 -0.22901512624E+03 -0.41752975520E+02 -0.25665633869E+03  0.35814957630E+03  0.90594722837E+02 0.  0.
          1    1    3    3  502    0 -0.29563798687E+02  0.40099748180E+02 -0.10178973006E+02  0.50848987093E+02  0.00000000000E+00 0. -1.
         -2    1    3    3    0  502 -0.20992018557E+03  0.18287069176E+03  0.12137440764E+03  0.30371025838E+03  0.00000000000E+00 0.  1.
         11    1    5    5    0    0  0.12961838667E+03 -0.92234393923E+02  0.78712604207E+02  0.17749305239E+03  0.00000000000E+00 0.  1.
        -11    1    5    5    0    0  0.33888072383E+03 -0.88983070500E+02  0.23488276558E+03  0.42181517918E+03  0.00000000000E+00 0. -1.
          3    1    6    6  503    0 -0.20477537415E+03 -0.38846322756E+01 -0.21230915857E+03  0.29499698819E+03  0.00000000000E+00 0. -1.
         -3    1    6    6    0  503 -0.24239752091E+02 -0.37868343244E+02 -0.44347180110E+02  0.63152588112E+02  0.00000000000E+00 0.  1.
<mgrwt>
<rscale>  0 0.13011993E+04</rscale>
<asrwt>0</asrwt>
<pdfrwt beam="1">  1        1 0.87990968E-01 0.13011993E+04</pdfrwt>
<pdfrwt beam="2">  1       -2 0.11385781E+00 0.13011993E+04</pdfrwt>
<totfact> 0.19053138E+01</totfact>
</mgrwt>
</event>
<event>
12    4  0.4486176E-008  0.1242230E+04  0.7818608E-02  0.9076675E-01
         -2   -1    0    0    0  501 -0.00000000000E+00  0.00000000000E+00  0.26812832438E+03  0.26812832438E+03  0.00000000000E+00 0.  1.
          1   -1    0    0  501    0  0.00000000000E+00 -0.00000000000E+00 -0.14388028378E+04  0.14388028378E+04  0.00000000000E+00 0. -1.
        -24    2    1    2    0    0 -0.77200180493E+02  0.41772585777E+02 -0.67436717001E+03  0.68469229662E+03  0.79546491272E+02 0.  0.
        254    2    1    2    0    0  0.77200180493E+02 -0.41772585777E+02 -0.49630734339E+03  0.10222388655E+04  0.88935173151E+03 0.  0.
         23    2    4    4    0    0 -0.14702250421E+02 -0.43450812350E+03 -0.11656364728E+03  0.45913888068E+03  0.90597805329E+02 0.  0.
         23    2    4    4    0    0  0.91902430914E+02  0.39273553772E+03 -0.37974369612E+03  0.56309998487E+03  0.10094086794E+03 0.  0.
          1    1    3    3  502    0 -0.47408015444E+02  0.19194916448E+02 -0.59239929877E+03  0.59460313986E+03  0.00000000000E+00 0. -1.
         -2    1    3    3    0  502 -0.29792165049E+02  0.22577669330E+02 -0.81967871246E+02  0.90089156768E+02  0.00000000000E+00 0.  1.
         11    1    5    5    0    0 -0.75289402191E+01 -0.11272286437E+03 -0.72587002551E+02  0.13428329022E+03  0.00000000000E+00 0. -1.
        -11    1    5    5    0    0 -0.71733102018E+01 -0.32178525913E+03 -0.43976644727E+02  0.32485559046E+03  0.00000000000E+00 0.  1.
          3    1    6    6  503    0  0.14017898141E+02  0.47141594465E+01 -0.24975231882E+00  0.14791455094E+02  0.00000000000E+00 0. -1.
         -3    1    6    6    0  503  0.77884532773E+02  0.38802137827E+03 -0.37949394380E+03  0.54830852977E+03  0.00000000000E+00 0.  1.
<mgrwt>
<rscale>  0 0.12422299E+04</rscale>
<asrwt>0</asrwt>
<pdfrwt beam="1">  1        1 0.22135428E+00 0.12422299E+04</pdfrwt>
<pdfrwt beam="2">  1       -2 0.41250512E-01 0.12422299E+04</pdfrwt>
<totfact> 0.34773553E+01</totfact>
</mgrwt>
</event>
<event>
12    4  0.4486176E-008  0.2064615E+04  0.7818608E-02  0.8576993E-01
         -2   -1    0    0    0  501 -0.00000000000E+00  0.00000000000E+00  0.58369354730E+03  0.58369354730E+03  0.00000000000E+00 0.  1.
          1   -1    0    0  501    0  0.00000000000E+00 -0.00000000000E+00 -0.18257157386E+04  0.18257157386E+04  0.00000000000E+00 0. -1.
        -24    2    1    2    0    0 -0.36101300781E+03 -0.53371432012E+03 -0.11220928600E+04  0.12964801075E+04  0.81159814396E+02 0.  0.
        254    2    1    2    0    0  0.36101300781E+03  0.53371432012E+03 -0.11992933135E+03  0.11129291784E+04  0.89947036879E+03 0.  0.
         23    2    4    4    0    0  0.30076018927E+03  0.77670904135E+03 -0.11475502722E+03  0.84517990765E+03  0.86178498884E+02 0.  0.
         23    2    4    4    0    0  0.60252818540E+02 -0.24299472123E+03 -0.51743041339E+01  0.26774927076E+03  0.94794841003E+02 0.  0.
          1    1    3    3  502    0 -0.19344323920E+03 -0.30936944290E+03 -0.70977113615E+03  0.79806315834E+03  0.00000000000E+00 0. -1.
         -2    1    3    3    0  502 -0.16756976860E+03 -0.22434487722E+03 -0.41232172382E+03  0.49841694917E+03  0.00000000000E+00 0.  1.
         11    1    5    5    0    0  0.12663772713E+03  0.30563928703E+03 -0.38438182354E+01  0.33085837249E+03  0.00000000000E+00 0.  1.
        -11    1    5    5    0    0  0.17412246214E+03  0.47106975432E+03 -0.11091120898E+03  0.51432153516E+03  0.00000000000E+00 0. -1.
          2    1    6    6  503    0  0.67605548611E+01 -0.12394648584E+03 -0.43812945349E+02  0.13163590176E+03  0.00000000000E+00 0. -1.
         -2    1    6    6    0  503  0.53492263678E+02 -0.11904823539E+03  0.38638641216E+02  0.13611336899E+03  0.00000000000E+00 0.  1.
<mgrwt>
<rscale>  0 0.20646147E+04</rscale>
<asrwt>0</asrwt>
<pdfrwt beam="1">  1        1 0.28087935E+00 0.20646147E+04</pdfrwt>
<pdfrwt beam="2">  1       -2 0.89799006E-01 0.20646147E+04</pdfrwt>
<totfact> 0.33673999E+00</totfact>
</mgrwt>
</event>
<event>
12    4  0.4486176E-008  0.1316180E+04  0.7818608E-02  0.9016831E-01
          1   -1    0    0  501    0  0.00000000000E+00  0.00000000000E+00  0.24662460594E+03  0.24662460594E+03  0.00000000000E+00 0. -1.
         -2   -1    0    0    0  501 -0.00000000000E+00 -0.00000000000E+00 -0.17560402009E+04  0.17560402009E+04  0.00000000000E+00 0.  1.
        -24    2    1    2    0    0 -0.27923676728E+03  0.17181758767E+03 -0.54134752305E+03  0.63798589160E+03  0.80463665853E+02 0.  0.
        254    2    1    2    0    0  0.27923676728E+03 -0.17181758767E+03 -0.96806807193E+03  0.13646789153E+04  0.90426671632E+03 0.  0.
         23    2    4    4    0    0  0.51050028900E+02  0.36170083364E+03 -0.36833214943E+03  0.52529750684E+03  0.82675872454E+02 0.  0.
         23    2    4    4    0    0  0.22818673838E+03 -0.53351842131E+03 -0.59973592250E+03  0.83938140843E+03  0.90370784097E+02 0.  0.
          3    1    3    3  502    0 -0.21440027728E+03  0.11519880249E+03 -0.33221474534E+03  0.41183113046E+03  0.00000000000E+00 0. -1.
         -4    1    3    3    0  502 -0.64836490005E+02  0.56618785187E+02 -0.20913277771E+03  0.22615476114E+03  0.00000000000E+00 0.  1.
         11    1    5    5    0    0 -0.68340936824E+01  0.23638730964E+03 -0.23348527738E+03  0.33232670634E+03  0.00000000000E+00 0.  1.
        -11    1    5    5    0    0  0.57884122583E+02  0.12531352400E+03 -0.13484687205E+03  0.19297080050E+03  0.00000000000E+00 0. -1.
          2    1    6    6  503    0  0.17932244849E+03 -0.47068419523E+03 -0.48121280410E+03  0.69661030354E+03  0.00000000000E+00 0. -1.
         -2    1    6    6    0  503  0.48864289889E+02 -0.62834226082E+02 -0.11852311840E+03  0.14277110488E+03  0.00000000000E+00 0.  1.
<mgrwt>
<rscale>  0 0.13161804E+04</rscale>
<asrwt>0</asrwt>
<pdfrwt beam="1">  1        1 0.37942247E-01 0.13161804E+04</pdfrwt>
<pdfrwt beam="2">  1       -2 0.27016003E+00 0.13161804E+04</pdfrwt>
<totfact> 0.47017566E+00</totfact>
</mgrwt>
</event>
<event>
12    4  0.4486176E-008  0.2473582E+04  0.7818608E-02  0.8412458E-01
          1   -1    0    0  501    0  0.00000000000E+00  0.00000000000E+00  0.12062324777E+04  0.12062324777E+04  0.00000000000E+00 0. -1.
         -2   -1    0    0    0  501 -0.00000000000E+00 -0.00000000000E+00 -0.12681241415E+04  0.12681241415E+04  0.00000000000E+00 0.  1.
        -24    2    1    2    0    0 -0.74443964020E+03 -0.75411796466E+03  0.14523032979E+03  0.10725732504E+04  0.80232451128E+02 0.  0.
        254    2    1    2    0    0  0.74443964020E+03  0.75411796466E+03 -0.20712199350E+03  0.14017833688E+04  0.89398703033E+03 0.  0.
         23    2    4    4    0    0  0.65543204847E+03  0.30131924456E+03  0.22684975863E+03  0.76159053261E+03  0.90414982491E+02 0.  0.
         23    2    4    4    0    0  0.89007591726E+02  0.45279872010E+03 -0.43397175213E+03  0.64019283622E+03  0.92554597868E+02 0.  0.
          3    1    3    3  502    0 -0.64131418911E+03 -0.66491756293E+03  0.15121825907E+03  0.93609092322E+03  0.00000000000E+00 0. -1.
         -4    1    3    3    0  502 -0.10312545108E+03 -0.89200401731E+02 -0.59879292862E+01  0.13648232716E+03  0.00000000000E+00 0.  1.
         11    1    5    5    0    0  0.16084888276E+03  0.10850395135E+03  0.87010857834E+02  0.21264138808E+03  0.00000000000E+00 0. -1.
        -11    1    5    5    0    0  0.49458316571E+03  0.19281529321E+03  0.13983890080E+03  0.54894914453E+03  0.00000000000E+00 0.  1.
          3    1    6    6  503    0  0.67648191363E+02  0.17401528115E+03 -0.21712694703E+03  0.28635940179E+03  0.00000000000E+00 0. -1.
         -3    1    6    6    0  503  0.21359400363E+02  0.27878343896E+03 -0.21684480510E+03  0.35383343443E+03  0.00000000000E+00 0.  1.
<mgrwt>
<rscale>  0 0.24735824E+04</rscale>
<asrwt>0</asrwt>
<pdfrwt beam="1">  1        1 0.18557423E+00 0.24735824E+04</pdfrwt>
<pdfrwt beam="2">  1       -2 0.19509602E+00 0.24735824E+04</pdfrwt>
<totfact> 0.11839179E+00</totfact>
</mgrwt>
</event>
<event>
12    4  0.4486176E-008  0.2146951E+04  0.7818608E-02  0.8540838E-01
         -2   -1    0    0    0  501 -0.00000000000E+00  0.00000000000E+00  0.67553916729E+03  0.67553916729E+03  0.00000000000E+00 0.  1.
          1   -1    0    0  501    0  0.00000000000E+00 -0.00000000000E+00 -0.17058226649E+04  0.17058226649E+04  0.00000000000E+00 0. -1.
        -24    2    1    2    0    0 -0.69306683574E+03 -0.17369584714E+03  0.11073658751E+03  0.72791459204E+03  0.84173483775E+02 0.  0.
        254    2    1    2    0    0  0.69306683574E+03  0.17369584714E+03 -0.11410200852E+04  0.16534472402E+04  0.95992137970E+03 0.  0.
         23    2    4    4    0    0  0.52599674945E+03  0.41162458740E+03 -0.11676152744E+04  0.13482200505E+04  0.90909262439E+02 0.  0.
         23    2    4    4    0    0  0.16707008630E+03 -0.23792874026E+03  0.26595189259E+02  0.30522718973E+03  0.89072072405E+02 0.  0.
          3    1    3    3  502    0 -0.63004961972E+03 -0.13521695666E+03  0.86352109298E+02  0.65015600856E+03  0.00000000000E+00 0. -1.
         -4    1    3    3    0  502 -0.63017216020E+02 -0.38478890484E+02  0.24384478215E+02  0.77758583485E+02  0.00000000000E+00 0.  1.
         11    1    5    5    0    0  0.25137677158E+03  0.25430175402E+03 -0.61671118717E+03  0.71287611249E+03  0.00000000000E+00 0.  1.
        -11    1    5    5    0    0  0.27461997787E+03  0.15732283338E+03 -0.55090408726E+03  0.63534393796E+03  0.00000000000E+00 0. -1.
          1    1    6    6  503    0  0.90383465639E+01 -0.74607446051E+02  0.20436579989E+02  0.77882068003E+02  0.00000000000E+00 0. -1.
         -1    1    6    6    0  503  0.15803173973E+03 -0.16332129421E+03  0.61586092705E+01  0.22734512173E+03  0.00000000000E+00 0.  1.
<mgrwt>
<rscale>  0 0.21469513E+04</rscale>
<asrwt>0</asrwt>
<pdfrwt beam="1">  1        1 0.26243425E+00 0.21469513E+04</pdfrwt>
<pdfrwt beam="2">  1       -2 0.10392910E+00 0.21469513E+04</pdfrwt>
<totfact> 0.28616121E+00</totfact>
</mgrwt>
</event>
<event>
12    4  0.4486176E-008  0.1156793E+04  0.7818608E-02  0.9151539E-01
          1   -1    0    0  501    0  0.00000000000E+00  0.00000000000E+00  0.10740823828E+04  0.10740823828E+04  0.00000000000E+00 0. -1.
         -2   -1    0    0    0  501 -0.00000000000E+00 -0.00000000000E+00 -0.31146844950E+03  0.31146844950E+03  0.00000000000E+00 0.  1.
        -24    2    1    2    0    0  0.12222163197E+03 -0.36416821589E+02 -0.49448880797E+02  0.16039137519E+03  0.83760904998E+02 0.  0.
        254    2    1    2    0    0 -0.12222163197E+03  0.36416821589E+02  0.81206281413E+03  0.12251594571E+04  0.90846319084E+03 0.  0.
         23    2    4    4    0    0 -0.32892900693E+03  0.86555954554E+02 -0.28906750746E+02  0.35320327611E+03  0.90723366060E+02 0.  0.
         23    2    4    4    0    0  0.20670737496E+03 -0.50139132965E+02  0.84096956488E+03  0.87195618103E+03  0.88520625113E+02 0.  0.
          3    1    3    3  502    0  0.32798294662E+01  0.20465758223E+02 -0.61626586295E+01  0.21623665331E+02  0.00000000000E+00 0. -1.
         -4    1    3    3    0  502  0.11894180251E+03 -0.56882579812E+02 -0.43286222168E+02  0.13876770986E+03  0.00000000000E+00 0.  1.
         11    1    5    5    0    0 -0.11289755920E+03  0.74939430577E+02 -0.58070150187E+01  0.13563000609E+03  0.00000000000E+00 0.  1.
        -11    1    5    5    0    0 -0.21603144773E+03  0.11616523977E+02 -0.23099735728E+02  0.21757327002E+03  0.00000000000E+00 0. -1.
          2    1    6    6  503    0  0.14232004433E+02  0.20154617563E+02  0.11533557158E+03  0.11794512551E+03  0.00000000000E+00 0. -1.
         -2    1    6    6    0  503  0.19247537052E+03 -0.70293750528E+02  0.72563399329E+03  0.75401105552E+03  0.00000000000E+00 0.  1.
<mgrwt>
<rscale>  0 0.11567935E+04</rscale>
<asrwt>0</asrwt>
<pdfrwt beam="1">  1        1 0.16524344E+00 0.11567935E+04</pdfrwt>
<pdfrwt beam="2">  1       -2 0.47918224E-01 0.11567935E+04</pdfrwt>
<totfact> 0.47634994E+01</totfact>
</mgrwt>
</event>
<event>
12    4  0.4486176E-008  0.2520634E+04  0.7818608E-02  0.8395671E-01
          1   -1    0    0  501    0  0.00000000000E+00  0.00000000000E+00  0.35868628544E+04  0.35868628544E+04  0.00000000000E+00 0. -1.
         -2   -1    0    0    0  501 -0.00000000000E+00 -0.00000000000E+00 -0.44283809270E+03  0.44283809270E+03  0.00000000000E+00 0.  1.
        -24    2    1    2    0    0  0.29734056323E+03 -0.49352223119E+03 -0.14683093500E+03  0.60002900482E+03  0.80621832859E+02 0.  0.
        254    2    1    2    0    0 -0.29734056323E+03  0.49352223119E+03  0.32908556967E+04  0.34296719423E+04  0.77520501286E+03 0.  0.
         23    2    4    4    0    0 -0.32367839607E+03  0.35966899499E+03  0.84074929012E+03  0.97387167557E+03  0.86239095544E+02 0.  0.
         23    2    4    4    0    0  0.26337832837E+02  0.13385323620E+03  0.24501064066E+04  0.24558002667E+04  0.96556595534E+02 0.  0.
          1    1    3    3  502    0  0.99553148223E+01 -0.20134977037E+01 -0.10429087822E+02  0.14557758722E+02  0.00000000000E+00 0. -1.
         -2    1    3    3    0  502  0.28738524841E+03 -0.49150873348E+03 -0.13640184717E+03  0.58547124610E+03  0.00000000000E+00 0.  1.
         11    1    5    5    0    0 -0.83600550710E+02  0.53189607189E+02  0.12969624097E+03  0.16321550574E+03  0.00000000000E+00 0.  1.
        -11    1    5    5    0    0 -0.24007784536E+03  0.30647938780E+03  0.71105304914E+03  0.81065616983E+03  0.00000000000E+00 0. -1.
          2    1    6    6  503    0  0.22135692300E+02  0.25964552370E+02  0.13448307538E+04  0.13452635069E+04  0.00000000000E+00 0. -1.
         -2    1    6    6    0  503  0.42021405364E+01  0.10788868383E+03  0.11052756528E+04  0.11105367598E+04  0.00000000000E+00 0.  1.
<mgrwt>
<rscale>  0 0.25206344E+04</rscale>
<asrwt>0</asrwt>
<pdfrwt beam="1">  1        1 0.55182503E+00 0.25206344E+04</pdfrwt>
<pdfrwt beam="2">  1       -2 0.68128940E-01 0.25206344E+04</pdfrwt>
<totfact> 0.32811498E-01</totfact>
</mgrwt>
</event>
<event>
12    4  0.4486176E-008  0.1564340E+04  0.7818608E-02  0.8842760E-01
          1   -1    0    0  501    0  0.00000000000E+00  0.00000000000E+00  0.39017343125E+03  0.39017343125E+03  0.00000000000E+00 0. -1.
         -2   -1    0    0    0  501 -0.00000000000E+00 -0.00000000000E+00 -0.15679939931E+04  0.15679939931E+04  0.00000000000E+00 0.  1.
        -24    2    1    2    0    0 -0.12698347211E+03  0.39594739436E+03 -0.79016750979E+03  0.89638633292E+03  0.79022927201E+02 0.  0.
        254    2    1    2    0    0  0.12698347211E+03 -0.39594739436E+03 -0.38765305203E+03  0.10617810914E+04  0.89677480788E+03 0.  0.
         23    2    4    4    0    0 -0.97630808133E+02 -0.40928548558E+03  0.16290899715E+03  0.45997697810E+03  0.89404114155E+02 0.  0.
         23    2    4    4    0    0  0.22461428025E+03  0.13338091219E+02 -0.55056204918E+03  0.60180411331E+03  0.91761327544E+02 0.  0.
          3    1    3    3  502    0 -0.19166709220E+02  0.90097921704E+02 -0.24897071540E+03  0.26546452751E+03  0.00000000000E+00 0. -1.
         -4    1    3    3    0  502 -0.10781676289E+03  0.30584947265E+03 -0.54119679439E+03  0.63092180541E+03  0.00000000000E+00 0.  1.
         11    1    5    5    0    0 -0.88271743969E+01 -0.21852226579E+02  0.35433638854E+02  0.42555629201E+02  0.00000000000E+00 0. -1.
        -11    1    5    5    0    0 -0.88803633736E+02 -0.38743325900E+03  0.12747535830E+03  0.41742134890E+03  0.00000000000E+00 0.  1.
          2    1    6    6  503    0  0.68359693818E+02  0.37321016423E+02 -0.25489800041E+03  0.26653123010E+03  0.00000000000E+00 0.  1.
         -2    1    6    6    0  503  0.15625458643E+03 -0.23982925203E+02 -0.29566404877E+03  0.33527288321E+03  0.00000000000E+00 0. -1.
<mgrwt>
<rscale>  0 0.15643396E+04</rscale>
<asrwt>0</asrwt>
<pdfrwt beam="1">  1        1 0.60026683E-01 0.15643396E+04</pdfrwt>
<pdfrwt beam="2">  1       -2 0.24122984E+00 0.15643396E+04</pdfrwt>
<totfact> 0.37974736E+00</totfact>
</mgrwt>
</event>
<event>
12    4  0.4486176E-008  0.2309993E+04  0.7818608E-02  0.8473991E-01
          1   -1    0    0  501    0  0.00000000000E+00  0.00000000000E+00  0.44052317029E+03  0.44052317029E+03  0.00000000000E+00 0. -1.
         -2   -1    0    0    0  501 -0.00000000000E+00 -0.00000000000E+00 -0.30282554214E+04  0.30282554214E+04  0.00000000000E+00 0.  1.
        -24    2    1    2    0    0  0.93428269592E+02  0.22254420005E+03  0.32331260138E+03  0.41127010181E+03  0.79732652652E+02 0.  0.
        254    2    1    2    0    0 -0.93428269592E+02 -0.22254420005E+03 -0.29110448525E+04  0.30575084899E+04  0.90328360442E+03 0.  0.
         23    2    4    4    0    0  0.19536485155E+03  0.16248692084E+03 -0.20406688254E+04  0.20584885097E+04  0.92066634041E+02 0.  0.
         23    2    4    4    0    0 -0.28879312114E+03 -0.38503112089E+03 -0.87037602706E+03  0.99901998013E+03  0.94000326278E+02 0.  0.
          1    1    3    3  502    0  0.82844504924E+02  0.22207680303E+03  0.32304368319E+03  0.40067260911E+03  0.00000000000E+00 0. -1.
         -2    1    3    3    0  502  0.10583764668E+02  0.46739701754E+00  0.26891818444E+00  0.10597492699E+02  0.00000000000E+00 0.  1.
         11    1    5    5    0    0  0.16635623845E+03  0.16192892064E+03 -0.15867101071E+04  0.16036035474E+04  0.00000000000E+00 0. -1.
        -11    1    5    5    0    0  0.29008613098E+02  0.55800019294E+00 -0.45395871834E+03  0.45488496233E+03  0.00000000000E+00 0.  1.
          1    1    6    6  503    0 -0.17614113618E+03 -0.23350430023E+03 -0.61905545842E+03  0.68467482697E+03  0.00000000000E+00 0. -1.
         -1    1    6    6    0  503 -0.11265198496E+03 -0.15152682066E+03 -0.25132056864E+03  0.31434515316E+03  0.00000000000E+00 0.  1.
<mgrwt>
<rscale>  0 0.23099928E+04</rscale>
<asrwt>0</asrwt>
<pdfrwt beam="1">  1        1 0.67772796E-01 0.23099928E+04</pdfrwt>
<pdfrwt beam="2">  1       -2 0.46588545E+00 0.23099928E+04</pdfrwt>
<totfact> 0.11356953E-01</totfact>
</mgrwt>
</event>
<event>
12    4  0.4486176E-008  0.1658485E+04  0.7818608E-02  0.8785403E-01
         -2   -1    0    0    0  501 -0.00000000000E+00  0.00000000000E+00  0.15649009830E+04  0.15649009830E+04  0.00000000000E+00 0.  1.
          1   -1    0    0  501    0  0.00000000000E+00 -0.00000000000E+00 -0.43941640562E+03  0.43941640562E+03  0.00000000000E+00 0. -1.
        -24    2    1    2    0    0  0.41299117595E+03 -0.25594902252E+03  0.43903933928E+01  0.49221821399E+03  0.78663085961E+02 0.  0.
        254    2    1    2    0    0 -0.41299117595E+03  0.25594902252E+03  0.11210941840E+04  0.15120991746E+04  0.89079746913E+03 0.  0.
         23    2    4    4    0    0 -0.65863612635E+03  0.30436091320E+03  0.92887648524E+03  0.11820883538E+04  0.89912396518E+02 0.  0.
         23    2    4    4    0    0  0.24564495041E+03 -0.48411890681E+02  0.19221769874E+03  0.33001082078E+03  0.96303402345E+02 0.  0.
          1    1    3    3  502    0  0.69187585494E+02 -0.61717034863E+02  0.27383293161E+02  0.96673466490E+02  0.00000000000E+00 0. -1.
         -2    1    3    3    0  502  0.34380359045E+03 -0.19423198765E+03 -0.22992899768E+02  0.39554474750E+03  0.00000000000E+00 0.  1.
         11    1    5    5    0    0 -0.52789876251E+03  0.25432237445E+03  0.69022160768E+03  0.90540755537E+03  0.00000000000E+00 0. -1.
        -11    1    5    5    0    0 -0.13073736384E+03  0.50038538744E+02  0.23865487755E+03  0.27668079848E+03  0.00000000000E+00 0.  1.
          3    1    6    6  503    0  0.25077182549E+03 -0.55110363927E+02  0.17465855853E+03  0.31053063092E+03  0.00000000000E+00 0. -1.
         -3    1    6    6    0  503 -0.51268750863E+01  0.66984732464E+01  0.17559140209E+02  0.19480189857E+02  0.00000000000E+00 0.  1.
<mgrwt>
<rscale>  0 0.16584850E+04</rscale>
<asrwt>0</asrwt>
<pdfrwt beam="1">  1        1 0.67602525E-01 0.16584850E+04</pdfrwt>
<pdfrwt beam="2">  1       -2 0.24075399E+00 0.16584850E+04</pdfrwt>
<totfact> 0.32358872E+00</totfact>
</mgrwt>
</event>
<event>
12    4  0.4486176E-008  0.2128196E+04  0.7818608E-02  0.8548923E-01
         -2   -1    0    0    0  501 -0.00000000000E+00  0.00000000000E+00  0.81858225667E+03  0.81858225667E+03  0.00000000000E+00 0.  1.
          1   -1    0    0  501    0  0.00000000000E+00 -0.00000000000E+00 -0.13832509982E+04  0.13832509982E+04  0.00000000000E+00 0. -1.
        -24    2    1    2    0    0  0.46860480547E+02 -0.83357507500E+03  0.29924607714E+02  0.83923329516E+03  0.79835651559E+02 0.  0.
        254    2    1    2    0    0 -0.46860480547E+02  0.83357507500E+03 -0.59459334929E+03  0.13625999598E+04  0.89782742718E+03 0.  0.
         23    2    4    4    0    0 -0.81183152154E+02 -0.17392009219E+03 -0.11308683537E+03  0.24164130362E+03  0.93610814647E+02 0.  0.
         23    2    4    4    0    0  0.34322671608E+02  0.10074951672E+04 -0.48150651392E+03  0.11209586561E+04  0.92061002174E+02 0.  0.
          1    1    3    3  502    0  0.48367411169E+02 -0.57481488884E+03 -0.12676001190E+02  0.57698547980E+03  0.00000000000E+00 0. -1.
         -2    1    3    3    0  502 -0.15069306220E+01 -0.25876018616E+03  0.42600608904E+02  0.26224781536E+03  0.00000000000E+00 0.  1.
         11    1    5    5    0    0 -0.78989953252E+02 -0.14229603330E+03 -0.12757044156E+03  0.20678924384E+03  0.00000000000E+00 0.  1.
        -11    1    5    5    0    0 -0.21931989023E+01 -0.31624058892E+02  0.14483606196E+02  0.34852059777E+02  0.00000000000E+00 0. -1.
          3    1    6    6  503    0  0.43970604479E+02  0.38874870963E+03 -0.15054973432E+03  0.41919469915E+03  0.00000000000E+00 0. -1.
         -3    1    6    6    0  503 -0.96479328713E+01  0.61874645756E+03 -0.33095677960E+03  0.70176395698E+03  0.00000000000E+00 0.  1.
<mgrwt>
<rscale>  0 0.21281962E+04</rscale>
<asrwt>0</asrwt>
<pdfrwt beam="1">  1        1 0.21280785E+00 0.21281962E+04</pdfrwt>
<pdfrwt beam="2">  1       -2 0.12593573E+00 0.21281962E+04</pdfrwt>
<totfact> 0.29912159E+00</totfact>
</mgrwt>
</event>
<event>
12    4  0.4486176E-008  0.3575691E+04  0.7818608E-02  0.8096083E-01
         -2   -1    0    0    0  501 -0.00000000000E+00  0.00000000000E+00  0.21083169560E+04  0.21083169560E+04  0.00000000000E+00 0.  1.
          1   -1    0    0  501    0  0.00000000000E+00 -0.00000000000E+00 -0.15160870104E+04  0.15160870104E+04  0.00000000000E+00 0. -1.
        -24    2    1    2    0    0 -0.15217174570E+04 -0.14967022890E+03 -0.40750374095E+03  0.15844305298E+04  0.79596535124E+02 0.  0.
        254    2    1    2    0    0  0.15217174570E+04  0.14967022890E+03  0.99973368652E+03  0.20399734366E+04  0.90774389652E+03 0.  0.
         23    2    4    4    0    0  0.43157831548E+03 -0.32908496367E+03  0.50608401434E+03  0.74774443871E+03  0.91891024325E+02 0.  0.
         23    2    4    4    0    0  0.10901391416E+04  0.47875519257E+03  0.49364967218E+03  0.12922289979E+04  0.92498117876E+02 0.  0.
          1    1    3    3  502    0 -0.60708752192E+01 -0.62428825794E+01 -0.20213772757E+01  0.89395231930E+01  0.00000000000E+00 0. -1.
         -2    1    3    3    0  502 -0.15156465818E+04 -0.14342734632E+03 -0.40548236367E+03  0.15754910066E+04  0.00000000000E+00 0.  1.
         11    1    5    5    0    0  0.41954004193E+03 -0.29351385337E+03  0.48153070097E+03  0.70287697706E+03  0.00000000000E+00 0.  1.
        -11    1    5    5    0    0  0.12038273551E+02 -0.35571110297E+02  0.24553313364E+02  0.44867461651E+02  0.00000000000E+00 0. -1.
          4    1    6    6  503    0  0.27408734436E+03  0.97462246718E+02  0.15759523351E+03  0.33084591505E+03  0.00000000000E+00 0. -1.
         -4    1    6    6    0  503  0.81605179719E+03  0.38129294585E+03  0.33605443867E+03  0.96138308286E+03  0.00000000000E+00 0.  1.
<mgrwt>
<rscale>  0 0.35756912E+04</rscale>
<asrwt>0</asrwt>
<pdfrwt beam="1">  1        1 0.23324416E+00 0.35756912E+04</pdfrwt>
<pdfrwt beam="2">  1       -2 0.32435645E+00 0.35756912E+04</pdfrwt>
<totfact> 0.10213426E-01</totfact>
</mgrwt>
</event>
<event>
12    4  0.4486176E-008  0.1230511E+04  0.7818608E-02  0.9086562E-01
         -2   -1    0    0    0  501 -0.00000000000E+00  0.00000000000E+00  0.25104450527E+03  0.25104450527E+03  0.00000000000E+00 0.  1.
          1   -1    0    0  501    0  0.00000000000E+00 -0.00000000000E+00 -0.15078566312E+04  0.15078566312E+04  0.00000000000E+00 0. -1.
        -24    2    1    2    0    0 -0.13774409771E+03  0.17816441179E+03 -0.49993112653E+02  0.24332029955E+03  0.77391619572E+02 0.  0.
        254    2    1    2    0    0  0.13774409771E+03 -0.17816441179E+03 -0.12068190133E+04  0.15155808369E+04  0.88873907777E+03 0.  0.
         23    2    4    4    0    0  0.31786313204E+03  0.20026163815E+03 -0.23412167581E+03  0.45242754641E+03  0.93466738694E+02 0.  0.
         23    2    4    4    0    0 -0.18011903433E+03 -0.37842604994E+03 -0.97269733745E+03  0.10631532905E+04  0.92226173131E+02 0.  0.
          1    1    3    3  502    0 -0.68380829610E+02  0.46501942817E+02 -0.45612173554E+02  0.94439604617E+02  0.00000000000E+00 0. -1.
         -2    1    3    3    0  502 -0.69363268099E+02  0.13166246897E+03 -0.43809390997E+01  0.14888069494E+03  0.00000000000E+00 0.  1.
         11    1    5    5    0    0  0.29644261058E+03  0.17700591362E+03 -0.23970787991E+03  0.42032033322E+03  0.00000000000E+00 0. -1.
        -11    1    5    5    0    0  0.21420521460E+02  0.23255724522E+02  0.55862040991E+01  0.32107213191E+02  0.00000000000E+00 0.  1.
          1    1    6    6  503    0 -0.17778988570E+03 -0.35815547591E+03 -0.95772674649E+03  0.10378463804E+04  0.00000000000E+00 0. -1.
         -1    1    6    6    0  503 -0.23291486371E+01 -0.20270574023E+02 -0.14970590964E+02  0.25306910092E+02  0.00000000000E+00 0.  1.
<mgrwt>
<rscale>  0 0.12305107E+04</rscale>
<asrwt>0</asrwt>
<pdfrwt beam="1">  1        1 0.23197794E+00 0.12305107E+04</pdfrwt>
<pdfrwt beam="2">  1       -2 0.38622232E-01 0.12305107E+04</pdfrwt>
<totfact> 0.35452560E+01</totfact>
</mgrwt>
</event>
<event>
12    4  0.4486176E-008  0.2367987E+04  0.7818608E-02  0.8451587E-01
         -2   -1    0    0    0  501 -0.00000000000E+00  0.00000000000E+00  0.99133712679E+03  0.99133712679E+03  0.00000000000E+00 0.  1.
          1   -1    0    0  501    0  0.00000000000E+00 -0.00000000000E+00 -0.14140903862E+04  0.14140903862E+04  0.00000000000E+00 0. -1.
        -24    2    1    2    0    0 -0.32580264114E+03 -0.11807171005E+03  0.78458890865E+03  0.86143261531E+03  0.79988158293E+02 0.  0.
        254    2    1    2    0    0  0.32580264114E+03  0.11807171005E+03 -0.12073421681E+04  0.15439948977E+04  0.89786237454E+03 0.  0.
         23    2    4    4    0    0  0.46128387386E+02 -0.98504591239E+02  0.10552329348E+03  0.18112895135E+03  0.99204581207E+02 0.  0.
         23    2    4    4    0    0  0.27967425375E+03  0.21657630129E+03 -0.13128654616E+04  0.13628659464E+04  0.93085364437E+02 0.  0.
          3    1    3    3  502    0 -0.15857485794E+03 -0.24417663804E+02  0.41857008180E+03  0.44826679696E+03  0.00000000000E+00 0. -1.
         -4    1    3    3    0  502 -0.16722778319E+03 -0.93654046247E+02  0.36601882685E+03  0.41316581836E+03  0.00000000000E+00 0.  1.
         11    1    5    5    0    0  0.49454163694E+02 -0.24118196159E+01  0.48666244384E+02  0.69425748271E+02  0.00000000000E+00 0. -1.
        -11    1    5    5    0    0 -0.33257763079E+01 -0.96092771624E+02  0.56857049093E+02  0.11170320308E+03  0.00000000000E+00 0.  1.
          2    1    6    6  503    0  0.45544736882E+01  0.20498548663E+01 -0.11812533665E+03  0.11823087707E+03  0.00000000000E+00 0. -1.
         -2    1    6    6    0  503  0.27511978006E+03  0.21452644642E+03 -0.11947401249E+04  0.12446350693E+04  0.00000000000E+00 0.  1.
<mgrwt>
<rscale>  0 0.23679867E+04</rscale>
<asrwt>0</asrwt>
<pdfrwt beam="1">  1        1 0.21755237E+00 0.23679867E+04</pdfrwt>
<pdfrwt beam="2">  1       -2 0.15251340E+00 0.23679867E+04</pdfrwt>
<totfact> 0.16981995E+00</totfact>
</mgrwt>
</event>
<event>
12    4  0.4486176E-008  0.1846903E+04  0.7818608E-02  0.8681747E-01
         -2   -1    0    0    0  501 -0.00000000000E+00  0.00000000000E+00  0.27652046598E+03  0.27652046598E+03  0.00000000000E+00 0.  1.
          1   -1    0    0  501    0  0.00000000000E+00 -0.00000000000E+00 -0.30839028314E+04  0.30839028314E+04  0.00000000000E+00 0. -1.
        -24    2    1    2    0    0  0.70152053838E+03  0.69314182678E+02 -0.12834548342E+04  0.14667455576E+04  0.84561798222E+02 0.  0.
        254    2    1    2    0    0 -0.70152053838E+03 -0.69314182678E+02 -0.15239275312E+04  0.18936777397E+04  0.87562819726E+03 0.  0.
         23    2    4    4    0    0 -0.80258521812E+03 -0.27879128519E+03 -0.13129143117E+04  0.15664778961E+04  0.90782134823E+02 0.  0.
         23    2    4    4    0    0  0.10106467974E+03  0.20947710251E+03 -0.21101321945E+03  0.32719984359E+03  0.91860943252E+02 0.  0.
          1    1    3    3  502    0  0.45667576029E+03  0.58113631239E+02 -0.75621986407E+03  0.88532391077E+03  0.00000000000E+00 0. -1.
         -2    1    3    3    0  502  0.24484477809E+03  0.11200551439E+02 -0.52723497014E+03  0.58142164687E+03  0.00000000000E+00 0.  1.
         11    1    5    5    0    0 -0.10600658383E+03 -0.40811061459E+02 -0.12428708359E+03  0.16837522888E+03  0.00000000000E+00 0. -1.
        -11    1    5    5    0    0 -0.69657863429E+03 -0.23798022373E+03 -0.11886272281E+04  0.13981026672E+04  0.00000000000E+00 0.  1.
          2    1    6    6  503    0  0.70634433833E+02  0.74081033452E+02 -0.13356959258E+03  0.16827970413E+03  0.00000000000E+00 0. -1.
         -2    1    6    6    0  503  0.30430245902E+02  0.13539606906E+03 -0.77443626872E+02  0.15892013946E+03  0.00000000000E+00 0.  1.
<mgrwt>
<rscale>  0 0.18469025E+04</rscale>
<asrwt>0</asrwt>
<pdfrwt beam="1">  1        1 0.47444659E+00 0.18469025E+04</pdfrwt>
<pdfrwt beam="2">  1       -2 0.42541610E-01 0.18469025E+04</pdfrwt>
<totfact> 0.22501362E+00</totfact>
</mgrwt>
</event>
<event>
12    4  0.4486176E-008  0.2409129E+04  0.7818608E-02  0.8436094E-01
          1   -1    0    0  501    0  0.00000000000E+00  0.00000000000E+00  0.28834493437E+04  0.28834493437E+04  0.00000000000E+00 0. -1.
         -2   -1    0    0    0  501 -0.00000000000E+00 -0.00000000000E+00 -0.50320845484E+03  0.50320845484E+03  0.00000000000E+00 0.  1.
        -24    2    1    2    0    0  0.42753825519E+03  0.93666681163E+03  0.11539073827E+04  0.15485948783E+04  0.80685647426E+02 0.  0.
        254    2    1    2    0    0 -0.42753825519E+03 -0.93666681163E+03  0.12263335062E+04  0.18380629203E+04  0.90246759203E+03 0.  0.
         23    2    4    4    0    0 -0.69665215989E+03 -0.73482327867E+03  0.84656552976E+03  0.13229098732E+04  0.90154609937E+02 0.  0.
         23    2    4    4    0    0  0.26911390470E+03 -0.20184353296E+03  0.37976797647E+03  0.51515304706E+03  0.89419463403E+02 0.  0.
          3    1    3    3  502    0  0.28890967596E+03  0.71267024557E+03  0.84156936601E+03  0.11400029288E+04  0.00000000000E+00 0. -1.
         -4    1    3    3    0  502  0.13862857924E+03  0.22399656606E+03  0.31233801665E+03  0.40859194955E+03  0.00000000000E+00 0.  1.
         11    1    5    5    0    0 -0.22340767103E+03 -0.25683083986E+03  0.23333586513E+03  0.41269685452E+03  0.00000000000E+00 0.  1.
        -11    1    5    5    0    0 -0.47324448886E+03 -0.47799243881E+03  0.61322966463E+03  0.91021301869E+03  0.00000000000E+00 0. -1.
          2    1    6    6  503    0  0.13756603398E+03 -0.10931364458E+03  0.13202238952E+03  0.21978125018E+03  0.00000000000E+00 0. -1.
         -2    1    6    6    0  503  0.13154787072E+03 -0.92529888385E+02  0.24774558695E+03  0.29537179688E+03  0.00000000000E+00 0.  1.
<mgrwt>
<rscale>  0 0.24091294E+04</rscale>
<asrwt>0</asrwt>
<pdfrwt beam="1">  1        1 0.44360758E+00 0.24091294E+04</pdfrwt>
<pdfrwt beam="2">  1       -2 0.77416687E-01 0.24091294E+04</pdfrwt>
<totfact> 0.85060423E-01</totfact>
</mgrwt>
</event>
<event>
12    4  0.4486176E-008  0.1388041E+04  0.7818608E-02  0.8962521E-01
         -2   -1    0    0    0  501 -0.00000000000E+00  0.00000000000E+00  0.37710513926E+03  0.37710513926E+03  0.00000000000E+00 0.  1.
          1   -1    0    0  501    0  0.00000000000E+00 -0.00000000000E+00 -0.12772674890E+04  0.12772674890E+04  0.00000000000E+00 0. -1.
        -24    2    1    2    0    0 -0.17175523292E+03 -0.37137535780E+02  0.16129619610E+03  0.25133436537E+03  0.79205073955E+02 0.  0.
        254    2    1    2    0    0  0.17175523292E+03  0.37137535780E+02 -0.10614585459E+04  0.14030382629E+04  0.90052377314E+03 0.  0.
         23    2    4    4    0    0  0.12848439518E+03  0.44134602482E+03 -0.37600269879E+03  0.60075575429E+03  0.90746313334E+02 0.  0.
         23    2    4    4    0    0  0.43270837741E+02 -0.40420848904E+03 -0.68545584708E+03  0.80228250862E+03  0.92469656255E+02 0.  0.
          3    1    3    3  502    0 -0.14191683699E+03 -0.24825388738E+02  0.82122739050E+02  0.16583375053E+03  0.00000000000E+00 0. -1.
         -2    1    3    3    0  502 -0.29838395936E+02 -0.12312147042E+02  0.79173457050E+02  0.85500614840E+02  0.00000000000E+00 0.  1.
         11    1    5    5    0    0  0.48463509001E+01  0.50319265916E+02 -0.81329464751E+02  0.95760103780E+02  0.00000000000E+00 0.  1.
        -11    1    5    5    0    0  0.12363804428E+03  0.39102675891E+03 -0.29467323404E+03  0.50499565051E+03  0.00000000000E+00 0. -1.
          4    1    6    6  503    0  0.71505856705E+01 -0.26407254863E+03 -0.51404604527E+03  0.57795222854E+03  0.00000000000E+00 0. -1.
         -4    1    6    6    0  503  0.36120252070E+02 -0.14013594041E+03 -0.17140980181E+03  0.22433028008E+03  0.00000000000E+00 0.  1.
<mgrwt>
<rscale>  0 0.13880405E+04</rscale>
<asrwt>0</asrwt>
<pdfrwt beam="1">  1        1 0.19650269E+00 0.13880405E+04</pdfrwt>
<pdfrwt beam="2">  1       -2 0.58016176E-01 0.13880405E+04</pdfrwt>
<totfact> 0.22353578E+01</totfact>
</mgrwt>
</event>
<event>
12    4  0.4486176E-008  0.1611659E+04  0.7818608E-02  0.8813417E-01
          1   -1    0    0  501    0  0.00000000000E+00  0.00000000000E+00  0.11453013758E+04  0.11453013758E+04  0.00000000000E+00 0. -1.
         -2   -1    0    0    0  501 -0.00000000000E+00 -0.00000000000E+00 -0.56697840597E+03  0.56697840597E+03  0.00000000000E+00 0.  1.
        -24    2    1    2    0    0  0.51046602558E+03 -0.18500587890E+03  0.23004958036E+03  0.59537339159E+03  0.82121419227E+02 0.  0.
        254    2    1    2    0    0 -0.51046602558E+03  0.18500587890E+03  0.34827338951E+03  0.11169063902E+04  0.91180194787E+03 0.  0.
         23    2    4    4    0    0  0.21838422335E+03  0.17171485924E+03 -0.21889085106E+02  0.29410011307E+03  0.94011076856E+02 0.  0.
         23    2    4    4    0    0 -0.72885024893E+03  0.13291019659E+02  0.37016247462E+03  0.82280627714E+03  0.92685357555E+02 0.  0.
          1    1    3    3  502    0  0.45817037947E+03 -0.16824635791E+03  0.23201260441E+03  0.54042278096E+03  0.00000000000E+00 0. -1.
         -2    1    3    3    0  502  0.52295646116E+02 -0.16759520982E+02 -0.19630240484E+01  0.54950610640E+02  0.00000000000E+00 0.  1.
         11    1    5    5    0    0  0.16432387105E+03  0.97815583121E+02  0.22123900102E+02  0.19250893448E+03  0.00000000000E+00 0. -1.
        -11    1    5    5    0    0  0.54060352299E+02  0.73899276115E+02 -0.44012985208E+02  0.10159117859E+03  0.00000000000E+00 0.  1.
          3    1    6    6  503    0 -0.70725604213E+03 -0.20697548739E+01  0.34789085315E+03  0.78818997629E+03  0.00000000000E+00 0. -1.
         -3    1    6    6    0  503 -0.21594206807E+02  0.15360774533E+02  0.22271621467E+02  0.34616300851E+02  0.00000000000E+00 0.  1.
<mgrwt>
<rscale>  0 0.16116590E+04</rscale>
<asrwt>0</asrwt>
<pdfrwt beam="1">  1        1 0.17620021E+00 0.16116590E+04</pdfrwt>
<pdfrwt beam="2">  1       -2 0.87227447E-01 0.16116590E+04</pdfrwt>
<totfact> 0.11196145E+01</totfact>
</mgrwt>
</event>
<event>
12    4  0.4486176E-008  0.2711747E+04  0.7818608E-02  0.8331204E-01
          1   -1    0    0  501    0  0.00000000000E+00  0.00000000000E+00  0.13292738650E+04  0.13292738650E+04  0.00000000000E+00 0. -1.
         -2   -1    0    0    0  501 -0.00000000000E+00 -0.00000000000E+00 -0.13830050704E+04  0.13830050704E+04  0.00000000000E+00 0.  1.
        -24    2    1    2    0    0 -0.41980602684E+03 -0.11154311303E+04  0.13519980144E+03  0.12020735103E+04  0.79234028494E+02 0.  0.
        254    2    1    2    0    0  0.41980602684E+03  0.11154311303E+04 -0.18893100679E+03  0.15102054251E+04  0.90807587464E+03 0.  0.
         23    2    4    4    0    0  0.45548429992E+03  0.88833001415E+03  0.22571692338E+03  0.10274951642E+04  0.90565012104E+02 0.  0.
         23    2    4    4    0    0 -0.35678273087E+02  0.22710111613E+03 -0.41464793017E+03  0.48271026091E+03  0.90710715316E+02 0.  0.
          1    1    3    3  502    0 -0.93033480915E+02 -0.21908860387E+03  0.57469950556E+02  0.24486290069E+03  0.00000000000E+00 0. -1.
         -2    1    3    3    0  502 -0.32677254592E+03 -0.89634252642E+03  0.77729850888E+02  0.95721060961E+03  0.00000000000E+00 0.  1.
         11    1    5    5    0    0  0.39931578788E+02  0.14928450983E+03  0.34766665179E+02  0.15839544459E+03  0.00000000000E+00 0.  1.
        -11    1    5    5    0    0  0.41555272114E+03  0.73904550432E+03  0.19095025820E+03  0.86909971960E+03  0.00000000000E+00 0. -1.
          1    1    6    6  503    0 -0.25105128743E+02  0.15256487417E+03 -0.35310692464E+03  0.38547478328E+03  0.00000000000E+00 0. -1.
         -1    1    6    6    0  503 -0.10573144344E+02  0.74536241965E+02 -0.61541005536E+02  0.97235477631E+02  0.00000000000E+00 0.  1.
<mgrwt>
<rscale>  0 0.27117467E+04</rscale>
<asrwt>0</asrwt>
<pdfrwt beam="1">  1        1 0.20450367E+00 0.27117467E+04</pdfrwt>
<pdfrwt beam="2">  1       -2 0.21277001E+00 0.27117467E+04</pdfrwt>
<totfact> 0.72551440E-01</totfact>
</mgrwt>
</event>
<event>
12    4  0.4486176E-008  0.1461760E+04  0.7818608E-02  0.8910288E-01
         -2   -1    0    0    0  501 -0.00000000000E+00  0.00000000000E+00  0.20418483260E+03  0.20418483260E+03  0.00000000000E+00 0.  1.
          1   -1    0    0  501    0  0.00000000000E+00 -0.00000000000E+00 -0.26161870884E+04  0.26161870884E+04  0.00000000000E+00 0. -1.
        -24    2    1    2    0    0 -0.15121203882E+03 -0.36337093929E+03 -0.11782280453E+04  0.12449259136E+04  0.81949273564E+02 0.  0.
        254    2    1    2    0    0  0.15121203882E+03  0.36337093929E+03 -0.12337742105E+04  0.15754460074E+04  0.89717768557E+03 0.  0.
         23    2    4    4    0    0  0.38983364934E+03  0.53927780019E+03 -0.81662456834E+03  0.10573376109E+04  0.91084125594E+02 0.  0.
         23    2    4    4    0    0 -0.23862161052E+03 -0.17590686090E+03 -0.41714964216E+03  0.51810839645E+03  0.80864020425E+02 0.  0.
          3    1    3    3  502    0 -0.73897919697E+02 -0.18883863294E+03 -0.73230078097E+03  0.75985878006E+03  0.00000000000E+00 0. -1.
         -4    1    3    3    0  502 -0.77314119119E+02 -0.17453230635E+03 -0.44592726433E+03  0.48506713355E+03  0.00000000000E+00 0.  1.
         11    1    5    5    0    0  0.39315829624E+03  0.53089334684E+03 -0.81312980278E+03  0.10476646734E+04  0.00000000000E+00 0.  1.
        -11    1    5    5    0    0 -0.33246469043E+01  0.83844533500E+01 -0.34947655579E+01  0.96729375746E+01  0.00000000000E+00 0. -1.
          1    1    6    6  503    0 -0.17821128168E+03 -0.16508759331E+03 -0.35967142354E+03  0.43402385567E+03  0.00000000000E+00 0. -1.
         -1    1    6    6    0  503 -0.60410328844E+02 -0.10819267592E+02 -0.57478218622E+02  0.84084540781E+02  0.00000000000E+00 0.  1.
<mgrwt>
<rscale>  0 0.14617602E+04</rscale>
<asrwt>0</asrwt>
<pdfrwt beam="1">  1        1 0.40249032E+00 0.14617602E+04</pdfrwt>
<pdfrwt beam="2">  1       -2 0.31413051E-01 0.14617602E+04</pdfrwt>
<totfact> 0.90427374E+00</totfact>
</mgrwt>
</event>
<event>
12    4  0.4486176E-008  0.1808281E+04  0.7818608E-02  0.8701908E-01
          1   -1    0    0  501    0  0.00000000000E+00  0.00000000000E+00  0.18130982336E+04  0.18130982336E+04  0.00000000000E+00 0. -1.
         -2   -1    0    0    0  501 -0.00000000000E+00 -0.00000000000E+00 -0.45086934631E+03  0.45086934631E+03  0.00000000000E+00 0.  1.
        -24    2    1    2    0    0 -0.39837214539E+03 -0.58094846769E+02 -0.18540110625E+03  0.45035129655E+03  0.79795630572E+02 0.  0.
        254    2    1    2    0    0  0.39837214539E+03  0.58094846769E+02  0.15476299935E+04  0.18136162833E+04  0.85555248169E+03 0.  0.
         23    2    4    4    0    0  0.38222392874E+03 -0.84854303874E+02  0.15894284950E+04  0.16395058215E+04  0.91657042530E+02 0.  0.
         23    2    4    4    0    0  0.16148216655E+02  0.14294915064E+03 -0.41798501425E+02  0.17411046189E+03  0.88724932508E+02 0.  0.
          3    1    3    3  502    0 -0.24264606536E+03  0.21175030745E+01 -0.95944386405E+02  0.26093470857E+03  0.00000000000E+00 0. -1.
         -4    1    3    3    0  502 -0.15572608003E+03 -0.60212349843E+02 -0.89456719845E+02  0.18941658798E+03  0.00000000000E+00 0.  1.
         11    1    5    5    0    0  0.39334436852E+02 -0.17772810884E+02  0.88725609657E+02  0.98667646866E+02  0.00000000000E+00 0. -1.
        -11    1    5    5    0    0  0.34288949188E+03 -0.67081492990E+02  0.15007028853E+04  0.15408381746E+04  0.00000000000E+00 0.  1.
          3    1    6    6  503    0 -0.32341837591E+02  0.95297145763E+02 -0.19070294428E+02  0.10242663999E+03  0.00000000000E+00 0. -1.
         -3    1    6    6    0  503  0.48490054246E+02  0.47652004880E+02 -0.22728206997E+02  0.71683821907E+02  0.00000000000E+00 0.  1.
<mgrwt>
<rscale>  0 0.18082814E+04</rscale>
<asrwt>0</asrwt>
<pdfrwt beam="1">  1        1 0.27893819E+00 0.18082814E+04</pdfrwt>
<pdfrwt beam="2">  1       -2 0.69364516E-01 0.18082814E+04</pdfrwt>
<totfact> 0.62656868E+00</totfact>
</mgrwt>
</event>
<event>
12    4  0.4486176E-008  0.2236564E+04  0.7818608E-02  0.8503362E-01
          1   -1    0    0  501    0  0.00000000000E+00  0.00000000000E+00  0.28357147505E+04  0.28357147505E+04  0.00000000000E+00 0. -1.
         -2   -1    0    0    0  501 -0.00000000000E+00 -0.00000000000E+00 -0.44100166811E+03  0.44100166811E+03  0.00000000000E+00 0.  1.
        -24    2    1    2    0    0 -0.25947513343E+03  0.47976240111E+03  0.21087224120E+04  0.21795929117E+04  0.80098335034E+02 0.  0.
        254    2    1    2    0    0  0.25947513343E+03 -0.47976240111E+03  0.28599067036E+03  0.10971235069E+04  0.90795926095E+03 0.  0.
         23    2    4    4    0    0  0.51818616149E+03 -0.54852823231E+02  0.26281289262E+03  0.59047425997E+03  0.89797020981E+02 0.  0.
         23    2    4    4    0    0 -0.25871102806E+03 -0.42490957788E+03  0.23177777746E+02  0.50664924697E+03  0.93148830688E+02 0.  0.
          3    1    3    3  502    0 -0.23239971285E+03  0.46585332424E+03  0.20061745278E+04  0.20726227785E+04  0.00000000000E+00 0. -1.
         -4    1    3    3    0  502 -0.27075420584E+02  0.13909076869E+02  0.10254788427E+03  0.10697013316E+03  0.00000000000E+00 0.  1.
         11    1    5    5    0    0  0.36593514664E+03 -0.52511888294E+02  0.22779330615E+03  0.43423014668E+03  0.00000000000E+00 0. -1.
        -11    1    5    5    0    0  0.15225101486E+03 -0.23409349362E+01  0.35019586469E+02  0.15624411329E+03  0.00000000000E+00 0.  1.
          2    1    6    6  503    0 -0.39360858804E+02 -0.50345097255E+02 -0.27624892368E+02  0.69620691621E+02  0.00000000000E+00 0. -1.
         -2    1    6    6    0  503 -0.21935016926E+03 -0.37456448063E+03  0.50802670114E+02  0.43702855535E+03  0.00000000000E+00 0.  1.
<mgrwt>
<rscale>  0 0.22365643E+04</rscale>
<asrwt>0</asrwt>
<pdfrwt beam="1">  1        1 0.43626380E+00 0.22365643E+04</pdfrwt>
<pdfrwt beam="2">  1       -2 0.67846412E-01 0.22365643E+04</pdfrwt>
<totfact> 0.12495338E+00</totfact>
</mgrwt>
</event>
<event>
12    4  0.4486176E-008  0.1863491E+04  0.7818608E-02  0.8673245E-01
         -2   -1    0    0    0  501 -0.00000000000E+00  0.00000000000E+00  0.84582794269E+03  0.84582794269E+03  0.00000000000E+00 0.  1.
          1   -1    0    0  501    0  0.00000000000E+00 -0.00000000000E+00 -0.10263909388E+04  0.10263909388E+04  0.00000000000E+00 0. -1.
        -24    2    1    2    0    0 -0.11533854174E+03 -0.64999627474E+03  0.27821478459E+03  0.72075466485E+03  0.79282306678E+02 0.  0.
        254    2    1    2    0    0  0.11533854174E+03  0.64999627474E+03 -0.45877778072E+03  0.11514642167E+04  0.82437531124E+03 0.  0.
         23    2    4    4    0    0 -0.70596052006E+02  0.62349922609E+02  0.20323773031E+03  0.24197275091E+03  0.91509134807E+02 0.  0.
         23    2    4    4    0    0  0.18593459375E+03  0.58764635213E+03 -0.66201551103E+03  0.90949146575E+03  0.94922500516E+02 0.  0.
          3    1    3    3  502    0 -0.10902076414E+03 -0.63537736807E+03  0.25647987916E+03  0.69380966791E+03  0.00000000000E+00 0. -1.
         -2    1    3    3    0  502 -0.63177776043E+01 -0.14618906669E+02  0.21734905433E+02  0.26944996943E+02  0.00000000000E+00 0.  1.
         11    1    5    5    0    0 -0.76054629900E+02  0.81401303158E+02  0.17583162018E+03  0.20815195781E+03  0.00000000000E+00 0. -1.
        -11    1    5    5    0    0  0.54585778944E+01 -0.19051380549E+02  0.27406110136E+02  0.33820793105E+02  0.00000000000E+00 0.  1.
          4    1    6    6  503    0  0.17060863023E+03  0.45496493184E+03 -0.56004688749E+03  0.74145324201E+03  0.00000000000E+00 0. -1.
         -4    1    6    6    0  503  0.15325963516E+02  0.13268142030E+03 -0.10196862354E+03  0.16803822374E+03  0.00000000000E+00 0.  1.
<mgrwt>
<rscale>  0 0.18634915E+04</rscale>
<asrwt>0</asrwt>
<pdfrwt beam="1">  1        1 0.15790630E+00 0.18634915E+04</pdfrwt>
<pdfrwt beam="2">  1       -2 0.13012738E+00 0.18634915E+04</pdfrwt>
<totfact> 0.51441445E+00</totfact>
</mgrwt>
</event>
<event>
12    4  0.4486176E-008  0.3359515E+04  0.7818608E-02  0.8147915E-01
         -2   -1    0    0    0  501 -0.00000000000E+00  0.00000000000E+00  0.10806970566E+04  0.10806970566E+04  0.00000000000E+00 0.  1.
          1   -1    0    0  501    0  0.00000000000E+00 -0.00000000000E+00 -0.26108945592E+04  0.26108945592E+04  0.00000000000E+00 0. -1.
        -24    2    1    2    0    0  0.15037781390E+04  0.34533753165E+03 -0.95351331089E+03  0.18154779875E+04  0.78523798235E+02 0.  0.
        254    2    1    2    0    0 -0.15037781390E+04 -0.34533753165E+03 -0.57668419174E+03  0.18761136284E+04  0.89812637601E+03 0.  0.
         23    2    4    4    0    0 -0.13774296894E+04 -0.33358981935E+02 -0.26222882720E+03  0.14055283393E+04  0.91217235023E+02 0.  0.
         23    2    4    4    0    0 -0.12634844964E+03 -0.31197854971E+03 -0.31445536454E+03  0.47058528901E+03  0.96300528239E+02 0.  0.
          1    1    3    3  502    0  0.12236432251E+04  0.29474036892E+03 -0.80917568923E+03  0.14963087660E+04  0.00000000000E+00 0. -1.
         -2    1    3    3    0  502  0.28013491398E+03  0.50597162727E+02 -0.14433762166E+03  0.31916922147E+03  0.00000000000E+00 0.  1.
         11    1    5    5    0    0 -0.24717002300E+03 -0.18335211024E+02 -0.14064776800E+02  0.24824789663E+03  0.00000000000E+00 0. -1.
        -11    1    5    5    0    0 -0.11302596664E+04 -0.15023770911E+02 -0.24816405040E+03  0.11572804427E+04  0.00000000000E+00 0.  1.
          1    1    6    6  503    0 -0.44017697314E+02 -0.86562500488E+02 -0.15345400413E+03  0.18160053841E+03  0.00000000000E+00 0. -1.
         -1    1    6    6    0  503 -0.82330752324E+02 -0.22541604922E+03 -0.16100136041E+03  0.28898475060E+03  0.00000000000E+00 0.  1.
<mgrwt>
<rscale>  0 0.33595155E+04</rscale>
<asrwt>0</asrwt>
<pdfrwt beam="1">  1        1 0.40167609E+00 0.33595155E+04</pdfrwt>
<pdfrwt beam="2">  1       -2 0.16626109E+00 0.33595155E+04</pdfrwt>
<totfact> 0.18666908E-01</totfact>
</mgrwt>
</event>
<event>
12    4  0.4486176E-008  0.1384442E+04  0.7818608E-02  0.8965158E-01
          1   -1    0    0  501    0  0.00000000000E+00  0.00000000000E+00  0.74147640343E+03  0.74147640343E+03  0.00000000000E+00 0. -1.
         -2   -1    0    0    0  501 -0.00000000000E+00 -0.00000000000E+00 -0.64623755344E+03  0.64623755344E+03  0.00000000000E+00 0.  1.
        -24    2    1    2    0    0  0.38017114106E+03  0.10251383503E+03  0.39025884448E+02  0.40526219217E+03  0.87608457796E+02 0.  0.
        254    2    1    2    0    0 -0.38017114106E+03 -0.10251383503E+03  0.56212965544E+02  0.98245176470E+03  0.89833868313E+03 0.  0.
         23    2    4    4    0    0 -0.47095263020E+03  0.56471029290E+02 -0.30220620062E+03  0.56971402630E+03  0.90885240984E+02 0.  0.
         23    2    4    4    0    0  0.90781489143E+02 -0.15898486432E+03  0.35841916616E+03  0.41273773841E+03  0.91491399479E+02 0.  0.
          1    1    3    3  502    0  0.33303600559E+03  0.10506032980E+03  0.58716265801E+02  0.35411615861E+03  0.00000000000E+00 0. -1.
         -2    1    3    3    0  502  0.47135135464E+02 -0.25464947671E+01 -0.19690381353E+02  0.51146033557E+02  0.00000000000E+00 0.  1.
         11    1    5    5    0    0 -0.10892819782E+03  0.37848365214E+02 -0.38994700983E+02  0.12173100564E+03  0.00000000000E+00 0. -1.
        -11    1    5    5    0    0 -0.36202443237E+03  0.18622664076E+02 -0.26321149963E+03  0.44798302065E+03  0.00000000000E+00 0.  1.
          2    1    6    6  503    0  0.29743971156E+02 -0.11663668437E+03  0.15548219611E+03  0.19663044847E+03  0.00000000000E+00 0. -1.
         -2    1    6    6    0  503  0.61037517987E+02 -0.42348179954E+02  0.20293697005E+03  0.21610728993E+03  0.00000000000E+00 0.  1.
<mgrwt>
<rscale>  0 0.13844420E+04</rscale>
<asrwt>0</asrwt>
<pdfrwt beam="1">  1        1 0.11407329E+00 0.13844420E+04</pdfrwt>
<pdfrwt beam="2">  1       -2 0.99421162E-01 0.13844420E+04</pdfrwt>
<totfact> 0.17853651E+01</totfact>
</mgrwt>
</event>
<event>
12    4  0.4486176E-008  0.2034318E+04  0.7818608E-02  0.8590742E-01
         -2   -1    0    0    0  501 -0.00000000000E+00  0.00000000000E+00  0.12055833745E+04  0.12055833745E+04  0.00000000000E+00 0.  1.
          1   -1    0    0  501    0  0.00000000000E+00 -0.00000000000E+00 -0.85818382289E+03  0.85818382289E+03  0.00000000000E+00 0. -1.
        -24    2    1    2    0    0 -0.40621543804E+03 -0.44645895118E+03  0.67294964517E+03  0.90740884949E+03  0.78695730634E+02 0.  0.
        254    2    1    2    0    0  0.40621543804E+03  0.44645895118E+03 -0.32555009354E+03  0.11563583479E+04  0.93104521275E+03 0.  0.
         23    2    4    4    0    0 -0.50081643714E+02  0.59804078553E+03 -0.87065713679E+02  0.61324348883E+03  0.91247936411E+02 0.  0.
         23    2    4    4    0    0  0.45629708175E+03 -0.15158183436E+03 -0.23848437987E+03  0.54311485907E+03  0.83155705680E+02 0.  0.
          3    1    3    3  502    0 -0.86458955588E+01 -0.85421249261E+01  0.95109406089E+00  0.12191143842E+02  0.00000000000E+00 0. -1.
         -4    1    3    3    0  502 -0.39756954248E+03 -0.43791682625E+03  0.67199855111E+03  0.89521770565E+03  0.00000000000E+00 0.  1.
         11    1    5    5    0    0  0.15407410572E+02  0.17034214146E+03  0.39844571646E+01  0.17108392490E+03  0.00000000000E+00 0. -1.
        -11    1    5    5    0    0 -0.65489054285E+02  0.42769864407E+03 -0.91050170843E+02  0.44215956394E+03  0.00000000000E+00 0.  1.
          4    1    6    6  503    0  0.18861040614E+03 -0.10588712928E+03 -0.10043340693E+03  0.23848026895E+03  0.00000000000E+00 0. -1.
         -4    1    6    6    0  503  0.26768667561E+03 -0.45694705077E+02 -0.13805097293E+03  0.30463459012E+03  0.00000000000E+00 0.  1.
<mgrwt>
<rscale>  0 0.20343177E+04</rscale>
<asrwt>0</asrwt>
<pdfrwt beam="1">  1        1 0.13202828E+00 0.20343177E+04</pdfrwt>
<pdfrwt beam="2">  1       -2 0.18547437E+00 0.20343177E+04</pdfrwt>
<totfact> 0.26562477E+00</totfact>
</mgrwt>
</event>
<event>
12    4  0.4486176E-008  0.1254878E+04  0.7818608E-02  0.9066133E-01
         -2   -1    0    0    0  501 -0.00000000000E+00  0.00000000000E+00  0.16563170518E+03  0.16563170518E+03  0.00000000000E+00 0.  1.
          1   -1    0    0  501    0  0.00000000000E+00 -0.00000000000E+00 -0.23768381742E+04  0.23768381742E+04  0.00000000000E+00 0. -1.
        -24    2    1    2    0    0 -0.26977188728E+03 -0.14485854818E+02 -0.29804540325E+03  0.40984631482E+03  0.78461635329E+02 0.  0.
        254    2    1    2    0    0  0.26977188728E+03  0.14485854818E+02 -0.19131610657E+04  0.21326235645E+04  0.90272437287E+03 0.  0.
         23    2    4    4    0    0  0.14119306575E+03  0.35226526656E+03 -0.15960029406E+04  0.16430690081E+04  0.91782781859E+02 0.  0.
         23    2    4    4    0    0  0.12857882152E+03 -0.33777941174E+03 -0.31715812515E+03  0.48955455646E+03  0.91907252536E+02 0.  0.
          3    1    3    3  502    0 -0.67846638706E+02 -0.25683718305E+02 -0.12091181478E+03  0.14100527197E+03  0.00000000000E+00 0. -1.
         -4    1    3    3    0  502 -0.20192524857E+03  0.11197863487E+02 -0.17713358847E+03  0.26884104285E+03  0.00000000000E+00 0.  1.
         11    1    5    5    0    0  0.13121787044E+03  0.24040671947E+03 -0.12348251654E+04  0.12648346570E+04  0.00000000000E+00 0.  1.
        -11    1    5    5    0    0  0.99751953141E+01  0.11185854709E+03 -0.36117777515E+03  0.37823435109E+03  0.00000000000E+00 0. -1.
          2    1    6    6  503    0  0.13502834341E+03 -0.27827276182E+03 -0.28938202375E+03  0.42356857670E+03  0.00000000000E+00 0. -1.
         -2    1    6    6    0  503 -0.64495218859E+01 -0.59506649919E+02 -0.27776101399E+02  0.65985979769E+02  0.00000000000E+00 0.  1.
<mgrwt>
<rscale>  0 0.12548781E+04</rscale>
<asrwt>0</asrwt>
<pdfrwt beam="1">  1        1 0.36566738E+00 0.12548781E+04</pdfrwt>
<pdfrwt beam="2">  1       -2 0.25481803E-01 0.12548781E+04</pdfrwt>
<totfact> 0.19848947E+01</totfact>
</mgrwt>
</event>
<event>
12    4  0.4486176E-008  0.2726624E+04  0.7818608E-02  0.8326418E-01
          1   -1    0    0  501    0  0.00000000000E+00  0.00000000000E+00  0.17024914681E+04  0.17024914681E+04  0.00000000000E+00 0. -1.
         -2   -1    0    0    0  501 -0.00000000000E+00 -0.00000000000E+00 -0.10917060383E+04  0.10917060383E+04  0.00000000000E+00 0.  1.
        -24    2    1    2    0    0  0.10027496720E+04  0.12092661980E+03  0.95087444747E+03  0.13894768900E+04  0.79709854554E+02 0.  0.
        254    2    1    2    0    0 -0.10027496720E+04 -0.12092661980E+03 -0.34008901763E+03  0.14047206164E+04  0.91512256991E+03 0.  0.
         23    2    4    4    0    0  0.12611972823E+03 -0.13036003641E+03 -0.15974381758E+03  0.25811121936E+03  0.90572564090E+02 0.  0.
         23    2    4    4    0    0 -0.11288694003E+04  0.94334166121E+01 -0.18034520005E+03  0.11466093970E+04  0.88054561961E+02 0.  0.
          3    1    3    3  502    0  0.88689459175E+03  0.88715546115E+02  0.81150677375E+03  0.12054027165E+04  0.00000000000E+00 0. -1.
         -4    1    3    3    0  502  0.11585508028E+03  0.32211073683E+02  0.13936767372E+03  0.18407417356E+03  0.00000000000E+00 0.  1.
         11    1    5    5    0    0  0.66057897515E+02 -0.10573202921E+02 -0.70044390866E+02  0.96858944532E+02  0.00000000000E+00 0.  1.
        -11    1    5    5    0    0  0.60061830714E+02 -0.11978683349E+03 -0.89699426714E+02  0.16125227483E+03  0.00000000000E+00 0. -1.
          3    1    6    6  503    0 -0.82845927364E+03 -0.28436169134E+02 -0.11548621181E+03  0.83695307450E+03  0.00000000000E+00 0. -1.
         -3    1    6    6    0  503 -0.30041012662E+03  0.37869585746E+02 -0.64858988240E+02  0.30965632249E+03  0.00000000000E+00 0.  1.
<mgrwt>
<rscale>  0 0.27266244E+04</rscale>
<asrwt>0</asrwt>
<pdfrwt beam="1">  1        1 0.26192176E+00 0.27266244E+04</pdfrwt>
<pdfrwt beam="2">  1       -2 0.16795477E+00 0.27266244E+04</pdfrwt>
<totfact> 0.80096334E-01</totfact>
</mgrwt>
</event>
<event>
12    4  0.4486176E-008  0.1448795E+04  0.7818608E-02  0.8919236E-01
          1   -1    0    0  501    0  0.00000000000E+00  0.00000000000E+00  0.69778085959E+03  0.69778085959E+03  0.00000000000E+00 0. -1.
         -2   -1    0    0    0  501 -0.00000000000E+00 -0.00000000000E+00 -0.75202975041E+03  0.75202975041E+03  0.00000000000E+00 0.  1.
        -24    2    1    2    0    0  0.22076784966E+02 -0.15164585395E+03  0.39701853460E+03  0.43292461215E+03  0.79474231915E+02 0.  0.
        254    2    1    2    0    0 -0.22076784966E+02  0.15164585395E+03 -0.45126742541E+03  0.10168859978E+04  0.89829337854E+03 0.  0.
         23    2    4    4    0    0 -0.47153009812E+02  0.41357718372E+03  0.61342562092E+02  0.43287617536E+03  0.10173190279E+03 0.  0.
         23    2    4    4    0    0  0.25076224847E+02 -0.26193132977E+03 -0.51260998751E+03  0.58400982249E+03  0.95192619999E+02 0.  0.
          3    1    3    3  502    0 -0.61133858424E+01 -0.33149567812E+02  0.18806256069E+03  0.19105966101E+03  0.00000000000E+00 0. -1.
         -4    1    3    3    0  502  0.28190170808E+02 -0.11849628613E+03  0.20895597390E+03  0.24186495114E+03  0.00000000000E+00 0.  1.
         11    1    5    5    0    0  0.29914850447E+02  0.17881271721E+03  0.31008728336E+02  0.18393049597E+03  0.00000000000E+00 0. -1.
        -11    1    5    5    0    0 -0.77067860259E+02  0.23476446651E+03  0.30333833756E+02  0.24894567939E+03  0.00000000000E+00 0.  1.
          4    1    6    6  503    0  0.47110928908E+02 -0.67362830207E+02 -0.12265749260E+03  0.14765517603E+03  0.00000000000E+00 0.  1.
         -4    1    6    6    0  503 -0.22034704061E+02 -0.19456849956E+03 -0.38995249491E+03  0.43635464646E+03  0.00000000000E+00 0. -1.
<mgrwt>
<rscale>  0 0.14487953E+04</rscale>
<asrwt>0</asrwt>
<pdfrwt beam="1">  1        1 0.10735090E+00 0.14487953E+04</pdfrwt>
<pdfrwt beam="2">  1       -2 0.11569688E+00 0.14487953E+04</pdfrwt>
<totfact> 0.13525421E+01</totfact>
</mgrwt>
</event>
<event>
12    4  0.4486176E-008  0.2276903E+04  0.7818608E-02  0.8487084E-01
          1   -1    0    0  501    0  0.00000000000E+00  0.00000000000E+00  0.10684733124E+04  0.10684733124E+04  0.00000000000E+00 0. -1.
         -2   -1    0    0    0  501 -0.00000000000E+00 -0.00000000000E+00 -0.12130130525E+04  0.12130130525E+04  0.00000000000E+00 0.  1.
        -24    2    1    2    0    0  0.55025871890E+03  0.28122086208E+03  0.67362997078E+03  0.91764046121E+03  0.80105227764E+02 0.  0.
        254    2    1    2    0    0 -0.55025871890E+03 -0.28122086208E+03 -0.81816971091E+03  0.13638459037E+04  0.89933538909E+03 0.  0.
         23    2    4    4    0    0 -0.68762029752E+02 -0.50768046342E+02  0.18533254365E+03  0.22336130892E+03  0.90755227529E+02 0.  0.
         23    2    4    4    0    0 -0.48149668914E+03 -0.23045281574E+03 -0.10035022546E+04  0.11404845947E+04  0.93492106464E+02 0.  0.
          3    1    3    3  502    0  0.46265939053E+03  0.26363296064E+03  0.59651555288E+03  0.79961669218E+03  0.00000000000E+00 0. -1.
         -4    1    3    3    0  502  0.87599328365E+02  0.17587901442E+02  0.77114417903E+02  0.11802376903E+03  0.00000000000E+00 0.  1.
         11    1    5    5    0    0 -0.54031004582E+02 -0.72086125015E+02  0.17212940756E+03  0.19427890215E+03  0.00000000000E+00 0.  1.
        -11    1    5    5    0    0 -0.14731025170E+02  0.21318078673E+02  0.13203136089E+02  0.29082406768E+02  0.00000000000E+00 0. -1.
          2    1    6    6  503    0 -0.86023178666E+01  0.10857119204E+01 -0.18403128037E+01  0.88637122171E+01  0.00000000000E+00 0. -1.
         -2    1    6    6    0  503 -0.47289437128E+03 -0.23153852766E+03 -0.10016619418E+04  0.11316208825E+04  0.00000000000E+00 0.  1.
<mgrwt>
<rscale>  0 0.22769032E+04</rscale>
<asrwt>0</asrwt>
<pdfrwt beam="1">  1        1 0.16438051E+00 0.22769032E+04</pdfrwt>
<pdfrwt beam="2">  1       -2 0.18661739E+00 0.22769032E+04</pdfrwt>
<totfact> 0.17381138E+00</totfact>
</mgrwt>
</event>
<event>
12    4  0.4486176E-008  0.2288726E+04  0.7818608E-02  0.8482380E-01
         -2   -1    0    0    0  501 -0.00000000000E+00  0.00000000000E+00  0.11297257436E+04  0.11297257436E+04  0.00000000000E+00 0.  1.
          1   -1    0    0  501    0  0.00000000000E+00 -0.00000000000E+00 -0.11591901032E+04  0.11591901032E+04  0.00000000000E+00 0. -1.
        -24    2    1    2    0    0 -0.80145773658E+03  0.49960711333E+03  0.16584242965E+03  0.96217036734E+03  0.79538249359E+02 0.  0.
        254    2    1    2    0    0  0.80145773658E+03 -0.49960711333E+03 -0.19530678928E+03  0.13267454795E+04  0.91113503623E+03 0.  0.
         23    2    4    4    0    0 -0.14993803108E+03 -0.17356288441E+03  0.10961681631E+03  0.27195574293E+03  0.96636389023E+02 0.  0.
         23    2    4    4    0    0  0.95139576766E+03 -0.32604422891E+03 -0.30492360559E+03  0.10547897366E+04  0.90245427649E+02 0.  0.
          1    1    3    3  502    0 -0.30203899226E+03  0.18570509780E+03  0.23359704001E+02  0.35533028574E+03  0.00000000000E+00 0. -1.
         -2    1    3    3    0  502 -0.49941874432E+03  0.31390201553E+03  0.14248272565E+03  0.60684008160E+03  0.00000000000E+00 0.  1.
         11    1    5    5    0    0 -0.80233559663E+02 -0.68553649477E+02  0.94406791520E+00  0.10553633600E+03  0.00000000000E+00 0. -1.
        -11    1    5    5    0    0 -0.69704471418E+02 -0.10500923494E+03  0.10867274839E+03  0.16641940693E+03  0.00000000000E+00 0.  1.
          4    1    6    6  503    0  0.22897301184E+03 -0.99647167612E+02 -0.41130237203E+02  0.25308080642E+03  0.00000000000E+00 0. -1.
         -4    1    6    6    0  503  0.72242275582E+03 -0.22639706130E+03 -0.26379336839E+03  0.80170893016E+03  0.00000000000E+00 0.  1.
<mgrwt>
<rscale>  0 0.22887262E+04</rscale>
<asrwt>0</asrwt>
<pdfrwt beam="1">  1        1 0.17833694E+00 0.22887262E+04</pdfrwt>
<pdfrwt beam="2">  1       -2 0.17380396E+00 0.22887262E+04</pdfrwt>
<totfact> 0.18206338E+00</totfact>
</mgrwt>
</event>
<event>
12    4  0.4486176E-008  0.1711883E+04  0.7818608E-02  0.8754616E-01
         -2   -1    0    0    0  501 -0.00000000000E+00  0.00000000000E+00  0.46056389856E+03  0.46056389856E+03  0.00000000000E+00 0.  1.
          1   -1    0    0  501    0  0.00000000000E+00 -0.00000000000E+00 -0.15907369608E+04  0.15907369608E+04  0.00000000000E+00 0. -1.
        -24    2    1    2    0    0 -0.49097485818E+02 -0.38708722605E+03  0.14022378686E+03  0.42271159716E+03  0.82312212253E+02 0.  0.
        254    2    1    2    0    0  0.49097485818E+02  0.38708722605E+03 -0.12703968491E+04  0.16285892622E+04  0.94135420913E+03 0.  0.
         23    2    4    4    0    0  0.35101172075E+03  0.54337255117E+03 -0.94638620878E+03  0.11500590672E+04  0.92336581921E+02 0.  0.
         23    2    4    4    0    0 -0.30191423493E+03 -0.15628532512E+03 -0.32401064028E+03  0.47853019499E+03  0.91820174261E+02 0.  0.
          1    1    3    3  502    0 -0.25235232246E+02 -0.12561732373E+03  0.70724072272E+01  0.12832204765E+03  0.00000000000E+00 0. -1.
         -2    1    3    3    0  502 -0.23862253572E+02 -0.26146990232E+03  0.13315137963E+03  0.29438954951E+03  0.00000000000E+00 0.  1.
         11    1    5    5    0    0  0.29765912762E+03  0.40241848200E+03 -0.68595010386E+03  0.84915789810E+03  0.00000000000E+00 0. -1.
        -11    1    5    5    0    0  0.53352593124E+02  0.14095406916E+03 -0.26043610492E+03  0.30090116908E+03  0.00000000000E+00 0.  1.
          2    1    6    6  503    0 -0.82466995792E+02 -0.39016037004E+01 -0.10151902036E+03  0.13085159304E+03  0.00000000000E+00 0. -1.
         -2    1    6    6    0  503 -0.21944723914E+03 -0.15238372142E+03 -0.22249161992E+03  0.34767860195E+03  0.00000000000E+00 0.  1.
<mgrwt>
<rscale>  0 0.17118832E+04</rscale>
<asrwt>0</asrwt>
<pdfrwt beam="1">  1        1 0.24472876E+00 0.17118832E+04</pdfrwt>
<pdfrwt beam="2">  1       -2 0.70855985E-01 0.17118832E+04</pdfrwt>
<totfact> 0.85516641E+00</totfact>
</mgrwt>
</event>
<event>
12    4  0.4486176E-008  0.1105724E+04  0.7818608E-02  0.9199631E-01
         -2   -1    0    0    0  501 -0.00000000000E+00  0.00000000000E+00  0.51654943760E+03  0.51654943760E+03  0.00000000000E+00 0.  1.
          1   -1    0    0  501    0  0.00000000000E+00 -0.00000000000E+00 -0.59172698371E+03  0.59172698371E+03  0.00000000000E+00 0. -1.
        -24    2    1    2    0    0  0.15658475554E+03 -0.76875199871E+02  0.37061779764E+02  0.19546312726E+03  0.80022975305E+02 0.  0.
        254    2    1    2    0    0 -0.15658475554E+03  0.76875199871E+02 -0.11223932587E+03  0.91281329405E+03  0.88893299044E+03 0.  0.
         23    2    4    4    0    0  0.36039604256E+03  0.48729140108E+02 -0.88191289623E+02  0.38634827053E+03  0.96059596015E+02 0.  0.
         23    2    4    4    0    0 -0.51698079809E+03  0.28146059762E+02 -0.24048036249E+02  0.52646502352E+03  0.92335078199E+02 0.  0.
          1    1    3    3  502    0  0.10204037305E+03 -0.68915405264E+02 -0.92349581913E+01  0.12347815705E+03  0.00000000000E+00 0. -1.
         -2    1    3    3    0  502  0.54544382485E+02 -0.79597946070E+01  0.46296737956E+02  0.71984970210E+02  0.00000000000E+00 0.  1.
         11    1    5    5    0    0  0.12438774572E+03 -0.16477998666E+02 -0.62425561075E+02  0.14014559002E+03  0.00000000000E+00 0. -1.
        -11    1    5    5    0    0  0.23600829683E+03  0.65207138774E+02 -0.25765728548E+02  0.24620268051E+03  0.00000000000E+00 0.  1.
          4    1    6    6  503    0 -0.59904637394E+01 -0.98666610757E+01  0.63272131714E+01  0.13163217050E+02  0.00000000000E+00 0. -1.
         -4    1    6    6    0  503 -0.51099033435E+03  0.38012720838E+02 -0.30375249420E+02  0.51330180647E+03  0.00000000000E+00 0.  1.
<mgrwt>
<rscale>  0 0.11057237E+04</rscale>
<asrwt>0</asrwt>
<pdfrwt beam="1">  1        1 0.91034920E-01 0.11057237E+04</pdfrwt>
<pdfrwt beam="2">  1       -2 0.79469144E-01 0.11057237E+04</pdfrwt>
<totfact> 0.42761092E+01</totfact>
</mgrwt>
</event>
<event>
12    4  0.4486176E-008  0.1677071E+04  0.7818608E-02  0.8774550E-01
          1   -1    0    0  501    0  0.00000000000E+00  0.00000000000E+00  0.19304978782E+04  0.19304978782E+04  0.00000000000E+00 0. -1.
         -2   -1    0    0    0  501 -0.00000000000E+00 -0.00000000000E+00 -0.36422838254E+03  0.36422838254E+03  0.00000000000E+00 0.  1.
        -24    2    1    2    0    0  0.48905694749E+03  0.28578998548E+03  0.74793681737E+03  0.94160063029E+03  0.79684694213E+02 0.  0.
        254    2    1    2    0    0 -0.48905694749E+03 -0.28578998548E+03  0.81833267826E+03  0.13531256304E+04  0.91674859462E+03 0.  0.
         23    2    4    4    0    0 -0.57062403366E+03 -0.22423712448E+03  0.10823191937E+03  0.62906135131E+03  0.90055313858E+02 0.  0.
         23    2    4    4    0    0  0.81567086174E+02 -0.61552861000E+02  0.71010075890E+03  0.72406427912E+03  0.97898152561E+02 0.  0.
          1    1    3    3  502    0  0.40577102027E+03  0.22327975724E+03  0.55967265604E+03  0.72645540318E+03  0.00000000000E+00 0. -1.
         -2    1    3    3    0  502  0.83285927215E+02  0.62510228244E+02  0.18826416133E+03  0.21514522711E+03  0.00000000000E+00 0.  1.
         11    1    5    5    0    0 -0.70961156234E+01 -0.12905096893E+02  0.13153745870E+02  0.19746326575E+02  0.00000000000E+00 0.  1.
        -11    1    5    5    0    0 -0.56352791804E+03 -0.21133202759E+03  0.95078173498E+02  0.60931502473E+03  0.00000000000E+00 0. -1.
          1    1    6    6  503    0  0.36104407622E+02  0.16666947722E+02  0.37017668300E+03  0.37230644909E+03  0.00000000000E+00 0. -1.
         -1    1    6    6    0  503  0.45462678552E+02 -0.78219808722E+02  0.33992407590E+03  0.35175783004E+03  0.00000000000E+00 0.  1.
<mgrwt>
<rscale>  0 0.16770714E+04</rscale>
<asrwt>0</asrwt>
<pdfrwt beam="1">  1        1 0.29699967E+00 0.16770714E+04</pdfrwt>
<pdfrwt beam="2">  1       -2 0.56035137E-01 0.16770714E+04</pdfrwt>
<totfact> 0.83169090E+00</totfact>
</mgrwt>
</event>
<event>
12    4  0.4486176E-008  0.2066613E+04  0.7818608E-02  0.8576095E-01
          1   -1    0    0  501    0  0.00000000000E+00  0.00000000000E+00  0.14252911655E+04  0.14252911655E+04  0.00000000000E+00 0. -1.
         -2   -1    0    0    0  501 -0.00000000000E+00 -0.00000000000E+00 -0.74912557511E+03  0.74912557511E+03  0.00000000000E+00 0.  1.
        -24    2    1    2    0    0 -0.22491047426E+03  0.54163993546E+03  0.90635538884E+03  0.10823353584E+04  0.77531903788E+02 0.  0.
        254    2    1    2    0    0  0.22491047426E+03 -0.54163993546E+03 -0.23018979848E+03  0.10920813821E+04  0.89201785901E+03 0.  0.
         23    2    4    4    0    0 -0.28389336101E+03 -0.30912373595E+02  0.65499047772E+02  0.30748025950E+03  0.93289707129E+02 0.  0.
         23    2    4    4    0    0  0.50880383527E+03 -0.51072756187E+03 -0.29568884626E+03  0.78460112265E+03  0.91886030617E+02 0.  0.
          3    1    3    3  502    0 -0.10808841138E+03  0.29145384097E+03  0.41223384674E+03  0.51629951626E+03  0.00000000000E+00 0. -1.
         -4    1    3    3    0  502 -0.11682206288E+03  0.25018609449E+03  0.49412154211E+03  0.56603584218E+03  0.00000000000E+00 0.  1.
         11    1    5    5    0    0 -0.24947898027E+03 -0.27553585076E+02  0.88284800855E+02  0.26606985495E+03  0.00000000000E+00 0. -1.
        -11    1    5    5    0    0 -0.34414380735E+02 -0.33587885196E+01 -0.22785753083E+02  0.41410404553E+02  0.00000000000E+00 0.  1.
          3    1    6    6  503    0  0.50702244312E+03 -0.49735039629E+03 -0.29916115394E+03  0.77066631595E+03  0.00000000000E+00 0. -1.
         -3    1    6    6    0  503  0.17813921468E+01 -0.13377165581E+02  0.34723076846E+01  0.13934806695E+02  0.00000000000E+00 0.  1.
<mgrwt>
<rscale>  0 0.20666127E+04</rscale>
<asrwt>0</asrwt>
<pdfrwt beam="1">  1        1 0.21927556E+00 0.20666127E+04</pdfrwt>
<pdfrwt beam="2">  1       -2 0.11525009E+00 0.20666127E+04</pdfrwt>
<totfact> 0.35017889E+00</totfact>
</mgrwt>
</event>
<event>
12    4  0.4486176E-008  0.2513130E+04  0.7818608E-02  0.8398323E-01
          1   -1    0    0  501    0  0.00000000000E+00  0.00000000000E+00  0.12924254507E+04  0.12924254507E+04  0.00000000000E+00 0. -1.
         -2   -1    0    0    0  501 -0.00000000000E+00 -0.00000000000E+00 -0.12216993649E+04  0.12216993649E+04  0.00000000000E+00 0.  1.
        -24    2    1    2    0    0 -0.85602284924E+03  0.65224230326E+03  0.25026312396E+03  0.11078903300E+04  0.81204750684E+02 0.  0.
        254    2    1    2    0    0  0.85602284924E+03 -0.65224230326E+03 -0.17953703819E+03  0.14062344856E+04  0.88716781945E+03 0.  0.
         23    2    4    4    0    0  0.19761091013E+03  0.11308133212E+02  0.28544217542E+03  0.35809309948E+03  0.87037271926E+02 0.  0.
         23    2    4    4    0    0  0.65841193910E+03 -0.66355043647E+03 -0.46497921361E+03  0.10481413861E+04  0.92678114650E+02 0.  0.
          1    1    3    3  502    0 -0.11784820101E+03  0.71043662489E+02  0.55621635599E+02  0.14842225847E+03  0.00000000000E+00 0. -1.
         -2    1    3    3    0  502 -0.73817464822E+03  0.58119864077E+03  0.19464148836E+03  0.95946807154E+03  0.00000000000E+00 0.  1.
         11    1    5    5    0    0  0.80641198191E+02 -0.14029267347E+02  0.18331660158E+03  0.20076055290E+03  0.00000000000E+00 0. -1.
        -11    1    5    5    0    0  0.11696971194E+03  0.25337400559E+02  0.10212557384E+03  0.15733254658E+03  0.00000000000E+00 0.  1.
          1    1    6    6  503    0  0.60538614402E+03 -0.60594736806E+03 -0.39541170925E+03  0.94340607166E+03  0.00000000000E+00 0. -1.
         -1    1    6    6    0  503  0.53025795082E+02 -0.57603068411E+02 -0.69567504360E+02  0.10473531447E+03  0.00000000000E+00 0.  1.
<mgrwt>
<rscale>  0 0.25131298E+04</rscale>
<asrwt>0</asrwt>
<pdfrwt beam="1">  1        1 0.19883468E+00 0.25131298E+04</pdfrwt>
<pdfrwt beam="2">  1       -2 0.18795375E+00 0.25131298E+04</pdfrwt>
<totfact> 0.11413624E+00</totfact>
</mgrwt>
</event>
<event>
12    4  0.4486176E-008  0.1976802E+04  0.7818608E-02  0.8617544E-01
          1   -1    0    0  501    0  0.00000000000E+00  0.00000000000E+00  0.10533530830E+04  0.10533530830E+04  0.00000000000E+00 0. -1.
         -2   -1    0    0    0  501 -0.00000000000E+00 -0.00000000000E+00 -0.92745368834E+03  0.92745368834E+03  0.00000000000E+00 0.  1.
        -24    2    1    2    0    0 -0.58680263341E+03 -0.36663871225E+02  0.55469726394E+03  0.81254814946E+03  0.82848479447E+02 0.  0.
        254    2    1    2    0    0  0.58680263341E+03  0.36663871225E+02 -0.42879786924E+03  0.11682586219E+04  0.91393600706E+03 0.  0.
         23    2    4    4    0    0  0.24625195965E+03 -0.11989079558E+01 -0.68389197478E+03  0.73172895275E+03  0.84128247987E+02 0.  0.
         23    2    4    4    0    0  0.34055067375E+03  0.37862779180E+02  0.25509410554E+03  0.43652966917E+03  0.89871007240E+02 0.  0.
          1    1    3    3  502    0 -0.36803664535E+03 -0.32999425862E+02  0.40020371538E+03  0.54470445953E+03  0.00000000000E+00 0. -1.
         -2    1    3    3    0  502 -0.21876598805E+03 -0.36644453631E+01  0.15449354856E+03  0.26784368993E+03  0.00000000000E+00 0.  1.
         11    1    5    5    0    0  0.10260031978E+03 -0.20255445884E+02 -0.39389651788E+03  0.40754334187E+03  0.00000000000E+00 0. -1.
        -11    1    5    5    0    0  0.14365163988E+03  0.19056537929E+02 -0.28999545690E+03  0.32418561088E+03  0.00000000000E+00 0.  1.
          3    1    6    6  503    0  0.18849041380E+03 -0.45105430816E+01  0.92856778019E+02  0.21016984160E+03  0.00000000000E+00 0. -1.
         -3    1    6    6    0  503  0.15206025995E+03  0.42373322262E+02  0.16223732752E+03  0.22635982757E+03  0.00000000000E+00 0.  1.
<mgrwt>
<rscale>  0 0.19768017E+04</rscale>
<asrwt>0</asrwt>
<pdfrwt beam="1">  1        1 0.16205432E+00 0.19768017E+04</pdfrwt>
<pdfrwt beam="2">  1       -2 0.14268518E+00 0.19768017E+04</pdfrwt>
<totfact> 0.38320883E+00</totfact>
</mgrwt>
</event>
<event>
12    4  0.4486176E-008  0.2350698E+04  0.7818608E-02  0.8458196E-01
          1   -1    0    0  501    0  0.00000000000E+00  0.00000000000E+00  0.95613915799E+03  0.95613915799E+03  0.00000000000E+00 0. -1.
         -2   -1    0    0    0  501 -0.00000000000E+00 -0.00000000000E+00 -0.14448161799E+04  0.14448161799E+04  0.00000000000E+00 0.  1.
        -24    2    1    2    0    0 -0.79298694285E+03 -0.61162586948E+03 -0.12437182761E+03  0.10123451820E+04  0.80373628791E+02 0.  0.
        254    2    1    2    0    0  0.79298694285E+03  0.61162586948E+03 -0.36430519434E+03  0.13886101560E+04  0.89028388443E+03 0.  0.
         23    2    4    4    0    0  0.43810017900E+03  0.12557141529E+03  0.24674441380E+03  0.52618222079E+03  0.91021846608E+02 0.  0.
         23    2    4    4    0    0  0.35488676385E+03  0.48605445419E+03 -0.61104960814E+03  0.86242793517E+03  0.90591236662E+02 0.  0.
          3    1    3    3  502    0 -0.58808031657E+03 -0.46675298238E+03 -0.12654859681E+03  0.76138778074E+03  0.00000000000E+00 0. -1.
         -4    1    3    3    0  502 -0.20490662628E+03 -0.14487288710E+03  0.21767691985E+01  0.25095740123E+03  0.00000000000E+00 0.  1.
         11    1    5    5    0    0  0.41780342685E+03  0.95697913766E+02  0.22801932873E+03  0.48550036916E+03  0.00000000000E+00 0.  1.
        -11    1    5    5    0    0  0.20296752157E+02  0.29873501523E+02  0.18725085073E+02  0.40681851633E+02  0.00000000000E+00 0. -1.
          4    1    6    6  503    0  0.31762694247E+03  0.37515926223E+03 -0.48886285428E+03  0.69326635352E+03  0.00000000000E+00 0. -1.
         -4    1    6    6    0  503  0.37259821377E+02  0.11089519197E+03 -0.12218675385E+03  0.16916158165E+03  0.00000000000E+00 0.  1.
<mgrwt>
<rscale>  0 0.23506980E+04</rscale>
<asrwt>0</asrwt>
<pdfrwt beam="1">  1        1 0.14709833E+00 0.23506980E+04</pdfrwt>
<pdfrwt beam="2">  1       -2 0.22227941E+00 0.23506980E+04</pdfrwt>
<totfact> 0.12361967E+00</totfact>
</mgrwt>
</event>
<event>
12    4  0.4486176E-008  0.1378261E+04  0.7818608E-02  0.8969707E-01
          1   -1    0    0  501    0  0.00000000000E+00  0.00000000000E+00  0.11591804504E+04  0.11591804504E+04  0.00000000000E+00 0. -1.
         -2   -1    0    0    0  501 -0.00000000000E+00 -0.00000000000E+00 -0.40968646771E+03  0.40968646771E+03  0.00000000000E+00 0.  1.
        -24    2    1    2    0    0  0.85540263622E-01 -0.38775363443E+03  0.26522863857E+03  0.47634569468E+03  0.78778815667E+02 0.  0.
        254    2    1    2    0    0 -0.85540263622E-01  0.38775363443E+03  0.48426534412E+03  0.10925212234E+04  0.89929795495E+03 0.  0.
         23    2    4    4    0    0  0.22197479791E+03  0.51082618761E+03  0.31061035525E+02  0.56497764244E+03  0.89547438124E+02 0.  0.
         23    2    4    4    0    0 -0.22206033817E+03 -0.12307255319E+03  0.45320430859E+03  0.52754358098E+03  0.91926260493E+02 0.  0.
          1    1    3    3  502    0 -0.12454546284E+02 -0.15651234806E+02  0.14389215550E+01  0.20053612376E+02  0.00000000000E+00 0. -1.
         -2    1    3    3    0  502  0.12540086547E+02 -0.37210239962E+03  0.26378971701E+03  0.45629208231E+03  0.00000000000E+00 0.  1.
         11    1    5    5    0    0  0.34228070954E+02  0.53580677822E+02 -0.23283555463E+02  0.67709481109E+02  0.00000000000E+00 0.  1.
        -11    1    5    5    0    0  0.18774672695E+03  0.45724550979E+03  0.54344590988E+02  0.49726816133E+03  0.00000000000E+00 0. -1.
          1    1    6    6  503    0 -0.22681321394E+03 -0.10788027551E+03  0.40284031949E+03  0.47472382589E+03  0.00000000000E+00 0. -1.
         -1    1    6    6    0  503  0.47528757704E+01 -0.15192277677E+02  0.50363989102E+02  0.52819755087E+02  0.00000000000E+00 0.  1.
<mgrwt>
<rscale>  0 0.13782606E+04</rscale>
<asrwt>0</asrwt>
<pdfrwt beam="1">  1        1 0.17833545E+00 0.13782606E+04</pdfrwt>
<pdfrwt beam="2">  1       -2 0.63028688E-01 0.13782606E+04</pdfrwt>
<totfact> 0.22876747E+01</totfact>
</mgrwt>
</event>
<event>
12    4  0.4486176E-008  0.1335554E+04  0.7818608E-02  0.9001836E-01
         -4   -1    0    0    0  501 -0.00000000000E+00  0.00000000000E+00  0.10482440724E+04  0.10482440724E+04  0.00000000000E+00 0.  1.
          3   -1    0    0  501    0  0.00000000000E+00 -0.00000000000E+00 -0.42540277165E+03  0.42540277165E+03  0.00000000000E+00 0. -1.
        -24    2    1    2    0    0 -0.24781429439E+03  0.88534110083E+02  0.41368729599E+03  0.49533965365E+03  0.70526452250E+02 0.  0.
        254    2    1    2    0    0  0.24781429439E+03 -0.88534110083E+02  0.20915400479E+03  0.97830719044E+03  0.91874335262E+03 0.  0.
         23    2    4    4    0    0 -0.26718122827E+03  0.49405072494E+02  0.31622485023E+03  0.42711976763E+03  0.92771062693E+02 0.  0.
         23    2    4    4    0    0  0.51499552265E+03 -0.13793918258E+03 -0.10707084544E+03  0.55118742280E+03  0.89976678470E+02 0.  0.
          3    1    3    3  502    0 -0.15679330982E+02  0.28721757704E+02  0.49145396798E+02  0.59042787977E+02  0.00000000000E+00 0. -1.
         -4    1    3    3    0  502 -0.23213496341E+03  0.59812352378E+02  0.36454189919E+03  0.43629686567E+03  0.00000000000E+00 0.  1.
         11    1    5    5    0    0 -0.22766754350E+03  0.56336031518E+02  0.21473793944E+03  0.31799157449E+03  0.00000000000E+00 0. -1.
        -11    1    5    5    0    0 -0.39513684763E+02 -0.69309590238E+01  0.10148691079E+03  0.10912819314E+03  0.00000000000E+00 0.  1.
          3    1    6    6  503    0  0.37302390940E+03 -0.77915985616E+02 -0.40270626135E+02  0.38319637410E+03  0.00000000000E+00 0. -1.
         -3    1    6    6    0  503  0.14197161326E+03 -0.60023196961E+02 -0.66800219301E+02  0.16799104870E+03  0.00000000000E+00 0.  1.
<mgrwt>
<rscale>  0 0.13355537E+04</rscale>
<asrwt>0</asrwt>
<pdfrwt beam="1">  1        3 0.65446581E-01 0.13355537E+04</pdfrwt>
<pdfrwt beam="2">  1       -4 0.16126832E+00 0.13355537E+04</pdfrwt>
<totfact> 0.12355903E+00</totfact>
</mgrwt>
</event>
<event>
12    4  0.4486176E-008  0.2003264E+04  0.7818608E-02  0.8605096E-01
         -2   -1    0    0    0  501 -0.00000000000E+00  0.00000000000E+00  0.72989901780E+03  0.72989901780E+03  0.00000000000E+00 0.  1.
          1   -1    0    0  501    0  0.00000000000E+00 -0.00000000000E+00 -0.13745276076E+04  0.13745276076E+04  0.00000000000E+00 0. -1.
        -24    2    1    2    0    0 -0.39461240449E+03 -0.48893656262E+03  0.24786951663E+03  0.68064256852E+03  0.84006528150E+02 0.  0.
        254    2    1    2    0    0  0.39461240449E+03  0.48893656262E+03 -0.89249810647E+03  0.14237840569E+04  0.91423752857E+03 0.  0.
         23    2    4    4    0    0  0.85343980684E+02  0.55619725078E+03 -0.11934136672E+03  0.58244055157E+03  0.91409285597E+02 0.  0.
         23    2    4    4    0    0  0.30926842380E+03 -0.67260688160E+02 -0.77315673975E+03  0.84134350535E+03  0.99582084890E+02 0.  0.
          3    1    3    3  502    0  0.22655715829E+01 -0.45361791848E+01 -0.31643151806E+01  0.59768408676E+01  0.00000000000E+00 0. -1.
         -4    1    3    3    0  502 -0.39687797607E+03 -0.48440038343E+03  0.25103383181E+03  0.67466572766E+03  0.00000000000E+00 0.  1.
         11    1    5    5    0    0 -0.54184951522E+01  0.53832906864E+02  0.11780389583E+02  0.55372552134E+02  0.00000000000E+00 0. -1.
        -11    1    5    5    0    0  0.90762475836E+02  0.50236434392E+03 -0.13112175630E+03  0.52706799944E+03  0.00000000000E+00 0.  1.
          2    1    6    6  503    0  0.21947290575E+03 -0.58822989552E+02 -0.65089407836E+03  0.68941395525E+03  0.00000000000E+00 0.  1.
         -2    1    6    6    0  503  0.89795518052E+02 -0.84376986072E+01 -0.12226266140E+03  0.15192955010E+03  0.00000000000E+00 0. -1.
<mgrwt>
<rscale>  0 0.20032637E+04</rscale>
<asrwt>0</asrwt>
<pdfrwt beam="1">  1        1 0.21146578E+00 0.20032637E+04</pdfrwt>
<pdfrwt beam="2">  1       -2 0.11229216E+00 0.20032637E+04</pdfrwt>
<totfact> 0.40722828E+00</totfact>
</mgrwt>
</event>
<event>
12    4  0.4486176E-008  0.3372094E+04  0.7818608E-02  0.8144789E-01
          1   -1    0    0  501    0  0.00000000000E+00  0.00000000000E+00  0.17505203741E+04  0.17505203741E+04  0.00000000000E+00 0. -1.
         -2   -1    0    0    0  501 -0.00000000000E+00 -0.00000000000E+00 -0.16239483378E+04  0.16239483378E+04  0.00000000000E+00 0.  1.
        -24    2    1    2    0    0  0.95384513391E+03 -0.55237999649E+03  0.11699558222E+04  0.16094102093E+04  0.80376588002E+02 0.  0.
        254    2    1    2    0    0 -0.95384513391E+03  0.55237999649E+03 -0.10433837859E+04  0.17650585025E+04  0.90102030644E+03 0.  0.
         23    2    4    4    0    0 -0.64815141128E+03  0.11482727113E+03 -0.10270595634E+04  0.12232289262E+04  0.90289008117E+02 0.  0.
         23    2    4    4    0    0 -0.30569372263E+03  0.43755272536E+03 -0.16324222476E+02  0.54182957630E+03  0.91715701941E+02 0.  0.
          3    1    3    3  502    0  0.70812775356E+03 -0.39794511788E+03  0.90990379558E+03  0.12197254402E+04  0.00000000000E+00 0. -1.
         -4    1    3    3    0  502  0.24571738035E+03 -0.15443487861E+03  0.26005202661E+03  0.38968476912E+03  0.00000000000E+00 0.  1.
         11    1    5    5    0    0 -0.62730842897E+03  0.10056283741E+03 -0.10083201192E+04  0.11917794310E+04  0.00000000000E+00 0. -1.
        -11    1    5    5    0    0 -0.20842982307E+02  0.14264433716E+02 -0.18739444203E+02  0.31449495222E+02  0.00000000000E+00 0.  1.
          3    1    6    6  503    0 -0.25792540914E+03  0.41413967475E+03 -0.77966209187E+01  0.48795284012E+03  0.00000000000E+00 0. -1.
         -3    1    6    6    0  503 -0.47768313491E+02  0.23413050609E+02 -0.85276015572E+01  0.53876736175E+02  0.00000000000E+00 0.  1.
<mgrwt>
<rscale>  0 0.33720941E+04</rscale>
<asrwt>0</asrwt>
<pdfrwt beam="1">  1        1 0.26931083E+00 0.33720941E+04</pdfrwt>
<pdfrwt beam="2">  1       -2 0.24983821E+00 0.33720941E+04</pdfrwt>
<totfact> 0.20549249E-01</totfact>
</mgrwt>
</event>
<event>
12    4  0.4486176E-008  0.1940301E+04  0.7818608E-02  0.8635052E-01
         -2   -1    0    0    0  501 -0.00000000000E+00  0.00000000000E+00  0.86028696725E+03  0.86028696725E+03  0.00000000000E+00 0.  1.
          1   -1    0    0  501    0  0.00000000000E+00 -0.00000000000E+00 -0.10940439310E+04  0.10940439310E+04  0.00000000000E+00 0. -1.
        -24    2    1    2    0    0 -0.49895595499E+02 -0.48894192848E+03 -0.67355364912E+03  0.83752284212E+03  0.78842963967E+02 0.  0.
        254    2    1    2    0    0  0.49895595499E+02  0.48894192848E+03  0.43979668538E+03  0.11168080561E+04  0.90126873342E+03 0.  0.
         23    2    4    4    0    0 -0.23316749465E+03 -0.16393582274E+03  0.20088680544E+03  0.36072452586E+03  0.92328979291E+02 0.  0.
         23    2    4    4    0    0  0.28306309015E+03  0.65287775121E+03  0.23890987994E+03  0.75608353025E+03  0.90610721985E+02 0.  0.
          1    1    3    3  502    0 -0.45668953180E+02 -0.47416515989E+03 -0.66941689493E+03  0.82160649423E+03  0.00000000000E+00 0. -1.
         -4    1    3    3    0  502 -0.42266423193E+01 -0.14776768589E+02 -0.41367541881E+01  0.15916347899E+02  0.00000000000E+00 0.  1.
         11    1    5    5    0    0 -0.29318965698E+02  0.18894673390E+01  0.49211684142E+02  0.57314585339E+02  0.00000000000E+00 0. -1.
        -11    1    5    5    0    0 -0.20384852896E+03 -0.16582529008E+03  0.15167512130E+03  0.30340994052E+03  0.00000000000E+00 0.  1.
          1    1    6    6  503    0  0.38027163553E+02  0.16926453680E+03  0.35806276153E+02  0.17714016484E+03  0.00000000000E+00 0. -1.
         -1    1    6    6    0  503  0.24503592660E+03  0.48361321441E+03  0.20310360378E+03  0.57894336541E+03  0.00000000000E+00 0.  1.
<mgrwt>
<rscale>  0 0.19403007E+04</rscale>
<asrwt>0</asrwt>
<pdfrwt beam="1">  1        1 0.16831445E+00 0.19403007E+04</pdfrwt>
<pdfrwt beam="2">  1       -2 0.13235184E+00 0.19403007E+04</pdfrwt>
<totfact> 0.43464833E+00</totfact>
</mgrwt>
</event>
<event>
12    4  0.4486176E-008  0.1804763E+04  0.7818608E-02  0.8703771E-01
         -2   -1    0    0    0  501 -0.00000000000E+00  0.00000000000E+00  0.29566777417E+03  0.29566777417E+03  0.00000000000E+00 0.  1.
          1   -1    0    0  501    0  0.00000000000E+00 -0.00000000000E+00 -0.27540790092E+04  0.27540790092E+04  0.00000000000E+00 0. -1.
        -24    2    1    2    0    0  0.43519373297E+03  0.22408425471E+02 -0.17835999491E+04  0.18381932364E+04  0.88486571164E+02 0.  0.
        254    2    1    2    0    0 -0.43519373297E+03 -0.22408425471E+02 -0.67481128595E+03  0.12115535470E+04  0.90697078385E+03 0.  0.
         23    2    4    4    0    0 -0.24616918768E+03 -0.17443929745E+03  0.14873906383E+03  0.34827160667E+03  0.90230069532E+02 0.  0.
         23    2    4    4    0    0 -0.18902454528E+03  0.15203087198E+03 -0.82355034978E+03  0.86328194028E+03  0.90426019708E+02 0.  0.
          3    1    3    3  502    0  0.60985068729E+02 -0.39237381644E+01 -0.39995305465E+03  0.40459488412E+03  0.00000000000E+00 0. -1.
         -4    1    3    3    0  502  0.37420866424E+03  0.26332163635E+02 -0.13836468945E+04  0.14335983523E+04  0.00000000000E+00 0.  1.
         11    1    5    5    0    0 -0.12469029508E+03 -0.88423216206E+02  0.12516733884E+03  0.19756820990E+03  0.00000000000E+00 0.  1.
        -11    1    5    5    0    0 -0.12147889260E+03 -0.86016081242E+02  0.23571724994E+02  0.15070339677E+03  0.00000000000E+00 0. -1.
          1    1    6    6  503    0 -0.47186842188E+02 -0.39273505504E+01 -0.12750421293E+03  0.13601230265E+03  0.00000000000E+00 0.  1.
         -1    1    6    6    0  503 -0.14183770310E+03  0.15595822253E+03 -0.69604613685E+03  0.72726963763E+03  0.00000000000E+00 0. -1.
<mgrwt>
<rscale>  0 0.18047630E+04</rscale>
<asrwt>0</asrwt>
<pdfrwt beam="1">  1        1 0.42370445E+00 0.18047630E+04</pdfrwt>
<pdfrwt beam="2">  1       -2 0.45487351E-01 0.18047630E+04</pdfrwt>
<totfact> 0.34184158E+00</totfact>
</mgrwt>
</event>
<event>
12    4  0.4486176E-008  0.1897153E+04  0.7818608E-02  0.8656275E-01
          1   -1    0    0  501    0  0.00000000000E+00  0.00000000000E+00  0.12117879460E+04  0.12117879460E+04  0.00000000000E+00 0. -1.
         -2   -1    0    0    0  501 -0.00000000000E+00 -0.00000000000E+00 -0.74253697405E+03  0.74253697405E+03  0.00000000000E+00 0.  1.
        -24    2    1    2    0    0  0.71657052671E+03  0.54605157435E+02  0.33499630634E+03  0.79666704709E+03  0.77464931942E+02 0.  0.
        254    2    1    2    0    0 -0.71657052671E+03 -0.54605157435E+02  0.13425466560E+03  0.11576578729E+04  0.89760369462E+03 0.  0.
         23    2    4    4    0    0  0.38244438429E+02  0.28933121462E+03  0.10508171536E+03  0.32342971755E+03  0.91593812380E+02 0.  0.
         23    2    4    4    0    0 -0.75481496514E+03 -0.34393637205E+03  0.29172950246E+02  0.83422815540E+03  0.83950548667E+02 0.  0.
          1    1    3    3  502    0  0.56947852922E+03  0.15092682516E+02  0.27964924411E+03  0.63461585549E+03  0.00000000000E+00 0. -1.
         -2    1    3    3    0  502  0.14709199749E+03  0.39512474918E+02  0.55347062234E+02  0.16205119160E+03  0.00000000000E+00 0.  1.
         11    1    5    5    0    0  0.46408476609E+02  0.14005335115E+03  0.90810748382E+02  0.17324918439E+03  0.00000000000E+00 0. -1.
        -11    1    5    5    0    0 -0.81640381809E+01  0.14927786347E+03  0.14270966976E+02  0.15018053316E+03  0.00000000000E+00 0.  1.
          1    1    6    6  503    0 -0.61846647618E+03 -0.25134703595E+03  0.42042625928E+02  0.66891232387E+03  0.00000000000E+00 0. -1.
         -1    1    6    6    0  503 -0.13634848897E+03 -0.92589336098E+02 -0.12869675682E+02  0.16531583153E+03  0.00000000000E+00 0.  1.
<mgrwt>
<rscale>  0 0.18971530E+04</rscale>
<asrwt>0</asrwt>
<pdfrwt beam="1">  1        1 0.18642891E+00 0.18971530E+04</pdfrwt>
<pdfrwt beam="2">  1       -2 0.11423646E+00 0.18971530E+04</pdfrwt>
<totfact> 0.51540092E+00</totfact>
</mgrwt>
</event>
<event>
12    4  0.4486176E-008  0.1452004E+04  0.7818608E-02  0.8917012E-01
         -2   -1    0    0    0  501 -0.00000000000E+00  0.00000000000E+00  0.15883291027E+03  0.15883291027E+03  0.00000000000E+00 0.  1.
          1   -1    0    0  501    0  0.00000000000E+00 -0.00000000000E+00 -0.33184510303E+04  0.33184510303E+04  0.00000000000E+00 0. -1.
        -24    2    1    2    0    0 -0.28056413765E+03  0.69045526009E+02 -0.17307415754E+04  0.17564845930E+04  0.79298200172E+02 0.  0.
        254    2    1    2    0    0  0.28056413765E+03 -0.69045526009E+02 -0.14288765447E+04  0.17207993476E+04  0.91431870534E+03 0.  0.
         23    2    4    4    0    0  0.46093531962E+03 -0.30506007776E+03 -0.12304167583E+04  0.13519378310E+04  0.91035595544E+02 0.  0.
         23    2    4    4    0    0 -0.18037118197E+03  0.23601455175E+03 -0.19845978632E+03  0.36886151667E+03  0.91847154424E+02 0.  0.
          3    1    3    3  502    0 -0.23568318968E+03  0.86559702500E+02 -0.14826090101E+04  0.15037182665E+04  0.00000000000E+00 0. -1.
         -4    1    3    3    0  502 -0.44880947964E+02 -0.17514176491E+02 -0.24813256526E+03  0.25276632650E+03  0.00000000000E+00 0.  1.
         11    1    5    5    0    0  0.46716484243E+02 -0.62717080612E+02 -0.13512591178E+03  0.15612454687E+03  0.00000000000E+00 0. -1.
        -11    1    5    5    0    0  0.41421883537E+03 -0.24234299715E+03 -0.10952908466E+04  0.11958132841E+04  0.00000000000E+00 0.  1.
          3    1    6    6  503    0  0.75529620333E+01  0.12610287187E+02  0.18497140595E+01  0.14815128097E+02  0.00000000000E+00 0. -1.
         -3    1    6    6    0  503 -0.18792414400E+03  0.22340426456E+03 -0.20030950038E+03  0.35404638858E+03  0.00000000000E+00 0.  1.
<mgrwt>
<rscale>  0 0.14520045E+04</rscale>
<asrwt>0</asrwt>
<pdfrwt beam="1">  1        1 0.51053090E+00 0.14520045E+04</pdfrwt>
<pdfrwt beam="2">  1       -2 0.24435834E-01 0.14520045E+04</pdfrwt>
<totfact> 0.44548951E+00</totfact>
</mgrwt>
</event>
<event>
12    4  0.4486176E-008  0.1377680E+04  0.7818608E-02  0.8970135E-01
         -2   -1    0    0    0  501 -0.00000000000E+00  0.00000000000E+00  0.12467917102E+03  0.12467917102E+03  0.00000000000E+00 0.  1.
          1   -1    0    0  501    0  0.00000000000E+00 -0.00000000000E+00 -0.38057720428E+04  0.38057720428E+04  0.00000000000E+00 0. -1.
        -24    2    1    2    0    0 -0.24248446594E+03  0.30157013354E+03 -0.12444519994E+04  0.13056759864E+04  0.79910832383E+02 0.  0.
        254    2    1    2    0    0  0.24248446594E+03 -0.30157013354E+03 -0.24366408724E+04  0.26247752274E+04  0.89581415015E+03 0.  0.
         23    2    4    4    0    0  0.15942690495E+02 -0.58536448247E+03 -0.13202552955E+04  0.14471359138E+04  0.90678337592E+02 0.  0.
         23    2    4    4    0    0  0.22654177544E+03  0.28379434894E+03 -0.11163855769E+04  0.11776393136E+04  0.93044011939E+02 0.  0.
          3    1    3    3  502    0  0.46357677173E+01  0.17967718092E+02 -0.72361056343E+02  0.74702421051E+02  0.00000000000E+00 0. -1.
         -4    1    3    3    0  502 -0.24712023366E+03  0.28360241545E+03 -0.11720909430E+04  0.12309735654E+04  0.00000000000E+00 0.  1.
         11    1    5    5    0    0  0.16947866113E+02 -0.57214524220E+03 -0.12392892838E+04  0.13650916955E+04  0.00000000000E+00 0.  1.
        -11    1    5    5    0    0 -0.10051756174E+01 -0.13219240275E+02 -0.80966011727E+02  0.82044218239E+02  0.00000000000E+00 0. -1.
          4    1    6    6  503    0  0.58743968491E+02  0.10957644018E+03 -0.50655089025E+03  0.52158571154E+03  0.00000000000E+00 0. -1.
         -4    1    6    6    0  503  0.16779780695E+03  0.17421790875E+03 -0.60983468667E+03  0.65605360209E+03  0.00000000000E+00 0.  1.
<mgrwt>
<rscale>  0 0.13776799E+04</rscale>
<asrwt>0</asrwt>
<pdfrwt beam="1">  1        1 0.58550333E+00 0.13776799E+04</pdfrwt>
<pdfrwt beam="2">  1       -2 0.19181413E-01 0.13776799E+04</pdfrwt>
<totfact> 0.28381799E+00</totfact>
</mgrwt>
</event>
<event>
12    4  0.4486176E-008  0.2348617E+04  0.7818608E-02  0.8458995E-01
         -2   -1    0    0    0  501 -0.00000000000E+00  0.00000000000E+00  0.13114780111E+04  0.13114780111E+04  0.00000000000E+00 0.  1.
          3   -1    0    0  501    0  0.00000000000E+00 -0.00000000000E+00 -0.10514862010E+04  0.10514862010E+04  0.00000000000E+00 0. -1.
        -24    2    1    2    0    0  0.29377485647E+03 -0.72744359231E+03 -0.51199194178E+03  0.93965182436E+03  0.73020245690E+02 0.  0.
        254    2    1    2    0    0 -0.29377485647E+03  0.72744359231E+03  0.77198375192E+03  0.14233123878E+04  0.90243082486E+03 0.  0.
         23    2    4    4    0    0 -0.53540100641E+02  0.87677742196E+03  0.67216248926E+03  0.11097411002E+04  0.90098320662E+02 0.  0.
         23    2    4    4    0    0 -0.24023475583E+03 -0.14933382965E+03  0.99821262660E+02  0.31357128761E+03  0.91374708480E+02 0.  0.
          1    1    3    3  502    0  0.29436207192E+03 -0.72364975802E+03 -0.50115855746E+03  0.92815833853E+03  0.00000000000E+00 0. -1.
         -2    1    3    3    0  502 -0.58721545047E+00 -0.37938342972E+01 -0.10833384327E+02  0.11493485835E+02  0.00000000000E+00 0.  1.
         11    1    5    5    0    0 -0.18319663910E+02  0.71536724993E+03  0.57571347337E+03  0.91843993585E+03  0.00000000000E+00 0.  1.
        -11    1    5    5    0    0 -0.35220436731E+02  0.16141017203E+03  0.96449015891E+02  0.19130116431E+03  0.00000000000E+00 0. -1.
          1    1    6    6  503    0  0.56826888044E+00 -0.23600752888E+02 -0.14599657046E+01  0.23652694693E+02  0.00000000000E+00 0. -1.
         -1    1    6    6    0  503 -0.24080302471E+03 -0.12573307676E+03  0.10128122836E+03  0.28991859292E+03  0.00000000000E+00 0.  1.
<mgrwt>
<rscale>  0 0.23486175E+04</rscale>
<asrwt>0</asrwt>
<pdfrwt beam="1">  1        3 0.16176711E+00 0.23486175E+04</pdfrwt>
<pdfrwt beam="2">  1       -2 0.20176585E+00 0.23486175E+04</pdfrwt>
<totfact> 0.12846186E-01</totfact>
</mgrwt>
</event>
<event>
12    4  0.4486176E-008  0.1689037E+04  0.7818608E-02  0.8767642E-01
          1   -1    0    0  501    0  0.00000000000E+00  0.00000000000E+00  0.13916675017E+04  0.13916675017E+04  0.00000000000E+00 0. -1.
         -2   -1    0    0    0  501 -0.00000000000E+00 -0.00000000000E+00 -0.51248700486E+03  0.51248700486E+03  0.00000000000E+00 0.  1.
        -24    2    1    2    0    0 -0.29128974785E+03 -0.46527534941E+03  0.60665509226E+03  0.82215018662E+03  0.81053441721E+02 0.  0.
        254    2    1    2    0    0  0.29128974785E+03  0.46527534941E+03  0.27252540457E+03  0.10820043199E+04  0.89170195933E+03 0.  0.
         23    2    4    4    0    0  0.19356690694E+02  0.24503700241E+03 -0.30393127027E+03  0.40146201092E+03  0.91540784029E+02 0.  0.
         23    2    4    4    0    0  0.27193305716E+03  0.22023834700E+03  0.57645667483E+03  0.68054230902E+03  0.91558829980E+02 0.  0.
          1    1    3    3  502    0 -0.11848938475E+03 -0.16684849734E+03  0.28278815491E+03  0.34906632023E+03  0.00000000000E+00 0. -1.
         -2    1    3    3    0  502 -0.17280036311E+03 -0.29842685206E+03  0.32386693735E+03  0.47308386639E+03  0.00000000000E+00 0.  1.
         11    1    5    5    0    0  0.23293774066E+02  0.24976879976E+03 -0.27644387037E+03  0.37329380749E+03  0.00000000000E+00 0. -1.
        -11    1    5    5    0    0 -0.39370833722E+01 -0.47317973468E+01 -0.27487399894E+02  0.28168203431E+02  0.00000000000E+00 0.  1.
          2    1    6    6  503    0  0.14472537776E+03  0.11822605993E+03  0.39252107613E+03  0.43473627802E+03  0.00000000000E+00 0. -1.
         -2    1    6    6    0  503  0.12720767940E+03  0.10201228706E+03  0.18393559870E+03  0.24580603101E+03  0.00000000000E+00 0.  1.
<mgrwt>
<rscale>  0 0.16890370E+04</rscale>
<asrwt>0</asrwt>
<pdfrwt beam="1">  1        1 0.21410269E+00 0.16890370E+04</pdfrwt>
<pdfrwt beam="2">  1       -2 0.78844155E-01 0.16890370E+04</pdfrwt>
<totfact> 0.92947768E+00</totfact>
</mgrwt>
</event>
<event>
12    4  0.4486176E-008  0.2247863E+04  0.7818608E-02  0.8498766E-01
          1   -1    0    0  501    0  0.00000000000E+00  0.00000000000E+00  0.85722806957E+03  0.85722806957E+03  0.00000000000E+00 0. -1.
         -2   -1    0    0    0  501 -0.00000000000E+00 -0.00000000000E+00 -0.14736126695E+04  0.14736126695E+04  0.00000000000E+00 0.  1.
        -24    2    1    2    0    0 -0.78327087724E+03  0.57358359194E+03 -0.54332555288E+03  0.11152726100E+04  0.78223616259E+02 0.  0.
        254    2    1    2    0    0  0.78327087724E+03 -0.57358359194E+03 -0.73059047009E+02  0.12155681290E+04  0.72784397220E+03 0.  0.
         23    2    4    4    0    0  0.40968442913E+03 -0.67910880475E+03  0.45172443139E+02  0.79963907543E+03  0.91389283730E+02 0.  0.
         23    2    4    4    0    0  0.37358644811E+03  0.10552521281E+03 -0.11823149015E+03  0.41592905359E+03  0.91191488660E+02 0.  0.
          1    1    3    3  502    0 -0.71687493197E+03  0.54098307961E+03 -0.48244897009E+03  0.10194750459E+04  0.00000000000E+00 0. -1.
         -2    1    3    3    0  502 -0.66395945270E+02  0.32600512326E+02 -0.60876582791E+02  0.95797564085E+02  0.00000000000E+00 0.  1.
         11    1    5    5    0    0  0.38579215715E+03 -0.66823239799E+03  0.48771207473E+02  0.77314213242E+03  0.00000000000E+00 0.  1.
        -11    1    5    5    0    0  0.23892271980E+02 -0.10876406757E+02 -0.35987643339E+01  0.26496943013E+02  0.00000000000E+00 0. -1.
          2    1    6    6  503    0  0.14286519170E+03  0.15886061681E+02 -0.52533231679E+01  0.14384167462E+03  0.00000000000E+00 0. -1.
         -2    1    6    6    0  503  0.23072125641E+03  0.89639151131E+02 -0.11297816698E+03  0.27208737896E+03  0.00000000000E+00 0.  1.
<mgrwt>
<rscale>  0 0.22478631E+04</rscale>
<asrwt>0</asrwt>
<pdfrwt beam="1">  1        1 0.13188124E+00 0.22478631E+04</pdfrwt>
<pdfrwt beam="2">  1       -2 0.22670964E+00 0.22478631E+04</pdfrwt>
<totfact> 0.14088458E+00</totfact>
</mgrwt>
</event>
<event>
12    4  0.4486176E-008  0.1368749E+04  0.7818608E-02  0.8976755E-01
         -2   -1    0    0    0  501 -0.00000000000E+00  0.00000000000E+00  0.85032080459E+03  0.85032080459E+03  0.00000000000E+00 0.  1.
          1   -1    0    0  501    0  0.00000000000E+00 -0.00000000000E+00 -0.55081388770E+03  0.55081388770E+03  0.00000000000E+00 0. -1.
        -24    2    1    2    0    0  0.74587280677E+02  0.81386014257E+02  0.44508172265E+03  0.46520949813E+03  0.78327463621E+02 0.  0.
        254    2    1    2    0    0 -0.74587280677E+02 -0.81386014257E+02 -0.14557480576E+03  0.93592519416E+03  0.91791993073E+03 0.  0.
         23    2    4    4    0    0 -0.52649501990E+02 -0.49110254965E+03 -0.10053106777E+03  0.51337089000E+03  0.97414017371E+02 0.  0.
         23    2    4    4    0    0 -0.21937778687E+02  0.40971653539E+03 -0.45043737997E+02  0.42255430416E+03  0.90411814108E+02 0.  0.
          3    1    3    3  502    0  0.16311168719E+02  0.39065938081E+02  0.59885656016E+02  0.73338213365E+02  0.00000000000E+00 0. -1.
         -2    1    3    3    0  502  0.58276111958E+02  0.42320076176E+02  0.38519606663E+03  0.39187128476E+03  0.00000000000E+00 0.  1.
         11    1    5    5    0    0 -0.23068673874E+02 -0.17895355227E+02 -0.82968843022E+01  0.30352030280E+02  0.00000000000E+00 0.  1.
        -11    1    5    5    0    0 -0.29580828116E+02 -0.47320719442E+03 -0.92234183464E+02  0.48301885972E+03  0.00000000000E+00 0. -1.
          2    1    6    6  503    0  0.19351783940E+02  0.32665389080E+03 -0.39939207779E+02  0.32965496543E+03  0.00000000000E+00 0. -1.
         -2    1    6    6    0  503 -0.41289562627E+02  0.83062644589E+02 -0.51045302180E+01  0.92899338731E+02  0.00000000000E+00 0.  1.
<mgrwt>
<rscale>  0 0.13687491E+04</rscale>
<asrwt>0</asrwt>
<pdfrwt beam="1">  1        1 0.84740598E-01 0.13687491E+04</pdfrwt>
<pdfrwt beam="2">  1       -2 0.13081859E+00 0.13687491E+04</pdfrwt>
<totfact> 0.14141039E+01</totfact>
</mgrwt>
</event>
<event>
12    4  0.4486176E-008  0.1431738E+04  0.7818608E-02  0.8931160E-01
         -2   -1    0    0    0  501 -0.00000000000E+00  0.00000000000E+00  0.67869599653E+03  0.67869599653E+03  0.00000000000E+00 0.  1.
          1   -1    0    0  501    0  0.00000000000E+00 -0.00000000000E+00 -0.75507753549E+03  0.75507753549E+03  0.00000000000E+00 0. -1.
        -24    2    1    2    0    0  0.60558607225E+02 -0.28622129859E+03 -0.36306933315E+03  0.47280091111E+03  0.78303155775E+02 0.  0.
        254    2    1    2    0    0 -0.60558607225E+02  0.28622129859E+03  0.28668779419E+03  0.96097262091E+03  0.86930346262E+03 0.  0.
         23    2    4    4    0    0 -0.20507357642E+03 -0.53876346135E+02 -0.22509008014E+03  0.32314772186E+03  0.93814037044E+02 0.  0.
         23    2    4    4    0    0  0.14451496919E+03  0.34009764472E+03  0.51177787434E+03  0.63782489905E+03  0.91394884534E+02 0.  0.
          1    1    3    3  502    0 -0.20507957864E+01 -0.15774396187E+03 -0.21862526392E+03  0.26960038815E+03  0.00000000000E+00 0. -1.
         -2    1    3    3    0  502  0.62609403011E+02 -0.12847733672E+03 -0.14444406923E+03  0.20320052296E+03  0.00000000000E+00 0.  1.
         11    1    5    5    0    0 -0.20714314262E+03 -0.65722199202E+02 -0.22214525078E+03  0.31076711771E+03  0.00000000000E+00 0. -1.
        -11    1    5    5    0    0  0.20695662058E+01  0.11845853068E+02 -0.29448293619E+01  0.12380604151E+02  0.00000000000E+00 0.  1.
          1    1    6    6  503    0  0.12709178331E+03  0.33945179250E+03  0.47882791476E+03  0.60054642849E+03  0.00000000000E+00 0. -1.
         -1    1    6    6    0  503  0.17423185880E+02  0.64585222516E+00  0.32949959571E+02  0.37278470557E+02  0.00000000000E+00 0.  1.
<mgrwt>
<rscale>  0 0.14317375E+04</rscale>
<asrwt>0</asrwt>
<pdfrwt beam="1">  1        1 0.11616577E+00 0.14317375E+04</pdfrwt>
<pdfrwt beam="2">  1       -2 0.10441477E+00 0.14317375E+04</pdfrwt>
<totfact> 0.15381377E+01</totfact>
</mgrwt>
</event>
<event>
12    4  0.4486176E-008  0.2065462E+04  0.7818608E-02  0.8576612E-01
          1   -1    0    0  501    0  0.00000000000E+00  0.00000000000E+00  0.24744536342E+04  0.24744536342E+04  0.00000000000E+00 0. -1.
         -2   -1    0    0    0  501 -0.00000000000E+00 -0.00000000000E+00 -0.43101765681E+03  0.43101765681E+03  0.00000000000E+00 0.  1.
        -24    2    1    2    0    0 -0.51010798816E+03 -0.61538300081E+03  0.59351284466E+03  0.99867647531E+03  0.78681689703E+02 0.  0.
        254    2    1    2    0    0  0.51010798816E+03  0.61538300081E+03  0.14499231327E+04  0.19067948157E+04  0.94587683190E+03 0.  0.
         23    2    4    4    0    0 -0.14307600988E+03 -0.11948386878E+03  0.47885917096E+03  0.52183953841E+03  0.90902468207E+02 0.  0.
         23    2    4    4    0    0  0.65318399803E+03  0.73486686959E+03  0.97106396177E+03  0.13849552773E+04  0.91963313216E+02 0.  0.
          3    1    3    3  502    0 -0.81247606607E+02 -0.84456313188E+02  0.12181986974E+03  0.16903882122E+03  0.00000000000E+00 0. -1.
         -4    1    3    3    0  502 -0.42886038155E+03 -0.53092668762E+03  0.47169297492E+03  0.82963765409E+03  0.00000000000E+00 0.  1.
         11    1    5    5    0    0 -0.10411665671E+03 -0.10719660014E+03  0.26605833966E+03  0.30515312449E+03  0.00000000000E+00 0. -1.
        -11    1    5    5    0    0 -0.38959353168E+02 -0.12287268639E+02  0.21280083131E+03  0.21668641391E+03  0.00000000000E+00 0.  1.
          2    1    6    6  503    0  0.65503855390E+03  0.72971411696E+03  0.95842438578E+03  0.13711803320E+04  0.00000000000E+00 0. -1.
         -2    1    6    6    0  503 -0.18545558693E+01  0.51527526320E+01  0.12639575986E+02  0.13774945309E+02  0.00000000000E+00 0.  1.
<mgrwt>
<rscale>  0 0.20654619E+04</rscale>
<asrwt>0</asrwt>
<pdfrwt beam="1">  1        1 0.38068517E+00 0.20654619E+04</pdfrwt>
<pdfrwt beam="2">  1       -2 0.66310410E-01 0.20654619E+04</pdfrwt>
<totfact> 0.23921565E+00</totfact>
</mgrwt>
</event>
<event>
12    4  0.4486176E-008  0.2279482E+04  0.7818608E-02  0.8486055E-01
          1   -1    0    0  501    0  0.00000000000E+00  0.00000000000E+00  0.29182525275E+04  0.29182525275E+04  0.00000000000E+00 0. -1.
         -2   -1    0    0    0  501 -0.00000000000E+00 -0.00000000000E+00 -0.44513286771E+03  0.44513286771E+03  0.00000000000E+00 0.  1.
        -24    2    1    2    0    0  0.90820857801E+03 -0.30646345000E+03  0.99813901609E+03  0.13861501431E+04  0.79800102572E+02 0.  0.
        254    2    1    2    0    0 -0.90820857801E+03  0.30646345000E+03  0.14749806437E+04  0.19772352521E+04  0.90284476830E+03 0.  0.
         23    2    4    4    0    0 -0.34828729375E+03 -0.27585207317E+03  0.28742869914E+03  0.53805278851E+03  0.97401955147E+02 0.  0.
         23    2    4    4    0    0 -0.55992128425E+03  0.58231552318E+03  0.11875519446E+04  0.14391824636E+04  0.91451241104E+02 0.  0.
          3    1    3    3  502    0  0.52973967760E+03 -0.20010635341E+03  0.54021572256E+03  0.78262360404E+03  0.00000000000E+00 0. -1.
         -4    1    3    3    0  502  0.37846890041E+03 -0.10635709660E+03  0.45792329353E+03  0.60352653904E+03  0.00000000000E+00 0.  1.
         11    1    5    5    0    0 -0.25509967936E+02 -0.38494498321E+01 -0.25751284976E+01  0.25926974658E+02  0.00000000000E+00 0. -1.
        -11    1    5    5    0    0 -0.32277732582E+03 -0.27200262334E+03  0.29000382764E+03  0.51212581385E+03  0.00000000000E+00 0.  1.
          1    1    6    6  503    0 -0.93880999980E+01  0.19967061785E+02  0.61895976453E+02  0.65710972287E+02  0.00000000000E+00 0. -1.
         -1    1    6    6    0  503 -0.55053318425E+03  0.56234846139E+03  0.11256559681E+04  0.13734714914E+04  0.00000000000E+00 0.  1.
<mgrwt>
<rscale>  0 0.22794825E+04</rscale>
<asrwt>0</asrwt>
<pdfrwt beam="1">  1        1 0.44896192E+00 0.22794825E+04</pdfrwt>
<pdfrwt beam="2">  1       -2 0.68481981E-01 0.22794825E+04</pdfrwt>
<totfact> 0.10641315E+00</totfact>
</mgrwt>
</event>
<event>
12    4  0.4486176E-008  0.2983232E+04  0.7818608E-02  0.8248535E-01
         -2   -1    0    0    0  501 -0.00000000000E+00  0.00000000000E+00  0.15914073608E+04  0.15914073608E+04  0.00000000000E+00 0.  1.
          1   -1    0    0  501    0  0.00000000000E+00 -0.00000000000E+00 -0.13980819443E+04  0.13980819443E+04  0.00000000000E+00 0. -1.
        -24    2    1    2    0    0  0.60031781354E+03 -0.48467268687E+03 -0.10331396447E+04  0.12918881235E+04  0.79424855874E+02 0.  0.
        254    2    1    2    0    0 -0.60031781354E+03  0.48467268687E+03  0.12264650611E+04  0.16976011815E+04  0.88450219597E+03 0.  0.
         23    2    4    4    0    0  0.62052148272E+01  0.18701085390E+03  0.92998333594E+03  0.95286766297E+03  0.89867757482E+02 0.  0.
         23    2    4    4    0    0 -0.60652302837E+03  0.29766183296E+03  0.29648172519E+03  0.74473351855E+03  0.10126129339E+03 0.  0.
          3    1    3    3  502    0  0.50746655858E+03 -0.39205086695E+03 -0.81069268406E+03  0.10336579794E+04  0.00000000000E+00 0. -1.
         -2    1    3    3    0  502  0.92851254961E+02 -0.92621819916E+02 -0.22244696059E+03  0.25823014415E+03  0.00000000000E+00 0.  1.
         11    1    5    5    0    0 -0.22945796748E+02  0.11321893992E+03  0.37940793405E+03  0.39660486427E+03  0.00000000000E+00 0.  1.
        -11    1    5    5    0    0  0.29151011575E+02  0.73791913982E+02  0.55057540189E+03  0.55626279869E+03  0.00000000000E+00 0. -1.
          2    1    6    6  503    0 -0.32507869035E+03  0.20928071356E+03  0.19299431727E+03  0.43211269188E+03  0.00000000000E+00 0. -1.
         -2    1    6    6    0  503 -0.28144433802E+03  0.88381119405E+02  0.10348740792E+03  0.31262082667E+03  0.00000000000E+00 0.  1.
<mgrwt>
<rscale>  0 0.29832317E+04</rscale>
<asrwt>0</asrwt>
<pdfrwt beam="1">  1        1 0.21508953E+00 0.29832317E+04</pdfrwt>
<pdfrwt beam="2">  1       -2 0.24483190E+00 0.29832317E+04</pdfrwt>
<totfact> 0.39883635E-01</totfact>
</mgrwt>
</event>
<event>
12    4  0.4486176E-008  0.3701380E+04  0.7818608E-02  0.8067656E-01
         -2   -1    0    0    0  501 -0.00000000000E+00  0.00000000000E+00  0.24723372758E+04  0.24723372758E+04  0.00000000000E+00 0.  1.
          1   -1    0    0  501    0  0.00000000000E+00 -0.00000000000E+00 -0.13853506587E+04  0.13853506587E+04  0.00000000000E+00 0. -1.
        -24    2    1    2    0    0  0.14831921265E+03 -0.49481841859E+03 -0.12191801665E+04  0.13264270627E+04  0.78515081441E+02 0.  0.
        254    2    1    2    0    0 -0.14831921265E+03  0.49481841859E+03  0.23061667836E+04  0.25312608718E+04  0.90666008578E+03 0.  0.
         23    2    4    4    0    0  0.19657077012E+03  0.19053314996E+03  0.18650199165E+04  0.18872098815E+04  0.91207999945E+02 0.  0.
         23    2    4    4    0    0 -0.34488998278E+03  0.30428526863E+03  0.44114686718E+03  0.64405099031E+03  0.93018787239E+02 0.  0.
          3    1    3    3  502    0  0.91994059503E+02 -0.33971741169E+03 -0.73545169055E+03  0.81532816456E+03  0.00000000000E+00 0. -1.
         -4    1    3    3    0  502  0.56325153152E+02 -0.15510100690E+03 -0.48372847598E+03  0.51109889815E+03  0.00000000000E+00 0.  1.
         11    1    5    5    0    0  0.13620270507E+03  0.11910967956E+03  0.14788517181E+04  0.14898794236E+04  0.00000000000E+00 0. -1.
        -11    1    5    5    0    0  0.60368065051E+02  0.71423470406E+02  0.38616819833E+03  0.39733045794E+03  0.00000000000E+00 0.  1.
          1    1    6    6  503    0 -0.21728898508E+03  0.24346847790E+03  0.28310716031E+03  0.43201975301E+03  0.00000000000E+00 0. -1.
         -1    1    6    6    0  503 -0.12760099770E+03  0.60816790726E+02  0.15803970686E+03  0.21203123730E+03  0.00000000000E+00 0.  1.
<mgrwt>
<rscale>  0 0.37013803E+04</rscale>
<asrwt>0</asrwt>
<pdfrwt beam="1">  1        1 0.21313087E+00 0.37013803E+04</pdfrwt>
<pdfrwt beam="2">  1       -2 0.38035958E+00 0.37013803E+04</pdfrwt>
<totfact> 0.55153983E-02</totfact>
</mgrwt>
</event>
<event>
12    4  0.4486176E-008  0.1579293E+04  0.7818608E-02  0.8833371E-01
          1   -1    0    0  501    0  0.00000000000E+00  0.00000000000E+00  0.16565583229E+04  0.16565583229E+04  0.00000000000E+00 0. -1.
         -2   -1    0    0    0  501 -0.00000000000E+00 -0.00000000000E+00 -0.37640792475E+03  0.37640792475E+03  0.00000000000E+00 0.  1.
        -24    2    1    2    0    0  0.39778183246E+03  0.32983426514E+03  0.51932493126E+03  0.73705931615E+03  0.80851855891E+02 0.  0.
        254    2    1    2    0    0 -0.39778183246E+03 -0.32983426514E+03  0.76082546691E+03  0.12959069315E+04  0.91296131098E+03 0.  0.
         23    2    4    4    0    0  0.21206359536E+03 -0.35803557964E+03  0.24089820060E+03  0.48919118731E+03  0.90086791065E+02 0.  0.
         23    2    4    4    0    0 -0.60984542782E+03  0.28201314499E+02  0.51992726630E+03  0.80671574420E+03  0.88086149399E+02 0.  0.
          1    1    3    3  502    0  0.17084144961E+02  0.75879729818E+01  0.45130265122E+02  0.48848604617E+02  0.00000000000E+00 0. -1.
         -2    1    3    3    0  502  0.38069768750E+03  0.32224629216E+03  0.47419466614E+03  0.68821071153E+03  0.00000000000E+00 0.  1.
         11    1    5    5    0    0  0.26589913195E+02 -0.87696832575E+01  0.42106699490E+01  0.28313611031E+02  0.00000000000E+00 0.  1.
        -11    1    5    5    0    0  0.18547368217E+03 -0.34926589638E+03  0.23668753065E+03  0.46087757628E+03  0.00000000000E+00 0. -1.
          1    1    6    6  503    0 -0.90463852392E+02 -0.19080610127E+02  0.52203577315E+02  0.10617434604E+03  0.00000000000E+00 0.  1.
         -1    1    6    6    0  503 -0.51938157543E+03  0.47281924626E+02  0.46772368899E+03  0.70054139816E+03  0.00000000000E+00 0. -1.
<mgrwt>
<rscale>  0 0.15792931E+04</rscale>
<asrwt>0</asrwt>
<pdfrwt beam="1">  1        1 0.25485512E+00 0.15792931E+04</pdfrwt>
<pdfrwt beam="2">  1       -2 0.57908912E-01 0.15792931E+04</pdfrwt>
<totfact> 0.12016323E+01</totfact>
</mgrwt>
</event>
<event>
12    4  0.4486176E-008  0.1419359E+04  0.7818608E-02  0.8939923E-01
          1   -1    0    0  501    0  0.00000000000E+00  0.00000000000E+00  0.89134497738E+03  0.89134497738E+03  0.00000000000E+00 0. -1.
         -2   -1    0    0    0  501 -0.00000000000E+00 -0.00000000000E+00 -0.56503947393E+03  0.56503947393E+03  0.00000000000E+00 0.  1.
        -24    2    1    2    0    0 -0.13792890826E+03 -0.81257216165E+02  0.48959897328E+03  0.52113056614E+03  0.79011349873E+02 0.  0.
        254    2    1    2    0    0  0.13792890826E+03  0.81257216165E+02 -0.16329346983E+03  0.93525388517E+03  0.90686710907E+03 0.  0.
         23    2    4    4    0    0 -0.34586668362E+03 -0.25237165519E+02  0.90891173389E+02  0.37096550324E+03  0.95359959292E+02 0.  0.
         23    2    4    4    0    0  0.48379559188E+03  0.10649438168E+03 -0.25418464322E+03  0.56428838192E+03  0.91718684385E+02 0.  0.
          1    1    3    3  502    0 -0.60090887914E+02 -0.78114552923E+02  0.31205715569E+03  0.32724985348E+03  0.00000000000E+00 0. -1.
         -2    1    3    3    0  502 -0.77838020350E+02 -0.31426632421E+01  0.17754181760E+03  0.19388071265E+03  0.00000000000E+00 0.  1.
         11    1    5    5    0    0 -0.32421153048E+03  0.16724927087E+01  0.89736265036E+02  0.33640527789E+03  0.00000000000E+00 0.  1.
        -11    1    5    5    0    0 -0.21655153139E+02 -0.26909658227E+02  0.11549083530E+01  0.34560225357E+02  0.00000000000E+00 0. -1.
          2    1    6    6  503    0  0.53526598850E+02 -0.44269284398E+01 -0.28282875789E+01  0.53783767909E+02  0.00000000000E+00 0. -1.
         -2    1    6    6    0  503  0.43026899303E+03  0.11092131012E+03 -0.25135635564E+03  0.51050461401E+03  0.00000000000E+00 0.  1.
<mgrwt>
<rscale>  0 0.14193591E+04</rscale>
<asrwt>0</asrwt>
<pdfrwt beam="1">  1        1 0.13713000E+00 0.14193591E+04</pdfrwt>
<pdfrwt beam="2">  1       -2 0.86929150E-01 0.14193591E+04</pdfrwt>
<totfact> 0.18067329E+01</totfact>
</mgrwt>
</event>
<event>
12    4  0.4486176E-008  0.1485393E+04  0.7818608E-02  0.8894225E-01
          1   -1    0    0  501    0  0.00000000000E+00  0.00000000000E+00  0.20640396252E+04  0.20640396252E+04  0.00000000000E+00 0. -1.
         -2   -1    0    0    0  501 -0.00000000000E+00 -0.00000000000E+00 -0.26724209862E+03  0.26724209862E+03  0.00000000000E+00 0.  1.
        -24    2    1    2    0    0  0.22025784189E+03 -0.20258642115E+03  0.11127794843E+02  0.30994192397E+03  0.79908657043E+02 0.  0.
        254    2    1    2    0    0 -0.22025784189E+03  0.20258642115E+03  0.17856697317E+04  0.20213397998E+04  0.89868983563E+03 0.  0.
         23    2    4    4    0    0 -0.21243069567E+03 -0.81334629462E+02  0.37538674077E+02  0.24797623470E+03  0.91328738679E+02 0.  0.
         23    2    4    4    0    0 -0.78271462163E+01  0.28392105061E+03  0.17481310576E+04  0.17733635651E+04  0.90463872797E+02 0.  0.
          3    1    3    3  502    0 -0.25870700289E+01 -0.11421716493E+02  0.11390702107E+02  0.16336971368E+02  0.00000000000E+00 0. -1.
         -4    1    3    3    0  502  0.22284491192E+03 -0.19116470465E+03 -0.26290726432E+00  0.29360495260E+03  0.00000000000E+00 0.  1.
         11    1    5    5    0    0 -0.29262237786E+02  0.78957353652E+01  0.32112942796E+02  0.44157245071E+02  0.00000000000E+00 0. -1.
        -11    1    5    5    0    0 -0.18316845789E+03 -0.89230364827E+02  0.54257312804E+01  0.20381898963E+03  0.00000000000E+00 0.  1.
          2    1    6    6  503    0  0.40609137683E+02  0.15021805023E+03  0.95110368143E+03  0.96374933334E+03  0.00000000000E+00 0. -1.
         -2    1    6    6    0  503 -0.48436283899E+02  0.13370300038E+03  0.79702737618E+03  0.80961423177E+03  0.00000000000E+00 0.  1.
<mgrwt>
<rscale>  0 0.14853933E+04</rscale>
<asrwt>0</asrwt>
<pdfrwt beam="1">  1        1 0.31754455E+00 0.14853933E+04</pdfrwt>
<pdfrwt beam="2">  1       -2 0.41114170E-01 0.14853933E+04</pdfrwt>
<totfact> 0.12855704E+01</totfact>
</mgrwt>
</event>
<event>
12    4  0.4486176E-008  0.1273742E+04  0.7818608E-02  0.9050651E-01
         -2   -1    0    0    0  501 -0.00000000000E+00  0.00000000000E+00  0.35862184225E+03  0.35862184225E+03  0.00000000000E+00 0.  1.
          1   -1    0    0  501    0  0.00000000000E+00 -0.00000000000E+00 -0.11310091463E+04  0.11310091463E+04  0.00000000000E+00 0. -1.
        -24    2    1    2    0    0  0.12970317445E+03  0.34187998229E+02 -0.49263976936E+03  0.51737822114E+03  0.83633418381E+02 0.  0.
        254    2    1    2    0    0 -0.12970317445E+03 -0.34187998229E+02 -0.27974753469E+03  0.97225276741E+03  0.92142554115E+03 0.  0.
         23    2    4    4    0    0 -0.20735699404E+03  0.30713186920E+03  0.15003676846E+03  0.41038586026E+03  0.92620809543E+02 0.  0.
         23    2    4    4    0    0  0.77653819589E+02 -0.34131986743E+03 -0.42978430316E+03  0.56186690715E+03  0.91926636563E+02 0.  0.
          1    1    3    3  502    0  0.10364146711E+03  0.93414021769E+01 -0.44850156741E+03  0.46041554216E+03  0.00000000000E+00 0. -1.
         -2    1    3    3    0  502  0.26061707334E+02  0.24846596052E+02 -0.44138201958E+02  0.56962678981E+02  0.00000000000E+00 0.  1.
         11    1    5    5    0    0 -0.20858300130E+03  0.27974424840E+03  0.15616010020E+03  0.38229529142E+03  0.00000000000E+00 0.  1.
        -11    1    5    5    0    0  0.12260072624E+01  0.27387620797E+02 -0.61233317340E+01  0.28090568849E+02  0.00000000000E+00 0. -1.
          3    1    6    6  503    0  0.61244626346E+02 -0.14055193797E+03 -0.13177971062E+03  0.20216736546E+03  0.00000000000E+00 0. -1.
         -3    1    6    6    0  503  0.16409193243E+02 -0.20076792946E+03 -0.29800459253E+03  0.35969954169E+03  0.00000000000E+00 0.  1.
<mgrwt>
<rscale>  0 0.12737419E+04</rscale>
<asrwt>0</asrwt>
<pdfrwt beam="1">  1        1 0.17400141E+00 0.12737419E+04</pdfrwt>
<pdfrwt beam="2">  1       -2 0.55172590E-01 0.12737419E+04</pdfrwt>
<totfact> 0.32042241E+01</totfact>
</mgrwt>
</event>
<event>
12    4  0.4486176E-008  0.1614177E+04  0.7818608E-02  0.8811886E-01
         -2   -1    0    0    0  501 -0.00000000000E+00  0.00000000000E+00  0.11284433772E+04  0.11284433772E+04  0.00000000000E+00 0.  1.
          1   -1    0    0  501    0  0.00000000000E+00 -0.00000000000E+00 -0.57724808401E+03  0.57724808401E+03  0.00000000000E+00 0. -1.
        -24    2    1    2    0    0  0.18170675157E+03 -0.46462755340E+03  0.45856165121E+03  0.68274305549E+03  0.83445700406E+02 0.  0.
        254    2    1    2    0    0 -0.18170675157E+03  0.46462755340E+03  0.92633641942E+02  0.10229484057E+04  0.88822651510E+03 0.  0.
         23    2    4    4    0    0 -0.38049808017E+03  0.60367333921E+03  0.19321936508E+03  0.74487118854E+03  0.91099258971E+02 0.  0.
         23    2    4    4    0    0  0.19879132860E+03 -0.13904578581E+03 -0.10058572314E+03  0.27807721715E+03  0.91420611017E+02 0.  0.
          1    1    3    3  502    0  0.16329846381E+03 -0.40820279352E+03  0.36250608480E+03  0.56983029968E+03  0.00000000000E+00 0. -1.
         -2    1    3    3    0  502  0.18408287763E+02 -0.56424759884E+02  0.96055566415E+02  0.11291275581E+03  0.00000000000E+00 0.  1.
         11    1    5    5    0    0 -0.31846351696E+03  0.49860628682E+03  0.12363913286E+03  0.60441200854E+03  0.00000000000E+00 0. -1.
        -11    1    5    5    0    0 -0.62034563209E+02  0.10506705240E+03  0.69580232217E+02  0.14045918000E+03  0.00000000000E+00 0.  1.
          4    1    6    6  503    0  0.99168963896E+02 -0.52209115190E+02 -0.93119569802E+02  0.14571042993E+03  0.00000000000E+00 0. -1.
         -4    1    6    6    0  503  0.99622364705E+02 -0.86836670620E+02 -0.74661533378E+01  0.13236678722E+03  0.00000000000E+00 0.  1.
<mgrwt>
<rscale>  0 0.16141769E+04</rscale>
<asrwt>0</asrwt>
<pdfrwt beam="1">  1        1 0.88807398E-01 0.16141769E+04</pdfrwt>
<pdfrwt beam="2">  1       -2 0.17360667E+00 0.16141769E+04</pdfrwt>
<totfact> 0.60978690E+00</totfact>
</mgrwt>
</event>
<event>
12    4  0.4486176E-008  0.1170003E+04  0.7818608E-02  0.9139526E-01
          3   -1    0    0  501    0  0.00000000000E+00  0.00000000000E+00  0.15895205433E+03  0.15895205433E+03  0.00000000000E+00 0. -1.
         -4   -1    0    0    0  501 -0.00000000000E+00 -0.00000000000E+00 -0.21530191482E+04  0.21530191482E+04  0.00000000000E+00 0.  1.
        -24    2    1    2    0    0 -0.21415151768E+02  0.10929377757E+03 -0.97242459346E+03  0.98222011182E+03  0.82115890980E+02 0.  0.
        254    2    1    2    0    0  0.21415151768E+02 -0.10929377757E+03 -0.10216425004E+04  0.13297510907E+04  0.84384881708E+03 0.  0.
         23    2    4    4    0    0  0.20102374239E+03 -0.39267586689E+03 -0.79875575338E+03  0.91692579883E+03  0.90206904140E+02 0.  0.
         23    2    4    4    0    0 -0.17960859063E+03  0.28338208932E+03 -0.22288674705E+03  0.41282529191E+03  0.90452005256E+02 0.  0.
          1    1    3    3  502    0 -0.12698644396E+02 -0.11543043691E+02 -0.11142318473E+03  0.11273696608E+03  0.00000000000E+00 0. -1.
         -2    1    3    3    0  502 -0.87165073720E+01  0.12083682127E+03 -0.86100140874E+03  0.86948314574E+03  0.00000000000E+00 0.  1.
         11    1    5    5    0    0  0.31127529789E+02 -0.19149848504E+02 -0.39079289790E+02  0.53505426818E+02  0.00000000000E+00 0.  1.
        -11    1    5    5    0    0  0.16989621260E+03 -0.37352601839E+03 -0.75967646359E+03  0.86342037201E+03  0.00000000000E+00 0. -1.
          3    1    6    6  503    0 -0.28235490006E+02  0.74282177508E+02 -0.13859075778E+02  0.80666962089E+02  0.00000000000E+00 0. -1.
         -3    1    6    6    0  503 -0.15137310062E+03  0.20909991181E+03 -0.20902767127E+03  0.33215832982E+03  0.00000000000E+00 0.  1.
<mgrwt>
<rscale>  0 0.11700031E+04</rscale>
<asrwt>0</asrwt>
<pdfrwt beam="1">  1        3 0.24454163E-01 0.11700031E+04</pdfrwt>
<pdfrwt beam="2">  1       -4 0.33123370E+00 0.11700031E+04</pdfrwt>
<totfact> 0.71725679E-01</totfact>
</mgrwt>
</event>
<event>
12    4  0.4486176E-008  0.1414109E+04  0.7818608E-02  0.8943669E-01
          1   -1    0    0  501    0  0.00000000000E+00  0.00000000000E+00  0.54469639899E+03  0.54469639899E+03  0.00000000000E+00 0. -1.
         -2   -1    0    0    0  501 -0.00000000000E+00 -0.00000000000E+00 -0.91780690934E+03  0.91780690934E+03  0.00000000000E+00 0.  1.
        -24    2    1    2    0    0 -0.38342528607E+03 -0.32427746693E+02  0.40940536340E+02  0.39753805694E+03  0.91070689277E+02 0.  0.
        254    2    1    2    0    0  0.38342528607E+03  0.32427746693E+02 -0.41405104669E+03  0.10649652514E+04  0.90257753608E+03 0.  0.
         23    2    4    4    0    0  0.30942690595E+03  0.41984565161E+03 -0.39662805348E+03  0.66075523705E+03  0.85254261961E+02 0.  0.
         23    2    4    4    0    0  0.73998380119E+02 -0.38741790491E+03 -0.17422993212E+02  0.40421001434E+03  0.86682072498E+02 0.  0.
          3    1    3    3  502    0 -0.22636311440E+03 -0.26139500929E+02  0.68525299203E+02  0.23794799789E+03  0.00000000000E+00 0. -1.
         -4    1    3    3    0  502 -0.15706217167E+03 -0.62882457642E+01 -0.27584762863E+02  0.15959005905E+03  0.00000000000E+00 0.  1.
         11    1    5    5    0    0  0.16459195420E+03  0.17667634843E+03 -0.22314736425E+03  0.32878532457E+03  0.00000000000E+00 0. -1.
        -11    1    5    5    0    0  0.14483495175E+03  0.24316930317E+03 -0.17348068923E+03  0.33196991248E+03  0.00000000000E+00 0.  1.
          2    1    6    6  503    0  0.53748081930E+02 -0.12129713790E+03  0.21806653670E+02  0.13445215550E+03  0.00000000000E+00 0.  1.
         -2    1    6    6    0  503  0.20250298189E+02 -0.26612076701E+03 -0.39229646882E+02  0.26975785884E+03  0.00000000000E+00 0. -1.
<mgrwt>
<rscale>  0 0.14141091E+04</rscale>
<asrwt>0</asrwt>
<pdfrwt beam="1">  1        1 0.83799447E-01 0.14141091E+04</pdfrwt>
<pdfrwt beam="2">  1       -2 0.14120106E+00 0.14141091E+04</pdfrwt>
<totfact> 0.11761726E+01</totfact>
</mgrwt>
</event>
<event>
12    4  0.4486176E-008  0.1427998E+04  0.7818608E-02  0.8933798E-01
          1   -1    0    0  501    0  0.00000000000E+00  0.00000000000E+00  0.93494028921E+03  0.93494028921E+03  0.00000000000E+00 0. -1.
         -4   -1    0    0    0  501 -0.00000000000E+00 -0.00000000000E+00 -0.54526952079E+03  0.54526952079E+03  0.00000000000E+00 0.  1.
        -24    2    1    2    0    0  0.24607949634E+03  0.24874919839E+03  0.34929122871E+03  0.50141979773E+03  0.83583305019E+02 0.  0.
        254    2    1    2    0    0 -0.24607949634E+03 -0.24874919839E+03  0.40379539705E+02  0.97879001228E+03  0.91321853830E+03 0.  0.
         23    2    4    4    0    0 -0.44875363710E+03 -0.39675443368E+03  0.23364035803E+03  0.64953984715E+03  0.92305409761E+02 0.  0.
         23    2    4    4    0    0  0.20267414077E+03  0.14800523530E+03 -0.19326081832E+03  0.32925016513E+03  0.89853048544E+02 0.  0.
          1    1    3    3  502    0  0.24026962329E+03  0.24998375347E+03  0.32098221258E+03  0.47249439115E+03  0.00000000000E+00 0. -1.
         -2    1    3    3    0  502  0.58098730466E+01 -0.12345550820E+01  0.28309016135E+02  0.28925406576E+02  0.00000000000E+00 0.  1.
         11    1    5    5    0    0 -0.98827336746E+02 -0.10392368296E+03  0.16940197309E+02  0.14440894935E+03  0.00000000000E+00 0. -1.
        -11    1    5    5    0    0 -0.34992630036E+03 -0.29283075072E+03  0.21670016072E+03  0.50513089779E+03  0.00000000000E+00 0.  1.
          1    1    6    6  503    0  0.37909693766E+02  0.38878947395E+02 -0.21671131823E+01  0.54345320052E+02  0.00000000000E+00 0. -1.
         -1    1    6    6    0  503  0.16476444700E+03  0.10912628790E+03 -0.19109370514E+03  0.27490484508E+03  0.00000000000E+00 0.  1.
<mgrwt>
<rscale>  0 0.14279978E+04</rscale>
<asrwt>0</asrwt>
<pdfrwt beam="1">  1        1 0.14383697E+00 0.14279978E+04</pdfrwt>
<pdfrwt beam="2">  1       -4 0.83887619E-01 0.14279978E+04</pdfrwt>
<totfact> 0.10034484E+01</totfact>
</mgrwt>
</event>
<event>
12    4  0.4486176E-008  0.1211003E+04  0.7818608E-02  0.9103280E-01
         -4   -1    0    0    0  501 -0.00000000000E+00  0.00000000000E+00  0.23752760209E+03  0.23752760209E+03  0.00000000000E+00 0.  1.
          1   -1    0    0  501    0  0.00000000000E+00 -0.00000000000E+00 -0.15435347912E+04  0.15435347912E+04  0.00000000000E+00 0. -1.
        -24    2    1    2    0    0  0.71695395419E+02  0.15038682007E+03 -0.58535939569E+03  0.61401939861E+03  0.81349704138E+02 0.  0.
        254    2    1    2    0    0 -0.71695395419E+02 -0.15038682007E+03 -0.72064779346E+03  0.11670429947E+04  0.90271794263E+03 0.  0.
         23    2    4    4    0    0  0.25249416796E+03  0.69941724226E+02 -0.71346576600E+03  0.76523920235E+03  0.88952166426E+02 0.  0.
         23    2    4    4    0    0 -0.32418956337E+03 -0.22032854429E+03 -0.71820274521E+01  0.40180379238E+03  0.88040704334E+02 0.  0.
          1    1    3    3  502    0  0.56873362077E+02  0.53376355329E+02 -0.35776875269E+03  0.36617222044E+03  0.00000000000E+00 0. -1.
         -2    1    3    3    0  502  0.14822033342E+02  0.97010464736E+02 -0.22759064300E+03  0.24784717816E+03  0.00000000000E+00 0.  1.
         11    1    5    5    0    0  0.91782007696E+02  0.68393469433E+02 -0.33675886931E+03  0.35567982746E+03  0.00000000000E+00 0.  1.
        -11    1    5    5    0    0  0.16071216026E+03  0.15482547935E+01 -0.37670689669E+03  0.40955937489E+03  0.00000000000E+00 0. -1.
          1    1    6    6  503    0 -0.13770888199E+03 -0.42728855437E+02 -0.50747567368E+01  0.14427489186E+03  0.00000000000E+00 0. -1.
         -1    1    6    6    0  503 -0.18648068139E+03 -0.17759968885E+03 -0.21072707153E+01  0.25752890052E+03  0.00000000000E+00 0.  1.
<mgrwt>
<rscale>  0 0.12110031E+04</rscale>
<asrwt>0</asrwt>
<pdfrwt beam="1">  1        1 0.23746689E+00 0.12110031E+04</pdfrwt>
<pdfrwt beam="2">  1       -4 0.36542708E-01 0.12110031E+04</pdfrwt>
<totfact> 0.21748050E+01</totfact>
</mgrwt>
</event>
<event>
12    4  0.4486176E-008  0.2043085E+04  0.7818608E-02  0.8586738E-01
          3   -1    0    0  501    0  0.00000000000E+00  0.00000000000E+00  0.11513042462E+04  0.11513042462E+04  0.00000000000E+00 0. -1.
         -4   -1    0    0    0  501 -0.00000000000E+00 -0.00000000000E+00 -0.90640596313E+03  0.90640596313E+03  0.00000000000E+00 0.  1.
        -24    2    1    2    0    0  0.74852054112E+03  0.86878900566E+02 -0.25306351077E+03  0.79896179959E+03  0.80423086739E+02 0.  0.
        254    2    1    2    0    0 -0.74852054112E+03 -0.86878900566E+02  0.49796179384E+03  0.12587484097E+04  0.87672724782E+03 0.  0.
         23    2    4    4    0    0 -0.49648709348E+03 -0.40216980166E+03  0.54132867409E+03  0.84245332756E+03  0.91928735240E+02 0.  0.
         23    2    4    4    0    0 -0.25203344764E+03  0.31529090109E+03 -0.43366880253E+02  0.41629508218E+03  0.92150410240E+02 0.  0.
          1    1    3    3  502    0  0.25732145555E+03 -0.81329644664E+01 -0.91181534862E+02  0.27312002654E+03  0.00000000000E+00 0. -1.
         -2    1    3    3    0  502  0.49119908556E+03  0.95011865033E+02 -0.16188197591E+03  0.52584177305E+03  0.00000000000E+00 0.  1.
         11    1    5    5    0    0 -0.19235437192E+03 -0.20637949279E+03  0.20716218778E+03  0.35001267332E+03  0.00000000000E+00 0.  1.
        -11    1    5    5    0    0 -0.30413272155E+03 -0.19579030887E+03  0.33416648632E+03  0.49244065424E+03  0.00000000000E+00 0. -1.
          3    1    6    6  503    0  0.29264321839E+01  0.33586725381E+02 -0.83671677375E+01  0.34736747445E+02  0.00000000000E+00 0. -1.
         -3    1    6    6    0  503 -0.25495987982E+03  0.28170417571E+03 -0.34999712516E+02  0.38155833474E+03  0.00000000000E+00 0.  1.
<mgrwt>
<rscale>  0 0.20430850E+04</rscale>
<asrwt>0</asrwt>
<pdfrwt beam="1">  1        3 0.17712373E+00 0.20430850E+04</pdfrwt>
<pdfrwt beam="2">  1       -4 0.13944707E+00 0.20430850E+04</pdfrwt>
<totfact> 0.15881640E-01</totfact>
</mgrwt>
</event>
<event>
12    4  0.4486176E-008  0.2624884E+04  0.7818608E-02  0.8359797E-01
         -2   -1    0    0    0  501 -0.00000000000E+00  0.00000000000E+00  0.41699306710E+03  0.41699306710E+03  0.00000000000E+00 0.  1.
          1   -1    0    0  501    0  0.00000000000E+00 -0.00000000000E+00 -0.41307738177E+04  0.41307738177E+04  0.00000000000E+00 0. -1.
        -24    2    1    2    0    0  0.96538814594E+03 -0.98126403513E+02 -0.55037067405E+03  0.11183322854E+04  0.78461190334E+02 0.  0.
        254    2    1    2    0    0 -0.96538814594E+03  0.98126403513E+02 -0.31634100766E+04  0.34294345994E+04  0.90125207104E+03 0.  0.
         23    2    4    4    0    0 -0.23059608296E+03  0.74143272213E+02 -0.10008726777E+03  0.27785312325E+03  0.92266562950E+02 0.  0.
         23    2    4    4    0    0 -0.73479206299E+03  0.23983131300E+02 -0.30633228088E+04  0.31515814762E+04  0.89580150921E+02 0.  0.
          1    1    3    3  502    0  0.12029087526E+03 -0.17183086713E+02 -0.40798649095E+02  0.12817832464E+03  0.00000000000E+00 0. -1.
         -2    1    3    3    0  502  0.84509727068E+03 -0.80943316800E+02 -0.50957202496E+03  0.99015396079E+03  0.00000000000E+00 0.  1.
         11    1    5    5    0    0 -0.45983527095E+02  0.22311046088E+02  0.16175674742E+02  0.53608954429E+02  0.00000000000E+00 0.  1.
        -11    1    5    5    0    0 -0.18461255586E+03  0.51832226125E+02 -0.11626294251E+03  0.22424416882E+03  0.00000000000E+00 0. -1.
          3    1    6    6  503    0 -0.16940495322E+01 -0.48885560391E+01 -0.48387110171E+02  0.48662924436E+02  0.00000000000E+00 0. -1.
         -3    1    6    6    0  503 -0.73309801346E+03  0.28871687339E+02 -0.30149356986E+04  0.31029185517E+04  0.00000000000E+00 0.  1.
<mgrwt>
<rscale>  0 0.26248840E+04</rscale>
<asrwt>0</asrwt>
<pdfrwt beam="1">  1        1 0.63550365E+00 0.26248840E+04</pdfrwt>
<pdfrwt beam="2">  1       -2 0.64152781E-01 0.26248840E+04</pdfrwt>
<totfact> 0.12740113E-01</totfact>
</mgrwt>
</event>
<event>
12    4  0.4486176E-008  0.2072720E+04  0.7818608E-02  0.8573357E-01
         -2   -1    0    0    0  501 -0.00000000000E+00  0.00000000000E+00  0.11789219818E+04  0.11789219818E+04  0.00000000000E+00 0.  1.
          1   -1    0    0  501    0  0.00000000000E+00 -0.00000000000E+00 -0.91103714738E+03  0.91103714738E+03  0.00000000000E+00 0. -1.
        -24    2    1    2    0    0 -0.24155270988E+03  0.11560992073E+03  0.90534300418E+03  0.94726799862E+03  0.77183810326E+02 0.  0.
        254    2    1    2    0    0  0.24155270988E+03 -0.11560992073E+03 -0.63745816980E+03  0.11426911305E+04  0.90976740768E+03 0.  0.
         23    2    4    4    0    0  0.53096206152E+03  0.12251000111E+03 -0.45750903864E+03  0.71733636607E+03  0.91255303951E+02 0.  0.
         23    2    4    4    0    0 -0.28940935165E+03 -0.23811992185E+03 -0.17994913116E+03  0.42535476444E+03  0.89922832594E+02 0.  0.
          1    1    3    3  502    0 -0.10085425977E+03  0.41908563319E+02  0.50274785257E+03  0.51447382116E+03  0.00000000000E+00 0. -1.
         -2    1    3    3    0  502 -0.14069845011E+03  0.73701357415E+02  0.40259515160E+03  0.43279417746E+03  0.00000000000E+00 0.  1.
         11    1    5    5    0    0  0.39393712719E+03  0.13107770096E+03 -0.34734044181E+03  0.54130694286E+03  0.00000000000E+00 0.  1.
        -11    1    5    5    0    0  0.13702493433E+03 -0.85676998449E+01 -0.11016859683E+03  0.17602942321E+03  0.00000000000E+00 0. -1.
          4    1    6    6  503    0  0.90559785251E-01 -0.65371134422E+00 -0.16980285430E+02  0.16993105452E+02  0.00000000000E+00 0. -1.
         -4    1    6    6    0  503 -0.28949991143E+03 -0.23746621050E+03 -0.16296884573E+03  0.40836165899E+03  0.00000000000E+00 0.  1.
<mgrwt>
<rscale>  0 0.20727197E+04</rscale>
<asrwt>0</asrwt>
<pdfrwt beam="1">  1        1 0.14015956E+00 0.20727197E+04</pdfrwt>
<pdfrwt beam="2">  1       -2 0.18137261E+00 0.20727197E+04</pdfrwt>
<totfact> 0.25540585E+00</totfact>
</mgrwt>
</event>
<event>
12    4  0.4486176E-008  0.1601696E+04  0.7818608E-02  0.8819507E-01
         -2   -1    0    0    0  501 -0.00000000000E+00  0.00000000000E+00  0.63413026681E+03  0.63413026681E+03  0.00000000000E+00 0.  1.
          1   -1    0    0  501    0  0.00000000000E+00 -0.00000000000E+00 -0.10113967297E+04  0.10113967297E+04  0.00000000000E+00 0. -1.
        -24    2    1    2    0    0 -0.12925114672E+03  0.45267095646E+03  0.14691807517E+03  0.49935124776E+03  0.78421260341E+02 0.  0.
        254    2    1    2    0    0  0.12925114672E+03 -0.45267095646E+03 -0.52418453803E+03  0.11461757487E+04  0.90406446855E+03 0.  0.
         23    2    4    4    0    0 -0.34832154051E+03 -0.28228399960E+03 -0.41968500971E+03  0.61997267020E+03  0.84961476037E+02 0.  0.
         23    2    4    4    0    0  0.47757268723E+03 -0.17038695686E+03 -0.10449952832E+03  0.52620307852E+03  0.94138949279E+02 0.  0.
          3    1    3    3  502    0 -0.31277674341E+02  0.43777468007E+02  0.35202549906E+02  0.64296027382E+02  0.00000000000E+00 0. -1.
         -4    1    3    3    0  502 -0.97973472376E+02  0.40889348846E+03  0.11171552526E+03  0.43505522038E+03  0.00000000000E+00 0.  1.
         11    1    5    5    0    0 -0.29180748082E+03 -0.27103200025E+03 -0.35726838841E+03  0.53502397364E+03  0.00000000000E+00 0. -1.
        -11    1    5    5    0    0 -0.56514059693E+02 -0.11251999355E+02 -0.62416621300E+02  0.84948696559E+02  0.00000000000E+00 0.  1.
          1    1    6    6  503    0  0.32620639147E+03 -0.68828297099E+02 -0.71197134839E+02  0.34090611072E+03  0.00000000000E+00 0. -1.
         -1    1    6    6    0  503  0.15136629576E+03 -0.10155865976E+03 -0.33302393483E+02  0.18529696780E+03  0.00000000000E+00 0.  1.
<mgrwt>
<rscale>  0 0.16016957E+04</rscale>
<asrwt>0</asrwt>
<pdfrwt beam="1">  1        1 0.15559950E+00 0.16016957E+04</pdfrwt>
<pdfrwt beam="2">  1       -2 0.97558503E-01 0.16016957E+04</pdfrwt>
<totfact> 0.10918188E+01</totfact>
</mgrwt>
</event>
<event>
12    4  0.4486176E-008  0.1240037E+04  0.7818608E-02  0.9078516E-01
          1   -1    0    0  501    0  0.00000000000E+00  0.00000000000E+00  0.16110681312E+04  0.16110681312E+04  0.00000000000E+00 0. -1.
         -2   -1    0    0    0  501 -0.00000000000E+00 -0.00000000000E+00 -0.23861383494E+03  0.23861383494E+03  0.00000000000E+00 0.  1.
        -24    2    1    2    0    0 -0.19211611388E+02  0.28266120253E+03  0.36650636835E+03  0.46912051945E+03  0.74031765454E+02 0.  0.
        254    2    1    2    0    0  0.19211611388E+02 -0.28266120253E+03  0.10059479279E+04  0.13805614467E+04  0.90208216532E+03 0.  0.
         23    2    4    4    0    0  0.18161682002E+03 -0.44528871408E+03  0.10222187410E+04  0.11336131989E+04  0.94239174997E+02 0.  0.
         23    2    4    4    0    0 -0.16240520863E+03  0.16262751154E+03 -0.16270813094E+02  0.24694824777E+03  0.88856842245E+02 0.  0.
          1    1    3    3  502    0  0.35245376697E+01  0.88268814495E+02  0.17107242092E+03  0.19253461813E+03  0.00000000000E+00 0. -1.
         -2    1    3    3    0  502 -0.22736149058E+02  0.19439238804E+03  0.19543394743E+03  0.27658590132E+03  0.00000000000E+00 0.  1.
         11    1    5    5    0    0  0.50321913689E+02 -0.52526071970E+02  0.11110675341E+03  0.13280057939E+03  0.00000000000E+00 0. -1.
        -11    1    5    5    0    0  0.13129490633E+03 -0.39276264211E+03  0.91111198760E+03  0.10008126195E+04  0.00000000000E+00 0.  1.
          2    1    6    6  503    0 -0.92734620232E+02  0.76471057157E+02 -0.51377991525E+02  0.13071813335E+03  0.00000000000E+00 0. -1.
         -2    1    6    6    0  503 -0.69670588401E+02  0.86156454388E+02  0.35107178431E+02  0.11623011442E+03  0.00000000000E+00 0.  1.
<mgrwt>
<rscale>  0 0.12400373E+04</rscale>
<asrwt>0</asrwt>
<pdfrwt beam="1">  1        1 0.24785663E+00 0.12400373E+04</pdfrwt>
<pdfrwt beam="2">  1       -2 0.36709822E-01 0.12400373E+04</pdfrwt>
<totfact> 0.33194022E+01</totfact>
</mgrwt>
</event>
<event>
12    4  0.4486176E-008  0.2032940E+04  0.7818608E-02  0.8591373E-01
         -2   -1    0    0    0  501 -0.00000000000E+00  0.00000000000E+00  0.98111951857E+03  0.98111951857E+03  0.00000000000E+00 0.  1.
          1   -1    0    0  501    0  0.00000000000E+00 -0.00000000000E+00 -0.10530941227E+04  0.10530941227E+04  0.00000000000E+00 0. -1.
        -24    2    1    2    0    0  0.50668343803E+03  0.20367919387E+03  0.57651068163E+03  0.79803283253E+03  0.79237083308E+02 0.  0.
        254    2    1    2    0    0 -0.50668343803E+03 -0.20367919387E+03 -0.64848528582E+03  0.12361808088E+04  0.89966466292E+03 0.  0.
         23    2    4    4    0    0 -0.40660718032E+03 -0.28280843529E+03 -0.84575579520E+03  0.98444932051E+03  0.92344947761E+02 0.  0.
         23    2    4    4    0    0 -0.10007625771E+03  0.79129241424E+02  0.19727050939E+03  0.25173148827E+03  0.90423415705E+02 0.  0.
          1    1    3    3  502    0  0.31900338755E+02  0.33304434511E+02  0.64419295801E+02  0.79225391399E+02  0.00000000000E+00 0. -1.
         -2    1    3    3    0  502  0.47478309928E+03  0.17037475936E+03  0.51209138583E+03  0.71880744113E+03  0.00000000000E+00 0.  1.
         11    1    5    5    0    0 -0.24666225429E+03 -0.16916121849E+03 -0.41953983481E+03  0.51523922456E+03  0.00000000000E+00 0. -1.
        -11    1    5    5    0    0 -0.15994492603E+03 -0.11364721680E+03 -0.42621596040E+03  0.46921009595E+03  0.00000000000E+00 0.  1.
          4    1    6    6  503    0 -0.10402867030E+03  0.85304408663E+02  0.20222240389E+03  0.24288414320E+03  0.00000000000E+00 0.  1.
         -4    1    6    6    0  503  0.39524125905E+01 -0.61751672396E+01 -0.49518945009E+01  0.88473450747E+01  0.00000000000E+00 0. -1.
<mgrwt>
<rscale>  0 0.20329399E+04</rscale>
<asrwt>0</asrwt>
<pdfrwt beam="1">  1        1 0.16201448E+00 0.20329399E+04</pdfrwt>
<pdfrwt beam="2">  1       -2 0.15094146E+00 0.20329399E+04</pdfrwt>
<totfact> 0.32894412E+00</totfact>
</mgrwt>
</event>
<event>
12    4  0.4486176E-008  0.1744343E+04  0.7818608E-02  0.8736471E-01
         -2   -1    0    0    0  501 -0.00000000000E+00  0.00000000000E+00  0.13473810842E+04  0.13473810842E+04  0.00000000000E+00 0.  1.
          1   -1    0    0  501    0  0.00000000000E+00 -0.00000000000E+00 -0.56456395298E+03  0.56456395298E+03  0.00000000000E+00 0. -1.
        -24    2    1    2    0    0  0.30230029559E+03 -0.32089632816E+03  0.79732067103E+03  0.91466482814E+03  0.80818149247E+02 0.  0.
        254    2    1    2    0    0 -0.30230029559E+03  0.32089632816E+03 -0.14503539848E+02  0.99728020901E+03  0.89442581608E+03 0.  0.
         23    2    4    4    0    0 -0.18067752241E+03  0.54355761577E+02  0.41765315761E+03  0.46715625314E+03  0.90564280306E+02 0.  0.
         23    2    4    4    0    0 -0.12162277318E+03  0.26654056658E+03 -0.43215669746E+03  0.53012395586E+03  0.91847835187E+02 0.  0.
          1    1    3    3  502    0  0.90322698946E+02 -0.14302037924E+03  0.25822774034E+03  0.30869820976E+03  0.00000000000E+00 0. -1.
         -2    1    3    3    0  502  0.21197759664E+03 -0.17787594892E+03  0.53909293069E+03  0.60596661838E+03  0.00000000000E+00 0.  1.
         11    1    5    5    0    0 -0.10217044052E+02  0.33532945470E+02  0.46804461420E+02  0.58476525460E+02  0.00000000000E+00 0. -1.
        -11    1    5    5    0    0 -0.17046047835E+03  0.20822816107E+02  0.37084869619E+03  0.40867972768E+03  0.00000000000E+00 0.  1.
          1    1    6    6  503    0 -0.39350158788E+02  0.39672569596E+02 -0.36711684302E+02  0.66858773091E+02  0.00000000000E+00 0. -1.
         -1    1    6    6    0  503 -0.82272614393E+02  0.22686799698E+03 -0.39544501316E+03  0.46326518277E+03  0.00000000000E+00 0.  1.
<mgrwt>
<rscale>  0 0.17443426E+04</rscale>
<asrwt>0</asrwt>
<pdfrwt beam="1">  1        1 0.86855993E-01 0.17443426E+04</pdfrwt>
<pdfrwt beam="2">  1       -2 0.20728940E+00 0.17443426E+04</pdfrwt>
<totfact> 0.36944775E+00</totfact>
</mgrwt>
</event>
<event>
12    4  0.4486176E-008  0.2066661E+04  0.7818608E-02  0.8576074E-01
          1   -1    0    0  501    0  0.00000000000E+00  0.00000000000E+00  0.15393907361E+04  0.15393907361E+04  0.00000000000E+00 0. -1.
         -2   -1    0    0    0  501 -0.00000000000E+00 -0.00000000000E+00 -0.69363254310E+03  0.69363254310E+03  0.00000000000E+00 0.  1.
        -24    2    1    2    0    0  0.40675494724E+03 -0.56402275559E+03  0.76444417147E+03  0.10365481021E+04  0.80534594074E+02 0.  0.
        254    2    1    2    0    0 -0.40675494724E+03  0.56402275559E+03  0.81314021552E+02  0.11964751771E+04  0.97024204368E+03 0.  0.
         23    2    4    4    0    0 -0.55891325934E+03  0.69171684914E+03  0.24110916264E+03  0.92654910579E+03  0.97485313140E+02 0.  0.
         23    2    4    4    0    0  0.15215831210E+03 -0.12769409356E+03 -0.15979514109E+03  0.26992607128E+03  0.88699849908E+02 0.  0.
          3    1    3    3  502    0  0.33719541651E+03 -0.46728784723E+03  0.58498237874E+03  0.82113522914E+03  0.00000000000E+00 0. -1.
         -2    1    3    3    0  502  0.69559530729E+02 -0.96734908356E+02  0.17946179273E+03  0.21541287301E+03  0.00000000000E+00 0.  1.
         11    1    5    5    0    0 -0.12739032439E+02  0.51373173950E+02  0.11625170442E+02  0.54190686810E+02  0.00000000000E+00 0.  1.
        -11    1    5    5    0    0 -0.54617422690E+03  0.64034367519E+03  0.22948399220E+03  0.87235841898E+03  0.00000000000E+00 0. -1.
          3    1    6    6  503    0  0.73426137753E+02 -0.11681861884E+03 -0.97708270575E+02  0.16907067620E+03  0.00000000000E+00 0. -1.
         -3    1    6    6    0  503  0.78732174344E+02 -0.10875474722E+02 -0.62086870513E+02  0.10085539508E+03  0.00000000000E+00 0.  1.
<mgrwt>
<rscale>  0 0.20666606E+04</rscale>
<asrwt>0</asrwt>
<pdfrwt beam="1">  1        1 0.23682934E+00 0.20666606E+04</pdfrwt>
<pdfrwt beam="2">  1       -2 0.10671270E+00 0.20666606E+04</pdfrwt>
<totfact> 0.35167625E+00</totfact>
</mgrwt>
</event>
<event>
12    4  0.4486176E-008  0.1459079E+04  0.7818608E-02  0.8912130E-01
         -4   -1    0    0    0  501 -0.00000000000E+00  0.00000000000E+00  0.45440297354E+03  0.45440297354E+03  0.00000000000E+00 0.  1.
          1   -1    0    0  501    0  0.00000000000E+00 -0.00000000000E+00 -0.11712689281E+04  0.11712689281E+04  0.00000000000E+00 0. -1.
        -24    2    1    2    0    0  0.80963756053E+01  0.27817268554E+03 -0.58708979647E+03  0.65478716881E+03  0.81401554278E+02 0.  0.
        254    2    1    2    0    0 -0.80963756053E+01 -0.27817268554E+03 -0.12977615805E+03  0.97088473279E+03  0.92104816318E+03 0.  0.
         23    2    4    4    0    0 -0.21164194155E+03  0.20836593650E+03  0.17294823043E+03  0.35567149130E+03  0.91555690146E+02 0.  0.
         23    2    4    4    0    0  0.20354556595E+03 -0.48653862204E+03 -0.30272438848E+03  0.61521324149E+03  0.93245101588E+02 0.  0.
          3    1    3    3  502    0  0.13731221804E+02  0.25799464530E+03 -0.57552840234E+03  0.63085872060E+03  0.00000000000E+00 0. -1.
         -4    1    3    3    0  502 -0.56348461992E+01  0.20178040233E+02 -0.11561394129E+02  0.23928448206E+02  0.00000000000E+00 0.  1.
         11    1    5    5    0    0 -0.17037339474E+03  0.15614220250E+03  0.86933967154E+02  0.24691090636E+03  0.00000000000E+00 0. -1.
        -11    1    5    5    0    0 -0.41268546813E+02  0.52223734005E+02  0.86014263276E+02  0.10876058494E+03  0.00000000000E+00 0.  1.
          2    1    6    6  503    0  0.18862018452E+03 -0.36763963082E+03 -0.25893561113E+03  0.48763113402E+03  0.00000000000E+00 0. -1.
         -2    1    6    6    0  503  0.14925381429E+02 -0.11889899122E+03 -0.43788777350E+02  0.12758210746E+03  0.00000000000E+00 0.  1.
<mgrwt>
<rscale>  0 0.14590793E+04</rscale>
<asrwt>0</asrwt>
<pdfrwt beam="1">  1        1 0.18019522E+00 0.14590793E+04</pdfrwt>
<pdfrwt beam="2">  1       -4 0.69908150E-01 0.14590793E+04</pdfrwt>
<totfact> 0.99854692E+00</totfact>
</mgrwt>
</event>
<event>
12    4  0.4486176E-008  0.1969642E+04  0.7818608E-02  0.8620947E-01
          1   -1    0    0  501    0  0.00000000000E+00  0.00000000000E+00  0.14436062881E+04  0.14436062881E+04  0.00000000000E+00 0. -1.
         -4   -1    0    0    0  501 -0.00000000000E+00 -0.00000000000E+00 -0.67183972558E+03  0.67183972558E+03  0.00000000000E+00 0.  1.
        -24    2    1    2    0    0 -0.57416593593E+03 -0.18083632545E+03  0.80123903644E+03  0.10055087567E+04  0.81826448564E+02 0.  0.
        254    2    1    2    0    0  0.57416593593E+03  0.18083632545E+03 -0.29472473961E+02  0.11099372569E+04  0.93205353336E+03 0.  0.
         23    2    4    4    0    0  0.53513455111E+01 -0.31491303657E+03  0.91442237859E+02  0.34019100995E+03  0.90384638553E+02 0.  0.
         23    2    4    4    0    0  0.56881459042E+03  0.49574936202E+03 -0.12091471182E+03  0.76974624699E+03  0.92582120354E+02 0.  0.
          1    1    3    3  502    0 -0.38845332245E+03 -0.14541388763E+03  0.49736154201E+03  0.64761847249E+03  0.00000000000E+00 0. -1.
         -4    1    3    3    0  502 -0.18571261348E+03 -0.35422437821E+02  0.30387749443E+03  0.35789028420E+03  0.00000000000E+00 0.  1.
         11    1    5    5    0    0  0.39554606048E+01 -0.26274753419E+03  0.38024647143E+02  0.26551419206E+03  0.00000000000E+00 0.  1.
        -11    1    5    5    0    0  0.13958849063E+01 -0.52165502375E+02  0.53417590715E+02  0.74676817892E+02  0.00000000000E+00 0. -1.
          3    1    6    6  503    0  0.10557078867E+03  0.14107849552E+03 -0.40549380194E+02  0.18081091105E+03  0.00000000000E+00 0. -1.
         -3    1    6    6    0  503  0.46324380175E+03  0.35467086650E+03 -0.80365331625E+02  0.58893533595E+03  0.00000000000E+00 0.  1.
<mgrwt>
<rscale>  0 0.19696416E+04</rscale>
<asrwt>0</asrwt>
<pdfrwt beam="1">  1        1 0.22209327E+00 0.19696416E+04</pdfrwt>
<pdfrwt beam="2">  1       -4 0.10335996E+00 0.19696416E+04</pdfrwt>
<totfact> 0.24838272E+00</totfact>
</mgrwt>
</event>
<event>
12    4  0.4486176E-008  0.1576983E+04  0.7818608E-02  0.8834814E-01
          1   -1    0    0  501    0  0.00000000000E+00  0.00000000000E+00  0.36433084165E+04  0.36433084165E+04  0.00000000000E+00 0. -1.
         -2   -1    0    0    0  501 -0.00000000000E+00 -0.00000000000E+00 -0.17064683535E+03  0.17064683535E+03  0.00000000000E+00 0.  1.
        -24    2    1    2    0    0  0.16093298401E+03  0.77003766076E+02 -0.26651307022E+02  0.19769991303E+03  0.80907095574E+02 0.  0.
        254    2    1    2    0    0 -0.16093298401E+03 -0.77003766076E+02  0.34993128882E+04  0.36162553388E+04  0.89458536811E+03 0.  0.
         23    2    4    4    0    0 -0.84569677036E+02 -0.45478590273E+03  0.24453826891E+04  0.24904066403E+04  0.90810189277E+02 0.  0.
         23    2    4    4    0    0 -0.76363306973E+02  0.37778213666E+03  0.10539301991E+04  0.11258486985E+04  0.90640663722E+02 0.  0.
          3    1    3    3  502    0  0.83304495873E+02  0.31001636834E+02  0.26779110732E+02  0.92832436630E+02  0.00000000000E+00 0. -1.
         -4    1    3    3    0  502  0.77628488136E+02  0.46002129242E+02 -0.53430417755E+02  0.10486747640E+03  0.00000000000E+00 0.  1.
         11    1    5    5    0    0 -0.46431619066E+02 -0.35108228127E+03  0.20256598740E+04  0.20563833759E+04  0.00000000000E+00 0. -1.
        -11    1    5    5    0    0 -0.38138057970E+02 -0.10370362146E+03  0.41972281505E+03  0.43402326440E+03  0.00000000000E+00 0.  1.
          1    1    6    6  503    0 -0.74098679116E+02  0.37173393099E+03  0.10532192806E+04  0.11193514116E+04  0.00000000000E+00 0. -1.
         -1    1    6    6    0  503 -0.22646278565E+01  0.60482056701E+01  0.71091845925E+00  0.64972868347E+01  0.00000000000E+00 0.  1.
<mgrwt>
<rscale>  0 0.15769833E+04</rscale>
<asrwt>0</asrwt>
<pdfrwt beam="1">  1        1 0.56050893E+00 0.15769833E+04</pdfrwt>
<pdfrwt beam="2">  1       -2 0.26253362E-01 0.15769833E+04</pdfrwt>
<totfact> 0.21516839E+00</totfact>
</mgrwt>
</event>
<event>
12    4  0.4486176E-008  0.1234186E+04  0.7818608E-02  0.9083449E-01
          1   -1    0    0  501    0  0.00000000000E+00  0.00000000000E+00  0.13367201848E+04  0.13367201848E+04  0.00000000000E+00 0. -1.
         -2   -1    0    0    0  501 -0.00000000000E+00 -0.00000000000E+00 -0.28487906500E+03  0.28487906500E+03  0.00000000000E+00 0.  1.
        -24    2    1    2    0    0 -0.34452477197E+02  0.24757903787E+03  0.79169465536E+02  0.27405389685E+03  0.79720643046E+02 0.  0.
        254    2    1    2    0    0  0.34452477197E+02 -0.24757903787E+03  0.97267165422E+03  0.13475453529E+04  0.89850207460E+03 0.  0.
         23    2    4    4    0    0 -0.17356460912E+03  0.27207150728E+03  0.20144034340E+03  0.39104008302E+03  0.90479588676E+02 0.  0.
         23    2    4    4    0    0  0.20801708632E+03 -0.51965054515E+03  0.77123131081E+03  0.95650526989E+03  0.82442703014E+02 0.  0.
          1    1    3    3  502    0 -0.93621452978E+01  0.16183410042E+03  0.87699468493E+02  0.18430714201E+03  0.00000000000E+00 0. -1.
         -2    1    3    3    0  502 -0.25090331900E+02  0.85744937453E+02 -0.85300029570E+01  0.89746754838E+02  0.00000000000E+00 0.  1.
         11    1    5    5    0    0 -0.10467049028E+03  0.22201227823E+03  0.17644108686E+03  0.30228599100E+03  0.00000000000E+00 0.  1.
        -11    1    5    5    0    0 -0.68894118835E+02  0.50059229047E+02  0.24999256542E+02  0.88754092021E+02  0.00000000000E+00 0. -1.
          1    1    6    6  503    0  0.50359881786E+02 -0.22383237364E+03  0.28382227921E+03  0.36495497717E+03  0.00000000000E+00 0.  1.
         -1    1    6    6    0  503  0.15765720453E+03 -0.29581817150E+03  0.48740903160E+03  0.59155029272E+03  0.00000000000E+00 0. -1.
<mgrwt>
<rscale>  0 0.12341857E+04</rscale>
<asrwt>0</asrwt>
<pdfrwt beam="1">  1        1 0.20564926E+00 0.12341857E+04</pdfrwt>
<pdfrwt beam="2">  1       -2 0.43827549E-01 0.12341857E+04</pdfrwt>
<totfact> 0.36407083E+01</totfact>
</mgrwt>
</event>
<event>
12    4  0.4486176E-008  0.2579248E+04  0.7818608E-02  0.8375285E-01
          3   -1    0    0  501    0  0.00000000000E+00  0.00000000000E+00  0.12988953166E+04  0.12988953166E+04  0.00000000000E+00 0. -1.
         -4   -1    0    0    0  501 -0.00000000000E+00 -0.00000000000E+00 -0.12804185801E+04  0.12804185801E+04  0.00000000000E+00 0.  1.
        -24    2    1    2    0    0  0.37942568586E+03  0.67553790315E+03  0.83282577257E+03  0.11403272114E+04  0.80200198403E+02 0.  0.
        254    2    1    2    0    0 -0.37942568586E+03 -0.67553790315E+03 -0.81434903606E+03  0.14389866854E+04  0.89844477774E+03 0.  0.
         23    2    4    4    0    0 -0.19382776983E+03 -0.11851626936E+03  0.16394325686E+03  0.29453814240E+03  0.90884626846E+02 0.  0.
         23    2    4    4    0    0 -0.18559791603E+03 -0.55702163379E+03 -0.97829229293E+03  0.11444485430E+04  0.89369851253E+02 0.  0.
          3    1    3    3  502    0  0.24862465949E+03  0.48079441819E+03  0.62622247600E+03  0.82772705847E+03  0.00000000000E+00 0. -1.
         -4    1    3    3    0  502  0.13080102637E+03  0.19474348496E+03  0.20660329656E+03  0.31260015289E+03  0.00000000000E+00 0.  1.
         11    1    5    5    0    0 -0.18379292696E+03 -0.11175004235E+03  0.17564508826E+03  0.27770327509E+03  0.00000000000E+00 0. -1.
        -11    1    5    5    0    0 -0.10034842863E+02 -0.67662270115E+01 -0.11701831394E+02  0.16834867307E+02  0.00000000000E+00 0.  1.
          4    1    6    6  503    0 -0.19461259152E+03 -0.52459062474E+03 -0.90880174677E+03  0.10672347442E+04  0.00000000000E+00 0. -1.
         -4    1    6    6    0  503  0.90146754882E+01 -0.32431009055E+02 -0.69490546160E+02  0.77213798819E+02  0.00000000000E+00 0.  1.
<mgrwt>
<rscale>  0 0.25792477E+04</rscale>
<asrwt>0</asrwt>
<pdfrwt beam="1">  1        3 0.19983005E+00 0.25792477E+04</pdfrwt>
<pdfrwt beam="2">  1       -4 0.19698747E+00 0.25792477E+04</pdfrwt>
<totfact> 0.41079871E-02</totfact>
</mgrwt>
</event>
<event>
12    4  0.4486176E-008  0.1134081E+04  0.7818608E-02  0.9172596E-01
          1   -1    0    0  501    0  0.00000000000E+00  0.00000000000E+00  0.31912604354E+04  0.31912604354E+04  0.00000000000E+00 0. -1.
         -2   -1    0    0    0  501 -0.00000000000E+00 -0.00000000000E+00 -0.10075487007E+03  0.10075487007E+03  0.00000000000E+00 0.  1.
        -24    2    1    2    0    0  0.17653365523E+03 -0.22972864712E+02  0.32408228303E+03  0.37726103841E+03  0.74864417357E+02 0.  0.
        254    2    1    2    0    0 -0.17653365523E+03  0.22972864712E+02  0.27664232823E+04  0.29147542671E+04  0.90055692579E+03 0.  0.
         23    2    4    4    0    0 -0.27243997361E+03 -0.23410601598E+03  0.46022806352E+03  0.59055230940E+03  0.88955009707E+02 0.  0.
         23    2    4    4    0    0  0.95906318377E+02  0.25707888069E+03  0.23061952188E+04  0.23242019577E+04  0.89948763618E+02 0.  0.
          1    1    3    3  502    0  0.13722724684E+03 -0.28811398902E+02  0.29906322182E+03  0.33030323133E+03  0.00000000000E+00 0. -1.
         -2    1    3    3    0  502  0.39306408391E+02  0.58385341896E+01  0.25019061215E+02  0.46957807084E+02  0.00000000000E+00 0.  1.
         11    1    5    5    0    0 -0.27012717654E+03 -0.20416424554E+03  0.43553826611E+03  0.55167500569E+03  0.00000000000E+00 0. -1.
        -11    1    5    5    0    0 -0.23127970694E+01 -0.29941770445E+02  0.24689797413E+02  0.38877303713E+02  0.00000000000E+00 0.  1.
          1    1    6    6  503    0  0.91201447779E+02  0.11862029743E+03  0.11232967083E+04  0.11332184140E+04  0.00000000000E+00 0. -1.
         -1    1    6    6    0  503  0.47048705981E+01  0.13845858326E+03  0.11828985105E+04  0.11909835437E+04  0.00000000000E+00 0.  1.
<mgrwt>
<rscale>  0 0.11340812E+04</rscale>
<asrwt>0</asrwt>
<pdfrwt beam="1">  1        1 0.49096307E+00 0.11340812E+04</pdfrwt>
<pdfrwt beam="2">  1       -2 0.15500752E-01 0.11340812E+04</pdfrwt>
<totfact> 0.12756295E+01</totfact>
</mgrwt>
</event>
<event>
12    4  0.4486176E-008  0.2794215E+04  0.7818608E-02  0.8305067E-01
         -2   -1    0    0    0  501 -0.00000000000E+00  0.00000000000E+00  0.96215610135E+03  0.96215610135E+03  0.00000000000E+00 0.  1.
          1   -1    0    0  501    0  0.00000000000E+00 -0.00000000000E+00 -0.20286823063E+04  0.20286823063E+04  0.00000000000E+00 0. -1.
        -24    2    1    2    0    0  0.10644680464E+04  0.78170812683E+02  0.21772879808E+03  0.10920986832E+04  0.77915380234E+02 0.  0.
        254    2    1    2    0    0 -0.10644680464E+04 -0.78170812683E+02 -0.12842550031E+04  0.18987397245E+04  0.90371385453E+03 0.  0.
         23    2    4    4    0    0 -0.87293653134E+03 -0.42945139976E+03 -0.10113780639E+04  0.14061946335E+04  0.89727735841E+02 0.  0.
         23    2    4    4    0    0 -0.19153151506E+03  0.35128058708E+03 -0.27287693915E+03  0.49254509105E+03  0.89757844630E+02 0.  0.
          3    1    3    3  502    0  0.85085128164E+03  0.79517851061E+02  0.14725677505E+03  0.86715370605E+03  0.00000000000E+00 0. -1.
         -4    1    3    3    0  502  0.21361676476E+03 -0.13470383777E+01  0.70472023027E+02  0.22494497711E+03  0.00000000000E+00 0.  1.
         11    1    5    5    0    0 -0.52405140084E+03 -0.24939523719E+03 -0.54004578959E+03  0.79276560843E+03  0.00000000000E+00 0.  1.
        -11    1    5    5    0    0 -0.34888513050E+03 -0.18005616257E+03 -0.47133227433E+03  0.61342902506E+03  0.00000000000E+00 0. -1.
          1    1    6    6  503    0 -0.13301055749E+03  0.15304467559E+03 -0.14830452528E+03  0.25121447679E+03  0.00000000000E+00 0. -1.
         -1    1    6    6    0  503 -0.58520957571E+02  0.19823591149E+03 -0.12457241387E+03  0.24133061426E+03  0.00000000000E+00 0.  1.
<mgrwt>
<rscale>  0 0.27942148E+04</rscale>
<asrwt>0</asrwt>
<pdfrwt beam="1">  1        1 0.31210497E+00 0.27942148E+04</pdfrwt>
<pdfrwt beam="2">  1       -2 0.14802402E+00 0.27942148E+04</pdfrwt>
<totfact> 0.67322701E-01</totfact>
</mgrwt>
</event>
<event>
12    4  0.4486176E-008  0.3528263E+04  0.7818608E-02  0.8107125E-01
          1   -1    0    0  501    0  0.00000000000E+00  0.00000000000E+00  0.24834576654E+04  0.24834576654E+04  0.00000000000E+00 0. -1.
         -2   -1    0    0    0  501 -0.00000000000E+00 -0.00000000000E+00 -0.12531558852E+04  0.12531558852E+04  0.00000000000E+00 0.  1.
        -24    2    1    2    0    0 -0.76053586638E+03 -0.65302679337E+03  0.19602297399E+04  0.22031436609E+04  0.80514351558E+02 0.  0.
        254    2    1    2    0    0  0.76053586638E+03  0.65302679337E+03 -0.72992795971E+03  0.15334698896E+04  0.90215091817E+03 0.  0.
         23    2    4    4    0    0  0.37208289533E+03 -0.14867611072E+03 -0.57914178999E+02  0.41440443535E+03  0.88468734675E+02 0.  0.
         23    2    4    4    0    0  0.38845297106E+03  0.80170290409E+03 -0.67201378071E+03  0.11190654543E+04  0.84152910711E+02 0.  0.
          1    1    3    3  502    0 -0.65443535170E+03 -0.56159411298E+03  0.16204529411E+04  0.18356310391E+04  0.00000000000E+00 0. -1.
         -2    1    3    3    0  502 -0.10610051469E+03 -0.91432680393E+02  0.33977679873E+03  0.36751262184E+03  0.00000000000E+00 0.  1.
         11    1    5    5    0    0  0.43159902154E+02  0.95116931927E+01  0.33147649271E+01  0.44319714889E+02  0.00000000000E+00 0.  1.
        -11    1    5    5    0    0  0.32892299317E+03 -0.15818780391E+03 -0.61228943926E+02  0.37008472046E+03  0.00000000000E+00 0. -1.
          2    1    6    6  503    0  0.31481039788E+03  0.56533960779E+03 -0.47624142128E+03  0.80344281072E+03  0.00000000000E+00 0. -1.
         -2    1    6    6    0  503  0.73642573174E+02  0.23636329630E+03 -0.19577235943E+03  0.31562264357E+03  0.00000000000E+00 0.  1.
<mgrwt>
<rscale>  0 0.35282628E+04</rscale>
<asrwt>0</asrwt>
<pdfrwt beam="1">  1        1 0.38207041E+00 0.35282628E+04</pdfrwt>
<pdfrwt beam="2">  1       -2 0.19279321E+00 0.35282628E+04</pdfrwt>
<totfact> 0.14788870E-01</totfact>
</mgrwt>
</event>
<event>
12    4  0.4486176E-008  0.1547337E+04  0.7818608E-02  0.8853571E-01
         -2   -1    0    0    0  501 -0.00000000000E+00  0.00000000000E+00  0.18391453593E+03  0.18391453593E+03  0.00000000000E+00 0.  1.
          1   -1    0    0  501    0  0.00000000000E+00 -0.00000000000E+00 -0.32545707167E+04  0.32545707167E+04  0.00000000000E+00 0. -1.
        -24    2    1    2    0    0 -0.15945375165E+03 -0.31253877012E+03 -0.20671855978E+03  0.41538332307E+03  0.81882601200E+02 0.  0.
        254    2    1    2    0    0  0.15945375165E+03  0.31253877012E+03 -0.28639376210E+04  0.30231019296E+04  0.90216439628E+03 0.  0.
         23    2    4    4    0    0  0.20995629736E+03  0.13381755493E+03 -0.15817241128E+03  0.30940197644E+03  0.93393182452E+02 0.  0.
         23    2    4    4    0    0 -0.50502545707E+02  0.17872121520E+03 -0.27057652097E+04  0.27136999531E+04  0.92251209583E+02 0.  0.
          3    1    3    3  502    0 -0.24205215411E+02 -0.57402255674E+01 -0.17161057597E+02  0.30221590634E+02  0.00000000000E+00 0. -1.
         -2    1    3    3    0  502 -0.13524853624E+03 -0.30679854456E+03 -0.18955750218E+03  0.38516173243E+03  0.00000000000E+00 0.  1.
         11    1    5    5    0    0 -0.59051438551E+01  0.12633727718E+01 -0.19926582555E+02  0.20821515964E+02  0.00000000000E+00 0.  1.
        -11    1    5    5    0    0  0.21586144121E+03  0.13255418215E+03 -0.13824582872E+03  0.28858046047E+03  0.00000000000E+00 0. -1.
          2    1    6    6  503    0 -0.45722244959E+02  0.82072120163E+02 -0.18686768301E+04  0.18710369991E+04  0.00000000000E+00 0. -1.
         -2    1    6    6    0  503 -0.47803007481E+01  0.96649095034E+02 -0.83708837963E+03  0.84266295407E+03  0.00000000000E+00 0.  1.
<mgrwt>
<rscale>  0 0.15473369E+04</rscale>
<asrwt>0</asrwt>
<pdfrwt beam="1">  1        1 0.50070314E+00 0.15473369E+04</pdfrwt>
<pdfrwt beam="2">  1       -2 0.28294547E-01 0.15473369E+04</pdfrwt>
<totfact> 0.37711502E+00</totfact>
</mgrwt>
</event>
<event>
12    4  0.4486176E-008  0.1434917E+04  0.7818608E-02  0.8928924E-01
          1   -1    0    0  501    0  0.00000000000E+00  0.00000000000E+00  0.80740959272E+03  0.80740959272E+03  0.00000000000E+00 0. -1.
         -2   -1    0    0    0  501 -0.00000000000E+00 -0.00000000000E+00 -0.63752900445E+03  0.63752900445E+03  0.00000000000E+00 0.  1.
        -24    2    1    2    0    0 -0.41482675648E+02  0.39975025880E+03  0.17374296110E+03  0.44488192843E+03  0.78817713250E+02 0.  0.
        254    2    1    2    0    0  0.41482675648E+02 -0.39975025880E+03 -0.38623728283E+01  0.10000566687E+04  0.91573868597E+03 0.  0.
         23    2    4    4    0    0 -0.30405272035E+03 -0.20704038512E+03  0.30759100734E+03  0.48823283245E+03  0.91898275643E+02 0.  0.
         23    2    4    4    0    0  0.34553539600E+03 -0.19270987368E+03 -0.31145338016E+03  0.51182383630E+03  0.91807549173E+02 0.  0.
          1    1    3    3  502    0 -0.96392850792E+01  0.45797848337E+02  0.50215083194E+02  0.68643377752E+02  0.00000000000E+00 0. -1.
         -2    1    3    3    0  502 -0.31843390569E+02  0.35395241047E+03  0.12352787791E+03  0.37623855068E+03  0.00000000000E+00 0.  1.
         11    1    5    5    0    0 -0.15630232045E+03 -0.10550624727E+03  0.21659902718E+03  0.28718830437E+03  0.00000000000E+00 0. -1.
        -11    1    5    5    0    0 -0.14775039990E+03 -0.10153413785E+03  0.90991980160E+02  0.20104452808E+03  0.00000000000E+00 0.  1.
          2    1    6    6  503    0  0.18977354713E+03 -0.61328019737E+02 -0.12331961183E+03  0.23448422518E+03  0.00000000000E+00 0.  1.
         -2    1    6    6    0  503  0.15576184887E+03 -0.13138185395E+03 -0.18813376833E+03  0.27733961112E+03  0.00000000000E+00 0. -1.
<mgrwt>
<rscale>  0 0.14349175E+04</rscale>
<asrwt>0</asrwt>
<pdfrwt beam="1">  1        1 0.12421686E+00 0.14349175E+04</pdfrwt>
<pdfrwt beam="2">  1       -2 0.98081385E-01 0.14349175E+04</pdfrwt>
<totfact> 0.16046920E+01</totfact>
</mgrwt>
</event>
<event>
12    4  0.4486176E-008  0.1865441E+04  0.7818608E-02  0.8672252E-01
          1   -1    0    0  501    0  0.00000000000E+00  0.00000000000E+00  0.94724927483E+03  0.94724927483E+03  0.00000000000E+00 0. -1.
         -2   -1    0    0    0  501 -0.00000000000E+00 -0.00000000000E+00 -0.91841454359E+03  0.91841454359E+03  0.00000000000E+00 0.  1.
        -24    2    1    2    0    0  0.55079059191E+03  0.40769686971E+03 -0.17357645686E+03  0.71130844949E+03  0.79018417063E+02 0.  0.
        254    2    1    2    0    0 -0.55079059191E+03 -0.40769686971E+03  0.20241118810E+03  0.11543553689E+04  0.90663058353E+03 0.  0.
         23    2    4    4    0    0 -0.32753181505E+03  0.24716392726E+03  0.17689314910E+03  0.45596047663E+03  0.90783661745E+02 0.  0.
         23    2    4    4    0    0 -0.22325877686E+03 -0.65486079697E+03  0.25518039000E+02  0.69839489229E+03  0.91744811350E+02 0.  0.
          1    1    3    3  502    0  0.59288744589E+02  0.70387106430E+02 -0.40357590362E+02  0.10048997505E+03  0.00000000000E+00 0. -1.
         -2    1    3    3    0  502  0.49150184732E+03  0.33730976328E+03 -0.13321886650E+03  0.61081847444E+03  0.00000000000E+00 0.  1.
         11    1    5    5    0    0 -0.17486644585E+03  0.78261018262E+02  0.96491123526E+02  0.21450780355E+03  0.00000000000E+00 0. -1.
        -11    1    5    5    0    0 -0.15266536920E+03  0.16890290900E+03  0.80402025579E+02  0.24145267308E+03  0.00000000000E+00 0.  1.
          1    1    6    6  503    0 -0.22748264131E+03 -0.63453068209E+03  0.13103992480E+02  0.67420267964E+03  0.00000000000E+00 0. -1.
         -1    1    6    6    0  503  0.42238644549E+01 -0.20330114878E+02  0.12414046520E+02  0.24192212650E+02  0.00000000000E+00 0.  1.
<mgrwt>
<rscale>  0 0.18654410E+04</rscale>
<asrwt>0</asrwt>
<pdfrwt beam="1">  1        1 0.14573066E+00 0.18654410E+04</pdfrwt>
<pdfrwt beam="2">  1       -2 0.14129454E+00 0.18654410E+04</pdfrwt>
<totfact> 0.48038317E+00</totfact>
</mgrwt>
</event>
<event>
12    4  0.4486176E-008  0.1976770E+04  0.7818608E-02  0.8617559E-01
          1   -1    0    0  501    0  0.00000000000E+00  0.00000000000E+00  0.12756457128E+04  0.12756457128E+04  0.00000000000E+00 0. -1.
         -2   -1    0    0    0  501 -0.00000000000E+00 -0.00000000000E+00 -0.76581230955E+03  0.76581230955E+03  0.00000000000E+00 0.  1.
        -24    2    1    2    0    0  0.72117740257E+03 -0.14896815003E+03  0.45948521672E+03  0.87201189442E+03  0.83604568873E+02 0.  0.
        254    2    1    2    0    0 -0.72117740257E+03  0.14896815003E+03  0.50348186539E+02  0.11694461279E+04  0.90707273720E+03 0.  0.
         23    2    4    4    0    0 -0.73685411650E+03 -0.20050666683E+03 -0.10180224863E+03  0.77573110268E+03  0.90764163604E+02 0.  0.
         23    2    4    4    0    0  0.15676713933E+02  0.34947481686E+03  0.15215043517E+03  0.39371502526E+03  0.97382540606E+02 0.  0.
          1    1    3    3  502    0  0.71773139651E+03 -0.14029894829E+03  0.44982752915E+03  0.85858427566E+03  0.00000000000E+00 0. -1.
         -2    1    3    3    0  502  0.34460060591E+01 -0.86692017383E+01  0.96576875716E+01  0.13427618768E+02  0.00000000000E+00 0.  1.
         11    1    5    5    0    0 -0.32984261363E+03 -0.93179151713E+02 -0.34419226131E+00  0.34275154638E+03  0.00000000000E+00 0.  1.
        -11    1    5    5    0    0 -0.40701150287E+03 -0.10732751512E+03 -0.10145805637E+03  0.43297955630E+03  0.00000000000E+00 0. -1.
          3    1    6    6  503    0  0.41944499483E+02  0.68076608990E+02  0.42629046231E+02  0.90614575599E+02  0.00000000000E+00 0. -1.
         -3    1    6    6    0  503 -0.26267785550E+02  0.28139820787E+03  0.10952138894E+03  0.30310044966E+03  0.00000000000E+00 0.  1.
<mgrwt>
<rscale>  0 0.19767703E+04</rscale>
<asrwt>0</asrwt>
<pdfrwt beam="1">  1        1 0.19625319E+00 0.19767703E+04</pdfrwt>
<pdfrwt beam="2">  1       -2 0.11781728E+00 0.19767703E+04</pdfrwt>
<totfact> 0.42676371E+00</totfact>
</mgrwt>
</event>
<event>
12    4  0.4486176E-008  0.1212503E+04  0.7818608E-02  0.9101982E-01
          1   -1    0    0  501    0  0.00000000000E+00  0.00000000000E+00  0.15394875386E+04  0.15394875386E+04  0.00000000000E+00 0. -1.
         -2   -1    0    0    0  501 -0.00000000000E+00 -0.00000000000E+00 -0.23874245924E+03  0.23874245924E+03  0.00000000000E+00 0.  1.
        -24    2    1    2    0    0  0.15980534519E+03  0.20179890058E+03  0.20609089696E+03  0.33923668146E+03  0.79671347513E+02 0.  0.
        254    2    1    2    0    0 -0.15980534519E+03 -0.20179890058E+03  0.10946541824E+04  0.14389933164E+04  0.89787161716E+03 0.  0.
         23    2    4    4    0    0  0.28886515689E+03 -0.33755807039E+03  0.47484325235E+03  0.65680924150E+03  0.92378220702E+02 0.  0.
         23    2    4    4    0    0 -0.44867050208E+03  0.13575916981E+03  0.61981093007E+03  0.78218407489E+03  0.88941364716E+02 0.  0.
          3    1    3    3  502    0  0.44371101741E+02  0.55824098175E+02  0.10648269301E+03  0.12815493950E+03  0.00000000000E+00 0. -1.
         -4    1    3    3    0  502  0.11543424345E+03  0.14597480240E+03  0.99608203946E+02  0.21108174196E+03  0.00000000000E+00 0.  1.
         11    1    5    5    0    0  0.15651713219E+02 -0.34037700683E+02  0.82013926388E+02  0.90165543951E+02  0.00000000000E+00 0.  1.
        -11    1    5    5    0    0  0.27321344367E+03 -0.30352036971E+03  0.39282932596E+03  0.56664369755E+03  0.00000000000E+00 0. -1.
          2    1    6    6  503    0 -0.25971570885E+03  0.96178580937E+02  0.42982580051E+03  0.51132454238E+03  0.00000000000E+00 0. -1.
         -2    1    6    6    0  503 -0.18895479323E+03  0.39580588874E+02  0.18998512956E+03  0.27085953252E+03  0.00000000000E+00 0.  1.
<mgrwt>
<rscale>  0 0.12125033E+04</rscale>
<asrwt>0</asrwt>
<pdfrwt beam="1">  1        1 0.23684423E+00 0.12125033E+04</pdfrwt>
<pdfrwt beam="2">  1       -2 0.36729610E-01 0.12125033E+04</pdfrwt>
<totfact> 0.37212139E+01</totfact>
</mgrwt>
</event>
<event>
12    4  0.4486176E-008  0.1630282E+04  0.7818608E-02  0.8802158E-01
         -2   -1    0    0    0  501 -0.00000000000E+00  0.00000000000E+00  0.55695104627E+03  0.55695104627E+03  0.00000000000E+00 0.  1.
          1   -1    0    0  501    0  0.00000000000E+00 -0.00000000000E+00 -0.11930213430E+04  0.11930213430E+04  0.00000000000E+00 0. -1.
        -24    2    1    2    0    0  0.46087880926E+03 -0.23686953006E+03 -0.47249986568E+03  0.70571393496E+03  0.79117531712E+02 0.  0.
        254    2    1    2    0    0 -0.46087880926E+03  0.23686953006E+03 -0.16357043108E+03  0.10442584543E+04  0.89174210535E+03 0.  0.
         23    2    4    4    0    0  0.10821515490E+03  0.16874663805E+03  0.24876869917E+03  0.33248604774E+03  0.92060624860E+02 0.  0.
         23    2    4    4    0    0 -0.56909396416E+03  0.68122892004E+02 -0.41233913025E+03  0.71177240661E+03  0.89931818693E+02 0.  0.
          3    1    3    3  502    0  0.29054226224E+03 -0.14338553212E+03 -0.34515409910E+03  0.47339789722E+03  0.00000000000E+00 0. -1.
         -4    1    3    3    0  502  0.17033654702E+03 -0.93483997941E+02 -0.12734576659E+03  0.23231603774E+03  0.00000000000E+00 0.  1.
         11    1    5    5    0    0  0.12358674684E+02  0.47618180324E+01 -0.61331381958E+01  0.14595449121E+02  0.00000000000E+00 0. -1.
        -11    1    5    5    0    0  0.95856480215E+02  0.16398482002E+03  0.25490183737E+03  0.31789059862E+03  0.00000000000E+00 0.  1.
          4    1    6    6  503    0 -0.42330370031E+02 -0.87487037381E+01 -0.96765895871E+01  0.44294880405E+02  0.00000000000E+00 0. -1.
         -4    1    6    6    0  503 -0.52676359413E+03  0.76871595742E+02 -0.40266254066E+03  0.66747752620E+03  0.00000000000E+00 0.  1.
<mgrwt>
<rscale>  0 0.16302816E+04</rscale>
<asrwt>0</asrwt>
<pdfrwt beam="1">  1        1 0.18354174E+00 0.16302816E+04</pdfrwt>
<pdfrwt beam="2">  1       -2 0.85684778E-01 0.16302816E+04</pdfrwt>
<totfact> 0.10738353E+01</totfact>
</mgrwt>
</event>
<event>
12    4  0.4486176E-008  0.1148592E+04  0.7818608E-02  0.9159083E-01
         -2   -1    0    0    0  501 -0.00000000000E+00  0.00000000000E+00  0.21798544202E+03  0.21798544202E+03  0.00000000000E+00 0.  1.
          1   -1    0    0  501    0  0.00000000000E+00 -0.00000000000E+00 -0.15130185653E+04  0.15130185653E+04  0.00000000000E+00 0. -1.
        -24    2    1    2    0    0 -0.21556021842E+03  0.17061206196E+03 -0.30903044004E+03  0.42118794641E+03  0.79528547552E+02 0.  0.
        254    2    1    2    0    0  0.21556021842E+03 -0.17061206196E+03 -0.98600268328E+03  0.13098160609E+04  0.81721609053E+03 0.  0.
         23    2    4    4    0    0  0.35867719198E+03  0.22379223261E+03 -0.47784764961E+03  0.64475000130E+03  0.92908000272E+02 0.  0.
         23    2    4    4    0    0 -0.14311697356E+03 -0.39440429457E+03 -0.50815503367E+03  0.66506605964E+03  0.89744692039E+02 0.  0.
          3    1    3    3  502    0 -0.22261469276E+03  0.16671195696E+03 -0.30051325494E+03  0.40946110245E+03  0.00000000000E+00 0. -1.
         -4    1    3    3    0  502  0.70544743370E+01  0.39001050068E+01 -0.85171850979E+01  0.11726843958E+02  0.00000000000E+00 0.  1.
         11    1    5    5    0    0  0.26787782161E+03  0.20249831748E+03 -0.33637336177E+03  0.47530109867E+03  0.00000000000E+00 0.  1.
        -11    1    5    5    0    0  0.90799370370E+02  0.21293915132E+02 -0.14147428784E+03  0.16944890263E+03  0.00000000000E+00 0. -1.
          3    1    6    6  503    0 -0.23166029387E+02 -0.16985243083E+03 -0.16634216493E+03  0.23886445740E+03  0.00000000000E+00 0. -1.
         -3    1    6    6    0  503 -0.11995094417E+03 -0.22455186374E+03 -0.34181286874E+03  0.42620160224E+03  0.00000000000E+00 0.  1.
<mgrwt>
<rscale>  0 0.11485922E+04</rscale>
<asrwt>0</asrwt>
<pdfrwt beam="1">  1        1 0.23277208E+00 0.11485922E+04</pdfrwt>
<pdfrwt beam="2">  1       -2 0.33536224E-01 0.11485922E+04</pdfrwt>
<totfact> 0.46411228E+01</totfact>
</mgrwt>
</event>
<event>
12    4  0.4486176E-008  0.1103770E+04  0.7818608E-02  0.9201525E-01
         -2   -1    0    0    0  501 -0.00000000000E+00  0.00000000000E+00  0.31188920021E+03  0.31188920021E+03  0.00000000000E+00 0.  1.
          1   -1    0    0  501    0  0.00000000000E+00 -0.00000000000E+00 -0.97655558322E+03  0.97655558322E+03  0.00000000000E+00 0. -1.
        -24    2    1    2    0    0 -0.13668230746E+02 -0.12227783716E+03 -0.27511577022E+03  0.31197852606E+03  0.80642567562E+02 0.  0.
        254    2    1    2    0    0  0.13668230746E+02  0.12227783716E+03 -0.38955061279E+03  0.97646625737E+03  0.88690359220E+03 0.  0.
         23    2    4    4    0    0  0.41202887638E+03  0.96995389976E+02 -0.36591020611E+03  0.56633179239E+03  0.87552952471E+02 0.  0.
         23    2    4    4    0    0 -0.39836064563E+03  0.25282447182E+02 -0.23640406679E+02  0.41013446498E+03  0.91219539655E+02 0.  0.
          1    1    3    3  502    0 -0.26726300918E+02 -0.63838494146E+02 -0.21987449486E+03  0.23050909306E+03  0.00000000000E+00 0. -1.
         -2    1    3    3    0  502  0.13058070172E+02 -0.58439343012E+02 -0.55241275365E+02  0.81469432993E+02  0.00000000000E+00 0.  1.
         11    1    5    5    0    0  0.40601044640E+02 -0.16335612501E+02 -0.41734392577E+02  0.60473602385E+02  0.00000000000E+00 0. -1.
        -11    1    5    5    0    0  0.37142783174E+03  0.11333100248E+03 -0.32417581354E+03  0.50585819000E+03  0.00000000000E+00 0.  1.
          4    1    6    6  503    0 -0.74568761016E+02  0.37677878600E+02  0.10961472643E+02  0.84263138665E+02  0.00000000000E+00 0. -1.
         -4    1    6    6    0  503 -0.32379188462E+03 -0.12395431418E+02 -0.34601879321E+02  0.32587132632E+03  0.00000000000E+00 0.  1.
<mgrwt>
<rscale>  0 0.11037702E+04</rscale>
<asrwt>0</asrwt>
<pdfrwt beam="1">  1        1 0.15023932E+00 0.11037702E+04</pdfrwt>
<pdfrwt beam="2">  1       -2 0.47982955E-01 0.11037702E+04</pdfrwt>
<totfact> 0.56727760E+01</totfact>
</mgrwt>
</event>
<event>
12    4  0.4486176E-008  0.2008032E+04  0.7818608E-02  0.8602875E-01
          1   -1    0    0  501    0  0.00000000000E+00  0.00000000000E+00  0.10958645486E+04  0.10958645486E+04  0.00000000000E+00 0. -1.
         -2   -1    0    0    0  501 -0.00000000000E+00 -0.00000000000E+00 -0.91986542105E+03  0.91986542105E+03  0.00000000000E+00 0.  1.
        -24    2    1    2    0    0  0.41175858444E+03  0.38468011433E+03  0.64776260330E+03  0.86139397255E+03  0.69851724980E+02 0.  0.
        254    2    1    2    0    0 -0.41175858444E+03 -0.38468011433E+03 -0.47176347576E+03  0.11543359971E+04  0.89017239616E+03 0.  0.
         23    2    4    4    0    0 -0.25500110014E+03  0.21075628993E+03  0.43272203440E+02  0.34608129206E+03  0.91956524017E+02 0.  0.
         23    2    4    4    0    0 -0.15675748431E+03 -0.59543640426E+03 -0.51503567920E+03  0.80825470503E+03  0.94321243389E+02 0.  0.
          3    1    3    3  502    0  0.31380407182E+03  0.28475829925E+03  0.52952433325E+03  0.67820078442E+03  0.00000000000E+00 0. -1.
         -4    1    3    3    0  502  0.97954512621E+02  0.99921815078E+02  0.11823827005E+03  0.18319318812E+03  0.00000000000E+00 0.  1.
         11    1    5    5    0    0 -0.19257514321E+03  0.19727712795E+03  0.55076404464E+02  0.28113495215E+03  0.00000000000E+00 0.  1.
        -11    1    5    5    0    0 -0.62425956923E+02  0.13479161982E+02 -0.11804201024E+02  0.64946339907E+02  0.00000000000E+00 0. -1.
          3    1    6    6  503    0  0.27889328062E+01 -0.14507045044E+03 -0.11731019364E+03  0.18658750031E+03  0.00000000000E+00 0. -1.
         -3    1    6    6    0  503 -0.15954641711E+03 -0.45036595381E+03 -0.39772548555E+03  0.62166720472E+03  0.00000000000E+00 0.  1.
<mgrwt>
<rscale>  0 0.20080318E+04</rscale>
<asrwt>0</asrwt>
<pdfrwt beam="1">  1        1 0.16859455E+00 0.20080318E+04</pdfrwt>
<pdfrwt beam="2">  1       -2 0.14151776E+00 0.20080318E+04</pdfrwt>
<totfact> 0.36251069E+00</totfact>
</mgrwt>
</event>
<event>
12    4  0.4486176E-008  0.4580105E+04  0.7818608E-02  0.7896761E-01
          1   -1    0    0  501    0  0.00000000000E+00  0.00000000000E+00  0.30384227192E+04  0.30384227192E+04  0.00000000000E+00 0. -1.
         -2   -1    0    0    0  501 -0.00000000000E+00 -0.00000000000E+00 -0.17260074209E+04  0.17260074209E+04  0.00000000000E+00 0.  1.
        -24    2    1    2    0    0 -0.20594001246E+04  0.53650994544E+03  0.54277625546E+02  0.21303158272E+04  0.79546639800E+02 0.  0.
        254    2    1    2    0    0  0.20594001246E+04 -0.53650994544E+03  0.12581376727E+04  0.26341143129E+04  0.90921725411E+03 0.  0.
         23    2    4    4    0    0  0.74360361473E+02 -0.74627218488E+02 -0.10566302457E+03  0.18019798429E+03  0.10103441831E+03 0.  0.
         23    2    4    4    0    0  0.19850397632E+04 -0.46188272695E+03  0.13638006973E+04  0.24539163286E+04  0.89635323575E+02 0.  0.
          3    1    3    3  502    0 -0.17548680075E+04  0.46295905577E+03  0.73912003109E+02  0.18164128923E+04  0.00000000000E+00 0. -1.
         -4    1    3    3    0  502 -0.30453211709E+03  0.73550889669E+02 -0.19634377563E+02  0.31390293483E+03  0.00000000000E+00 0.  1.
         11    1    5    5    0    0  0.18315250375E+02 -0.77826118423E+02 -0.28721234286E+02  0.84954472537E+02  0.00000000000E+00 0. -1.
        -11    1    5    5    0    0  0.56045111097E+02  0.31988999350E+01 -0.76941790288E+02  0.95243511755E+02  0.00000000000E+00 0.  1.
          1    1    6    6  503    0  0.69143028382E+03 -0.19886924480E+03  0.50713974168E+03  0.88023606578E+03  0.00000000000E+00 0. -1.
         -1    1    6    6    0  503  0.12936094793E+04 -0.26301348216E+03  0.85666095562E+03  0.15736802629E+04  0.00000000000E+00 0.  1.
<mgrwt>
<rscale>  0 0.45801049E+04</rscale>
<asrwt>0</asrwt>
<pdfrwt beam="1">  1        1 0.46744965E+00 0.45801049E+04</pdfrwt>
<pdfrwt beam="2">  1       -2 0.26553960E+00 0.45801049E+04</pdfrwt>
<totfact> 0.18994576E-02</totfact>
</mgrwt>
</event>
<event>
12    4  0.4486176E-008  0.2168708E+04  0.7818608E-02  0.8531567E-01
          1   -1    0    0  501    0  0.00000000000E+00  0.00000000000E+00  0.14487681430E+04  0.14487681430E+04  0.00000000000E+00 0. -1.
         -2   -1    0    0    0  501 -0.00000000000E+00 -0.00000000000E+00 -0.81160234963E+03  0.81160234963E+03  0.00000000000E+00 0.  1.
        -24    2    1    2    0    0 -0.74908780946E+02  0.24479008384E+03 -0.62083221054E+03  0.67638758245E+03  0.80833269380E+02 0.  0.
        254    2    1    2    0    0  0.74908780946E+02 -0.24479008384E+03  0.12579980039E+04  0.15839829101E+04  0.92785202015E+03 0.  0.
         23    2    4    4    0    0 -0.16266210694E+03  0.21755184585E+03  0.86256242458E+02  0.29898295672E+03  0.90348781831E+02 0.  0.
         23    2    4    4    0    0  0.23757088788E+03 -0.46234192969E+03  0.11717417614E+04  0.12849999534E+04  0.89700268506E+02 0.  0.
          3    1    3    3  502    0 -0.28052604545E+02  0.18223523264E+03 -0.36570025347E+03  0.40955256565E+03  0.00000000000E+00 0. -1.
         -4    1    3    3    0  502 -0.46856176401E+02  0.62554851198E+02 -0.25513195706E+03  0.26683501680E+03  0.00000000000E+00 0.  1.
         11    1    5    5    0    0 -0.14388831075E+03  0.13054080935E+03  0.38826185288E+02  0.19812173414E+03  0.00000000000E+00 0. -1.
        -11    1    5    5    0    0 -0.18773796190E+02  0.87011036501E+02  0.47430057170E+02  0.10086122258E+03  0.00000000000E+00 0.  1.
          3    1    6    6  503    0  0.15886793852E+03 -0.27269330539E+03  0.80562581892E+03  0.86523616476E+03  0.00000000000E+00 0. -1.
         -3    1    6    6    0  503  0.78702949364E+02 -0.18964862429E+03  0.36611594248E+03  0.41976378866E+03  0.00000000000E+00 0.  1.
<mgrwt>
<rscale>  0 0.21687080E+04</rscale>
<asrwt>0</asrwt>
<pdfrwt beam="1">  1        1 0.22288741E+00 0.21687080E+04</pdfrwt>
<pdfrwt beam="2">  1       -2 0.12486190E+00 0.21687080E+04</pdfrwt>
<totfact> 0.27401447E+00</totfact>
</mgrwt>
</event>
<event>
12    4  0.4486176E-008  0.1778805E+04  0.7818608E-02  0.8717653E-01
         -2   -1    0    0    0  501 -0.00000000000E+00  0.00000000000E+00  0.73222839217E+03  0.73222839217E+03  0.00000000000E+00 0.  1.
          1   -1    0    0  501    0  0.00000000000E+00 -0.00000000000E+00 -0.10803141503E+04  0.10803141503E+04  0.00000000000E+00 0. -1.
        -24    2    1    2    0    0 -0.12616876387E+03  0.63573524432E+03 -0.26666319568E+03  0.70535722393E+03  0.79634763610E+02 0.  0.
        254    2    1    2    0    0  0.12616876387E+03 -0.63573524432E+03 -0.81422562461E+02  0.11071853185E+04  0.89395292833E+03 0.  0.
         23    2    4    4    0    0 -0.37245943788E+03 -0.20274016307E+03 -0.76759358092E+02  0.44027500659E+03  0.90113682582E+02 0.  0.
         23    2    4    4    0    0  0.49862820175E+03 -0.43299508126E+03 -0.46632043689E+01  0.66691031195E+03  0.92912834096E+02 0.  0.
          1    1    3    3  502    0 -0.31761511926E+02  0.23752406557E+03 -0.60718517487E+02  0.24721086895E+03  0.00000000000E+00 0. -1.
         -2    1    3    3    0  502 -0.94407251945E+02  0.39821117876E+03 -0.20594467819E+03  0.45814635498E+03  0.00000000000E+00 0.  1.
         11    1    5    5    0    0 -0.20201748203E+03 -0.10715817900E+03  0.42935584585E+01  0.22871898263E+03  0.00000000000E+00 0. -1.
        -11    1    5    5    0    0 -0.17044195585E+03 -0.95581984063E+02 -0.81052916550E+02  0.21155602396E+03  0.00000000000E+00 0.  1.
          1    1    6    6  503    0  0.37968696859E+03 -0.36823958595E+03 -0.27185023217E+02  0.52962402916E+03  0.00000000000E+00 0. -1.
         -1    1    6    6    0  503  0.11894123316E+03 -0.64755495305E+02  0.22521818848E+02  0.13728628279E+03  0.00000000000E+00 0.  1.
<mgrwt>
<rscale>  0 0.17788049E+04</rscale>
<asrwt>0</asrwt>
<pdfrwt beam="1">  1        1 0.16620218E+00 0.17788049E+04</pdfrwt>
<pdfrwt beam="2">  1       -2 0.11265052E+00 0.17788049E+04</pdfrwt>
<totfact> 0.67442611E+00</totfact>
</mgrwt>
</event>
<event>
12    4  0.4486176E-008  0.1753318E+04  0.7818608E-02  0.8731526E-01
          1   -1    0    0  501    0  0.00000000000E+00  0.00000000000E+00  0.17658569048E+04  0.17658569048E+04  0.00000000000E+00 0. -1.
         -2   -1    0    0    0  501 -0.00000000000E+00 -0.00000000000E+00 -0.43521688383E+03  0.43521688383E+03  0.00000000000E+00 0.  1.
        -24    2    1    2    0    0  0.59275798016E+03  0.26965413590E+02  0.16465338791E+03  0.62078981344E+03  0.78613597766E+02 0.  0.
        254    2    1    2    0    0 -0.59275798016E+03 -0.26965413590E+02  0.11659866331E+04  0.15802839752E+04  0.88638787062E+03 0.  0.
         23    2    4    4    0    0 -0.40782604225E+03  0.34458026022E+03  0.30899295127E+03  0.62351812301E+03  0.90777581576E+02 0.  0.
         23    2    4    4    0    0 -0.18493193791E+03 -0.37154567381E+03  0.85699368180E+03  0.95676585218E+03  0.93363353993E+02 0.  0.
          1    1    3    3  502    0  0.53484066482E+03  0.39837454240E+02  0.16606108401E+03  0.56144264456E+03  0.00000000000E+00 0. -1.
         -2    1    3    3    0  502  0.57917315338E+02 -0.12872040650E+02 -0.14076960994E+01  0.59347168886E+02  0.00000000000E+00 0.  1.
         11    1    5    5    0    0 -0.14824560537E+03  0.87617738041E+02  0.13566772231E+03  0.21922444756E+03  0.00000000000E+00 0. -1.
        -11    1    5    5    0    0 -0.25958043688E+03  0.25696252218E+03  0.17332522896E+03  0.40429367545E+03  0.00000000000E+00 0.  1.
          3    1    6    6  503    0 -0.49667118272E+02 -0.20453329495E+03  0.42257977036E+03  0.47209570396E+03  0.00000000000E+00 0. -1.
         -3    1    6    6    0  503 -0.13526481963E+03 -0.16701237886E+03  0.43441391143E+03  0.48467014822E+03  0.00000000000E+00 0.  1.
<mgrwt>
<rscale>  0 0.17533177E+04</rscale>
<asrwt>0</asrwt>
<pdfrwt beam="1">  1        1 0.27167029E+00 0.17533177E+04</pdfrwt>
<pdfrwt beam="2">  1       -2 0.66956444E-01 0.17533177E+04</pdfrwt>
<totfact> 0.73191538E+00</totfact>
</mgrwt>
</event>
<event>
12    4  0.4486176E-008  0.2651984E+04  0.7818608E-02  0.8350755E-01
          1   -1    0    0  501    0  0.00000000000E+00  0.00000000000E+00  0.18180193109E+04  0.18180193109E+04  0.00000000000E+00 0. -1.
         -2   -1    0    0    0  501 -0.00000000000E+00 -0.00000000000E+00 -0.96712630188E+03  0.96712630188E+03  0.00000000000E+00 0.  1.
        -24    2    1    2    0    0 -0.76857192173E+03  0.32794425890E+02 -0.55286258878E+03  0.95033341378E+03  0.75486966002E+02 0.  0.
        254    2    1    2    0    0  0.76857192173E+03 -0.32794425890E+02  0.14037555978E+04  0.18348121990E+04  0.89678746309E+03 0.  0.
         23    2    4    4    0    0  0.66646651481E+03  0.34687086561E+03  0.10757368103E+04  0.13147815070E+04  0.83328946875E+02 0.  0.
         23    2    4    4    0    0  0.10210540692E+03 -0.37966529150E+03  0.32801878750E+03  0.52003069197E+03  0.90908459168E+02 0.  0.
          1    1    3    3  502    0 -0.81269500848E+02 -0.13478586657E+01 -0.32277684613E+02  0.87455116574E+02  0.00000000000E+00 0. -1.
         -2    1    3    3    0  502 -0.68730242088E+03  0.34142284556E+02 -0.52058490417E+03  0.86287829721E+03  0.00000000000E+00 0.  1.
         11    1    5    5    0    0  0.86558476396E+02  0.72251928833E+02  0.13233914175E+03  0.17385729635E+03  0.00000000000E+00 0.  1.
        -11    1    5    5    0    0  0.57990803841E+03  0.27461893677E+03  0.94339766852E+03  0.11409242106E+04  0.00000000000E+00 0. -1.
          3    1    6    6  503    0  0.73856988854E+02 -0.35605825911E+03  0.27703066919E+03  0.45714147739E+03  0.00000000000E+00 0. -1.
         -3    1    6    6    0  503  0.28248418064E+02 -0.23607032389E+02  0.50988118305E+02  0.62889214574E+02  0.00000000000E+00 0.  1.
<mgrwt>
<rscale>  0 0.26519836E+04</rscale>
<asrwt>0</asrwt>
<pdfrwt beam="1">  1        1 0.27969528E+00 0.26519836E+04</pdfrwt>
<pdfrwt beam="2">  1       -2 0.14878866E+00 0.26519836E+04</pdfrwt>
<totfact> 0.93412992E-01</totfact>
</mgrwt>
</event>
<event>
12    4  0.4486176E-008  0.1729985E+04  0.7818608E-02  0.8744445E-01
          1   -1    0    0  501    0  0.00000000000E+00  0.00000000000E+00  0.27179642198E+04  0.27179642198E+04  0.00000000000E+00 0. -1.
         -2   -1    0    0    0  501 -0.00000000000E+00 -0.00000000000E+00 -0.27528409604E+03  0.27528409604E+03  0.00000000000E+00 0.  1.
        -24    2    1    2    0    0 -0.26628557284E+03  0.25290810718E+03  0.14509157757E+02  0.37613017139E+03  0.79955445051E+02 0.  0.
        254    2    1    2    0    0  0.26628557284E+03 -0.25290810718E+03  0.24281709660E+04  0.26171181445E+04  0.90466713485E+03 0.  0.
         23    2    4    4    0    0  0.31615955085E+03 -0.53799193441E+03  0.19631672303E+04  0.20619539191E+04  0.90753550714E+02 0.  0.
         23    2    4    4    0    0 -0.49873978015E+02  0.28508382722E+03  0.46500373567E+03  0.55516422539E+03  0.90656719241E+02 0.  0.
          1    1    3    3  502    0 -0.45878245293E+01  0.35016964635E+02  0.16909930631E+01  0.35356688246E+02  0.00000000000E+00 0. -1.
         -2    1    3    3    0  502 -0.26169774831E+03  0.21789114255E+03  0.12818164694E+02  0.34077348315E+03  0.00000000000E+00 0.  1.
         11    1    5    5    0    0  0.11460777087E+02 -0.51903332794E+00  0.21638460332E+02  0.24491667411E+02  0.00000000000E+00 0. -1.
        -11    1    5    5    0    0  0.30469877377E+03 -0.53747290108E+03  0.19415287700E+04  0.20374622517E+04  0.00000000000E+00 0.  1.
          3    1    6    6  503    0 -0.49759207325E+02  0.81249492868E+02  0.10758886035E+03  0.14371089616E+03  0.00000000000E+00 0. -1.
         -3    1    6    6    0  503 -0.11477068957E+00  0.20383433435E+03  0.35741487532E+03  0.41145332923E+03  0.00000000000E+00 0.  1.
<mgrwt>
<rscale>  0 0.17299853E+04</rscale>
<asrwt>0</asrwt>
<pdfrwt beam="1">  1        1 0.41814832E+00 0.17299853E+04</pdfrwt>
<pdfrwt beam="2">  1       -2 0.42351401E-01 0.17299853E+04</pdfrwt>
<totfact> 0.42084487E+00</totfact>
</mgrwt>
</event>
<event>
12    4  0.4486176E-008  0.1196813E+04  0.7818608E-02  0.9115651E-01
          1   -1    0    0  501    0  0.00000000000E+00  0.00000000000E+00  0.47265720669E+03  0.47265720669E+03  0.00000000000E+00 0. -1.
         -2   -1    0    0    0  501 -0.00000000000E+00 -0.00000000000E+00 -0.75761054737E+03  0.75761054737E+03  0.00000000000E+00 0.  1.
        -24    2    1    2    0    0 -0.21822504609E+02  0.13064134556E+03  0.15771640155E+03  0.22060613710E+03  0.79052017902E+02 0.  0.
        254    2    1    2    0    0  0.21822504609E+02 -0.13064134556E+03 -0.44266974223E+03  0.10096616170E+04  0.89772863227E+03 0.  0.
         23    2    4    4    0    0  0.40030694790E+03 -0.12255527240E+03 -0.10094755663E+02  0.42707765424E+03  0.83832996635E+02 0.  0.
         23    2    4    4    0    0 -0.37848444329E+03 -0.80860731592E+01 -0.43257498657E+03  0.58258396272E+03  0.94694752903E+02 0.  0.
          1    1    3    3  502    0 -0.48008676407E+02  0.62989164050E+02  0.10199030136E+03  0.12912973852E+03  0.00000000000E+00 0. -1.
         -2    1    3    3    0  502  0.26186171798E+02  0.67652181507E+02  0.55726100182E+02  0.91476398582E+02  0.00000000000E+00 0.  1.
         11    1    5    5    0    0  0.16996826937E+02 -0.19568212433E+01  0.17273748007E+02  0.24312623172E+02  0.00000000000E+00 0. -1.
        -11    1    5    5    0    0  0.38331012097E+03 -0.12059845116E+03 -0.27368503669E+02  0.40276503107E+03  0.00000000000E+00 0.  1.
          3    1    6    6  503    0  0.23378854363E+01 -0.16168544673E+01  0.28900464293E+01  0.40536767317E+01  0.00000000000E+00 0. -1.
         -3    1    6    6    0  503 -0.38082232873E+03 -0.64692186919E+01 -0.43546503300E+03  0.57853028599E+03  0.00000000000E+00 0.  1.
<mgrwt>
<rscale>  0 0.11968126E+04</rscale>
<asrwt>0</asrwt>
<pdfrwt beam="1">  1        1 0.72716493E-01 0.11968126E+04</pdfrwt>
<pdfrwt beam="2">  1       -2 0.11655547E+00 0.11968126E+04</pdfrwt>
<totfact> 0.23642232E+01</totfact>
</mgrwt>
</event>
<event>
12    4  0.4486176E-008  0.1419337E+04  0.7818608E-02  0.8939939E-01
         -2   -1    0    0    0  501 -0.00000000000E+00  0.00000000000E+00  0.55844493196E+03  0.55844493196E+03  0.00000000000E+00 0.  1.
          1   -1    0    0  501    0  0.00000000000E+00 -0.00000000000E+00 -0.90184251246E+03  0.90184251246E+03  0.00000000000E+00 0. -1.
        -24    2    1    2    0    0  0.43904539174E+02 -0.25547947860E+03 -0.47670277983E+03  0.54762322493E+03  0.73812489738E+02 0.  0.
        254    2    1    2    0    0 -0.43904539174E+02  0.25547947860E+03  0.13330519932E+03  0.91266421949E+03  0.86486318504E+03 0.  0.
         23    2    4    4    0    0  0.32877032231E+03 -0.36858728016E+02  0.23998877956E+03  0.41888045816E+03  0.91748205698E+02 0.  0.
         23    2    4    4    0    0 -0.37267486148E+03  0.29233820661E+03 -0.10668358024E+03  0.49378376134E+03  0.89960198077E+02 0.  0.
          1    1    3    3  502    0  0.31857862578E+02 -0.25092179261E+03 -0.46830780295E+03  0.53224887762E+03  0.00000000000E+00 0. -1.
         -2    1    3    3    0  502  0.12046676596E+02 -0.45576859835E+01 -0.83949768710E+01  0.15374347310E+02  0.00000000000E+00 0.  1.
         11    1    5    5    0    0  0.36201571483E+02  0.14125112001E+02  0.30761171122E+01  0.38981214236E+02  0.00000000000E+00 0.  1.
        -11    1    5    5    0    0  0.29256875083E+03 -0.50983840017E+02  0.23691266245E+03  0.37989924392E+03  0.00000000000E+00 0. -1.
          2    1    6    6  503    0 -0.29139022142E+03  0.18031073181E+03 -0.90608019307E+02  0.35444327375E+03  0.00000000000E+00 0. -1.
         -2    1    6    6    0  503 -0.81284640064E+02  0.11202747480E+03 -0.16075560933E+02  0.13934048758E+03  0.00000000000E+00 0.  1.
<mgrwt>
<rscale>  0 0.14193370E+04</rscale>
<asrwt>0</asrwt>
<pdfrwt beam="1">  1        1 0.13874500E+00 0.14193370E+04</pdfrwt>
<pdfrwt beam="2">  1       -2 0.85914606E-01 0.14193370E+04</pdfrwt>
<totfact> 0.18194371E+01</totfact>
</mgrwt>
</event>
<event>
12    4  0.4486176E-008  0.1421830E+04  0.7818608E-02  0.8938167E-01
         -2   -1    0    0    0  501 -0.00000000000E+00  0.00000000000E+00  0.17115457537E+04  0.17115457537E+04  0.00000000000E+00 0.  1.
          1   -1    0    0  501    0  0.00000000000E+00 -0.00000000000E+00 -0.29528865128E+03  0.29528865128E+03  0.00000000000E+00 0. -1.
        -24    2    1    2    0    0 -0.22807081990E+03 -0.31344052569E+03  0.59598731243E+03  0.71604504906E+03  0.85196089570E+02 0.  0.
        254    2    1    2    0    0  0.22807081990E+03  0.31344052569E+03  0.82026978997E+03  0.12907893559E+04  0.91816848723E+03 0.  0.
         23    2    4    4    0    0 -0.20921935331E+03 -0.75269692551E+02 -0.40505146584E+02  0.24577790437E+03  0.96580779460E+02 0.  0.
         23    2    4    4    0    0  0.43729017321E+03  0.38871021824E+03  0.86077493655E+03  0.10450114515E+04  0.93792926608E+02 0.  0.
          1    1    3    3  502    0 -0.57563315181E+02 -0.91676439888E+02  0.10412669217E+03  0.15020144110E+03  0.00000000000E+00 0. -1.
         -2    1    3    3    0  502 -0.17050750472E+03 -0.22176408581E+03  0.49186062025E+03  0.56584360796E+03  0.00000000000E+00 0.  1.
         11    1    5    5    0    0 -0.21971176404E+03 -0.72162732611E+02 -0.40803422735E+02  0.23483108512E+03  0.00000000000E+00 0. -1.
        -11    1    5    5    0    0  0.10492410727E+02 -0.31069599394E+01  0.29827615036E+00  0.10946819246E+02  0.00000000000E+00 0.  1.
          3    1    6    6  503    0  0.28117972137E+03  0.23830509606E+03  0.46085096171E+03  0.59011436470E+03  0.00000000000E+00 0. -1.
         -3    1    6    6    0  503  0.15611045184E+03  0.15040512218E+03  0.39992397484E+03  0.45489708683E+03  0.00000000000E+00 0.  1.
<mgrwt>
<rscale>  0 0.14218299E+04</rscale>
<asrwt>0</asrwt>
<pdfrwt beam="1">  1        1 0.45429024E-01 0.14218299E+04</pdfrwt>
<pdfrwt beam="2">  1       -2 0.26331473E+00 0.14218299E+04</pdfrwt>
<totfact> 0.40580256E+00</totfact>
</mgrwt>
</event>
<event>
12    4  0.4486176E-008  0.1287231E+04  0.7818608E-02  0.9039752E-01
          1   -1    0    0  501    0  0.00000000000E+00  0.00000000000E+00  0.29568163968E+04  0.29568163968E+04  0.00000000000E+00 0. -1.
         -2   -1    0    0    0  501 -0.00000000000E+00 -0.00000000000E+00 -0.14009702581E+03  0.14009702581E+03  0.00000000000E+00 0.  1.
        -24    2    1    2    0    0 -0.97692079447E+02  0.29974770036E+03  0.82118623725E+03  0.88345174353E+03  0.82144510707E+02 0.  0.
        254    2    1    2    0    0  0.97692079447E+02 -0.29974770036E+03  0.19955331337E+04  0.22134616791E+04  0.90436037652E+03 0.  0.
         23    2    4    4    0    0  0.92854770166E+01  0.99924400092E+02 -0.35805993181E+02  0.13927408659E+03  0.89688885777E+02 0.  0.
         23    2    4    4    0    0  0.88406602431E+02 -0.39967210045E+03  0.20313391269E+04  0.20741875925E+04  0.91443999261E+02 0.  0.
          3    1    3    3  502    0 -0.60331158990E+02  0.11283279630E+03  0.42418616647E+03  0.44306319243E+03  0.00000000000E+00 0. -1.
         -4    1    3    3    0  502 -0.37360920457E+02  0.18691490405E+03  0.39700007078E+03  0.44038855109E+03  0.00000000000E+00 0.  1.
         11    1    5    5    0    0  0.16915484518E+02  0.11019838161E+03 -0.48196956020E+02  0.12146095462E+03  0.00000000000E+00 0. -1.
        -11    1    5    5    0    0 -0.76300075018E+01 -0.10273981522E+02  0.12390962839E+02  0.17813131978E+02  0.00000000000E+00 0.  1.
          2    1    6    6  503    0  0.75033301405E+02 -0.13786174322E+03  0.79990358933E+03  0.81515741350E+03  0.00000000000E+00 0. -1.
         -2    1    6    6    0  503  0.13373301026E+02 -0.26181035723E+03  0.12314355376E+04  0.12590301790E+04  0.00000000000E+00 0.  1.
<mgrwt>
<rscale>  0 0.12872314E+04</rscale>
<asrwt>0</asrwt>
<pdfrwt beam="1">  1        1 0.45489478E+00 0.12872314E+04</pdfrwt>
<pdfrwt beam="2">  1       -2 0.21553391E-01 0.12872314E+04</pdfrwt>
<totfact> 0.10494884E+01</totfact>
</mgrwt>
</event>
<event>
12    4  0.4486176E-008  0.1652861E+04  0.7818608E-02  0.8788715E-01
          1   -1    0    0  501    0  0.00000000000E+00  0.00000000000E+00  0.16486910816E+04  0.16486910816E+04  0.00000000000E+00 0. -1.
         -2   -1    0    0    0  501 -0.00000000000E+00 -0.00000000000E+00 -0.41426059062E+03  0.41426059062E+03  0.00000000000E+00 0.  1.
        -24    2    1    2    0    0 -0.35749956815E+03 -0.45637063126E+03  0.47179997636E+03  0.75172438203E+03  0.80088916403E+02 0.  0.
        254    2    1    2    0    0  0.35749956815E+03  0.45637063126E+03  0.76263051461E+03  0.13112272902E+04  0.89533882437E+03 0.  0.
         23    2    4    4    0    0 -0.94552548410E+02  0.36773268186E+03  0.74554006363E+03  0.84157613557E+03  0.90845449893E+02 0.  0.
         23    2    4    4    0    0  0.45205211656E+03  0.88637949404E+02  0.17090450979E+02  0.46965115462E+03  0.89846098203E+02 0.  0.
          3    1    3    3  502    0 -0.20555842249E+03 -0.29896347250E+03  0.25302743714E+03  0.44233054031E+03  0.00000000000E+00 0. -1.
         -4    1    3    3    0  502 -0.15194114566E+03 -0.15740715876E+03  0.21877253922E+03  0.30939384171E+03  0.00000000000E+00 0.  1.
         11    1    5    5    0    0 -0.93011731184E+02  0.17946286209E+03  0.38671790301E+03  0.43635861114E+03  0.00000000000E+00 0. -1.
        -11    1    5    5    0    0 -0.15408172254E+01  0.18826981977E+03  0.35882216062E+03  0.40521752444E+03  0.00000000000E+00 0.  1.
          4    1    6    6  503    0  0.25306096171E+03  0.75585888163E+02 -0.26784856649E+02  0.26546281355E+03  0.00000000000E+00 0.  1.
         -4    1    6    6    0  503  0.19899115485E+03  0.13052061240E+02  0.43875307629E+02  0.20418834107E+03  0.00000000000E+00 0. -1.
<mgrwt>
<rscale>  0 0.16528614E+04</rscale>
<asrwt>0</asrwt>
<pdfrwt beam="1">  1        1 0.25364478E+00 0.16528614E+04</pdfrwt>
<pdfrwt beam="2">  1       -2 0.63732400E-01 0.16528614E+04</pdfrwt>
<totfact> 0.98672242E+00</totfact>
</mgrwt>
</event>
<event>
12    4  0.4486176E-008  0.2418763E+04  0.7818608E-02  0.8432512E-01
         -2   -1    0    0    0  501 -0.00000000000E+00  0.00000000000E+00  0.78373985870E+03  0.78373985870E+03  0.00000000000E+00 0.  1.
          1   -1    0    0  501    0  0.00000000000E+00 -0.00000000000E+00 -0.18661848136E+04  0.18661848136E+04  0.00000000000E+00 0. -1.
        -24    2    1    2    0    0  0.90645164324E+03  0.23011795148E+03  0.36362171841E+02  0.93939150295E+03  0.80779546610E+02 0.  0.
        254    2    1    2    0    0 -0.90645164324E+03 -0.23011795148E+03 -0.11188071268E+04  0.17105331694E+04  0.89419543919E+03 0.  0.
         23    2    4    4    0    0 -0.94213596087E+03 -0.44919542077E+03 -0.96812832451E+03  0.14268393630E+04  0.95924033695E+02 0.  0.
         23    2    4    4    0    0  0.35684317629E+02  0.21907746929E+03 -0.15067880226E+03  0.28369380638E+03  0.92248394322E+02 0.  0.
          1    1    3    3  502    0  0.63872645552E+02 -0.45403787424E+01  0.14640305541E+01  0.64050552491E+02  0.00000000000E+00 0. -1.
         -2    1    3    3    0  502  0.84257899769E+03  0.23465833022E+03  0.34898141287E+02  0.87534095046E+03  0.00000000000E+00 0.  1.
         11    1    5    5    0    0 -0.86337888835E+03 -0.43435506441E+03 -0.87234291813E+03  0.13019483836E+04  0.00000000000E+00 0. -1.
        -11    1    5    5    0    0 -0.78757072523E+02 -0.14840356358E+02 -0.95785406374E+02  0.12489097935E+03  0.00000000000E+00 0.  1.
          3    1    6    6  503    0  0.30495852875E+02  0.21976998642E+03 -0.15962452732E+03  0.27332916730E+03  0.00000000000E+00 0. -1.
         -3    1    6    6    0  503  0.51884647538E+01 -0.69251713057E+00  0.89457250617E+01  0.10364639085E+02  0.00000000000E+00 0.  1.
<mgrwt>
<rscale>  0 0.24187628E+04</rscale>
<asrwt>0</asrwt>
<pdfrwt beam="1">  1        1 0.28710536E+00 0.24187628E+04</pdfrwt>
<pdfrwt beam="2">  1       -2 0.12057536E+00 0.24187628E+04</pdfrwt>
<totfact> 0.15149356E+00</totfact>
</mgrwt>
</event>
<event>
12    4  0.4486176E-008  0.1733635E+04  0.7818608E-02  0.8742410E-01
         -4   -1    0    0    0  501 -0.00000000000E+00  0.00000000000E+00  0.10066442697E+04  0.10066442697E+04  0.00000000000E+00 0.  1.
          3   -1    0    0  501    0  0.00000000000E+00 -0.00000000000E+00 -0.74641356381E+03  0.74641356381E+03  0.00000000000E+00 0. -1.
        -24    2    1    2    0    0 -0.54130226425E+03 -0.34009914182E+03  0.11074752197E+03  0.65374168417E+03  0.80234708534E+02 0.  0.
        254    2    1    2    0    0  0.54130226425E+03  0.34009914182E+03  0.14948318389E+03  0.10993161493E+04  0.88174554512E+03 0.  0.
         23    2    4    4    0    0  0.57071343781E+03 -0.13320973151E+03 -0.10702628489E+01  0.59362270490E+03  0.94488674649E+02 0.  0.
         23    2    4    4    0    0 -0.29411173568E+02  0.47330887333E+03  0.15055344674E+03  0.50569344442E+03  0.90405822257E+02 0.  0.
          3    1    3    3  502    0 -0.45777721229E+03 -0.29092740334E+03  0.64096687433E+02  0.54617498610E+03  0.00000000000E+00 0. -1.
         -4    1    3    3    0  502 -0.83525051957E+02 -0.49171738475E+02  0.46650834540E+02  0.10756669806E+03  0.00000000000E+00 0.  1.
         11    1    5    5    0    0  0.43496344084E+03 -0.11346335243E+03 -0.39252656693E+02  0.45122931894E+03  0.00000000000E+00 0.  1.
        -11    1    5    5    0    0  0.13574999698E+03 -0.19746379077E+02  0.38182393844E+02  0.14239338596E+03  0.00000000000E+00 0. -1.
          1    1    6    6  503    0 -0.14571695104E+02  0.45837854400E+03  0.13097654832E+03  0.47694662187E+03  0.00000000000E+00 0. -1.
         -1    1    6    6    0  503 -0.14839478463E+02  0.14930329324E+02  0.19576898422E+02  0.28746822548E+02  0.00000000000E+00 0.  1.
<mgrwt>
<rscale>  0 0.17336354E+04</rscale>
<asrwt>0</asrwt>
<pdfrwt beam="1">  1        3 0.11483286E+00 0.17336354E+04</pdfrwt>
<pdfrwt beam="2">  1       -4 0.15486835E+00 0.17336354E+04</pdfrwt>
<totfact> 0.37412112E-01</totfact>
</mgrwt>
</event>
<event>
12    4  0.4486176E-008  0.1610011E+04  0.7818608E-02  0.8814421E-01
          1   -1    0    0  501    0  0.00000000000E+00  0.00000000000E+00  0.26407346348E+04  0.26407346348E+04  0.00000000000E+00 0. -1.
         -2   -1    0    0    0  501 -0.00000000000E+00 -0.00000000000E+00 -0.24539912637E+03  0.24539912637E+03  0.00000000000E+00 0.  1.
        -24    2    1    2    0    0  0.36787983167E+03  0.35118521470E+03  0.44448806155E+03  0.68005180653E+03  0.78956932175E+02 0.  0.
        254    2    1    2    0    0 -0.36787983167E+03 -0.35118521470E+03  0.19508474469E+04  0.22060819547E+04  0.89572607643E+03 0.  0.
         23    2    4    4    0    0 -0.33414236244E+03  0.65286716149E+02  0.16402617172E+04  0.16776036715E+04  0.89342622868E+02 0.  0.
         23    2    4    4    0    0 -0.33737469234E+02 -0.41647193085E+03  0.31058572975E+03  0.52847828313E+03  0.90767363109E+02 0.  0.
          3    1    3    3  502    0  0.20172804131E+02  0.52577498595E+02  0.51317427369E+02  0.76189328234E+02  0.00000000000E+00 0. -1.
         -4    1    3    3    0  502  0.34770702754E+03  0.29860771610E+03  0.39317063418E+03  0.60386247830E+03  0.00000000000E+00 0.  1.
         11    1    5    5    0    0 -0.26684787719E+03  0.87171154340E+02  0.12727975546E+04  0.13033879755E+04  0.00000000000E+00 0.  1.
        -11    1    5    5    0    0 -0.67294485253E+02 -0.21884438191E+02  0.36746416255E+03  0.37421569600E+03  0.00000000000E+00 0. -1.
          4    1    6    6  503    0  0.25722916138E+02 -0.10744349163E+03  0.56953731108E+02  0.12429601681E+03  0.00000000000E+00 0. -1.
         -4    1    6    6    0  503 -0.59460385373E+02 -0.30902843922E+03  0.25363199864E+03  0.40418226632E+03  0.00000000000E+00 0.  1.
<mgrwt>
<rscale>  0 0.16100111E+04</rscale>
<asrwt>0</asrwt>
<pdfrwt beam="1">  1        1 0.40626685E+00 0.16100111E+04</pdfrwt>
<pdfrwt beam="2">  1       -2 0.37753714E-01 0.16100111E+04</pdfrwt>
<totfact> 0.60376410E+00</totfact>
</mgrwt>
</event>
<event>
12    4  0.4486176E-008  0.1789928E+04  0.7818608E-02  0.8711674E-01
         -2   -1    0    0    0  501 -0.00000000000E+00  0.00000000000E+00  0.37698507282E+03  0.37698507282E+03  0.00000000000E+00 0.  1.
          1   -1    0    0  501    0  0.00000000000E+00 -0.00000000000E+00 -0.21246469962E+04  0.21246469962E+04  0.00000000000E+00 0. -1.
        -24    2    1    2    0    0  0.61262806224E+03  0.16451824479E+03 -0.99418606697E+03  0.11819195269E+04  0.78411968542E+02 0.  0.
        254    2    1    2    0    0 -0.61262806224E+03 -0.16451824479E+03 -0.75347585640E+03  0.13197125421E+04  0.87837118127E+03 0.  0.
         23    2    4    4    0    0  0.10560651147E+03 -0.16799095764E+03 -0.51210203039E+03  0.55665098920E+03  0.90764184146E+02 0.  0.
         23    2    4    4    0    0 -0.71823457372E+03  0.34727128518E+01 -0.24137382601E+03  0.76306155290E+03  0.90159009663E+02 0.  0.
          3    1    3    3  502    0  0.38771676825E+03  0.10967885540E+03 -0.69856486770E+03  0.80644070960E+03  0.00000000000E+00 0. -1.
         -4    1    3    3    0  502  0.22491129399E+03  0.54839389388E+02 -0.29562119927E+03  0.37547881731E+03  0.00000000000E+00 0.  1.
         11    1    5    5    0    0  0.44728861024E+02 -0.14491747737E+03 -0.32770959297E+03  0.36110292657E+03  0.00000000000E+00 0.  1.
        -11    1    5    5    0    0  0.60877650450E+02 -0.23073480275E+02 -0.18439243743E+03  0.19554806263E+03  0.00000000000E+00 0. -1.
          3    1    6    6  503    0 -0.15735345643E+03 -0.25740266100E+02 -0.81731372382E+02  0.17917223217E+03  0.00000000000E+00 0. -1.
         -3    1    6    6    0  503 -0.56088111729E+03  0.29212978952E+02 -0.15964245362E+03  0.58388932074E+03  0.00000000000E+00 0.  1.
<mgrwt>
<rscale>  0 0.17899276E+04</rscale>
<asrwt>0</asrwt>
<pdfrwt beam="1">  1        1 0.32686876E+00 0.17899276E+04</pdfrwt>
<pdfrwt beam="2">  1       -2 0.57997704E-01 0.17899276E+04</pdfrwt>
<totfact> 0.56591492E+00</totfact>
</mgrwt>
</event>
<event>
12    4  0.4486176E-008  0.2622976E+04  0.7818608E-02  0.8360438E-01
         -2   -1    0    0    0  501 -0.00000000000E+00  0.00000000000E+00  0.10715693308E+04  0.10715693308E+04  0.00000000000E+00 0.  1.
          1   -1    0    0  501    0  0.00000000000E+00 -0.00000000000E+00 -0.16051231963E+04  0.16051231963E+04  0.00000000000E+00 0. -1.
        -24    2    1    2    0    0 -0.11269353435E+04  0.19425525168E+03 -0.20162663598E+03  0.11640020654E+04  0.80803074396E+02 0.  0.
        254    2    1    2    0    0  0.11269353435E+04 -0.19425525168E+03 -0.33192722956E+03  0.15126904616E+04  0.93291927613E+03 0.  0.
         23    2    4    4    0    0  0.58468374724E+03  0.36075309008E+03 -0.12096916337E+03  0.70362182491E+03  0.91936161049E+02 0.  0.
         23    2    4    4    0    0  0.54225159622E+03 -0.55500834177E+03 -0.21095806619E+03  0.80906863670E+03  0.89541611376E+02 0.  0.
          1    1    3    3  502    0 -0.20256907680E+03  0.54011824030E+01 -0.25453053632E+02  0.20423335082E+03  0.00000000000E+00 0. -1.
         -2    1    3    3    0  502 -0.92436626667E+03  0.18885406928E+03 -0.17617358235E+03  0.95976871462E+03  0.00000000000E+00 0.  1.
         11    1    5    5    0    0  0.11574824375E+03  0.35206868230E+02 -0.37693130179E+02  0.12671997303E+03  0.00000000000E+00 0. -1.
        -11    1    5    5    0    0  0.46893550349E+03  0.32554622185E+03 -0.83276033191E+02  0.57690185188E+03  0.00000000000E+00 0.  1.
          1    1    6    6  503    0  0.87793863923E+02 -0.99419864960E+02 -0.71311571651E+02  0.15059021330E+03  0.00000000000E+00 0. -1.
         -1    1    6    6    0  503  0.45445773230E+03 -0.45558847681E+03 -0.13964649454E+03  0.65847842340E+03  0.00000000000E+00 0.  1.
<mgrwt>
<rscale>  0 0.26229760E+04</rscale>
<asrwt>0</asrwt>
<pdfrwt beam="1">  1        1 0.24694203E+00 0.26229760E+04</pdfrwt>
<pdfrwt beam="2">  1       -2 0.16485682E+00 0.26229760E+04</pdfrwt>
<totfact> 0.99176739E-01</totfact>
</mgrwt>
</event>
<event>
12    4  0.4486176E-008  0.1810256E+04  0.7818608E-02  0.8700864E-01
         -2   -1    0    0    0  501 -0.00000000000E+00  0.00000000000E+00  0.19971953652E+04  0.19971953652E+04  0.00000000000E+00 0.  1.
          1   -1    0    0  501    0  0.00000000000E+00 -0.00000000000E+00 -0.41020364429E+03  0.41020364429E+03  0.00000000000E+00 0. -1.
        -24    2    1    2    0    0 -0.90758764172E+00 -0.63928821403E+03  0.29520625481E+03  0.70853747812E+03  0.78666261606E+02 0.  0.
        254    2    1    2    0    0  0.90758764172E+00  0.63928821403E+03  0.12917854661E+04  0.16988615314E+04  0.89929448350E+03 0.  0.
         23    2    4    4    0    0 -0.35165074996E+03 -0.56784019115E+01  0.44328891771E+03  0.57253794767E+03  0.87201736008E+02 0.  0.
         23    2    4    4    0    0  0.35255833760E+03  0.64496661594E+03  0.84849654843E+03  0.11263235837E+04  0.91537454021E+02 0.  0.
          1    1    3    3  502    0  0.84231993497E+01 -0.62674074040E+03  0.29535697055E+03  0.69290017031E+03  0.00000000000E+00 0. -1.
         -2    1    3    3    0  502 -0.93307869914E+01 -0.12547473629E+02 -0.15071574347E+00  0.15637307812E+02  0.00000000000E+00 0.  1.
         11    1    5    5    0    0 -0.67761439111E+02  0.33551773855E+02  0.86041212961E+02  0.11454442146E+03  0.00000000000E+00 0. -1.
        -11    1    5    5    0    0 -0.28388931085E+03 -0.39230175766E+02  0.35724770475E+03  0.45799352621E+03  0.00000000000E+00 0.  1.
          1    1    6    6  503    0  0.67290458502E+02  0.10307346345E+03  0.19611734440E+03  0.23154731147E+03  0.00000000000E+00 0. -1.
         -1    1    6    6    0  503  0.28526787910E+03  0.54189315249E+03  0.65237920403E+03  0.89477627227E+03  0.00000000000E+00 0.  1.
<mgrwt>
<rscale>  0 0.18102561E+04</rscale>
<asrwt>0</asrwt>
<pdfrwt beam="1">  1        1 0.63108255E-01 0.18102561E+04</pdfrwt>
<pdfrwt beam="2">  1       -2 0.30726082E+00 0.18102561E+04</pdfrwt>
<totfact> 0.13749325E+00</totfact>
</mgrwt>
</event>
<event>
12    4  0.4486176E-008  0.1152751E+04  0.7818608E-02  0.9155249E-01
         -2   -1    0    0    0  501 -0.00000000000E+00  0.00000000000E+00  0.10084420227E+04  0.10084420227E+04  0.00000000000E+00 0.  1.
          1   -1    0    0  501    0  0.00000000000E+00 -0.00000000000E+00 -0.32942796522E+03  0.32942796522E+03  0.00000000000E+00 0. -1.
        -24    2    1    2    0    0  0.12060763007E+03  0.90635146639E+02  0.32189184805E+03  0.36411449186E+03  0.78765926036E+02 0.  0.
        254    2    1    2    0    0 -0.12060763007E+03 -0.90635146639E+02  0.35712220942E+03  0.97375549606E+03  0.89325391878E+03 0.  0.
         23    2    4    4    0    0 -0.32344305854E+03 -0.22735415149E+03  0.52211062874E+03  0.66130804251E+03  0.91779606286E+02 0.  0.
         23    2    4    4    0    0  0.20283542847E+03  0.13671900485E+03 -0.16498841932E+03  0.31244745355E+03  0.10280046397E+03 0.  0.
          1    1    3    3  502    0 -0.81524593956E+01  0.21731122796E+02  0.58687157191E+02  0.63110115761E+02  0.00000000000E+00 0. -1.
         -2    1    3    3    0  502  0.12876008947E+03  0.68904023843E+02  0.26320469086E+03  0.30100437610E+03  0.00000000000E+00 0.  1.
         11    1    5    5    0    0 -0.24694888922E+02  0.68374749956E+01  0.42847485464E+02  0.49924899738E+02  0.00000000000E+00 0.  1.
        -11    1    5    5    0    0 -0.29874816962E+03 -0.23419162648E+03  0.47926314328E+03  0.61138314277E+03  0.00000000000E+00 0. -1.
          2    1    6    6  503    0  0.19307887191E+03  0.12498136795E+03 -0.17921814742E+03  0.29158007044E+03  0.00000000000E+00 0. -1.
         -2    1    6    6    0  503  0.97565565586E+01  0.11737636898E+02  0.14229728105E+02  0.20867383108E+02  0.00000000000E+00 0.  1.
<mgrwt>
<rscale>  0 0.11527515E+04</rscale>
<asrwt>0</asrwt>
<pdfrwt beam="1">  1        1 0.50681226E-01 0.11527515E+04</pdfrwt>
<pdfrwt beam="2">  1       -2 0.15514493E+00 0.11527515E+04</pdfrwt>
<totfact> 0.18390341E+01</totfact>
</mgrwt>
</event>
<event>
12    4  0.4486176E-008  0.2122238E+04  0.7818608E-02  0.8551510E-01
         -2   -1    0    0    0  501 -0.00000000000E+00  0.00000000000E+00  0.64901321432E+03  0.64901321432E+03  0.00000000000E+00 0.  1.
          1   -1    0    0  501    0  0.00000000000E+00 -0.00000000000E+00 -0.17349012858E+04  0.17349012858E+04  0.00000000000E+00 0. -1.
        -24    2    1    2    0    0  0.82195770997E+03  0.75993180129E+02 -0.74695503647E+03  0.11160481262E+04  0.78943986692E+02 0.  0.
        254    2    1    2    0    0 -0.82195770997E+03 -0.75993180129E+02 -0.33893303499E+03  0.12678663739E+04  0.90067757799E+03 0.  0.
         23    2    4    4    0    0 -0.83341687728E+03 -0.12648731281E+03  0.65237892292E+02  0.85041774829E+03  0.91496624996E+02 0.  0.
         23    2    4    4    0    0  0.11459167303E+02  0.50494132676E+02 -0.40417092728E+03  0.41744862563E+03  0.90709683227E+02 0.  0.
          3    1    3    3  502    0  0.81144191192E+03  0.75041251841E+02 -0.74701878652E+03  0.11054891376E+04  0.00000000000E+00 0. -1.
         -4    1    3    3    0  502  0.10515798057E+02  0.95192828799E+00  0.63750049576E-01  0.10558988602E+02  0.00000000000E+00 0.  1.
         11    1    5    5    0    0 -0.23937281337E+03 -0.17048622386E+02  0.55429364975E+02  0.24629740925E+03  0.00000000000E+00 0. -1.
        -11    1    5    5    0    0 -0.59404406391E+03 -0.10943869042E+03  0.98085273178E+01  0.60412033904E+03  0.00000000000E+00 0.  1.
          1    1    6    6  503    0  0.40898916181E+02  0.20249945558E+02 -0.94814834777E+02  0.10522658663E+03  0.00000000000E+00 0. -1.
         -1    1    6    6    0  503 -0.29439748878E+02  0.30244187119E+02 -0.30935609250E+03  0.31222203900E+03  0.00000000000E+00 0.  1.
<mgrwt>
<rscale>  0 0.21222383E+04</rscale>
<asrwt>0</asrwt>
<pdfrwt beam="1">  1        1 0.26690789E+00 0.21222383E+04</pdfrwt>
<pdfrwt beam="2">  1       -2 0.99848188E-01 0.21222383E+04</pdfrwt>
<totfact> 0.30146494E+00</totfact>
</mgrwt>
</event>
<event>
12    4  0.4486176E-008  0.2076678E+04  0.7818608E-02  0.8571587E-01
          1   -1    0    0  501    0  0.00000000000E+00  0.00000000000E+00  0.16583221000E+04  0.16583221000E+04  0.00000000000E+00 0. -1.
         -2   -1    0    0    0  501 -0.00000000000E+00 -0.00000000000E+00 -0.65014405951E+03  0.65014405951E+03  0.00000000000E+00 0.  1.
        -24    2    1    2    0    0  0.81143963710E+03  0.73942990830E+02  0.63277894825E+03  0.10343813037E+04  0.75057534661E+02 0.  0.
        254    2    1    2    0    0 -0.81143963710E+03 -0.73942990830E+02  0.37539909228E+03  0.12740848559E+04  0.90469104722E+03 0.  0.
         23    2    4    4    0    0 -0.23258088188E+03 -0.21890094286E+03 -0.24260727583E+03  0.41048574998E+03  0.87342837451E+02 0.  0.
         23    2    4    4    0    0 -0.57885875522E+03  0.14495795204E+03  0.61800636810E+03  0.86359910588E+03  0.88211554339E+02 0.  0.
          1    1    3    3  502    0  0.21817415763E+03 -0.32040132921E+00  0.13652420090E+03  0.25736923505E+03  0.00000000000E+00 0. -1.
         -2    1    3    3    0  502  0.59326547946E+03  0.74263392159E+02  0.49625474735E+03  0.77701206863E+03  0.00000000000E+00 0.  1.
         11    1    5    5    0    0 -0.21569199104E+03 -0.17354185644E+03 -0.17562980549E+03  0.32785002594E+03  0.00000000000E+00 0. -1.
        -11    1    5    5    0    0 -0.16888890841E+02 -0.45359086427E+02 -0.66977470337E+02  0.82635724043E+02  0.00000000000E+00 0.  1.
          2    1    6    6  503    0 -0.50410009057E+03  0.15475173322E+03  0.55197130188E+03  0.76337233271E+03  0.00000000000E+00 0. -1.
         -2    1    6    6    0  503 -0.74758664649E+02 -0.97937811896E+01  0.66035066227E+02  0.10022677318E+03  0.00000000000E+00 0.  1.
<mgrwt>
<rscale>  0 0.20766784E+04</rscale>
<asrwt>0</asrwt>
<pdfrwt beam="1">  1        1 0.25512648E+00 0.20766784E+04</pdfrwt>
<pdfrwt beam="2">  1       -2 0.10002216E+00 0.20766784E+04</pdfrwt>
<totfact> 0.33994027E+00</totfact>
</mgrwt>
</event>
<event>
12    4  0.4486176E-008  0.3316230E+04  0.7818608E-02  0.8158778E-01
         -2   -1    0    0    0  501 -0.00000000000E+00  0.00000000000E+00  0.14463856523E+04  0.14463856523E+04  0.00000000000E+00 0.  1.
          1   -1    0    0  501    0  0.00000000000E+00 -0.00000000000E+00 -0.19008386912E+04  0.19008386912E+04  0.00000000000E+00 0. -1.
        -24    2    1    2    0    0 -0.17801610581E+03 -0.12438249889E+04  0.61069642541E+03  0.13993069698E+04  0.79495501595E+02 0.  0.
        254    2    1    2    0    0  0.17801610581E+03  0.12438249889E+04 -0.10651494643E+04  0.19479173738E+04  0.10397347628E+04 0.  0.
         23    2    4    4    0    0 -0.25439040373E+03  0.97998462803E+03 -0.36944498596E+03  0.10820209927E+04  0.95893077009E+02 0.  0.
         23    2    4    4    0    0  0.43240650954E+03  0.26384036087E+03 -0.69570447831E+03  0.86589638112E+03  0.95836820565E+02 0.  0.
          1    1    3    3  502    0 -0.38482785956E+02 -0.18126359760E+03  0.62556710862E+02  0.19557801181E+03  0.00000000000E+00 0. -1.
         -2    1    3    3    0  502 -0.13953331985E+03 -0.10625613913E+04  0.54813971455E+03  0.12037289580E+04  0.00000000000E+00 0.  1.
         11    1    5    5    0    0 -0.35784680937E+02  0.23798943112E+03 -0.12239052268E+03  0.26999806065E+03  0.00000000000E+00 0.  1.
        -11    1    5    5    0    0 -0.21860572280E+03  0.74199519691E+03 -0.24705446328E+03  0.81202293200E+03  0.00000000000E+00 0. -1.
          3    1    6    6  503    0  0.41243066514E+03  0.22335112661E+03 -0.65097335477E+03  0.80234100477E+03  0.00000000000E+00 0. -1.
         -3    1    6    6    0  503  0.19975844398E+02  0.40489234256E+02 -0.44731123543E+02  0.63555376354E+02  0.00000000000E+00 0.  1.
<mgrwt>
<rscale>  0 0.33162303E+04</rscale>
<asrwt>0</asrwt>
<pdfrwt beam="1">  1        1 0.29243672E+00 0.33162303E+04</pdfrwt>
<pdfrwt beam="2">  1       -2 0.22252087E+00 0.33162303E+04</pdfrwt>
<totfact> 0.24143869E-01</totfact>
</mgrwt>
</event>
<event>
12    4  0.4486176E-008  0.1569948E+04  0.7818608E-02  0.8839226E-01
         -2   -1    0    0    0  501 -0.00000000000E+00  0.00000000000E+00  0.25794049775E+03  0.25794049775E+03  0.00000000000E+00 0.  1.
          1   -1    0    0  501    0  0.00000000000E+00 -0.00000000000E+00 -0.23888621080E+04  0.23888621080E+04  0.00000000000E+00 0. -1.
        -24    2    1    2    0    0  0.30410668954E+03 -0.18600715107E+03 -0.19820202706E+03  0.41559807304E+03  0.79738170998E+02 0.  0.
        254    2    1    2    0    0 -0.30410668954E+03  0.18600715107E+03 -0.19327195832E+04  0.22312045327E+04  0.10563092069E+04 0.  0.
         23    2    4    4    0    0 -0.12795412335E+03 -0.35607325888E+03 -0.13731311987E+04  0.14270932464E+04  0.89137095261E+02 0.  0.
         23    2    4    4    0    0 -0.17615256618E+03  0.54208040995E+03 -0.55958838447E+03  0.80411128627E+03  0.92600773513E+02 0.  0.
          3    1    3    3  502    0  0.74023535341E+02 -0.11376174821E+02 -0.25808797941E+02  0.79214867223E+02  0.00000000000E+00 0. -1.
         -4    1    3    3    0  502  0.23008315420E+03 -0.17463097625E+03 -0.17239322912E+03  0.33638320582E+03  0.00000000000E+00 0.  1.
         11    1    5    5    0    0 -0.46880333461E+01 -0.97383388977E+01 -0.83204499424E+01  0.13639750305E+02  0.00000000000E+00 0. -1.
        -11    1    5    5    0    0 -0.12326609001E+03 -0.34633491998E+03 -0.13648107488E+04  0.14134534961E+04  0.00000000000E+00 0.  1.
          3    1    6    6  503    0 -0.89596662472E+02  0.15937281720E+03 -0.14560887484E+03  0.23372890541E+03  0.00000000000E+00 0. -1.
         -3    1    6    6    0  503 -0.86555903712E+02  0.38270759274E+03 -0.41397950963E+03  0.57038238086E+03  0.00000000000E+00 0.  1.
<mgrwt>
<rscale>  0 0.15699481E+04</rscale>
<asrwt>0</asrwt>
<pdfrwt beam="1">  1        1 0.36751726E+00 0.15699481E+04</pdfrwt>
<pdfrwt beam="2">  1       -2 0.39683152E-01 0.15699481E+04</pdfrwt>
<totfact> 0.82182537E+00</totfact>
</mgrwt>
</event>
<event>
12    4  0.4486176E-008  0.1308938E+04  0.7818608E-02  0.9022507E-01
         -2   -1    0    0    0  501 -0.00000000000E+00  0.00000000000E+00  0.26414579869E+03  0.26414579869E+03  0.00000000000E+00 0.  1.
          1   -1    0    0  501    0  0.00000000000E+00 -0.00000000000E+00 -0.16215663147E+04  0.16215663147E+04  0.00000000000E+00 0. -1.
        -24    2    1    2    0    0  0.21314363247E+03 -0.21209877985E+03 -0.58430351634E+03  0.66224399051E+03  0.82099959065E+02 0.  0.
        254    2    1    2    0    0 -0.21314363247E+03  0.21209877985E+03 -0.77311699966E+03  0.12234681229E+04  0.89930431558E+03 0.  0.
         23    2    4    4    0    0  0.27245048847E+03 -0.12161902638E+03 -0.10831034397E+03  0.33046487664E+03  0.91953509083E+02 0.  0.
         23    2    4    4    0    0 -0.48559412095E+03  0.33371780623E+03 -0.66480665569E+03  0.89300324623E+03  0.91201336795E+02 0.  0.
          3    1    3    3  502    0  0.20211077476E+03 -0.16244842298E+03 -0.46216044554E+03  0.52993446088E+03  0.00000000000E+00 0. -1.
         -4    1    3    3    0  502  0.11032857711E+02 -0.49650356867E+02 -0.12214307080E+03  0.13230952963E+03  0.00000000000E+00 0.  1.
         11    1    5    5    0    0  0.59088312229E+00 -0.22987160686E+02 -0.89062657027E+01  0.24659283607E+02  0.00000000000E+00 0. -1.
        -11    1    5    5    0    0  0.27185960535E+03 -0.98631865693E+02 -0.99404078267E+02  0.30580559303E+03  0.00000000000E+00 0.  1.
          3    1    6    6  503    0 -0.31510637384E+03  0.26555548427E+03 -0.47715334671E+03  0.63046574716E+03  0.00000000000E+00 0. -1.
         -3    1    6    6    0  503 -0.17048774710E+03  0.68162321955E+02 -0.18765330898E+03  0.26253749907E+03  0.00000000000E+00 0.  1.
<mgrwt>
<rscale>  0 0.13089384E+04</rscale>
<asrwt>0</asrwt>
<pdfrwt beam="1">  1        1 0.24947175E+00 0.13089384E+04</pdfrwt>
<pdfrwt beam="2">  1       -2 0.40637814E-01 0.13089384E+04</pdfrwt>
<totfact> 0.26645593E+01</totfact>
</mgrwt>
</event>
<event>
12    4  0.4486176E-008  0.1129800E+04  0.7818608E-02  0.9176624E-01
          1   -1    0    0  501    0  0.00000000000E+00  0.00000000000E+00  0.74335727744E+03  0.74335727744E+03  0.00000000000E+00 0. -1.
         -2   -1    0    0    0  501 -0.00000000000E+00 -0.00000000000E+00 -0.42928500369E+03  0.42928500369E+03  0.00000000000E+00 0.  1.
        -24    2    1    2    0    0  0.14585275733E+03  0.85247154531E+02  0.16895669502E+03  0.25170244554E+03  0.79168504605E+02 0.  0.
        254    2    1    2    0    0 -0.14585275733E+03 -0.85247154531E+02  0.14511557872E+03  0.92093983559E+03  0.89360592288E+03 0.  0.
         23    2    4    4    0    0 -0.46266059505E+03  0.15260609903E+03  0.14166887207E+03  0.51540485585E+03  0.90711898072E+02 0.  0.
         23    2    4    4    0    0  0.31680783772E+03 -0.23785325356E+03  0.34467066456E+01  0.40553497974E+03  0.86633502363E+02 0.  0.
          1    1    3    3  502    0  0.10284672906E+03  0.22931815821E+02  0.12740968921E+03  0.16533767496E+03  0.00000000000E+00 0. -1.
         -2    1    3    3    0  502  0.43006028268E+02  0.62315338710E+02  0.41547005814E+02  0.86364770584E+02  0.00000000000E+00 0.  1.
         11    1    5    5    0    0 -0.18163764698E+03  0.74255782731E+02  0.13326883757E+02  0.19668187995E+03  0.00000000000E+00 0. -1.
        -11    1    5    5    0    0 -0.28102294807E+03  0.78350316298E+02  0.12834198832E+03  0.31872297591E+03  0.00000000000E+00 0.  1.
          4    1    6    6  503    0  0.11966125915E+03 -0.10769944488E+03  0.41503937477E+02  0.16625451632E+03  0.00000000000E+00 0. -1.
         -4    1    6    6    0  503  0.19714657857E+03 -0.13015380868E+03 -0.38057230832E+02  0.23928046342E+03  0.00000000000E+00 0.  1.
<mgrwt>
<rscale>  0 0.11298002E+04</rscale>
<asrwt>0</asrwt>
<pdfrwt beam="1">  1        1 0.11436266E+00 0.11298002E+04</pdfrwt>
<pdfrwt beam="2">  1       -2 0.66043847E-01 0.11298002E+04</pdfrwt>
<totfact> 0.45650545E+01</totfact>
</mgrwt>
</event>
<event>
12    4  0.4486176E-008  0.2179303E+04  0.7818608E-02  0.8527092E-01
          1   -1    0    0  501    0  0.00000000000E+00  0.00000000000E+00  0.15537624616E+04  0.15537624616E+04  0.00000000000E+00 0. -1.
         -2   -1    0    0    0  501 -0.00000000000E+00 -0.00000000000E+00 -0.76417144753E+03  0.76417144753E+03  0.00000000000E+00 0.  1.
        -24    2    1    2    0    0 -0.19334793544E+03  0.58142492177E+03  0.10322928229E+04  0.12027478194E+04  0.74400812918E+02 0.  0.
        254    2    1    2    0    0  0.19334793544E+03 -0.58142492177E+03 -0.24270180886E+03  0.11151860897E+04  0.89960962809E+03 0.  0.
         23    2    4    4    0    0  0.26688540433E+03  0.16752745218E+03 -0.40109231606E+02  0.33065172561E+03  0.91807117982E+02 0.  0.
         23    2    4    4    0    0 -0.73537468886E+02 -0.74895237395E+03 -0.20259257725E+03  0.78453436414E+03  0.90072184309E+02 0.  0.
          3    1    3    3  502    0 -0.12025259944E+03  0.37035731877E+03  0.72358520122E+03  0.82170601474E+03  0.00000000000E+00 0. -1.
         -4    1    3    3    0  502 -0.73095336003E+02  0.21106760300E+03  0.30870762168E+03  0.38104180462E+03  0.00000000000E+00 0.  1.
         11    1    5    5    0    0  0.23297314779E+03  0.14595708819E+03 -0.66146506005E+02  0.28276371663E+03  0.00000000000E+00 0. -1.
        -11    1    5    5    0    0  0.33912256533E+02  0.21570363982E+02  0.26037274400E+02  0.47888008976E+02  0.00000000000E+00 0.  1.
          3    1    6    6  503    0 -0.20236626166E+02 -0.52402584112E+03 -0.11188870566E+03  0.53621981095E+03  0.00000000000E+00 0. -1.
         -3    1    6    6    0  503 -0.53300842720E+02 -0.22492653283E+03 -0.90703871589E+02  0.24831455319E+03  0.00000000000E+00 0.  1.
<mgrwt>
<rscale>  0 0.21793035E+04</rscale>
<asrwt>0</asrwt>
<pdfrwt beam="1">  1        1 0.23904038E+00 0.21793035E+04</pdfrwt>
<pdfrwt beam="2">  1       -2 0.11756484E+00 0.21793035E+04</pdfrwt>
<totfact> 0.26899353E+00</totfact>
</mgrwt>
</event>
<event>
12    4  0.4486176E-008  0.1822898E+04  0.7818608E-02  0.8694216E-01
          1   -1    0    0  501    0  0.00000000000E+00  0.00000000000E+00  0.12277675395E+04  0.12277675395E+04  0.00000000000E+00 0. -1.
         -2   -1    0    0    0  501 -0.00000000000E+00 -0.00000000000E+00 -0.67662590025E+03  0.67662590025E+03  0.00000000000E+00 0.  1.
        -24    2    1    2    0    0 -0.78844014526E+02  0.55625613207E+03 -0.20394704708E+03  0.60290843309E+03  0.79163865391E+02 0.  0.
        254    2    1    2    0    0  0.78844014526E+02 -0.55625613207E+03  0.75508868632E+03  0.13014850067E+04  0.89892548926E+03 0.  0.
         23    2    4    4    0    0 -0.16538835759E+03 -0.37779475692E+03  0.86827636933E+03  0.96589980658E+03  0.94743842171E+02 0.  0.
         23    2    4    4    0    0  0.24423237212E+03 -0.17846137515E+03 -0.11318768301E+03  0.33558520007E+03  0.91148565052E+02 0.  0.
          1    1    3    3  502    0 -0.83079717228E+02  0.43620131869E+03 -0.13363887770E+03  0.46371670174E+03  0.00000000000E+00 0. -1.
         -2    1    3    3    0  502  0.42357027018E+01  0.12005481338E+03 -0.70308169386E+02  0.13919173134E+03  0.00000000000E+00 0.  1.
         11    1    5    5    0    0 -0.15818813324E+03 -0.37497296760E+03  0.80375242190E+03  0.90091407339E+03  0.00000000000E+00 0. -1.
        -11    1    5    5    0    0 -0.72002243509E+01 -0.28217893196E+01  0.64523947429E+02  0.64985733184E+02  0.00000000000E+00 0.  1.
          4    1    6    6  503    0  0.39063728741E+02 -0.59912216671E+02  0.31891966366E+01  0.71593432554E+02  0.00000000000E+00 0.  1.
         -4    1    6    6    0  503  0.20516864338E+03 -0.11854915848E+03 -0.11637687965E+03  0.26399176752E+03  0.00000000000E+00 0. -1.
<mgrwt>
<rscale>  0 0.18228980E+04</rscale>
<asrwt>0</asrwt>
<pdfrwt beam="1">  1        1 0.18888731E+00 0.18228980E+04</pdfrwt>
<pdfrwt beam="2">  1       -2 0.10409629E+00 0.18228980E+04</pdfrwt>
<totfact> 0.63232027E+00</totfact>
</mgrwt>
</event>
<event>
12    4  0.4486176E-008  0.1436296E+04  0.7818608E-02  0.8927957E-01
          1   -1    0    0  501    0  0.00000000000E+00  0.00000000000E+00  0.11214487384E+04  0.11214487384E+04  0.00000000000E+00 0. -1.
         -4   -1    0    0    0  501 -0.00000000000E+00 -0.00000000000E+00 -0.45988433534E+03  0.45988433534E+03  0.00000000000E+00 0.  1.
        -24    2    1    2    0    0  0.36727365546E+03 -0.19375688336E+03  0.31993029022E+03  0.52804194336E+03  0.63570712580E+02 0.  0.
        254    2    1    2    0    0 -0.36727365546E+03  0.19375688336E+03  0.34163411288E+03  0.10532911304E+04  0.90569126665E+03 0.  0.
         23    2    4    4    0    0 -0.46557075673E+03 -0.23897233971E+03  0.26769827911E+03  0.59458326480E+03  0.89459384450E+02 0.  0.
         23    2    4    4    0    0  0.98297101277E+02  0.43272922308E+03  0.73935833772E+02  0.45870786562E+03  0.89607465340E+02 0.  0.
          3    1    3    3  502    0  0.25091660187E+03 -0.97939639282E+02  0.20434885236E+03  0.33809727520E+03  0.00000000000E+00 0. -1.
         -4    1    3    3    0  502  0.11635705359E+03 -0.95817244081E+02  0.11558143786E+03  0.18994466816E+03  0.00000000000E+00 0.  1.
         11    1    5    5    0    0 -0.42757889121E+03 -0.18737069129E+03  0.23578245649E+03  0.52299603339E+03  0.00000000000E+00 0.  1.
        -11    1    5    5    0    0 -0.37991865530E+02 -0.51601648426E+02  0.31915822621E+02  0.71587231406E+02  0.00000000000E+00 0. -1.
          3    1    6    6  503    0  0.95434551560E+01  0.22649569493E+03  0.55755407467E+02  0.23345244231E+03  0.00000000000E+00 0. -1.
         -3    1    6    6    0  503  0.88753646121E+02  0.20623352814E+03  0.18180426305E+02  0.22525542331E+03  0.00000000000E+00 0.  1.
<mgrwt>
<rscale>  0 0.14362962E+04</rscale>
<asrwt>0</asrwt>
<pdfrwt beam="1">  1        1 0.17253057E+00 0.14362962E+04</pdfrwt>
<pdfrwt beam="2">  1       -4 0.70751436E-01 0.14362962E+04</pdfrwt>
<totfact> 0.10599350E+01</totfact>
</mgrwt>
</event>
<event>
12    4  0.4486176E-008  0.1881569E+04  0.7818608E-02  0.8664085E-01
         -2   -1    0    0    0  501 -0.00000000000E+00  0.00000000000E+00  0.60866711560E+03  0.60866711560E+03  0.00000000000E+00 0.  1.
          1   -1    0    0  501    0  0.00000000000E+00 -0.00000000000E+00 -0.14541213524E+04  0.14541213524E+04  0.00000000000E+00 0. -1.
        -24    2    1    2    0    0 -0.63623626622E+03 -0.23952775037E+03 -0.59381203146E+02  0.68709839649E+03  0.80049669076E+02 0.  0.
        254    2    1    2    0    0  0.63623626622E+03  0.23952775037E+03 -0.78607303362E+03  0.13756900715E+04  0.90135577265E+03 0.  0.
         23    2    4    4    0    0  0.13569100922E+03 -0.21551142006E+03  0.71664596300E+02  0.27943055173E+03  0.89935514212E+02 0.  0.
         23    2    4    4    0    0  0.50054525700E+03  0.45503917043E+03 -0.85773762992E+03  0.10962595197E+04  0.92004847229E+02 0.  0.
          1    1    3    3  502    0 -0.30812234914E+03 -0.10061766015E+03 -0.65742096181E+02  0.33073451405E+03  0.00000000000E+00 0. -1.
         -2    1    3    3    0  502 -0.32811391708E+03 -0.13891009022E+03  0.63608930351E+01  0.35636388244E+03  0.00000000000E+00 0.  1.
         11    1    5    5    0    0  0.59572319699E+02 -0.16525414230E+03  0.26511794082E+02  0.17765322414E+03  0.00000000000E+00 0. -1.
        -11    1    5    5    0    0  0.76118689524E+02 -0.50257277753E+02  0.45152802218E+02  0.10177732758E+03  0.00000000000E+00 0.  1.
          2    1    6    6  503    0  0.31573515998E+03  0.29693486633E+03 -0.47734216269E+03  0.64475929336E+03  0.00000000000E+00 0. -1.
         -2    1    6    6    0  503  0.18481009701E+03  0.15810430410E+03 -0.38039546723E+03  0.45150022638E+03  0.00000000000E+00 0.  1.
<mgrwt>
<rscale>  0 0.18815694E+04</rscale>
<asrwt>0</asrwt>
<pdfrwt beam="1">  1        1 0.22371097E+00 0.18815694E+04</pdfrwt>
<pdfrwt beam="2">  1       -2 0.93641096E-01 0.18815694E+04</pdfrwt>
<totfact> 0.55809884E+00</totfact>
</mgrwt>
</event>
<event>
12    4  0.4486176E-008  0.1406659E+04  0.7818608E-02  0.8949012E-01
          1   -1    0    0  501    0  0.00000000000E+00  0.00000000000E+00  0.98736914285E+03  0.98736914285E+03  0.00000000000E+00 0. -1.
         -2   -1    0    0    0  501 -0.00000000000E+00 -0.00000000000E+00 -0.50100047208E+03  0.50100047208E+03  0.00000000000E+00 0.  1.
        -24    2    1    2    0    0 -0.17923184844E+03  0.27797895584E+03 -0.10808295513E+03  0.35752139067E+03  0.82117380676E+02 0.  0.
        254    2    1    2    0    0  0.17923184844E+03 -0.27797895584E+03  0.59445162591E+03  0.11308482243E+04  0.90335409193E+03 0.  0.
         23    2    4    4    0    0  0.12324366927E+03 -0.44151061006E+03 -0.35852298057E+02  0.47014185215E+03  0.98119075931E+02 0.  0.
         23    2    4    4    0    0  0.55988179170E+02  0.16353165422E+03  0.63030392396E+03  0.66070637212E+03  0.96812165839E+02 0.  0.
          3    1    3    3  502    0 -0.56622361902E+02  0.11906918653E+03 -0.81636205892E+02  0.15507428272E+03  0.00000000000E+00 0. -1.
         -4    1    3    3    0  502 -0.12260948654E+03  0.15890976931E+03 -0.26446749242E+02  0.20244710795E+03  0.00000000000E+00 0.  1.
         11    1    5    5    0    0  0.29032172940E+02 -0.24555288430E+03 -0.49944759906E+02  0.25225694261E+03  0.00000000000E+00 0.  1.
        -11    1    5    5    0    0  0.94211496332E+02 -0.19595772575E+03  0.14092461848E+02  0.21788490954E+03  0.00000000000E+00 0. -1.
          2    1    6    6  503    0  0.31446526565E+02  0.65670154115E+01  0.18822832231E+03  0.19095002237E+03  0.00000000000E+00 0. -1.
         -2    1    6    6    0  503  0.24541652605E+02  0.15696463881E+03  0.44207560165E+03  0.46975634975E+03  0.00000000000E+00 0.  1.
<mgrwt>
<rscale>  0 0.14066590E+04</rscale>
<asrwt>0</asrwt>
<pdfrwt beam="1">  1        1 0.15190294E+00 0.14066590E+04</pdfrwt>
<pdfrwt beam="2">  1       -2 0.77076996E-01 0.14066590E+04</pdfrwt>
<totfact> 0.19873846E+01</totfact>
</mgrwt>
</event>
<event>
12    4  0.4486176E-008  0.1545567E+04  0.7818608E-02  0.8854704E-01
         -2   -1    0    0    0  501 -0.00000000000E+00  0.00000000000E+00  0.83684495210E+03  0.83684495210E+03  0.00000000000E+00 0.  1.
          1   -1    0    0  501    0  0.00000000000E+00 -0.00000000000E+00 -0.71362635077E+03  0.71362635077E+03  0.00000000000E+00 0. -1.
        -24    2    1    2    0    0  0.46916697261E+03  0.11643494231E+03  0.20579207024E+03  0.53171027218E+03  0.81796658811E+02 0.  0.
        254    2    1    2    0    0 -0.46916697261E+03 -0.11643494231E+03 -0.82573468910E+02  0.10187610307E+04  0.89296187819E+03 0.  0.
         23    2    4    4    0    0 -0.58341125121E+03 -0.18445297371E+02  0.24960100298E+03  0.64290768968E+03  0.10159094313E+03 0.  0.
         23    2    4    4    0    0  0.11424427860E+03 -0.97989644942E+02 -0.33217447189E+03  0.37585334101E+03  0.90951242199E+02 0.  0.
          1    1    3    3  502    0  0.46230248685E+02  0.13294118953E+02  0.49892888288E+02  0.69305625991E+02  0.00000000000E+00 0. -1.
         -2    1    3    3    0  502  0.42293672393E+03  0.10314082336E+03  0.15589918195E+03  0.46240464619E+03  0.00000000000E+00 0.  1.
         11    1    5    5    0    0 -0.13720833977E+02 -0.17901660734E+02  0.61463611508E+01  0.23377521200E+02  0.00000000000E+00 0.  1.
        -11    1    5    5    0    0 -0.56969041724E+03 -0.54363663672E+00  0.24345464183E+03  0.61953016848E+03  0.00000000000E+00 0. -1.
          3    1    6    6  503    0  0.11601675402E+03 -0.11026531504E+03 -0.28287726713E+03  0.32501980736E+03  0.00000000000E+00 0. -1.
         -3    1    6    6    0  503 -0.17724754213E+01  0.12275670102E+02 -0.49297204762E+02  0.50833533646E+02  0.00000000000E+00 0.  1.
<mgrwt>
<rscale>  0 0.15455674E+04</rscale>
<asrwt>0</asrwt>
<pdfrwt beam="1">  1        1 0.10978867E+00 0.15455674E+04</pdfrwt>
<pdfrwt beam="2">  1       -2 0.12874538E+00 0.15455674E+04</pdfrwt>
<totfact> 0.99337299E+00</totfact>
</mgrwt>
</event>
<event>
12    4  0.4486176E-008  0.1505872E+04  0.7818608E-02  0.8880558E-01
          1   -1    0    0  501    0  0.00000000000E+00  0.00000000000E+00  0.77240554698E+03  0.77240554698E+03  0.00000000000E+00 0. -1.
         -2   -1    0    0    0  501 -0.00000000000E+00 -0.00000000000E+00 -0.73395693919E+03  0.73395693919E+03  0.00000000000E+00 0.  1.
        -24    2    1    2    0    0  0.36859590179E+03  0.29478508344E+03  0.11952366147E+03  0.49347665755E+03  0.80449497580E+02 0.  0.
        254    2    1    2    0    0 -0.36859590179E+03 -0.29478508344E+03 -0.81075053685E+02  0.10128858286E+04  0.89252638799E+03 0.  0.
         23    2    4    4    0    0 -0.63671025965E+03 -0.28562000368E+03  0.41102436103E+02  0.70507645978E+03  0.92003601257E+02 0.  0.
         23    2    4    4    0    0  0.26811435785E+03 -0.91650797571E+01 -0.12217748979E+03  0.30780936884E+03  0.88600005440E+02 0.  0.
          3    1    3    3  502    0  0.10887525920E+03  0.73499659972E+02  0.69524641630E+02  0.14862603364E+03  0.00000000000E+00 0. -1.
         -4    1    3    3    0  502  0.25972064259E+03  0.22128542346E+03  0.49999019845E+02  0.34485062391E+03  0.00000000000E+00 0.  1.
         11    1    5    5    0    0 -0.62667427152E+02 -0.38572779910E+02 -0.22378354900E+02  0.76914605531E+02  0.00000000000E+00 0.  1.
        -11    1    5    5    0    0 -0.57404283249E+03 -0.24704722377E+03  0.63480791004E+02  0.62816185425E+03  0.00000000000E+00 0. -1.
          4    1    6    6  503    0  0.17889602098E+03 -0.21221356617E+01 -0.33881316730E+02  0.18208853178E+03  0.00000000000E+00 0. -1.
         -4    1    6    6    0  503  0.89218336876E+02 -0.70429440955E+01 -0.88296173058E+02  0.12572083707E+03  0.00000000000E+00 0.  1.
<mgrwt>
<rscale>  0 0.15058717E+04</rscale>
<asrwt>0</asrwt>
<pdfrwt beam="1">  1        1 0.11883162E+00 0.15058717E+04</pdfrwt>
<pdfrwt beam="2">  1       -2 0.11291645E+00 0.15058717E+04</pdfrwt>
<totfact> 0.12209113E+01</totfact>
</mgrwt>
</event>
<event>
12    4  0.4486176E-008  0.1470863E+04  0.7818608E-02  0.8904063E-01
         -2   -1    0    0    0  501 -0.00000000000E+00  0.00000000000E+00  0.39623731776E+03  0.39623731776E+03  0.00000000000E+00 0.  1.
          1   -1    0    0  501    0  0.00000000000E+00 -0.00000000000E+00 -0.13649881688E+04  0.13649881688E+04  0.00000000000E+00 0. -1.
        -24    2    1    2    0    0  0.27615055113E+02  0.43041780459E+03 -0.45456100959E+03  0.63168077673E+03  0.79829909680E+02 0.  0.
        254    2    1    2    0    0 -0.27615055113E+02 -0.43041780459E+03 -0.51418984143E+03  0.11295447098E+04  0.90854718129E+03 0.  0.
         23    2    4    4    0    0  0.40821523552E+03 -0.36363425328E+03 -0.30771604941E+03  0.63400111305E+03  0.91644397653E+02 0.  0.
         23    2    4    4    0    0 -0.43583029063E+03 -0.66783551310E+02 -0.20647379203E+03  0.49554359675E+03  0.92325210685E+02 0.  0.
          3    1    3    3  502    0 -0.13049876019E+01  0.22311704477E+03 -0.18144958914E+03  0.28758802489E+03  0.00000000000E+00 0. -1.
         -4    1    3    3    0  502  0.28920042715E+02  0.20730075981E+03 -0.27311142045E+03  0.34409275184E+03  0.00000000000E+00 0.  1.
         11    1    5    5    0    0  0.50391958857E+01 -0.79078188408E+01  0.63471159844E+01  0.11323116855E+02  0.00000000000E+00 0.  1.
        -11    1    5    5    0    0  0.40317603964E+03 -0.35572643443E+03 -0.31406316539E+03  0.62267799620E+03  0.00000000000E+00 0. -1.
          3    1    6    6  503    0 -0.29152809941E+03 -0.29348006917E+02 -0.90477979311E+02  0.30665322923E+03  0.00000000000E+00 0. -1.
         -3    1    6    6    0  503 -0.14430219123E+03 -0.37435544393E+02 -0.11599581272E+03  0.18889036753E+03  0.00000000000E+00 0.  1.
<mgrwt>
<rscale>  0 0.14708627E+04</rscale>
<asrwt>0</asrwt>
<pdfrwt beam="1">  1        1 0.20999818E+00 0.14708627E+04</pdfrwt>
<pdfrwt beam="2">  1       -2 0.60959588E-01 0.14708627E+04</pdfrwt>
<totfact> 0.17322987E+01</totfact>
</mgrwt>
</event>
<event>
12    4  0.4486176E-008  0.2589453E+04  0.7818608E-02  0.8371792E-01
         -4   -1    0    0    0  501 -0.00000000000E+00  0.00000000000E+00  0.13279705785E+04  0.13279705785E+04  0.00000000000E+00 0.  1.
          3   -1    0    0  501    0  0.00000000000E+00 -0.00000000000E+00 -0.12623150474E+04  0.12623150474E+04  0.00000000000E+00 0. -1.
        -24    2    1    2    0    0 -0.93525479801E+03  0.64541946945E+03 -0.26286443217E+02  0.11392797667E+04  0.77456961911E+02 0.  0.
        254    2    1    2    0    0  0.93525479801E+03 -0.64541946945E+03  0.91941974325E+02  0.14510058591E+04  0.89760617636E+03 0.  0.
         23    2    4    4    0    0 -0.41386396083E+02 -0.39897595223E+03  0.14940187507E+03  0.43802189749E+03  0.92992570480E+02 0.  0.
         23    2    4    4    0    0  0.97664119409E+03 -0.24644351721E+03 -0.57459900745E+02  0.10129839616E+04  0.90952939327E+02 0.  0.
          3    1    3    3  502    0 -0.26165790480E+03  0.14387739888E+03 -0.22652962899E+02  0.29946405758E+03  0.00000000000E+00 0. -1.
         -4    1    3    3    0  502 -0.67359689321E+03  0.50154207057E+03 -0.36334803174E+01  0.83981570911E+03  0.00000000000E+00 0.  1.
         11    1    5    5    0    0 -0.28431316863E+02 -0.35017765225E+03  0.16061523902E+03  0.38630296778E+03  0.00000000000E+00 0.  1.
        -11    1    5    5    0    0 -0.12955079220E+02 -0.48798299984E+02 -0.11213363948E+02  0.51718929706E+02  0.00000000000E+00 0. -1.
          3    1    6    6  503    0  0.12229576817E+03 -0.10301781348E+01 -0.11138251811E+01  0.12230517890E+03  0.00000000000E+00 0. -1.
         -3    1    6    6    0  503  0.85434542593E+03 -0.24541333908E+03 -0.56346075563E+02  0.89067878275E+03  0.00000000000E+00 0.  1.
<mgrwt>
<rscale>  0 0.25894534E+04</rscale>
<asrwt>0</asrwt>
<pdfrwt beam="1">  1        3 0.19420231E+00 0.25894534E+04</pdfrwt>
<pdfrwt beam="2">  1       -4 0.20430317E+00 0.25894534E+04</pdfrwt>
<totfact> 0.39864558E-02</totfact>
</mgrwt>
</event>
<event>
12    4  0.4486176E-008  0.1526368E+04  0.7818608E-02  0.8867105E-01
         -2   -1    0    0    0  501 -0.00000000000E+00  0.00000000000E+00  0.40885264588E+03  0.40885264588E+03  0.00000000000E+00 0.  1.
          3   -1    0    0  501    0  0.00000000000E+00 -0.00000000000E+00 -0.14245962732E+04  0.14245962732E+04  0.00000000000E+00 0. -1.
        -24    2    1    2    0    0 -0.15912368044E+02  0.45468538000E+03 -0.10166938654E+03  0.47308753657E+03  0.80518040574E+02 0.  0.
        254    2    1    2    0    0  0.15912368044E+02 -0.45468538000E+03 -0.91407424083E+03  0.13603613826E+04  0.89892122856E+03 0.  0.
         23    2    4    4    0    0 -0.25033411326E+02 -0.71740577947E+03 -0.68337834580E+03  0.99628635629E+03  0.10140422144E+03 0.  0.
         23    2    4    4    0    0  0.40945779370E+02  0.26272039947E+03 -0.23069589503E+03  0.36407502626E+03  0.92905670529E+02 0.  0.
          3    1    3    3  502    0 -0.87274515066E+01  0.85817009729E+01  0.66998446111E+01  0.13953562957E+02  0.00000000000E+00 0. -1.
         -4    1    3    3    0  502 -0.71849165372E+01  0.44610367903E+03 -0.10836923115E+03  0.45913397361E+03  0.00000000000E+00 0.  1.
         11    1    5    5    0    0 -0.19216573450E+02 -0.61857702225E+03 -0.63276838364E+03  0.88510035391E+03  0.00000000000E+00 0. -1.
        -11    1    5    5    0    0 -0.58168378758E+01 -0.98828757222E+02 -0.50609962159E+02  0.11118600239E+03  0.00000000000E+00 0.  1.
          1    1    6    6  503    0  0.65135126054E+02  0.16443719339E+03 -0.17377462343E+03  0.24795119472E+03  0.00000000000E+00 0. -1.
         -1    1    6    6    0  503 -0.24189346684E+02  0.98283206083E+02 -0.56921271602E+02  0.11612383154E+03  0.00000000000E+00 0.  1.
<mgrwt>
<rscale>  0 0.15263682E+04</rscale>
<asrwt>0</asrwt>
<pdfrwt beam="1">  1        3 0.21916866E+00 0.15263682E+04</pdfrwt>
<pdfrwt beam="2">  1       -2 0.62900406E-01 0.15263682E+04</pdfrwt>
<totfact> 0.10401109E+00</totfact>
</mgrwt>
</event>
<event>
12    4  0.4486176E-008  0.2076083E+04  0.7818608E-02  0.8571853E-01
          1   -1    0    0  501    0  0.00000000000E+00  0.00000000000E+00  0.24235975939E+04  0.24235975939E+04  0.00000000000E+00 0. -1.
         -2   -1    0    0    0  501 -0.00000000000E+00 -0.00000000000E+00 -0.44459955219E+03  0.44459955219E+03  0.00000000000E+00 0.  1.
        -24    2    1    2    0    0  0.73414135988E+03 -0.69437289829E+02  0.21753759534E+03  0.77295553952E+03  0.79703119069E+02 0.  0.
        254    2    1    2    0    0 -0.73414135988E+03  0.69437289829E+02  0.17614604463E+04  0.20952416065E+04  0.86226991842E+03 0.  0.
         23    2    4    4    0    0 -0.88659506088E+03  0.19485202474E+03  0.14851993306E+04  0.17430307186E+04  0.91219080784E+02 0.  0.
         23    2    4    4    0    0  0.15245370100E+03 -0.12541473491E+03  0.27626111574E+03  0.35221088797E+03  0.93601916947E+02 0.  0.
          1    1    3    3  502    0  0.28756054605E+03  0.79530515424E+01  0.10206531067E+03  0.30524030913E+03  0.00000000000E+00 0. -1.
         -2    1    3    3    0  502  0.44658081383E+03 -0.77390341371E+02  0.11547228466E+03  0.46771523039E+03  0.00000000000E+00 0.  1.
         11    1    5    5    0    0 -0.23189791412E+03  0.24684054049E+02  0.44108048421E+03  0.49893680827E+03  0.00000000000E+00 0.  1.
        -11    1    5    5    0    0 -0.65469714676E+03  0.17016797069E+03  0.10441188464E+04  0.12440939103E+04  0.00000000000E+00 0. -1.
          1    1    6    6  503    0  0.13340599233E+03 -0.64140356352E+02  0.22835183459E+03  0.27213177775E+03  0.00000000000E+00 0. -1.
         -1    1    6    6    0  503  0.19047708664E+02 -0.61274378557E+02  0.47909281151E+02  0.80079110218E+02  0.00000000000E+00 0.  1.
<mgrwt>
<rscale>  0 0.20760832E+04</rscale>
<asrwt>0</asrwt>
<pdfrwt beam="1">  1        1 0.37286116E+00 0.20760832E+04</pdfrwt>
<pdfrwt beam="2">  1       -2 0.68399933E-01 0.20760832E+04</pdfrwt>
<totfact> 0.24227611E+00</totfact>
</mgrwt>
</event>
<event>
12    4  0.4486176E-008  0.1771795E+04  0.7818608E-02  0.8721444E-01
         -2   -1    0    0    0  501 -0.00000000000E+00  0.00000000000E+00  0.50155062882E+03  0.50155062882E+03  0.00000000000E+00 0.  1.
          1   -1    0    0  501    0  0.00000000000E+00 -0.00000000000E+00 -0.15647768249E+04  0.15647768249E+04  0.00000000000E+00 0. -1.
        -24    2    1    2    0    0 -0.49442886217E+03  0.11260011915E+03  0.76720893558E+02  0.51905389954E+03  0.79951038399E+02 0.  0.
        254    2    1    2    0    0  0.49442886217E+03 -0.11260011915E+03 -0.11399470896E+04  0.15472735542E+04  0.91511605697E+03 0.  0.
         23    2    4    4    0    0  0.31278642533E+03  0.28324207556E+03 -0.14350386343E+03  0.45529354046E+03  0.92937763737E+02 0.  0.
         23    2    4    4    0    0  0.18164243684E+03 -0.39584219471E+03 -0.99644322620E+03  0.10919800137E+04  0.99177766375E+02 0.  0.
          3    1    3    3  502    0 -0.95644686907E+02  0.54960461828E+02  0.12022365134E+02  0.11096438961E+03  0.00000000000E+00 0. -1.
         -4    1    3    3    0  502 -0.39878417526E+03  0.57639657323E+02  0.64698528424E+02  0.40808950993E+03  0.00000000000E+00 0.  1.
         11    1    5    5    0    0  0.15169282397E+03  0.17286258597E+03 -0.37260033806E+02  0.23298175163E+03  0.00000000000E+00 0.  1.
        -11    1    5    5    0    0  0.16109360136E+03  0.11037948959E+03 -0.10624382963E+03  0.22231178883E+03  0.00000000000E+00 0. -1.
          2    1    6    6  503    0  0.60056486089E+02 -0.17404973340E+03 -0.53451106327E+03  0.56533367844E+03  0.00000000000E+00 0. -1.
         -2    1    6    6    0  503  0.12158595075E+03 -0.22179246131E+03 -0.46193216293E+03  0.52664633527E+03  0.00000000000E+00 0.  1.
<mgrwt>
<rscale>  0 0.17717955E+04</rscale>
<asrwt>0</asrwt>
<pdfrwt beam="1">  1        1 0.24073490E+00 0.17717955E+04</pdfrwt>
<pdfrwt beam="2">  1       -2 0.77161634E-01 0.17717955E+04</pdfrwt>
<totfact> 0.73418905E+00</totfact>
</mgrwt>
</event>
<event>
12    4  0.4486176E-008  0.1087901E+04  0.7818608E-02  0.9217065E-01
          1   -1    0    0  501    0  0.00000000000E+00  0.00000000000E+00  0.48706449961E+03  0.48706449961E+03  0.00000000000E+00 0. -1.
         -2   -1    0    0    0  501 -0.00000000000E+00 -0.00000000000E+00 -0.60748043468E+03  0.60748043468E+03  0.00000000000E+00 0.  1.
        -24    2    1    2    0    0  0.10796294262E+03  0.71201390317E+02  0.72826059846E+02  0.16847017843E+03  0.79705276269E+02 0.  0.
        254    2    1    2    0    0 -0.10796294262E+03 -0.71201390317E+02 -0.19324199492E+03  0.92607475586E+03  0.89640746866E+03 0.  0.
         23    2    4    4    0    0 -0.31426372467E+03  0.47869878526E+02  0.24996656864E+03  0.41421390159E+03  0.89647403325E+02 0.  0.
         23    2    4    4    0    0  0.20630078205E+03 -0.11907126884E+03 -0.44320856356E+03  0.51186085427E+03  0.93966608883E+02 0.  0.
          3    1    3    3  502    0  0.48179859377E+02  0.49739629336E+02  0.78523969827E+02  0.10469643458E+03  0.00000000000E+00 0. -1.
         -4    1    3    3    0  502  0.59783083245E+02  0.21461760981E+02 -0.56979099817E+01  0.63773743852E+02  0.00000000000E+00 0.  1.
         11    1    5    5    0    0 -0.25201255325E+03  0.21191621717E+02  0.15183569366E+03  0.29498049037E+03  0.00000000000E+00 0. -1.
        -11    1    5    5    0    0 -0.62251171418E+02  0.26678256809E+02  0.98130874971E+02  0.11923341122E+03  0.00000000000E+00 0.  1.
          4    1    6    6  503    0  0.98386745232E+02 -0.84345163603E+02 -0.31559761775E+03  0.34116845486E+03  0.00000000000E+00 0.  1.
         -4    1    6    6    0  503  0.10791403682E+03 -0.34726105240E+02 -0.12761094581E+03  0.17069239941E+03  0.00000000000E+00 0. -1.
<mgrwt>
<rscale>  0 0.10879010E+04</rscale>
<asrwt>0</asrwt>
<pdfrwt beam="1">  1        1 0.74933000E-01 0.10879010E+04</pdfrwt>
<pdfrwt beam="2">  1       -2 0.93458528E-01 0.10879010E+04</pdfrwt>
<totfact> 0.38815389E+01</totfact>
</mgrwt>
</event>
<event>
12    4  0.4486176E-008  0.1598186E+04  0.7818608E-02  0.8821663E-01
         -2   -1    0    0    0  501 -0.00000000000E+00  0.00000000000E+00  0.82706853910E+03  0.82706853910E+03  0.00000000000E+00 0.  1.
          1   -1    0    0  501    0  0.00000000000E+00 -0.00000000000E+00 -0.77206395778E+03  0.77206395778E+03  0.00000000000E+00 0. -1.
        -24    2    1    2    0    0 -0.44161263429E+03  0.20595492973E+03 -0.20215384927E+03  0.53320652984E+03  0.77484661995E+02 0.  0.
        254    2    1    2    0    0  0.44161263429E+03 -0.20595492973E+03  0.25715843060E+03  0.10659259670E+04  0.91248482560E+03 0.  0.
         23    2    4    4    0    0  0.55695915203E+03 -0.29851025211E+03 -0.12000246417E+03  0.64950779047E+03  0.90265778820E+02 0.  0.
         23    2    4    4    0    0 -0.11534651774E+03  0.92555322388E+02  0.37716089476E+03  0.41641817657E+03  0.96345474127E+02 0.  0.
          3    1    3    3  502    0 -0.30847793572E+03  0.12960291274E+03 -0.17412405031E+03  0.37719323525E+03  0.00000000000E+00 0. -1.
         -4    1    3    3    0  502 -0.13313469857E+03  0.76352016982E+02 -0.28029798963E+02  0.15601329459E+03  0.00000000000E+00 0.  1.
         11    1    5    5    0    0  0.50706209874E+03 -0.29180979337E+03 -0.12705358736E+03  0.59867148048E+03  0.00000000000E+00 0. -1.
        -11    1    5    5    0    0  0.49897053297E+02 -0.67004587486E+01  0.70511231960E+01  0.50836309991E+02  0.00000000000E+00 0.  1.
          4    1    6    6  503    0 -0.80669021816E+02  0.36025626712E+01  0.18459203419E+03  0.20148123641E+03  0.00000000000E+00 0. -1.
         -4    1    6    6    0  503 -0.34677495929E+02  0.88952759717E+02  0.19256886057E+03  0.21493694016E+03  0.00000000000E+00 0.  1.
<mgrwt>
<rscale>  0 0.15981862E+04</rscale>
<asrwt>0</asrwt>
<pdfrwt beam="1">  1        1 0.11877907E+00 0.15981862E+04</pdfrwt>
<pdfrwt beam="2">  1       -2 0.12724131E+00 0.15981862E+04</pdfrwt>
<totfact> 0.90164923E+00</totfact>
</mgrwt>
</event>
<event>
12    4  0.4486176E-008  0.1598795E+04  0.7818608E-02  0.8821288E-01
         -2   -1    0    0    0  501 -0.00000000000E+00  0.00000000000E+00  0.56234866180E+03  0.56234866180E+03  0.00000000000E+00 0.  1.
          1   -1    0    0  501    0  0.00000000000E+00 -0.00000000000E+00 -0.11363709624E+04  0.11363709624E+04  0.00000000000E+00 0. -1.
        -24    2    1    2    0    0 -0.11776056210E+03  0.26987198124E+03 -0.73461893645E+03  0.79544267474E+03  0.79784903074E+02 0.  0.
        254    2    1    2    0    0  0.11776056210E+03 -0.26987198124E+03  0.16059663583E+03  0.90327694947E+03  0.83870109799E+03 0.  0.
         23    2    4    4    0    0 -0.28265375685E+02  0.28275631860E+03 -0.54483680360E+01  0.30090444149E+03  0.98811593561E+02 0.  0.
         23    2    4    4    0    0  0.14602593779E+03 -0.55262829984E+03  0.16604500387E+03  0.60237250799E+03  0.92520715386E+02 0.  0.
          3    1    3    3  502    0 -0.94238976629E+01  0.71033549249E+02 -0.25805684610E+03  0.26782066908E+03  0.00000000000E+00 0. -1.
         -4    1    3    3    0  502 -0.10833666444E+03  0.19883843199E+03 -0.47656209035E+03  0.52762200566E+03  0.00000000000E+00 0.  1.
         11    1    5    5    0    0 -0.53444410796E+02  0.26142598011E+03 -0.12632993578E+02  0.26713187876E+03  0.00000000000E+00 0.  1.
        -11    1    5    5    0    0  0.25179035111E+02  0.21330338492E+02  0.71846255422E+01  0.33772562733E+02  0.00000000000E+00 0. -1.
          3    1    6    6  503    0  0.70778770244E+02 -0.15424768594E+03  0.81324169731E+02  0.18819033854E+03  0.00000000000E+00 0. -1.
         -3    1    6    6    0  503  0.75247167542E+02 -0.39838061390E+03  0.84720834138E+02  0.41418216945E+03  0.00000000000E+00 0.  1.
<mgrwt>
<rscale>  0 0.15987954E+04</rscale>
<asrwt>0</asrwt>
<pdfrwt beam="1">  1        1 0.17482630E+00 0.15987954E+04</pdfrwt>
<pdfrwt beam="2">  1       -2 0.86515179E-01 0.15987954E+04</pdfrwt>
<totfact> 0.11596437E+01</totfact>
</mgrwt>
</event>
<event>
12    4  0.4486176E-008  0.1735572E+04  0.7818608E-02  0.8741332E-01
         -2   -1    0    0    0  501 -0.00000000000E+00  0.00000000000E+00  0.23264598146E+03  0.23264598146E+03  0.00000000000E+00 0.  1.
          1   -1    0    0  501    0  0.00000000000E+00 -0.00000000000E+00 -0.32369042189E+04  0.32369042189E+04  0.00000000000E+00 0. -1.
        -24    2    1    2    0    0  0.42419531845E+03 -0.45575606566E+03 -0.89491369543E+03  0.10930800745E+04  0.79361624095E+02 0.  0.
        254    2    1    2    0    0 -0.42419531845E+03  0.45575606566E+03 -0.21093445420E+04  0.23764701259E+04  0.90034471325E+03 0.  0.
         23    2    4    4    0    0 -0.58042068989E+03  0.39113315816E+03 -0.86037108518E+03  0.11128695821E+04  0.91471186501E+02 0.  0.
         23    2    4    4    0    0  0.15622537143E+03  0.64622907505E+02 -0.12489734568E+04  0.12636005438E+04  0.90383358102E+02 0.  0.
          1    1    3    3  502    0  0.21810897215E+03 -0.27146914165E+03 -0.44573422994E+03  0.56563771297E+03  0.00000000000E+00 0. -1.
         -2    1    3    3    0  502  0.20608634631E+03 -0.18428692401E+03 -0.44917946549E+03  0.52744236151E+03  0.00000000000E+00 0.  1.
         11    1    5    5    0    0 -0.47775671853E+02  0.11875630167E+02 -0.37759927544E+02  0.62043190932E+02  0.00000000000E+00 0.  1.
        -11    1    5    5    0    0 -0.53264501803E+03  0.37925752799E+03 -0.82261115764E+03  0.10508263912E+04  0.00000000000E+00 0. -1.
          3    1    6    6  503    0  0.14314775054E+03  0.63715899700E+02 -0.84438418470E+03  0.85879895536E+03  0.00000000000E+00 0. -1.
         -3    1    6    6    0  503  0.13077620896E+02  0.90700780493E+00 -0.40458927214E+03  0.40480158839E+03  0.00000000000E+00 0.  1.
<mgrwt>
<rscale>  0 0.17355723E+04</rscale>
<asrwt>0</asrwt>
<pdfrwt beam="1">  1        1 0.49798524E+00 0.17355723E+04</pdfrwt>
<pdfrwt beam="2">  1       -2 0.35791691E-01 0.17355723E+04</pdfrwt>
<totfact> 0.24514871E+00</totfact>
</mgrwt>
</event>
<event>
12    4  0.4486176E-008  0.2572778E+04  0.7818608E-02  0.8377507E-01
          1   -1    0    0  501    0  0.00000000000E+00  0.00000000000E+00  0.43595550960E+04  0.43595550960E+04  0.00000000000E+00 0. -1.
         -2   -1    0    0    0  501 -0.00000000000E+00 -0.00000000000E+00 -0.37957935276E+03  0.37957935276E+03  0.00000000000E+00 0.  1.
        -24    2    1    2    0    0  0.71024426673E+03  0.28612694430E+03  0.22292079637E+03  0.80149489625E+03  0.79905197486E+02 0.  0.
        254    2    1    2    0    0 -0.71024426673E+03 -0.28612694430E+03  0.37570549468E+04  0.39376395525E+04  0.89622978362E+03 0.  0.
         23    2    4    4    0    0 -0.89107552577E+01 -0.44302480049E+03  0.14607292203E+04  0.15297896206E+04  0.10087642328E+03 0.  0.
         23    2    4    4    0    0 -0.70133351147E+03  0.15689785619E+03  0.22963257265E+04  0.24078499319E+04  0.90243119606E+02 0.  0.
          1    1    3    3  502    0  0.94397331855E+02  0.38966866999E+02  0.21670746315E+01  0.10214680219E+03  0.00000000000E+00 0. -1.
         -2    1    3    3    0  502  0.61584693487E+03  0.24716007730E+03  0.22075372174E+03  0.69934809406E+03  0.00000000000E+00 0.  1.
         11    1    5    5    0    0  0.27359854020E+02 -0.26690796077E+03  0.74579672821E+03  0.79259143381E+03  0.00000000000E+00 0. -1.
        -11    1    5    5    0    0 -0.36270609278E+02 -0.17611683972E+03  0.71493249210E+03  0.73719818678E+03  0.00000000000E+00 0.  1.
          1    1    6    6  503    0 -0.38745014350E+03  0.61507714373E+02  0.13745614722E+04  0.14294474644E+04  0.00000000000E+00 0.  1.
         -1    1    6    6    0  503 -0.31388336797E+03  0.95390141816E+02  0.92176425427E+03  0.97840246744E+03  0.00000000000E+00 0. -1.
<mgrwt>
<rscale>  0 0.25727783E+04</rscale>
<asrwt>0</asrwt>
<pdfrwt beam="1">  1        1 0.67070075E+00 0.25727783E+04</pdfrwt>
<pdfrwt beam="2">  1       -2 0.58396826E-01 0.25727783E+04</pdfrwt>
<totfact> 0.95167676E-02</totfact>
</mgrwt>
</event>
<event>
12    4  0.4486176E-008  0.2223563E+04  0.7818608E-02  0.8508684E-01
          1   -1    0    0  501    0  0.00000000000E+00  0.00000000000E+00  0.16340240910E+04  0.16340240910E+04  0.00000000000E+00 0. -1.
         -2   -1    0    0    0  501 -0.00000000000E+00 -0.00000000000E+00 -0.75645053592E+03  0.75645053592E+03  0.00000000000E+00 0.  1.
        -24    2    1    2    0    0  0.13191979363E+03  0.81663722330E+03  0.82391797633E+03  0.11702967339E+04  0.80339449645E+02 0.  0.
        254    2    1    2    0    0 -0.13191979363E+03 -0.81663722330E+03  0.53655578757E+02  0.12201778931E+04  0.89535243515E+03 0.  0.
         23    2    4    4    0    0 -0.20820982092E+03 -0.94435318780E+03 -0.11359271307E+03  0.97802612103E+03  0.92073427819E+02 0.  0.
         23    2    4    4    0    0  0.76290027293E+02  0.12771596450E+03  0.16724829182E+03  0.24215177203E+03  0.92379400971E+02 0.  0.
          3    1    3    3  502    0  0.84872814534E+02  0.70138706026E+03  0.70777410414E+03  0.10000456917E+04  0.00000000000E+00 0. -1.
         -2    1    3    3    0  502  0.47046979098E+02  0.11525016303E+03  0.11614387219E+03  0.17025104220E+03  0.00000000000E+00 0.  1.
         11    1    5    5    0    0 -0.88596411985E+02 -0.49783366908E+03 -0.17959878025E+02  0.50597454828E+03  0.00000000000E+00 0.  1.
        -11    1    5    5    0    0 -0.11961340894E+03 -0.44651951872E+03 -0.95632835043E+02  0.47205157275E+03  0.00000000000E+00 0. -1.
          3    1    6    6  503    0  0.41623414720E+02 -0.95782921589E+00  0.34760595239E+02  0.54237672066E+02  0.00000000000E+00 0. -1.
         -3    1    6    6    0  503  0.34666612573E+02  0.12867379372E+03  0.13248769659E+03  0.18791409996E+03  0.00000000000E+00 0.  1.
<mgrwt>
<rscale>  0 0.22235633E+04</rscale>
<asrwt>0</asrwt>
<pdfrwt beam="1">  1        1 0.25138832E+00 0.22235633E+04</pdfrwt>
<pdfrwt beam="2">  1       -2 0.11637701E+00 0.22235633E+04</pdfrwt>
<totfact> 0.24196561E+00</totfact>
</mgrwt>
</event>
<event>
12    4  0.4486176E-008  0.1702410E+04  0.7818608E-02  0.8759991E-01
         -2   -1    0    0    0  501 -0.00000000000E+00  0.00000000000E+00  0.40731136084E+03  0.40731136084E+03  0.00000000000E+00 0.  1.
          1   -1    0    0  501    0  0.00000000000E+00 -0.00000000000E+00 -0.17788600107E+04  0.17788600107E+04  0.00000000000E+00 0. -1.
        -24    2    1    2    0    0 -0.26957490551E+03  0.42962411552E+03 -0.93010946801E+03  0.10640562982E+04  0.99321060365E+02 0.  0.
        254    2    1    2    0    0  0.26957490551E+03 -0.42962411552E+03 -0.44143918185E+03  0.11221150733E+04  0.89834635645E+03 0.  0.
         23    2    4    4    0    0 -0.16750381376E+03 -0.18065026926E+02  0.17335197550E+03  0.25780306082E+03  0.89597086664E+02 0.  0.
         23    2    4    4    0    0  0.43707871926E+03 -0.41155908859E+03 -0.61479115735E+03  0.86431201248E+03  0.92996760843E+02 0.  0.
          1    1    3    3  502    0 -0.13673684625E+03  0.28303680582E+03 -0.49941938207E+03  0.59010720869E+03  0.00000000000E+00 0. -1.
         -2    1    3    3    0  502 -0.13283805926E+03  0.14658730970E+03 -0.43069008594E+03  0.47394908955E+03  0.00000000000E+00 0.  1.
         11    1    5    5    0    0 -0.97144267948E+02  0.67152718435E+01  0.40544083465E+02  0.10547950690E+03  0.00000000000E+00 0.  1.
        -11    1    5    5    0    0 -0.70359545807E+02 -0.24780298770E+02  0.13280789204E+03  0.15232355393E+03  0.00000000000E+00 0. -1.
          1    1    6    6  503    0  0.15515041535E+03 -0.16665494340E+03 -0.29500175887E+03  0.37265474542E+03  0.00000000000E+00 0. -1.
         -1    1    6    6    0  503  0.28192830391E+03 -0.24490414519E+03 -0.31978939848E+03  0.49165726707E+03  0.00000000000E+00 0.  1.
<mgrwt>
<rscale>  0 0.17024099E+04</rscale>
<asrwt>0</asrwt>
<pdfrwt beam="1">  1        1 0.27367077E+00 0.17024099E+04</pdfrwt>
<pdfrwt beam="2">  1       -2 0.62663286E-01 0.17024099E+04</pdfrwt>
<totfact> 0.83057861E+00</totfact>
</mgrwt>
</event>
<event>
12    4  0.4486176E-008  0.1049603E+04  0.7818608E-02  0.9255754E-01
          1   -1    0    0  501    0  0.00000000000E+00  0.00000000000E+00  0.13478979236E+03  0.13478979236E+03  0.00000000000E+00 0. -1.
         -2   -1    0    0    0  501 -0.00000000000E+00 -0.00000000000E+00 -0.20433033852E+04  0.20433033852E+04  0.00000000000E+00 0.  1.
        -24    2    1    2    0    0  0.10220620957E+03 -0.69652852196E+02 -0.32702647833E+03  0.35887456331E+03  0.80913568494E+02 0.  0.
        254    2    1    2    0    0 -0.10220620957E+03  0.69652852196E+02 -0.15814871145E+04  0.18192186143E+04  0.89059375925E+03 0.  0.
         23    2    4    4    0    0 -0.21056969257E+03 -0.45781098490E+02 -0.16137115085E+04  0.16306710774E+04  0.92670521371E+02 0.  0.
         23    2    4    4    0    0  0.10836348300E+03  0.11543395069E+03  0.32224394008E+02  0.18854753686E+03  0.97180865747E+02 0.  0.
          3    1    3    3  502    0  0.10248585449E+03 -0.78082045945E+02 -0.24867396851E+03  0.28006945367E+03  0.00000000000E+00 0. -1.
         -4    1    3    3    0  502 -0.27964491870E+00  0.84291937488E+01 -0.78352509823E+02  0.78805109632E+02  0.00000000000E+00 0.  1.
         11    1    5    5    0    0 -0.21233934919E+03 -0.35409021489E+02 -0.13769709093E+04  0.13936967687E+04  0.00000000000E+00 0. -1.
        -11    1    5    5    0    0  0.17696566235E+01 -0.10372077001E+02 -0.23674059927E+03  0.23697430875E+03  0.00000000000E+00 0.  1.
          2    1    6    6  503    0  0.10639644429E+03  0.12275681290E+03  0.74282918782E+01  0.16261801251E+03  0.00000000000E+00 0. -1.
         -2    1    6    6    0  503  0.19670387121E+01 -0.73228622162E+01  0.24796102130E+02  0.25929524353E+02  0.00000000000E+00 0.  1.
<mgrwt>
<rscale>  0 0.10496027E+04</rscale>
<asrwt>0</asrwt>
<pdfrwt beam="1">  1        1 0.20736892E-01 0.10496027E+04</pdfrwt>
<pdfrwt beam="2">  1       -2 0.31435436E+00 0.10496027E+04</pdfrwt>
<totfact> 0.57300258E+00</totfact>
</mgrwt>
</event>
<event>
12    4  0.4486176E-008  0.1153954E+04  0.7818608E-02  0.9154143E-01
         -2   -1    0    0    0  501 -0.00000000000E+00  0.00000000000E+00  0.68336961977E+03  0.68336961977E+03  0.00000000000E+00 0.  1.
          1   -1    0    0  501    0  0.00000000000E+00 -0.00000000000E+00 -0.48714863184E+03  0.48714863184E+03  0.00000000000E+00 0. -1.
        -24    2    1    2    0    0  0.89712703576E+02  0.15273715319E+03  0.17541347780E+03  0.26177635256E+03  0.79874673208E+02 0.  0.
        254    2    1    2    0    0 -0.89712703576E+02 -0.15273715319E+03  0.20807510130E+02  0.90874189905E+03  0.89106783101E+03 0.  0.
         23    2    4    4    0    0  0.16801876014E+03 -0.45845414096E+03  0.36445918755E+02  0.49821696047E+03  0.92094145192E+02 0.  0.
         23    2    4    4    0    0 -0.25773146371E+03  0.30571698777E+03 -0.15638408625E+02  0.41052493858E+03  0.91639409517E+02 0.  0.
          1    1    3    3  502    0  0.41366697689E+02  0.10884840611E+03  0.64618044759E+02  0.13317158442E+03  0.00000000000E+00 0. -1.
         -2    1    3    3    0  502  0.48346005887E+02  0.43888747086E+02  0.11079543304E+03  0.12860476814E+03  0.00000000000E+00 0.  1.
         11    1    5    5    0    0  0.75957848290E+02 -0.29981953563E+03  0.53985141478E+02  0.31396774382E+03  0.00000000000E+00 0.  1.
        -11    1    5    5    0    0  0.92060911847E+02 -0.15863460533E+03 -0.17539222723E+02  0.18424921664E+03  0.00000000000E+00 0. -1.
          2    1    6    6  503    0 -0.55977193127E+02  0.94223774176E+02 -0.41274324446E+02  0.11711163746E+03  0.00000000000E+00 0. -1.
         -2    1    6    6    0  503 -0.20175427059E+03  0.21149321359E+03  0.25635915821E+02  0.29341330112E+03  0.00000000000E+00 0.  1.
<mgrwt>
<rscale>  0 0.11539542E+04</rscale>
<asrwt>0</asrwt>
<pdfrwt beam="1">  1        1 0.74945944E-01 0.11539542E+04</pdfrwt>
<pdfrwt beam="2">  1       -2 0.10513379E+00 0.11539542E+04</pdfrwt>
<totfact> 0.29232358E+01</totfact>
</mgrwt>
</event>
<event>
12    4  0.4486176E-008  0.1538042E+04  0.7818608E-02  0.8859542E-01
         -2   -1    0    0    0  501 -0.00000000000E+00  0.00000000000E+00  0.20566560929E+03  0.20566560929E+03  0.00000000000E+00 0.  1.
          1   -1    0    0  501    0  0.00000000000E+00 -0.00000000000E+00 -0.28755076101E+04  0.28755076101E+04  0.00000000000E+00 0. -1.
        -24    2    1    2    0    0 -0.12046255962E+02 -0.17133612412E+03  0.57764480564E+02  0.19879369269E+03  0.81737490350E+02 0.  0.
        254    2    1    2    0    0  0.12046255962E+02  0.17133612412E+03 -0.27276064813E+04  0.28823795267E+04  0.91584575063E+03 0.  0.
         23    2    4    4    0    0  0.20436365015E+03 -0.32256466416E+03 -0.10854184703E+04  0.11541627009E+04  0.90254199065E+02 0.  0.
         23    2    4    4    0    0 -0.19231739418E+03  0.49390078827E+03 -0.16421880111E+04  0.17282168258E+04  0.95015600936E+02 0.  0.
          3    1    3    3  502    0  0.23056033570E+02 -0.12959363075E+02 -0.42735065189E+00  0.26452001888E+02  0.00000000000E+00 0. -1.
         -4    1    3    3    0  502 -0.35102289532E+02 -0.15837676104E+03  0.58191831216E+02  0.17234169080E+03  0.00000000000E+00 0.  1.
         11    1    5    5    0    0  0.19771082354E+03 -0.32077087305E+03 -0.10027919090E+04  0.10712493339E+04  0.00000000000E+00 0.  1.
        -11    1    5    5    0    0  0.66528266061E+01 -0.17937911038E+01 -0.82626561274E+02  0.82913366934E+02  0.00000000000E+00 0. -1.
          1    1    6    6  503    0 -0.58884138343E+02  0.25743915591E+03 -0.89896376568E+03  0.93695149968E+03  0.00000000000E+00 0. -1.
         -1    1    6    6    0  503 -0.13343325584E+03  0.23646163237E+03 -0.74322424538E+03  0.79126532609E+03  0.00000000000E+00 0.  1.
<mgrwt>
<rscale>  0 0.15380416E+04</rscale>
<asrwt>0</asrwt>
<pdfrwt beam="1">  1        1 0.44238578E+00 0.15380416E+04</pdfrwt>
<pdfrwt beam="2">  1       -2 0.31640864E-01 0.15380416E+04</pdfrwt>
<totfact> 0.58095598E+00</totfact>
</mgrwt>
</event>
<event>
12    4  0.4486176E-008  0.1737017E+04  0.7818608E-02  0.8740529E-01
         -4   -1    0    0    0  501 -0.00000000000E+00  0.00000000000E+00  0.58382708911E+03  0.58382708911E+03  0.00000000000E+00 0.  1.
          3   -1    0    0  501    0  0.00000000000E+00 -0.00000000000E+00 -0.12920038345E+04  0.12920038345E+04  0.00000000000E+00 0. -1.
        -24    2    1    2    0    0 -0.39347518662E+03  0.30576480866E+03  0.16009447185E+03  0.52945614077E+03  0.79866916689E+02 0.  0.
        254    2    1    2    0    0  0.39347518662E+03 -0.30576480866E+03 -0.86827121726E+03  0.13463747829E+04  0.90028623699E+03 0.  0.
         23    2    4    4    0    0  0.23283624880E+03  0.19032910934E+03 -0.73782264730E+03  0.80216272069E+03  0.92977862829E+02 0.  0.
         23    2    4    4    0    0  0.16063893781E+03 -0.49609391800E+03 -0.13044856996E+03  0.54421206217E+03  0.85064066407E+02 0.  0.
          3    1    3    3  502    0 -0.25429228762E+02 -0.33501673669E+00  0.28514959489E+01  0.25590797971E+02  0.00000000000E+00 0. -1.
         -4    1    3    3    0  502 -0.36804595785E+03  0.30609982539E+03  0.15724297590E+03  0.50386534279E+03  0.00000000000E+00 0.  1.
         11    1    5    5    0    0  0.21815773148E+03  0.14106070410E+03 -0.65553847846E+03  0.70513942933E+03  0.00000000000E+00 0.  1.
        -11    1    5    5    0    0  0.14678517322E+02  0.49268405239E+02 -0.82284168840E+02  0.97023291365E+02  0.00000000000E+00 0. -1.
          3    1    6    6  503    0  0.26475225423E+02 -0.52453823217E+02 -0.42355571293E+02  0.72431592215E+02  0.00000000000E+00 0. -1.
         -3    1    6    6    0  503  0.13416371239E+03 -0.44364009478E+03 -0.88092998666E+02  0.47178046996E+03  0.00000000000E+00 0.  1.
<mgrwt>
<rscale>  0 0.17370168E+04</rscale>
<asrwt>0</asrwt>
<pdfrwt beam="1">  1        3 0.19876982E+00 0.17370168E+04</pdfrwt>
<pdfrwt beam="2">  1       -4 0.89819553E-01 0.17370168E+04</pdfrwt>
<totfact> 0.34667082E-01</totfact>
</mgrwt>
</event>
<event>
12    4  0.4486176E-008  0.2494119E+04  0.7818608E-02  0.8405084E-01
         -2   -1    0    0    0  501 -0.00000000000E+00  0.00000000000E+00  0.13565228151E+04  0.13565228151E+04  0.00000000000E+00 0.  1.
          1   -1    0    0  501    0  0.00000000000E+00 -0.00000000000E+00 -0.11464296115E+04  0.11464296115E+04  0.00000000000E+00 0. -1.
        -24    2    1    2    0    0  0.90844063092E+03  0.51737572377E+03 -0.21355026212E+03  0.10698260191E+04  0.77343243550E+02 0.  0.
        254    2    1    2    0    0 -0.90844063092E+03 -0.51737572377E+03  0.42364346576E+03  0.14331264075E+04  0.88398840174E+03 0.  0.
         23    2    4    4    0    0 -0.10227242860E+04 -0.23797649503E+03  0.33563737797E+03  0.11059950896E+04  0.89302358935E+02 0.  0.
         23    2    4    4    0    0  0.11428365506E+03 -0.27939922874E+03  0.88006087792E+02  0.32713131797E+03  0.90250456338E+02 0.  0.
          3    1    3    3  502    0  0.84874611607E+03  0.49003189785E+03 -0.21804102749E+03  0.10040135059E+04  0.00000000000E+00 0. -1.
         -4    1    3    3    0  502  0.59694514853E+02  0.27343825917E+02  0.44907653683E+01  0.65812513194E+02  0.00000000000E+00 0.  1.
         11    1    5    5    0    0 -0.93803038224E+03 -0.21979290564E+03  0.33289523640E+03  0.10193277970E+04  0.00000000000E+00 0. -1.
        -11    1    5    5    0    0 -0.84693903745E+02 -0.18183589383E+02  0.27421415705E+01  0.86667292532E+02  0.00000000000E+00 0.  1.
          3    1    6    6  503    0  0.10848228937E+03 -0.28550151676E+03  0.90147863883E+02  0.31844333961E+03  0.00000000000E+00 0. -1.
         -3    1    6    6    0  503  0.58013656925E+01  0.61022880226E+01 -0.21417760911E+01  0.86879783513E+01  0.00000000000E+00 0.  1.
<mgrwt>
<rscale>  0 0.24941194E+04</rscale>
<asrwt>0</asrwt>
<pdfrwt beam="1">  1        1 0.17637379E+00 0.24941194E+04</pdfrwt>
<pdfrwt beam="2">  1       -2 0.20869582E+00 0.24941194E+04</pdfrwt>
<totfact> 0.10654546E+00</totfact>
</mgrwt>
</event>
<event>
12    4  0.4486176E-008  0.9975729E+03  0.7818608E-02  0.9311211E-01
         -2   -1    0    0    0  501 -0.00000000000E+00  0.00000000000E+00  0.42083843188E+03  0.42083843188E+03  0.00000000000E+00 0.  1.
          1   -1    0    0  501    0  0.00000000000E+00 -0.00000000000E+00 -0.59117203435E+03  0.59117203435E+03  0.00000000000E+00 0. -1.
        -24    2    1    2    0    0 -0.41774980833E+02 -0.45313765908E+02 -0.40062798221E+02  0.10887920903E+03  0.80319163050E+02 0.  0.
        254    2    1    2    0    0  0.41774980833E+02  0.45313765908E+02 -0.13027080425E+03  0.90313125720E+03  0.89155880282E+03 0.  0.
         23    2    4    4    0    0 -0.28906553172E+03  0.28689384169E+02  0.24740949073E+03  0.39253796679E+03  0.92155503737E+02 0.  0.
         23    2    4    4    0    0  0.33084051256E+03  0.16624381739E+02 -0.37768029498E+03  0.51059329042E+03  0.91275890496E+02 0.  0.
          1    1    3    3  502    0 -0.42018949746E+00 -0.27318769828E+02 -0.54964593978E+02  0.61380765190E+02  0.00000000000E+00 0. -1.
         -2    1    3    3    0  502 -0.41354791336E+02 -0.17994996079E+02  0.14901795757E+02  0.47498443839E+02  0.00000000000E+00 0.  1.
         11    1    5    5    0    0 -0.26872709429E+03  0.15940887763E+02  0.25124623979E+03  0.36822959701E+03  0.00000000000E+00 0.  1.
        -11    1    5    5    0    0 -0.20338437436E+02  0.12748496405E+02 -0.38367490522E+01  0.24308369777E+02  0.00000000000E+00 0. -1.
          1    1    6    6  503    0  0.57152483729E+02  0.37978032947E+02 -0.65225140056E+02  0.94673419069E+02  0.00000000000E+00 0. -1.
         -1    1    6    6    0  503  0.27368802883E+03 -0.21353651208E+02 -0.31245515493E+03  0.41591987135E+03  0.00000000000E+00 0.  1.
<mgrwt>
<rscale>  0 0.99757288E+03</rscale>
<asrwt>0</asrwt>
<pdfrwt beam="1">  1        1 0.90949544E-01 0.99757288E+03</pdfrwt>
<pdfrwt beam="2">  1       -2 0.64744374E-01 0.99757288E+03</pdfrwt>
<totfact> 0.67652857E+01</totfact>
</mgrwt>
</event>
<event>
12    4  0.4486176E-008  0.2853493E+04  0.7818608E-02  0.8286851E-01
         -2   -1    0    0    0  501 -0.00000000000E+00  0.00000000000E+00  0.12398904493E+04  0.12398904493E+04  0.00000000000E+00 0.  1.
          1   -1    0    0  501    0  0.00000000000E+00 -0.00000000000E+00 -0.16417625763E+04  0.16417625763E+04  0.00000000000E+00 0. -1.
        -24    2    1    2    0    0 -0.30049769310E+03 -0.40950679537E+03  0.10073057598E+04  0.11310099429E+04  0.80770775549E+02 0.  0.
        254    2    1    2    0    0  0.30049769310E+03  0.40950679537E+03 -0.14091778868E+04  0.17506430828E+04  0.90607627042E+03 0.  0.
         23    2    4    4    0    0  0.40627413971E+03 -0.12743840456E+03 -0.36473317887E+03  0.56808581612E+03  0.91607746153E+02 0.  0.
         23    2    4    4    0    0 -0.10577644661E+03  0.53694519993E+03 -0.10444447079E+04  0.11825572667E+04  0.89878455511E+02 0.  0.
          3    1    3    3  502    0 -0.13361154361E+03 -0.14428784541E+03  0.46145834767E+03  0.50161223426E+03  0.00000000000E+00 0. -1.
         -4    1    3    3    0  502 -0.16688614949E+03 -0.26521894996E+03  0.54584741208E+03  0.62939770859E+03  0.00000000000E+00 0.  1.
         11    1    5    5    0    0 -0.93057855299E+00 -0.64610445115E+01  0.20625758894E+01  0.68458229543E+01  0.00000000000E+00 0.  1.
        -11    1    5    5    0    0  0.40720471826E+03 -0.12097736005E+03 -0.36679575476E+03  0.56123999317E+03  0.00000000000E+00 0. -1.
          2    1    6    6  503    0 -0.11810121999E+02  0.16351798728E+03 -0.23934819877E+03  0.29011234272E+03  0.00000000000E+00 0.  1.
         -2    1    6    6    0  503 -0.93966324607E+02  0.37342721265E+03 -0.80509650914E+03  0.89244492398E+03  0.00000000000E+00 0. -1.
<mgrwt>
<rscale>  0 0.28534931E+04</rscale>
<asrwt>0</asrwt>
<pdfrwt beam="1">  1        1 0.25257886E+00 0.28534931E+04</pdfrwt>
<pdfrwt beam="2">  1       -2 0.19075238E+00 0.28534931E+04</pdfrwt>
<totfact> 0.60593715E-01</totfact>
</mgrwt>
</event>
<event>
12    4  0.4486176E-008  0.1831577E+04  0.7818608E-02  0.8689685E-01
          1   -1    0    0  501    0  0.00000000000E+00  0.00000000000E+00  0.20292079763E+04  0.20292079763E+04  0.00000000000E+00 0. -1.
         -2   -1    0    0    0  501 -0.00000000000E+00 -0.00000000000E+00 -0.41329870118E+03  0.41329870118E+03  0.00000000000E+00 0.  1.
        -24    2    1    2    0    0 -0.25563368773E+03 -0.52809305171E+02 -0.23971424273E+03  0.36342500631E+03  0.80482370902E+02 0.  0.
        254    2    1    2    0    0  0.25563368773E+03  0.52809305171E+02  0.18556235178E+04  0.20790816711E+04  0.90061343005E+03 0.  0.
         23    2    4    4    0    0  0.58379819697E+03  0.77431520049E+02  0.12435443515E+04  0.13787960820E+04  0.88657241288E+02 0.  0.
         23    2    4    4    0    0 -0.32816450924E+03 -0.24622214877E+02  0.61207916634E+03  0.70028558918E+03  0.86375933939E+02 0.  0.
          3    1    3    3  502    0 -0.31644880206E+02 -0.12459889717E+02 -0.75398654804E+02  0.82713991811E+02  0.00000000000E+00 0. -1.
         -4    1    3    3    0  502 -0.22398880753E+03 -0.40349415454E+02 -0.16431558792E+03  0.28071101450E+03  0.00000000000E+00 0.  1.
         11    1    5    5    0    0  0.56622331843E+03  0.82905685323E+02  0.11629078153E+04  0.12960851769E+04  0.00000000000E+00 0. -1.
        -11    1    5    5    0    0  0.17574878540E+02 -0.54741652746E+01  0.80636536208E+02  0.82710905042E+02  0.00000000000E+00 0.  1.
          1    1    6    6  503    0 -0.30575505102E+03 -0.38678312826E+02  0.59073381720E+03  0.66629468397E+03  0.00000000000E+00 0. -1.
         -1    1    6    6    0  503 -0.22409458218E+02  0.14056097948E+02  0.21345349137E+02  0.33990905209E+02  0.00000000000E+00 0.  1.
<mgrwt>
<rscale>  0 0.18315775E+04</rscale>
<asrwt>0</asrwt>
<pdfrwt beam="1">  1        1 0.31218584E+00 0.18315775E+04</pdfrwt>
<pdfrwt beam="2">  1       -2 0.63584417E-01 0.18315775E+04</pdfrwt>
<totfact> 0.53854338E+00</totfact>
</mgrwt>
</event>
<event>
12    4  0.4486176E-008  0.1764355E+04  0.7818608E-02  0.8725488E-01
          1   -1    0    0  501    0  0.00000000000E+00  0.00000000000E+00  0.27027194474E+04  0.27027194474E+04  0.00000000000E+00 0. -1.
         -2   -1    0    0    0  501 -0.00000000000E+00 -0.00000000000E+00 -0.28794584887E+03  0.28794584887E+03  0.00000000000E+00 0.  1.
        -24    2    1    2    0    0  0.50516779917E+03 -0.39720050977E+03  0.73666895785E+03  0.98072433325E+03  0.78589529069E+02 0.  0.
        254    2    1    2    0    0 -0.50516779917E+03  0.39720050977E+03  0.16781046407E+04  0.20099409631E+04  0.90048028272E+03 0.  0.
         23    2    4    4    0    0 -0.13255796602E+03  0.59147951406E+03  0.63970203057E+03  0.88601079617E+03  0.91524931615E+02 0.  0.
         23    2    4    4    0    0 -0.37260983315E+03 -0.19427900429E+03  0.10384026101E+04  0.11239301669E+04  0.91414550500E+02 0.  0.
          1    1    3    3  502    0  0.13651408867E+03 -0.14988645385E+03  0.25313561151E+03  0.32431417370E+03  0.00000000000E+00 0. -1.
         -2    1    3    3    0  502  0.36865371050E+03 -0.24731405592E+03  0.48353334635E+03  0.65641015955E+03  0.00000000000E+00 0.  1.
         11    1    5    5    0    0 -0.13461531251E+03  0.45251826100E+03  0.46364245496E+03  0.66170868586E+03  0.00000000000E+00 0.  1.
        -11    1    5    5    0    0  0.20573464843E+01  0.13896125307E+03  0.17605957561E+03  0.22430211032E+03  0.00000000000E+00 0. -1.
          1    1    6    6  503    0 -0.20371139868E+03 -0.90970305767E+02  0.43498992338E+03  0.48886620248E+03  0.00000000000E+00 0. -1.
         -1    1    6    6    0  503 -0.16889843446E+03 -0.10330869853E+03  0.60341268676E+03  0.63506396441E+03  0.00000000000E+00 0.  1.
<mgrwt>
<rscale>  0 0.17643547E+04</rscale>
<asrwt>0</asrwt>
<pdfrwt beam="1">  1        1 0.41580298E+00 0.17643547E+04</pdfrwt>
<pdfrwt beam="2">  1       -2 0.44299363E-01 0.17643547E+04</pdfrwt>
<totfact> 0.39327234E+00</totfact>
</mgrwt>
</event>
<event>
12    4  0.4486176E-008  0.1908824E+04  0.7818608E-02  0.8650477E-01
          1   -1    0    0  501    0  0.00000000000E+00  0.00000000000E+00  0.77318709431E+03  0.77318709431E+03  0.00000000000E+00 0. -1.
         -2   -1    0    0    0  501 -0.00000000000E+00 -0.00000000000E+00 -0.11781132389E+04  0.11781132389E+04  0.00000000000E+00 0.  1.
        -24    2    1    2    0    0 -0.58287985703E+03  0.11005497164E+01 -0.62616626025E+03  0.85929860099E+03  0.80992353018E+02 0.  0.
        254    2    1    2    0    0  0.58287985703E+03 -0.11005497164E+01  0.22124011571E+03  0.10920017322E+04  0.89653246196E+03 0.  0.
         23    2    4    4    0    0  0.49794575582E+02 -0.36723417295E+03  0.21682202444E+03  0.43871300239E+03  0.90093677030E+02 0.  0.
         23    2    4    4    0    0  0.53308528145E+03  0.36613362323E+03  0.44180912694E+01  0.65328872979E+03  0.92373684468E+02 0.  0.
          3    1    3    3  502    0 -0.22762103497E+03 -0.14132044800E+01 -0.18815794449E+03  0.29532481233E+03  0.00000000000E+00 0. -1.
         -4    1    3    3    0  502 -0.35525882206E+03  0.25137541964E+01 -0.43800831577E+03  0.56397378866E+03  0.00000000000E+00 0.  1.
         11    1    5    5    0    0  0.53496043905E+01  0.25320123085E+01 -0.25877622214E+01  0.64595562371E+01  0.00000000000E+00 0. -1.
        -11    1    5    5    0    0  0.44444971191E+02 -0.36976618526E+03  0.21940978667E+03  0.43225344615E+03  0.00000000000E+00 0.  1.
          4    1    6    6  503    0  0.63242175507E+02  0.53355820456E+02  0.30677838626E+02  0.88247074298E+02  0.00000000000E+00 0. -1.
         -4    1    6    6    0  503  0.46984310594E+03  0.31277780278E+03 -0.26259747356E+02  0.56504165549E+03  0.00000000000E+00 0.  1.
<mgrwt>
<rscale>  0 0.19088237E+04</rscale>
<asrwt>0</asrwt>
<pdfrwt beam="1">  1        1 0.11895186E+00 0.19088237E+04</pdfrwt>
<pdfrwt beam="2">  1       -2 0.18124819E+00 0.19088237E+04</pdfrwt>
<totfact> 0.33973084E+00</totfact>
</mgrwt>
</event>
<event>
12    4  0.4486176E-008  0.1887949E+04  0.7818608E-02  0.8660878E-01
          1   -1    0    0  501    0  0.00000000000E+00  0.00000000000E+00  0.12374300907E+04  0.12374300907E+04  0.00000000000E+00 0. -1.
         -2   -1    0    0    0  501 -0.00000000000E+00 -0.00000000000E+00 -0.72011164603E+03  0.72011164603E+03  0.00000000000E+00 0.  1.
        -24    2    1    2    0    0 -0.16215010503E+03  0.21404840924E+03 -0.55763069668E+03  0.62391670945E+03  0.78807920881E+02 0.  0.
        254    2    1    2    0    0  0.16215010503E+03 -0.21404840924E+03  0.10749491414E+04  0.13336250273E+04  0.74224704704E+03 0.  0.
         23    2    4    4    0    0  0.16283717826E+03 -0.25717925761E+03  0.72993217541E+02  0.32613527829E+03  0.91537384543E+02 0.  0.
         23    2    4    4    0    0 -0.68707322224E+00  0.43130848369E+02  0.10019559238E+04  0.10074897490E+04  0.96224627350E+02 0.  0.
          3    1    3    3  502    0 -0.12430007833E+03  0.18074645680E+03 -0.37492421433E+03  0.43438227129E+03  0.00000000000E+00 0. -1.
         -4    1    3    3    0  502 -0.37850026704E+02  0.33301952441E+02 -0.18270648234E+03  0.18953443816E+03  0.00000000000E+00 0.  1.
         11    1    5    5    0    0  0.35368381072E+02 -0.31607905741E+02  0.45254345674E+02  0.65558659896E+02  0.00000000000E+00 0.  1.
        -11    1    5    5    0    0  0.12746879718E+03 -0.22557135187E+03  0.27738871867E+02  0.26057661839E+03  0.00000000000E+00 0. -1.
          2    1    6    6  503    0  0.28414988092E+01  0.74120721374E+02  0.72357341480E+03  0.72736541165E+03  0.00000000000E+00 0. -1.
         -2    1    6    6    0  503 -0.35285720314E+01 -0.30989873004E+02  0.27838250902E+03  0.28012433736E+03  0.00000000000E+00 0.  1.
<mgrwt>
<rscale>  0 0.18879490E+04</rscale>
<asrwt>0</asrwt>
<pdfrwt beam="1">  1        1 0.19037386E+00 0.18879490E+04</pdfrwt>
<pdfrwt beam="2">  1       -2 0.11078641E+00 0.18879490E+04</pdfrwt>
<totfact> 0.53243099E+00</totfact>
</mgrwt>
</event>
<event>
12    4  0.4486176E-008  0.2002029E+04  0.7818608E-02  0.8605673E-01
          1   -1    0    0  501    0  0.00000000000E+00  0.00000000000E+00  0.10911046815E+04  0.10911046815E+04  0.00000000000E+00 0. -1.
         -2   -1    0    0    0  501 -0.00000000000E+00 -0.00000000000E+00 -0.91836281622E+03  0.91836281622E+03  0.00000000000E+00 0.  1.
        -24    2    1    2    0    0 -0.59796193491E+03  0.37469714000E+03  0.44267288606E+03  0.83688956023E+03  0.80426548137E+02 0.  0.
        254    2    1    2    0    0  0.59796193491E+03 -0.37469714000E+03 -0.26993102073E+03  0.11725779375E+04  0.89672729484E+03 0.  0.
         23    2    4    4    0    0  0.24255736337E+03 -0.24317690440E+03  0.31273360513E+03  0.47200442897E+03  0.83766292951E+02 0.  0.
         23    2    4    4    0    0  0.35540457154E+03 -0.13152023560E+03 -0.58266462586E+03  0.70057350856E+03  0.87722248135E+02 0.  0.
          1    1    3    3  502    0 -0.47343408854E+03  0.25707956368E+03  0.34444856642E+03  0.63943299349E+03  0.00000000000E+00 0. -1.
         -2    1    3    3    0  502 -0.12452784637E+03  0.11761757632E+03  0.98224319639E+02  0.19745656674E+03  0.00000000000E+00 0.  1.
         11    1    5    5    0    0  0.23343882431E+03 -0.20440101018E+03  0.29591858105E+03  0.42876714458E+03  0.00000000000E+00 0. -1.
        -11    1    5    5    0    0  0.91185390593E+01 -0.38775894220E+02  0.16815024078E+02  0.43237284395E+02  0.00000000000E+00 0.  1.
          1    1    6    6  503    0  0.34933144424E+03 -0.13871185400E+03 -0.54700613284E+03  0.66369356313E+03  0.00000000000E+00 0. -1.
         -1    1    6    6    0  503  0.60731272991E+01  0.71916183911E+01 -0.35658493021E+02  0.36879945429E+02  0.00000000000E+00 0.  1.
<mgrwt>
<rscale>  0 0.20020289E+04</rscale>
<asrwt>0</asrwt>
<pdfrwt beam="1">  1        1 0.16786226E+00 0.20020289E+04</pdfrwt>
<pdfrwt beam="2">  1       -2 0.14128659E+00 0.20020289E+04</pdfrwt>
<totfact> 0.36727086E+00</totfact>
</mgrwt>
</event>
<event>
12    4  0.4486176E-008  0.2809453E+04  0.7818608E-02  0.8300340E-01
         -2   -1    0    0    0  501 -0.00000000000E+00  0.00000000000E+00  0.15516050199E+04  0.15516050199E+04  0.00000000000E+00 0.  1.
          1   -1    0    0  501    0  0.00000000000E+00 -0.00000000000E+00 -0.12717519656E+04  0.12717519656E+04  0.00000000000E+00 0. -1.
        -24    2    1    2    0    0 -0.12088777712E+04  0.33647957527E+03  0.24548427605E+03  0.12811357505E+04  0.80264009258E+02 0.  0.
        254    2    1    2    0    0  0.12088777712E+04 -0.33647957527E+03  0.34368778204E+02  0.15422212350E+04  0.89591358658E+03 0.  0.
         23    2    4    4    0    0 -0.10423196735E+03  0.19960277323E+02  0.10911876225E+03  0.17641436997E+03  0.89176285896E+02 0.  0.
         23    2    4    4    0    0  0.13131097385E+04 -0.35643985259E+03 -0.74749984048E+02  0.13658068650E+04  0.92381159273E+02 0.  0.
          1    1    3    3  502    0 -0.10781724012E+04  0.32536267720E+03  0.21746472824E+03  0.11469993489E+04  0.00000000000E+00 0. -1.
         -2    1    3    3    0  502 -0.13070537000E+03  0.11116898069E+02  0.28019547807E+02  0.13413640158E+03  0.00000000000E+00 0.  1.
         11    1    5    5    0    0 -0.52485215991E+02  0.26520214110E+02  0.38494264680E+01  0.58930787693E+02  0.00000000000E+00 0.  1.
        -11    1    5    5    0    0 -0.51746751360E+02 -0.65599367870E+01  0.10526933578E+03  0.11748358227E+03  0.00000000000E+00 0. -1.
          4    1    6    6  503    0  0.30922535060E+03 -0.11551242028E+03  0.71447639214E+01  0.33017341557E+03  0.00000000000E+00 0.  1.
         -4    1    6    6    0  503  0.10038843879E+04 -0.24092743231E+03 -0.81894747970E+02  0.10356334495E+04  0.00000000000E+00 0. -1.
<mgrwt>
<rscale>  0 0.28094531E+04</rscale>
<asrwt>0</asrwt>
<pdfrwt beam="1">  1        1 0.19565415E+00 0.28094531E+04</pdfrwt>
<pdfrwt beam="2">  1       -2 0.23870847E+00 0.28094531E+04</pdfrwt>
<totfact> 0.54300966E-01</totfact>
</mgrwt>
</event>
<event>
12    4  0.4486176E-008  0.1299871E+04  0.7818608E-02  0.9029668E-01
          1   -1    0    0  501    0  0.00000000000E+00  0.00000000000E+00  0.51548806999E+03  0.51548806999E+03  0.00000000000E+00 0. -1.
         -2   -1    0    0    0  501 -0.00000000000E+00 -0.00000000000E+00 -0.81944845740E+03  0.81944845740E+03  0.00000000000E+00 0.  1.
        -24    2    1    2    0    0 -0.14373216501E+03  0.21993997589E+03 -0.28788515874E+03  0.39769003013E+03  0.79037757961E+02 0.  0.
        254    2    1    2    0    0  0.14373216501E+03 -0.21993997589E+03 -0.16075228663E+02  0.93724649727E+03  0.89952212613E+03 0.  0.
         23    2    4    4    0    0 -0.11580705103E+03 -0.51296571238E+03  0.13100913623E+02  0.53391166047E+03  0.91350599899E+02 0.  0.
         23    2    4    4    0    0  0.25953921604E+03  0.29302573649E+03 -0.29176142286E+02  0.40333483679E+03  0.92752662409E+02 0.  0.
          3    1    3    3  502    0 -0.25186321450E+02  0.46976273707E+01 -0.12168549025E+02  0.28363569530E+02  0.00000000000E+00 0. -1.
         -4    1    3    3    0  502 -0.11854584356E+03  0.21524234852E+03 -0.27571660972E+03  0.36932646060E+03  0.00000000000E+00 0.  1.
         11    1    5    5    0    0 -0.95686406508E+02 -0.32719351509E+03 -0.29778680828E+02  0.34219622227E+03  0.00000000000E+00 0. -1.
        -11    1    5    5    0    0 -0.20120644523E+02 -0.18577219729E+03  0.42879594451E+02  0.19171543820E+03  0.00000000000E+00 0.  1.
          2    1    6    6  503    0  0.13249195696E+03  0.15926452435E+03  0.30586939217E+02  0.20941553960E+03  0.00000000000E+00 0. -1.
         -2    1    6    6    0  503  0.12704725909E+03  0.13376121214E+03 -0.59763081502E+02  0.19391929719E+03  0.00000000000E+00 0.  1.
<mgrwt>
<rscale>  0 0.12998706E+04</rscale>
<asrwt>0</asrwt>
<pdfrwt beam="1">  1        1 0.79305858E-01 0.12998706E+04</pdfrwt>
<pdfrwt beam="2">  1       -2 0.12606899E+00 0.12998706E+04</pdfrwt>
<totfact> 0.17126352E+01</totfact>
</mgrwt>
</event>
<event>
12    4  0.4486176E-008  0.1553425E+04  0.7818608E-02  0.8849683E-01
         -2   -1    0    0    0  501 -0.00000000000E+00  0.00000000000E+00  0.17628280121E+04  0.17628280121E+04  0.00000000000E+00 0.  1.
          1   -1    0    0  501    0  0.00000000000E+00 -0.00000000000E+00 -0.34222404909E+03  0.34222404909E+03  0.00000000000E+00 0. -1.
        -24    2    1    2    0    0  0.99756922588E+02 -0.49519720948E+03  0.38573741625E+03  0.64110715897E+03  0.83984016942E+02 0.  0.
        254    2    1    2    0    0 -0.99756922588E+02  0.49519720948E+03  0.10348665468E+04  0.14639449022E+04  0.90388837102E+03 0.  0.
         23    2    4    4    0    0  0.40043538950E+02 -0.25111384511E+03  0.26327733842E+03  0.37761257086E+03  0.92815130924E+02 0.  0.
         23    2    4    4    0    0 -0.13980046154E+03  0.74631105460E+03  0.77158920835E+03  0.10863323314E+04  0.90794650069E+02 0.  0.
          1    1    3    3  502    0  0.10318656415E+03 -0.43202225233E+03  0.30626708778E+03  0.53952777740E+03  0.00000000000E+00 0. -1.
         -2    1    3    3    0  502 -0.34296415605E+01 -0.63174957149E+02  0.79470328472E+02  0.10157938157E+03  0.00000000000E+00 0.  1.
         11    1    5    5    0    0  0.59344758583E+02 -0.22893788078E+03  0.25334608343E+03  0.34658129150E+03  0.00000000000E+00 0. -1.
        -11    1    5    5    0    0 -0.19301219634E+02 -0.22175964331E+02  0.99312549969E+01  0.31031279367E+02  0.00000000000E+00 0.  1.
          2    1    6    6  503    0 -0.12037188989E+03  0.58471030809E+03  0.65429802757E+03  0.88570957156E+03  0.00000000000E+00 0. -1.
         -2    1    6    6    0  503 -0.19428571650E+02  0.16160074650E+03  0.11729118078E+03  0.20062275981E+03  0.00000000000E+00 0.  1.
<mgrwt>
<rscale>  0 0.15534248E+04</rscale>
<asrwt>0</asrwt>
<pdfrwt beam="1">  1        1 0.52649854E-01 0.15534248E+04</pdfrwt>
<pdfrwt beam="2">  1       -2 0.27120431E+00 0.15534248E+04</pdfrwt>
<totfact> 0.29630026E+00</totfact>
</mgrwt>
</event>
<event>
12    4  0.4486176E-008  0.1189595E+04  0.7818608E-02  0.9122013E-01
         -2   -1    0    0    0  501 -0.00000000000E+00  0.00000000000E+00  0.97290114317E+03  0.97290114317E+03  0.00000000000E+00 0.  1.
          1   -1    0    0  501    0  0.00000000000E+00 -0.00000000000E+00 -0.36363840505E+03  0.36363840505E+03  0.00000000000E+00 0. -1.
        -24    2    1    2    0    0 -0.20176973010E+03  0.71555652893E+02 -0.11436408506E+02  0.22415926983E+03  0.65462595147E+02 0.  0.
        254    2    1    2    0    0  0.20176973010E+03 -0.71555652893E+02  0.62069914663E+03  0.11123802784E+04  0.89793720142E+03 0.  0.
         23    2    4    4    0    0  0.20003813529E+03 -0.77367246899E+02  0.84145797213E+03  0.87332331428E+03  0.92957764286E+02 0.  0.
         23    2    4    4    0    0  0.17315948150E+01  0.58115940055E+01 -0.22075882550E+03  0.23905696412E+03  0.91525952663E+02 0.  0.
          3    1    3    3  502    0 -0.11219542267E+03  0.24245469055E+02 -0.35290933159E+02  0.12008790780E+03  0.00000000000E+00 0. -1.
         -4    1    3    3    0  502 -0.89574307435E+02  0.47310183838E+02  0.23854524652E+02  0.10407136202E+03  0.00000000000E+00 0.  1.
         11    1    5    5    0    0  0.11067373342E+03 -0.32358636433E+02  0.61542264411E+03  0.62613160558E+03  0.00000000000E+00 0. -1.
        -11    1    5    5    0    0  0.89364401871E+02 -0.45008610465E+02  0.22603532802E+03  0.24719170870E+03  0.00000000000E+00 0.  1.
          3    1    6    6  503    0  0.29408990126E+00 -0.42882532708E+02 -0.10966466887E+03  0.11775116857E+03  0.00000000000E+00 0. -1.
         -3    1    6    6    0  503  0.14375049137E+01  0.48694126713E+02 -0.11109415663E+03  0.12130579555E+03  0.00000000000E+00 0.  1.
<mgrwt>
<rscale>  0 0.11895953E+04</rscale>
<asrwt>0</asrwt>
<pdfrwt beam="1">  1        1 0.55944370E-01 0.11895953E+04</pdfrwt>
<pdfrwt beam="2">  1       -2 0.14967710E+00 0.11895953E+04</pdfrwt>
<totfact> 0.17730652E+01</totfact>
</mgrwt>
</event>
<event>
12    4  0.4486176E-008  0.1925345E+04  0.7818608E-02  0.8642343E-01
         -2   -1    0    0    0  501 -0.00000000000E+00  0.00000000000E+00  0.16133092899E+04  0.16133092899E+04  0.00000000000E+00 0.  1.
          1   -1    0    0  501    0  0.00000000000E+00 -0.00000000000E+00 -0.57443286531E+03  0.57443286531E+03  0.00000000000E+00 0. -1.
        -24    2    1    2    0    0 -0.47399184071E+03  0.47201008758E+03  0.80823668651E+03  0.10522580082E+04  0.80861527059E+02 0.  0.
        254    2    1    2    0    0  0.47399184071E+03 -0.47201008758E+03  0.23063973805E+03  0.11354841470E+04  0.88806968840E+03 0.  0.
         23    2    4    4    0    0  0.37493665044E+03 -0.63468167060E+03 -0.94361109436E+02  0.74827232593E+03  0.87230384253E+02 0.  0.
         23    2    4    4    0    0  0.99055190265E+02  0.16267158303E+03  0.32500084749E+03  0.38721182105E+03  0.89629620405E+02 0.  0.
          3    1    3    3  502    0 -0.18229012786E+03  0.18527390531E+03  0.25389204849E+03  0.36334182665E+03  0.00000000000E+00 0. -1.
         -4    1    3    3    0  502 -0.29170171285E+03  0.28673618227E+03  0.55434463802E+03  0.68891618155E+03  0.00000000000E+00 0.  1.
         11    1    5    5    0    0  0.33821640662E+03 -0.54416465547E+03 -0.55366167212E+02  0.64309480051E+03  0.00000000000E+00 0.  1.
        -11    1    5    5    0    0  0.36720243820E+02 -0.90517015135E+02 -0.38994942224E+02  0.10517752542E+03  0.00000000000E+00 0. -1.
          2    1    6    6  503    0  0.64178412020E+02  0.28801853010E+02  0.86484177167E+02  0.11148061808E+03  0.00000000000E+00 0. -1.
         -2    1    6    6    0  503  0.34876778244E+02  0.13386973002E+03  0.23851667032E+03  0.27573120298E+03  0.00000000000E+00 0.  1.
<mgrwt>
<rscale>  0 0.19253445E+04</rscale>
<asrwt>0</asrwt>
<pdfrwt beam="1">  1        1 0.88374288E-01 0.19253445E+04</pdfrwt>
<pdfrwt beam="2">  1       -2 0.24820143E+00 0.19253445E+04</pdfrwt>
<totfact> 0.19644263E+00</totfact>
</mgrwt>
</event>
<event>
12    4  0.4486176E-008  0.1568326E+04  0.7818608E-02  0.8840246E-01
          1   -1    0    0  501    0  0.00000000000E+00  0.00000000000E+00  0.33517536496E+04  0.33517536496E+04  0.00000000000E+00 0. -1.
         -2   -1    0    0    0  501 -0.00000000000E+00 -0.00000000000E+00 -0.18345976539E+03  0.18345976539E+03  0.00000000000E+00 0.  1.
        -24    2    1    2    0    0  0.26466472071E+02  0.34851613280E+03  0.19255125381E+03  0.40729134405E+03  0.81524748566E+02 0.  0.
        254    2    1    2    0    0 -0.26466472071E+02 -0.34851613280E+03  0.29757426304E+04  0.31279220709E+04  0.89815828812E+03 0.  0.
         23    2    4    4    0    0 -0.38397284495E+03 -0.37588955982E+03  0.22282140622E+04  0.22939246357E+04  0.91783552679E+02 0.  0.
         23    2    4    4    0    0  0.35750637288E+03  0.27373427019E+02  0.74752856819E+03  0.83399743521E+03  0.90513261528E+02 0.  0.
          1    1    3    3  502    0  0.10332531518E+02  0.15188099496E+02 -0.55676291012E+01  0.19194740625E+02  0.00000000000E+00 0. -1.
         -2    1    3    3    0  502  0.16133940553E+02  0.33332803330E+03  0.19811888291E+03  0.38809660342E+03  0.00000000000E+00 0.  1.
         11    1    5    5    0    0 -0.38889753771E+03 -0.37158674340E+03  0.21857541833E+04  0.22509640940E+04  0.00000000000E+00 0.  1.
        -11    1    5    5    0    0  0.49246927584E+01 -0.43028164137E+01  0.42459878917E+02  0.42960541727E+02  0.00000000000E+00 0. -1.
          2    1    6    6  503    0  0.81493451886E+01 -0.76157242844E+01  0.41980036283E+01  0.11917815145E+02  0.00000000000E+00 0. -1.
         -2    1    6    6    0  503  0.34935702769E+03  0.34989151304E+02  0.74333056457E+03  0.82207962007E+03  0.00000000000E+00 0.  1.
<mgrwt>
<rscale>  0 0.15683264E+04</rscale>
<asrwt>0</asrwt>
<pdfrwt beam="1">  1        1 0.51565436E+00 0.15683264E+04</pdfrwt>
<pdfrwt beam="2">  1       -2 0.28224582E-01 0.15683264E+04</pdfrwt>
<totfact> 0.31907458E+00</totfact>
</mgrwt>
</event>
<event>
12    4  0.4486176E-008  0.1971227E+04  0.7818608E-02  0.8620192E-01
          1   -1    0    0  501    0  0.00000000000E+00  0.00000000000E+00  0.18519577202E+04  0.18519577202E+04  0.00000000000E+00 0. -1.
         -2   -1    0    0    0  501 -0.00000000000E+00 -0.00000000000E+00 -0.52454445957E+03  0.52454445957E+03  0.00000000000E+00 0.  1.
        -24    2    1    2    0    0 -0.17461172233E+03 -0.26659664071E+03 -0.32545187444E+03  0.46230546414E+03  0.79021498267E+02 0.  0.
        254    2    1    2    0    0  0.17461172233E+03  0.26659664071E+03  0.16528651351E+04  0.19141967156E+04  0.91138514853E+03 0.  0.
         23    2    4    4    0    0  0.52303244413E+03  0.17591317874E+03  0.72944988422E+03  0.91951462720E+03  0.94348460453E+02 0.  0.
         23    2    4    4    0    0 -0.34842072180E+03  0.90683461967E+02  0.92341525085E+03  0.99468208842E+03  0.84120400988E+02 0.  0.
          1    1    3    3  502    0 -0.11461312133E+02 -0.23305733107E+01 -0.35664696557E+02  0.37533502745E+02  0.00000000000E+00 0. -1.
         -2    1    3    3    0  502 -0.16315041019E+03 -0.26426606740E+03 -0.28978717788E+03  0.42477196140E+03  0.00000000000E+00 0.  1.
         11    1    5    5    0    0  0.11021013531E+03  0.76661319810E+02  0.15249728237E+03  0.20317148671E+03  0.00000000000E+00 0. -1.
        -11    1    5    5    0    0  0.41282230881E+03  0.99251858932E+02  0.57695260184E+03  0.71634314049E+03  0.00000000000E+00 0.  1.
          3    1    6    6  503    0 -0.17226157758E+02  0.16145382611E+02  0.25579655487E+02  0.34809950669E+02  0.00000000000E+00 0. -1.
         -3    1    6    6    0  503 -0.33119456404E+03  0.74538079356E+02  0.89783559536E+03  0.95987213775E+03  0.00000000000E+00 0.  1.
<mgrwt>
<rscale>  0 0.19712272E+04</rscale>
<asrwt>0</asrwt>
<pdfrwt beam="1">  1        1 0.28491657E+00 0.19712272E+04</pdfrwt>
<pdfrwt beam="2">  1       -2 0.80699148E-01 0.19712272E+04</pdfrwt>
<totfact> 0.41569322E+00</totfact>
</mgrwt>
</event>
<event>
12    4  0.4486176E-008  0.2043162E+04  0.7818608E-02  0.8586703E-01
          1   -1    0    0  501    0  0.00000000000E+00  0.00000000000E+00  0.27126197914E+03  0.27126197914E+03  0.00000000000E+00 0. -1.
         -2   -1    0    0    0  501 -0.00000000000E+00 -0.00000000000E+00 -0.38473073744E+04  0.38473073744E+04  0.00000000000E+00 0.  1.
        -24    2    1    2    0    0  0.49559712367E+03 -0.33813567119E+03 -0.25090431700E+04  0.25809981900E+04  0.79383793629E+02 0.  0.
        254    2    1    2    0    0 -0.49559712367E+03  0.33813567119E+03 -0.10670022253E+04  0.15375711636E+04  0.93041877300E+03 0.  0.
         23    2    4    4    0    0 -0.59876811847E+03 -0.26672217677E+02 -0.29847547097E+03  0.67557664260E+03  0.89897310064E+02 0.  0.
         23    2    4    4    0    0  0.10317099480E+03  0.36480788887E+03 -0.76852675430E+03  0.86199452096E+03  0.93124283276E+02 0.  0.
          1    1    3    3  502    0  0.10533462985E+03 -0.84926838633E+02 -0.44174298186E+03  0.46200088116E+03  0.00000000000E+00 0. -1.
         -2    1    3    3    0  502  0.39026249382E+03 -0.25320883256E+03 -0.20673001881E+04  0.21189973088E+04  0.00000000000E+00 0.  1.
         11    1    5    5    0    0 -0.51610765359E+03 -0.44821332198E+02 -0.23044208781E+03  0.56699172635E+03  0.00000000000E+00 0.  1.
        -11    1    5    5    0    0 -0.82660464882E+02  0.18149114521E+02 -0.68033383156E+02  0.10858491625E+03  0.00000000000E+00 0. -1.
          1    1    6    6  503    0  0.15289962995E+02  0.81920592682E+02 -0.96031162539E+02  0.12714853775E+03  0.00000000000E+00 0. -1.
         -1    1    6    6    0  503  0.87881031809E+02  0.28288729619E+03 -0.67249559176E+03  0.73484598320E+03  0.00000000000E+00 0.  1.
<mgrwt>
<rscale>  0 0.20431625E+04</rscale>
<asrwt>0</asrwt>
<pdfrwt beam="1">  1        1 0.41732619E-01 0.20431625E+04</pdfrwt>
<pdfrwt beam="2">  1       -2 0.59189335E+00 0.20431625E+04</pdfrwt>
<totfact> 0.43328345E-02</totfact>
</mgrwt>
</event>
<event>
12    4  0.4486176E-008  0.1336658E+04  0.7818608E-02  0.9000990E-01
          1   -1    0    0  501    0  0.00000000000E+00  0.00000000000E+00  0.53640859112E+03  0.53640859112E+03  0.00000000000E+00 0. -1.
         -2   -1    0    0    0  501 -0.00000000000E+00 -0.00000000000E+00 -0.83269302675E+03  0.83269302675E+03  0.00000000000E+00 0.  1.
        -24    2    1    2    0    0 -0.12236972026E+03  0.10009855458E+03  0.24555684690E+03  0.30257533107E+03  0.79117614026E+02 0.  0.
        254    2    1    2    0    0  0.12236972026E+03 -0.10009855458E+03 -0.54184128253E+03  0.10665262868E+04  0.90492666880E+03 0.  0.
         23    2    4    4    0    0  0.45728493871E+03  0.11079357613E+03 -0.14647335184E+03  0.49966285856E+03  0.82606281495E+02 0.  0.
         23    2    4    4    0    0 -0.33491521845E+03 -0.21089213071E+03 -0.39536793069E+03  0.56686342823E+03  0.91513120954E+02 0.  0.
          1    1    3    3  502    0 -0.10153591918E+03  0.10127752459E+03  0.16157437220E+03  0.21603925019E+03  0.00000000000E+00 0. -1.
         -2    1    3    3    0  502 -0.20833801075E+02 -0.11789700103E+01  0.83982474700E+02  0.86536080881E+02  0.00000000000E+00 0.  1.
         11    1    5    5    0    0  0.23650532961E+03  0.87960452063E+02 -0.10764875247E+03  0.27433568119E+03  0.00000000000E+00 0.  1.
        -11    1    5    5    0    0  0.22077960909E+03  0.22833124069E+02 -0.38824599365E+02  0.22532717737E+03  0.00000000000E+00 0. -1.
          2    1    6    6  503    0 -0.20716151300E+03 -0.80181372204E+02 -0.23944341224E+03  0.32661612420E+03  0.00000000000E+00 0. -1.
         -2    1    6    6    0  503 -0.12775370545E+03 -0.13071075851E+03 -0.15592451845E+03  0.24024730404E+03  0.00000000000E+00 0.  1.
<mgrwt>
<rscale>  0 0.13366581E+04</rscale>
<asrwt>0</asrwt>
<pdfrwt beam="1">  1        1 0.82524399E-01 0.13366581E+04</pdfrwt>
<pdfrwt beam="2">  1       -2 0.12810662E+00 0.13366581E+04</pdfrwt>
<totfact> 0.15516442E+01</totfact>
</mgrwt>
</event>
<event>
12    4  0.5118969E-008  0.1711058E+04  0.7818608E-02  0.8755083E-01
         -2   -1    0    0    0  501 -0.00000000000E+00  0.00000000000E+00  0.52255253000E+03  0.52255253000E+03  0.00000000000E+00 0.  1.
          1   -1    0    0  501    0  0.00000000000E+00 -0.00000000000E+00 -0.14006814092E+04  0.14006814092E+04  0.00000000000E+00 0. -1.
        -24    2    1    2    0    0 -0.77883669551E+02 -0.33188616716E+03  0.24809334914E+03  0.42922344772E+03  0.80424898204E+02 0.  0.
        254    2    1    2    0    0  0.77883669551E+02  0.33188616716E+03 -0.11262222283E+04  0.14940104915E+04  0.92058489402E+03 0.  0.
         23    2    4    4    0    0  0.16713481800E+03 -0.27299016472E+03 -0.22780419874E+03  0.40334134208E+03  0.91278737111E+02 0.  0.
         23    2    4    4    0    0 -0.89251148445E+02  0.60487633188E+03 -0.89841802960E+03  0.10906691494E+04  0.92536982697E+02 0.  0.
          1    1    3    3  502    0 -0.38308750081E+02 -0.86437523627E+02  0.31988811943E+02  0.99811271473E+02  0.00000000000E+00 0. -1.
         -2    1    3    3    0  502 -0.39574919470E+02 -0.24544864353E+03  0.21610453720E+03  0.32941217625E+03  0.00000000000E+00 0.  1.
         11    1    5    5    0    0  0.57653032167E+02 -0.29819114494E+02 -0.59071581977E+02  0.87763907755E+02  0.00000000000E+00 0. -1.
        -11    1    5    5    0    0  0.10948178583E+03 -0.24317105022E+03 -0.16873261676E+03  0.31557743432E+03  0.00000000000E+00 0.  1.
          3    1    6    6  503    0 -0.25711790424E+02  0.28548384018E+02 -0.61792218632E+02  0.72762522498E+02  0.00000000000E+00 0. -1.
         -3    1    6    6    0  503 -0.63539358021E+02  0.57632794786E+03 -0.83662581097E+03  0.10179066269E+04  0.00000000000E+00 0.  1.
<mgrwt>
<rscale>  0 0.17110577E+04</rscale>
<asrwt>0</asrwt>
<pdfrwt beam="1">  1        1 0.21548945E+00 0.17110577E+04</pdfrwt>
<pdfrwt beam="2">  1       -2 0.80392696E-01 0.17110577E+04</pdfrwt>
<totfact> 0.87520892E+00</totfact>
</mgrwt>
</event>
<event>
12    4  0.4486176E-008  0.1599934E+04  0.7818608E-02  0.8820589E-01
         -2   -1    0    0    0  501 -0.00000000000E+00  0.00000000000E+00  0.54917894057E+03  0.54917894057E+03  0.00000000000E+00 0.  1.
          1   -1    0    0  501    0  0.00000000000E+00 -0.00000000000E+00 -0.11652792618E+04  0.11652792618E+04  0.00000000000E+00 0. -1.
        -24    2    1    2    0    0  0.81492207939E+02 -0.48728087089E+03 -0.47033653702E+03  0.68693950221E+03  0.81152908463E+02 0.  0.
        254    2    1    2    0    0 -0.81492207939E+02  0.48728087089E+03 -0.14576378424E+03  0.10275187002E+04  0.88908040770E+03 0.  0.
         23    2    4    4    0    0  0.34927432378E+03  0.29616326127E+02 -0.15005153444E+03  0.39223694143E+03  0.92003669571E+02 0.  0.
         23    2    4    4    0    0 -0.43076653172E+03  0.45766454476E+03  0.42877502006E+01  0.63528175875E+03  0.92454788000E+02 0.  0.
          1    1    3    3  502    0  0.89954295299E+02 -0.35408493223E+03 -0.36997058642E+03  0.51994821790E+03  0.00000000000E+00 0. -1.
         -2    1    3    3    0  502 -0.84620873596E+01 -0.13319593866E+03 -0.10036595059E+03  0.16699128431E+03  0.00000000000E+00 0.  1.
         11    1    5    5    0    0  0.35377024421E+03  0.34609347037E+02 -0.14904910990E+03  0.38544367909E+03  0.00000000000E+00 0. -1.
        -11    1    5    5    0    0 -0.44959204300E+01 -0.49930209104E+01 -0.10024245436E+01  0.67932623451E+01  0.00000000000E+00 0.  1.
          4    1    6    6  503    0 -0.78793449177E+02  0.54708611011E+02  0.27370841259E+02  0.99752707748E+02  0.00000000000E+00 0. -1.
         -4    1    6    6    0  503 -0.35197308254E+03  0.40295593375E+03 -0.23083091059E+02  0.53552905101E+03  0.00000000000E+00 0.  1.
<mgrwt>
<rscale>  0 0.15999335E+04</rscale>
<asrwt>0</asrwt>
<pdfrwt beam="1">  1        1 0.17927373E+00 0.15999335E+04</pdfrwt>
<pdfrwt beam="2">  1       -2 0.84489069E-01 0.15999335E+04</pdfrwt>
<totfact> 0.11650397E+01</totfact>
</mgrwt>
</event>
<event>
12    4  0.4486176E-008  0.3043433E+04  0.7818608E-02  0.8231436E-01
         -2   -1    0    0    0  501 -0.00000000000E+00  0.00000000000E+00  0.23537584972E+04  0.23537584972E+04  0.00000000000E+00 0.  1.
          1   -1    0    0  501    0  0.00000000000E+00 -0.00000000000E+00 -0.98379726636E+03  0.98379726636E+03  0.00000000000E+00 0. -1.
        -24    2    1    2    0    0 -0.60996827275E+03  0.85864032767E+03 -0.36608333405E+03  0.11178978232E+04  0.79712166686E+02 0.  0.
        254    2    1    2    0    0  0.60996827275E+03 -0.85864032767E+03  0.17360445649E+04  0.22196579404E+04  0.89649658948E+03 0.  0.
         23    2    4    4    0    0 -0.36895455344E+02  0.94940358215E+02  0.41822384334E+01  0.13758853348E+03  0.92402203355E+02 0.  0.
         23    2    4    4    0    0  0.64686372810E+03 -0.95358068589E+03  0.17318623265E+04  0.20820694069E+04  0.88978031660E+02 0.  0.
          1    1    3    3  502    0 -0.58477019590E+03  0.82019540062E+03 -0.33178828497E+03  0.10605470962E+04  0.00000000000E+00 0. -1.
         -2    1    3    3    0  502 -0.25198076854E+02  0.38444927049E+02 -0.34295049083E+02  0.57350726974E+02  0.00000000000E+00 0.  1.
         11    1    5    5    0    0 -0.42014340735E+01 -0.42574038669E+01  0.29513921739E+02  0.30113935518E+02  0.00000000000E+00 0.  1.
        -11    1    5    5    0    0 -0.32694021270E+02  0.99197762082E+02 -0.25331683305E+02  0.10747459797E+03  0.00000000000E+00 0. -1.
          2    1    6    6  503    0  0.30235461879E+03 -0.43597752107E+03  0.71850078777E+03  0.89316185343E+03  0.00000000000E+00 0. -1.
         -2    1    6    6    0  503  0.34450910930E+03 -0.51760316482E+03  0.10133615387E+04  0.11889075535E+04  0.00000000000E+00 0.  1.
<mgrwt>
<rscale>  0 0.30434330E+04</rscale>
<asrwt>0</asrwt>
<pdfrwt beam="1">  1        1 0.15135343E+00 0.30434330E+04</pdfrwt>
<pdfrwt beam="2">  1       -2 0.36211669E+00 0.30434330E+04</pdfrwt>
<totfact> 0.15107138E-01</totfact>
</mgrwt>
</event>
<event>
12    4  0.4486176E-008  0.1541793E+04  0.7818608E-02  0.8857127E-01
         -2   -1    0    0    0  501 -0.00000000000E+00  0.00000000000E+00  0.10278473382E+04  0.10278473382E+04  0.00000000000E+00 0.  1.
          1   -1    0    0  501    0  0.00000000000E+00 -0.00000000000E+00 -0.57818058299E+03  0.57818058299E+03  0.00000000000E+00 0. -1.
        -24    2    1    2    0    0  0.21055188222E+03  0.22373784159E+03  0.53842831456E+03  0.62497579203E+03  0.79366074840E+02 0.  0.
        254    2    1    2    0    0 -0.21055188222E+03 -0.22373784159E+03 -0.88761559376E+02  0.98105212914E+03  0.92746641384E+03 0.  0.
         23    2    4    4    0    0 -0.27218628974E+03 -0.44371698532E+03 -0.33973331552E+03  0.62823581071E+03  0.91056953597E+02 0.  0.
         23    2    4    4    0    0  0.61634407523E+02  0.21997914373E+03  0.25097175615E+03  0.35281631844E+03  0.96451585290E+02 0.  0.
          3    1    3    3  502    0  0.11531559932E+01  0.81043343573E+00 -0.28972871069E+01  0.32219316687E+01  0.00000000000E+00 0. -1.
         -4    1    3    3    0  502  0.20939872622E+03  0.22292740815E+03  0.54132560167E+03  0.62175386036E+03  0.00000000000E+00 0.  1.
         11    1    5    5    0    0 -0.15590474924E+03 -0.27018294305E+03 -0.25465419202E+03  0.40268333845E+03  0.00000000000E+00 0.  1.
        -11    1    5    5    0    0 -0.11628154050E+03 -0.17353404227E+03 -0.85079123505E+02  0.22555247226E+03  0.00000000000E+00 0. -1.
          3    1    6    6  503    0  0.98695914150E+01 -0.82237193262E+01  0.64744111757E+01  0.14385979088E+02  0.00000000000E+00 0. -1.
         -3    1    6    6    0  503  0.51764816108E+02  0.22820286305E+03  0.24449734497E+03  0.33843033935E+03  0.00000000000E+00 0.  1.
<mgrwt>
<rscale>  0 0.15417929E+04</rscale>
<asrwt>0</asrwt>
<pdfrwt beam="1">  1        1 0.88950859E-01 0.15417929E+04</pdfrwt>
<pdfrwt beam="2">  1       -2 0.15813036E+00 0.15417929E+04</pdfrwt>
<totfact> 0.79198650E+00</totfact>
</mgrwt>
</event>
<event>
12    4  0.4486176E-008  0.1459207E+04  0.7818608E-02  0.8912042E-01
         -2   -1    0    0    0  501 -0.00000000000E+00  0.00000000000E+00  0.10939781559E+04  0.10939781559E+04  0.00000000000E+00 0.  1.
          1   -1    0    0  501    0  0.00000000000E+00 -0.00000000000E+00 -0.48659211806E+03  0.48659211806E+03  0.00000000000E+00 0. -1.
        -24    2    1    2    0    0 -0.30793498038E+03  0.82205980235E+02  0.52682600879E+03  0.62115979164E+03  0.81927210896E+02 0.  0.
        254    2    1    2    0    0  0.30793498038E+03 -0.82205980235E+02  0.80560029068E+02  0.95941048234E+03  0.90133056090E+03 0.  0.
         23    2    4    4    0    0  0.93599141409E+02  0.30819593449E+02 -0.39551609408E+03  0.41756810603E+03  0.90661435470E+02 0.  0.
         23    2    4    4    0    0  0.21433583897E+03 -0.11302557368E+03  0.47607612315E+03  0.54184237631E+03  0.90719642620E+02 0.  0.
          3    1    3    3  502    0 -0.11860203430E+03 -0.30244089067E+01  0.23176056341E+03  0.26036234048E+03  0.00000000000E+00 0. -1.
         -4    1    3    3    0  502 -0.18933294608E+03  0.85230389142E+02  0.29506544537E+03  0.36079745115E+03  0.00000000000E+00 0.  1.
         11    1    5    5    0    0 -0.13904454901E+02  0.61861778240E+01 -0.14912526921E+02  0.21306950071E+02  0.00000000000E+00 0.  1.
        -11    1    5    5    0    0  0.10750359631E+03  0.24633415625E+02 -0.38060356716E+03  0.39626115596E+03  0.00000000000E+00 0. -1.
          4    1    6    6  503    0 -0.20965439681E+01 -0.22935532795E+02  0.59971766168E+02  0.64242096000E+02  0.00000000000E+00 0.  1.
         -4    1    6    6    0  503  0.21643238294E+03 -0.90090040889E+02  0.41610435698E+03  0.47760028031E+03  0.00000000000E+00 0. -1.
<mgrwt>
<rscale>  0 0.14592068E+04</rscale>
<asrwt>0</asrwt>
<pdfrwt beam="1">  1        1 0.74860326E-01 0.14592068E+04</pdfrwt>
<pdfrwt beam="2">  1       -2 0.16830433E+00 0.14592068E+04</pdfrwt>
<totfact> 0.85505733E+00</totfact>
</mgrwt>
</event>
<event>
12    4  0.4486176E-008  0.1541025E+04  0.7818608E-02  0.8857621E-01
         -2   -1    0    0    0  501 -0.00000000000E+00  0.00000000000E+00  0.24907482698E+03  0.24907482698E+03  0.00000000000E+00 0.  1.
          1   -1    0    0  501    0  0.00000000000E+00 -0.00000000000E+00 -0.23835784179E+04  0.23835784179E+04  0.00000000000E+00 0. -1.
        -24    2    1    2    0    0  0.38365722651E+03 -0.32237689823E+03 -0.78420810792E+03  0.93410290936E+03  0.80287961535E+02 0.  0.
        254    2    1    2    0    0 -0.38365722651E+03  0.32237689823E+03 -0.13502954830E+04  0.16985503355E+04  0.90036415907E+03 0.  0.
         23    2    4    4    0    0 -0.27693734262E+02  0.18352316046E+03  0.75529877515E+02  0.21992442332E+03  0.90632754748E+02 0.  0.
         23    2    4    4    0    0 -0.35596349225E+03  0.13885373776E+03 -0.14258253605E+04  0.14786259122E+04  0.85826926091E+02 0.  0.
          1    1    3    3  502    0  0.37921539810E+03 -0.31669985768E+03 -0.74302926024E+03  0.89229793207E+03  0.00000000000E+00 0. -1.
         -2    1    3    3    0  502  0.44418284156E+01 -0.56770405452E+01 -0.41178847683E+02  0.41804977281E+02  0.00000000000E+00 0.  1.
         11    1    5    5    0    0  0.22154775094E+02  0.12139592152E+03  0.25946809346E+02  0.12609932885E+03  0.00000000000E+00 0.  1.
        -11    1    5    5    0    0 -0.49848509356E+02  0.62127238939E+02  0.49583068170E+02  0.93825094470E+02  0.00000000000E+00 0. -1.
          3    1    6    6  503    0 -0.41570602607E+02  0.19988199452E+02 -0.89598883205E+02  0.10077501173E+03  0.00000000000E+00 0.  1.
         -3    1    6    6    0  503 -0.31439288964E+03  0.11886553831E+03 -0.13362264773E+04  0.13778509005E+04  0.00000000000E+00 0. -1.
<mgrwt>
<rscale>  0 0.15410248E+04</rscale>
<asrwt>0</asrwt>
<pdfrwt beam="1">  1        1 0.36670437E+00 0.15410248E+04</pdfrwt>
<pdfrwt beam="2">  1       -2 0.38319204E-01 0.15410248E+04</pdfrwt>
<totfact> 0.88945312E+00</totfact>
</mgrwt>
</event>
<event>
12    4  0.4486176E-008  0.2395468E+04  0.7818608E-02  0.8441202E-01
          1   -1    0    0  501    0  0.00000000000E+00  0.00000000000E+00  0.67570502124E+03  0.67570502124E+03  0.00000000000E+00 0. -1.
         -2   -1    0    0    0  501 -0.00000000000E+00 -0.00000000000E+00 -0.21230662680E+04  0.21230662680E+04  0.00000000000E+00 0.  1.
        -24    2    1    2    0    0 -0.42766744889E+02  0.10182500065E+04 -0.66348442246E+03  0.12187329580E+04  0.80227014700E+02 0.  0.
        254    2    1    2    0    0  0.42766744889E+02 -0.10182500065E+04 -0.78387682425E+03  0.15800383312E+04  0.91836603926E+03 0.  0.
         23    2    4    4    0    0 -0.23822664452E+03 -0.95507632226E+03 -0.34410523370E+03  0.10464396530E+04  0.87777104304E+02 0.  0.
         23    2    4    4    0    0  0.28099338941E+03 -0.63173684271E+02 -0.43977159055E+03  0.53359867815E+03  0.91543968567E+02 0.  0.
          1    1    3    3  502    0 -0.31782749016E+02  0.10028293416E+04 -0.64981323599E+03  0.11953803048E+04  0.00000000000E+00 0. -1.
         -2    1    3    3    0  502 -0.10983995872E+02  0.15420664929E+02 -0.13671186467E+02  0.23352653202E+02  0.00000000000E+00 0.  1.
         11    1    5    5    0    0 -0.19118447376E+03 -0.74314697037E+03 -0.22934757120E+03  0.80088652816E+03  0.00000000000E+00 0. -1.
        -11    1    5    5    0    0 -0.47042170765E+02 -0.21192935189E+03 -0.11475766250E+03  0.24555312485E+03  0.00000000000E+00 0.  1.
          1    1    6    6  503    0  0.13694133781E+03 -0.70505906028E+02 -0.26984130188E+03  0.31070619722E+03  0.00000000000E+00 0. -1.
         -1    1    6    6    0  503  0.14405205160E+03  0.73322217569E+01 -0.16993028867E+03  0.22289248093E+03  0.00000000000E+00 0.  1.
<mgrwt>
<rscale>  0 0.23954678E+04</rscale>
<asrwt>0</asrwt>
<pdfrwt beam="1">  1        1 0.10395462E+00 0.23954678E+04</pdfrwt>
<pdfrwt beam="2">  1       -2 0.32662558E+00 0.23954678E+04</pdfrwt>
<totfact> 0.49221554E-01</totfact>
</mgrwt>
</event>
<event>
12    4  0.4486176E-008  0.1513236E+04  0.7818608E-02  0.8875698E-01
          1   -1    0    0  501    0  0.00000000000E+00  0.00000000000E+00  0.16288239306E+04  0.16288239306E+04  0.00000000000E+00 0. -1.
         -2   -1    0    0    0  501 -0.00000000000E+00 -0.00000000000E+00 -0.35146289322E+03  0.35146289322E+03  0.00000000000E+00 0.  1.
        -24    2    1    2    0    0 -0.29630608149E+03  0.38059165960E+03  0.35917244948E+03  0.60496373522E+03  0.65794887259E+02 0.  0.
        254    2    1    2    0    0  0.29630608149E+03 -0.38059165960E+03  0.91818858793E+03  0.13753230886E+04  0.90321426573E+03 0.  0.
         23    2    4    4    0    0  0.21318047070E+03  0.27345037367E+03  0.31554329739E+03  0.47743720319E+03  0.90319934212E+02 0.  0.
         23    2    4    4    0    0  0.83125610790E+02 -0.65404203327E+03  0.60264529054E+03  0.89788588543E+03  0.91306454333E+02 0.  0.
          1    1    3    3  502    0 -0.85418888104E+02  0.10120675005E+03  0.13600846086E+03  0.18983543959E+03  0.00000000000E+00 0. -1.
         -2    1    3    3    0  502 -0.21088719338E+03  0.27938490955E+03  0.22316398862E+03  0.41512829563E+03  0.00000000000E+00 0.  1.
         11    1    5    5    0    0  0.21216094238E+03  0.22761410385E+03  0.26056217259E+03  0.40584860666E+03  0.00000000000E+00 0. -1.
        -11    1    5    5    0    0  0.10195283182E+01  0.45836269821E+02  0.54981124803E+02  0.71588596534E+02  0.00000000000E+00 0.  1.
          4    1    6    6  503    0  0.19588332076E+02 -0.37921612563E+03  0.39265639402E+03  0.54623036940E+03  0.00000000000E+00 0. -1.
         -4    1    6    6    0  503  0.63537278714E+02 -0.27482590764E+03  0.20998889652E+03  0.35165551604E+03  0.00000000000E+00 0.  1.
<mgrwt>
<rscale>  0 0.15132365E+04</rscale>
<asrwt>0</asrwt>
<pdfrwt beam="1">  1        1 0.25058829E+00 0.15132365E+04</pdfrwt>
<pdfrwt beam="2">  1       -2 0.54071215E-01 0.15132365E+04</pdfrwt>
<totfact> 0.14563834E+01</totfact>
</mgrwt>
</event>
<event>
12    4  0.4486176E-008  0.2056101E+04  0.7818608E-02  0.8580832E-01
          1   -1    0    0  501    0  0.00000000000E+00  0.00000000000E+00  0.10261660971E+04  0.10261660971E+04  0.00000000000E+00 0. -1.
         -2   -1    0    0    0  501 -0.00000000000E+00 -0.00000000000E+00 -0.10299382174E+04  0.10299382174E+04  0.00000000000E+00 0.  1.
        -24    2    1    2    0    0 -0.58487990489E+03 -0.54843203037E+03 -0.20632417536E+03  0.83186423149E+03  0.81032334461E+02 0.  0.
        254    2    1    2    0    0  0.58487990489E+03  0.54843203037E+03  0.20255205501E+03  0.12242400830E+04  0.90270385548E+03 0.  0.
         23    2    4    4    0    0  0.66268201850E+03  0.72790070040E+03  0.20530257914E+03  0.10097240760E+04  0.91687912336E+02 0.  0.
         23    2    4    4    0    0 -0.77802113610E+02 -0.17946867004E+03 -0.27505241299E+01  0.21451600702E+03  0.88019199485E+02 0.  0.
          3    1    3    3  502    0 -0.11340030842E+03 -0.11801814501E+03 -0.10053823731E+02  0.16397863237E+03  0.00000000000E+00 0. -1.
         -4    1    3    3    0  502 -0.47147959647E+03 -0.43041388536E+03 -0.19627035162E+03  0.66788559913E+03  0.00000000000E+00 0.  1.
         11    1    5    5    0    0  0.21043579826E+03  0.17056145606E+03  0.58557189939E+02  0.27713422737E+03  0.00000000000E+00 0. -1.
        -11    1    5    5    0    0  0.45224622023E+03  0.55733924434E+03  0.14674538920E+03  0.73258984858E+03  0.00000000000E+00 0.  1.
          3    1    6    6  503    0 -0.90274997534E+02 -0.17998295380E+03 -0.65703540045E+01  0.20146118333E+03  0.00000000000E+00 0. -1.
         -3    1    6    6    0  503  0.12472883924E+02  0.51428376498E+00  0.38198298747E+01  0.13054823685E+02  0.00000000000E+00 0.  1.
<mgrwt>
<rscale>  0 0.20561009E+04</rscale>
<asrwt>0</asrwt>
<pdfrwt beam="1">  1        1 0.15787171E+00 0.20561009E+04</pdfrwt>
<pdfrwt beam="2">  1       -2 0.15845203E+00 0.20561009E+04</pdfrwt>
<totfact> 0.30221427E+00</totfact>
</mgrwt>
</event>
<event>
12    4  0.4486176E-008  0.2085743E+04  0.7818608E-02  0.8567550E-01
         -2   -1    0    0    0  501 -0.00000000000E+00  0.00000000000E+00  0.39750903571E+03  0.39750903571E+03  0.00000000000E+00 0.  1.
          1   -1    0    0  501    0  0.00000000000E+00 -0.00000000000E+00 -0.27359892989E+04  0.27359892989E+04  0.00000000000E+00 0. -1.
        -24    2    1    2    0    0  0.54905107036E+03 -0.29809203847E+03 -0.18133420555E+04  0.19196443872E+04  0.80679748914E+02 0.  0.
        254    2    1    2    0    0 -0.54905107036E+03  0.29809203847E+03 -0.52513820773E+03  0.12138539474E+04  0.89852953607E+03 0.  0.
         23    2    4    4    0    0 -0.65688998647E+03  0.39665374403E+03 -0.13121579796E+03  0.78379327825E+03  0.90970711871E+02 0.  0.
         23    2    4    4    0    0  0.10783891611E+03 -0.98561705563E+02 -0.39392240977E+03  0.43006066918E+03  0.91835029373E+02 0.  0.
          1    1    3    3  502    0  0.45364281079E+03 -0.24273285451E+03 -0.15774845410E+04  0.16592674636E+04  0.00000000000E+00 0. -1.
         -2    1    3    3    0  502  0.95408259569E+02 -0.55359183962E+02 -0.23585751444E+03  0.26037692363E+03  0.00000000000E+00 0.  1.
         11    1    5    5    0    0 -0.22146307934E+03  0.89599197361E+02 -0.22005545626E+02  0.23991280857E+03  0.00000000000E+00 0.  1.
        -11    1    5    5    0    0 -0.43542690713E+03  0.30705454667E+03 -0.10921025233E+03  0.54388046968E+03  0.00000000000E+00 0. -1.
          4    1    6    6  503    0  0.10652161388E+02 -0.69899621502E+02 -0.14555826929E+03  0.16182285187E+03  0.00000000000E+00 0. -1.
         -4    1    6    6    0  503  0.97186754720E+02 -0.28662084061E+02 -0.24836414048E+03  0.26823781731E+03  0.00000000000E+00 0.  1.
<mgrwt>
<rscale>  0 0.20857425E+04</rscale>
<asrwt>0</asrwt>
<pdfrwt beam="1">  1        1 0.42092142E+00 0.20857425E+04</pdfrwt>
<pdfrwt beam="2">  1       -2 0.61155237E-01 0.20857425E+04</pdfrwt>
<totfact> 0.18637601E+00</totfact>
</mgrwt>
</event>
<event>
12    4  0.4486176E-008  0.1533235E+04  0.7818608E-02  0.8862648E-01
          1   -1    0    0  501    0  0.00000000000E+00  0.00000000000E+00  0.93110350012E+03  0.93110350012E+03  0.00000000000E+00 0. -1.
         -2   -1    0    0    0  501 -0.00000000000E+00 -0.00000000000E+00 -0.63118927770E+03  0.63118927770E+03  0.00000000000E+00 0.  1.
        -24    2    1    2    0    0  0.32657318125E+03 -0.31444066910E+03  0.38113314321E+03  0.59762092092E+03  0.79782925347E+02 0.  0.
        254    2    1    2    0    0 -0.32657318125E+03  0.31444066910E+03 -0.81218920801E+02  0.96467185690E+03  0.84762745431E+03 0.  0.
         23    2    4    4    0    0 -0.22469250940E+03  0.53621069022E+03 -0.26543897909E+03  0.64530242532E+03  0.89155708833E+02 0.  0.
         23    2    4    4    0    0 -0.10188067185E+03 -0.22177002113E+03  0.18422005829E+03  0.31936943157E+03  0.92185630008E+02 0.  0.
          3    1    3    3  502    0  0.32920165453E+03 -0.30666882774E+03  0.36434720739E+03  0.57893729089E+03  0.00000000000E+00 0. -1.
         -4    1    3    3    0  502 -0.26284732761E+01 -0.77718413565E+01  0.16785935819E+02  0.18683630031E+02  0.00000000000E+00 0.  1.
         11    1    5    5    0    0 -0.13911220555E+03  0.23107292102E+03 -0.14545631289E+03  0.30643831275E+03  0.00000000000E+00 0. -1.
        -11    1    5    5    0    0 -0.85580303844E+02  0.30513776920E+03 -0.11998266620E+03  0.33886411257E+03  0.00000000000E+00 0.  1.
          4    1    6    6  503    0 -0.64093810195E+02 -0.79897752030E+02  0.30666226591E+02  0.10692092750E+03  0.00000000000E+00 0. -1.
         -4    1    6    6    0  503 -0.37786861657E+02 -0.14187226910E+03  0.15355383170E+03  0.21244850407E+03  0.00000000000E+00 0.  1.
<mgrwt>
<rscale>  0 0.15332352E+04</rscale>
<asrwt>0</asrwt>
<pdfrwt beam="1">  1        1 0.14324669E+00 0.15332352E+04</pdfrwt>
<pdfrwt beam="2">  1       -2 0.97106043E-01 0.15332352E+04</pdfrwt>
<totfact> 0.12849900E+01</totfact>
</mgrwt>
</event>
<event>
12    4  0.4486176E-008  0.1501468E+04  0.7818608E-02  0.8883477E-01
         -2   -1    0    0    0  501 -0.00000000000E+00  0.00000000000E+00  0.20682925021E+03  0.20682925021E+03  0.00000000000E+00 0.  1.
          1   -1    0    0  501    0  0.00000000000E+00 -0.00000000000E+00 -0.27249614040E+04  0.27249614040E+04  0.00000000000E+00 0. -1.
        -24    2    1    2    0    0  0.17731420729E+03  0.38078037460E+03 -0.37604421843E+03  0.56894601463E+03  0.76526410883E+02 0.  0.
        254    2    1    2    0    0 -0.17731420729E+03 -0.38078037460E+03 -0.21420879353E+04  0.23628446395E+04  0.90446671921E+03 0.  0.
         23    2    4    4    0    0 -0.52521698939E+03 -0.10862628657E+03 -0.11020857326E+04  0.12291190891E+04  0.92131520882E+02 0.  0.
         23    2    4    4    0    0  0.34790278210E+03 -0.27215408803E+03 -0.10400022027E+04  0.11337255504E+04  0.92870063033E+02 0.  0.
          1    1    3    3  502    0  0.35379895448E+02  0.38076189650E+02 -0.74860605885E+02  0.91135303443E+02  0.00000000000E+00 0. -1.
         -2    1    3    3    0  502  0.14193431184E+03  0.34270418495E+03 -0.30118361255E+03  0.47781071119E+03  0.00000000000E+00 0.  1.
         11    1    5    5    0    0 -0.29782923620E+03 -0.10797871014E+03 -0.64082189149E+03  0.71485267881E+03  0.00000000000E+00 0.  1.
        -11    1    5    5    0    0 -0.22738775318E+03 -0.64757642793E+00 -0.46126384111E+03  0.51426641030E+03  0.00000000000E+00 0. -1.
          3    1    6    6  503    0  0.94231009948E+02 -0.88873208024E+02 -0.21061490381E+03  0.24725810006E+03  0.00000000000E+00 0. -1.
         -3    1    6    6    0  503  0.25367177215E+03 -0.18328088001E+03 -0.82938729891E+03  0.88646745037E+03  0.00000000000E+00 0.  1.
<mgrwt>
<rscale>  0 0.15014682E+04</rscale>
<asrwt>0</asrwt>
<pdfrwt beam="1">  1        1 0.41922483E+00 0.15014682E+04</pdfrwt>
<pdfrwt beam="2">  1       -2 0.31819885E-01 0.15014682E+04</pdfrwt>
<totfact> 0.73777962E+00</totfact>
</mgrwt>
</event>
<event>
12    4  0.4486176E-008  0.1994566E+04  0.7818608E-02  0.8609165E-01
         -2   -1    0    0    0  501 -0.00000000000E+00  0.00000000000E+00  0.35126194400E+03  0.35126194400E+03  0.00000000000E+00 0.  1.
          1   -1    0    0  501    0  0.00000000000E+00 -0.00000000000E+00 -0.28314291633E+04  0.28314291633E+04  0.00000000000E+00 0. -1.
        -24    2    1    2    0    0  0.49788943510E+03  0.61220015697E+03 -0.10879634055E+04  0.13463375886E+04  0.79231363533E+02 0.  0.
        254    2    1    2    0    0 -0.49788943510E+03 -0.61220015697E+03 -0.13922038138E+04  0.18363535187E+04  0.90071075533E+03 0.  0.
         23    2    4    4    0    0 -0.46456828796E+03  0.78980299312E+02 -0.40954857695E+03  0.63110753764E+03  0.92223127891E+02 0.  0.
         23    2    4    4    0    0 -0.33321147136E+02 -0.69118045628E+03 -0.98265523681E+03  0.12052459811E+04  0.90365028755E+02 0.  0.
          1    1    3    3  502    0  0.49365669651E+03  0.58788489834E+03 -0.10632181374E+04  0.13113879653E+04  0.00000000000E+00 0. -1.
         -2    1    3    3    0  502  0.42327385857E+01  0.24315258625E+02 -0.24745268082E+02  0.34949623322E+02  0.00000000000E+00 0.  1.
         11    1    5    5    0    0 -0.73685189156E+02  0.45162669695E+02 -0.93293451366E+02  0.12717248878E+03  0.00000000000E+00 0.  1.
        -11    1    5    5    0    0 -0.39088309881E+03  0.33817629617E+02 -0.31625512559E+03  0.50393504886E+03  0.00000000000E+00 0. -1.
          1    1    6    6  503    0 -0.90022682098E+01 -0.29580498358E+03 -0.49807099166E+03  0.57935856072E+03  0.00000000000E+00 0. -1.
         -1    1    6    6    0  503 -0.24318878926E+02 -0.39537547270E+03 -0.48458424515E+03  0.62588742033E+03  0.00000000000E+00 0.  1.
<mgrwt>
<rscale>  0 0.19945659E+04</rscale>
<asrwt>0</asrwt>
<pdfrwt beam="1">  1        1 0.43560449E+00 0.19945659E+04</pdfrwt>
<pdfrwt beam="2">  1       -2 0.54040299E-01 0.19945659E+04</pdfrwt>
<totfact> 0.20836165E+00</totfact>
</mgrwt>
</event>
<event>
12    4  0.4486176E-008  0.1696169E+04  0.7818608E-02  0.8763552E-01
          1   -1    0    0  501    0  0.00000000000E+00  0.00000000000E+00  0.81382278054E+03  0.81382278054E+03  0.00000000000E+00 0. -1.
         -2   -1    0    0    0  501 -0.00000000000E+00 -0.00000000000E+00 -0.88378888814E+03  0.88378888814E+03  0.00000000000E+00 0.  1.
        -24    2    1    2    0    0  0.11113831752E+03 -0.36709682083E+03  0.44070290292E+03  0.58967639441E+03  0.79921211209E+02 0.  0.
        254    2    1    2    0    0 -0.11113831752E+03  0.36709682083E+03 -0.51066901052E+03  0.11079352743E+04  0.90533194585E+03 0.  0.
         23    2    4    4    0    0  0.37127987534E+03  0.26932893948E+03 -0.34067927366E+03  0.57951144179E+03  0.96872700973E+02 0.  0.
         23    2    4    4    0    0 -0.48241819286E+03  0.97767881353E+02 -0.16998973686E+03  0.52842383247E+03  0.89718251536E+02 0.  0.
          1    1    3    3  502    0  0.82693463750E+02 -0.29930701650E+03  0.30453404205E+03  0.43492974356E+03  0.00000000000E+00 0. -1.
         -2    1    3    3    0  502  0.28444853768E+02 -0.67789804336E+02  0.13616886088E+03  0.15474665085E+03  0.00000000000E+00 0.  1.
         11    1    5    5    0    0  0.26039057154E+03  0.23750077245E+03 -0.27258772351E+03  0.44554902499E+03  0.00000000000E+00 0. -1.
        -11    1    5    5    0    0  0.11088930380E+03  0.31828167030E+02 -0.68091550147E+02  0.13396241680E+03  0.00000000000E+00 0.  1.
          1    1    6    6  503    0 -0.14207379347E+03  0.24381628188E-01 -0.18481541362E+02  0.14327083010E+03  0.00000000000E+00 0. -1.
         -1    1    6    6    0  503 -0.34034439939E+03  0.97743499725E+02 -0.15150819550E+03  0.38515300238E+03  0.00000000000E+00 0.  1.
<mgrwt>
<rscale>  0 0.16961692E+04</rscale>
<asrwt>0</asrwt>
<pdfrwt beam="1">  1        1 0.12520351E+00 0.16961692E+04</pdfrwt>
<pdfrwt beam="2">  1       -2 0.13596752E+00 0.16961692E+04</pdfrwt>
<totfact> 0.69453362E+00</totfact>
</mgrwt>
</event>
<event>
12    4  0.4486176E-008  0.1219729E+04  0.7818608E-02  0.9095761E-01
          3   -1    0    0  501    0  0.00000000000E+00  0.00000000000E+00  0.84076023445E+03  0.84076023445E+03  0.00000000000E+00 0. -1.
         -4   -1    0    0    0  501 -0.00000000000E+00 -0.00000000000E+00 -0.44237887338E+03  0.44237887338E+03  0.00000000000E+00 0.  1.
        -24    2    1    2    0    0 -0.20513900550E+03 -0.38794961888E+02  0.27065249264E+03  0.35126905230E+03  0.80932778803E+02 0.  0.
        254    2    1    2    0    0  0.20513900550E+03  0.38794961888E+02  0.12772886843E+03  0.93187005553E+03  0.89915520124E+03 0.  0.
         23    2    4    4    0    0 -0.33783459238E+03  0.86026125168E+02  0.11513635491E+03  0.37878190105E+03  0.93202158354E+02 0.  0.
         23    2    4    4    0    0  0.54297359788E+03 -0.47231163279E+02  0.12592513520E+02  0.55308815448E+03  0.93256766276E+02 0.  0.
          1    1    3    3  502    0 -0.21125277791E+03 -0.43865549131E+02  0.26364671058E+03  0.34067801598E+03  0.00000000000E+00 0. -1.
         -2    1    3    3    0  502  0.61137724050E+01  0.50705872427E+01  0.70057820641E+01  0.10591036320E+02  0.00000000000E+00 0.  1.
         11    1    5    5    0    0 -0.53748880070E+02  0.43436194436E+02 -0.53245196305E+00  0.69108093599E+02  0.00000000000E+00 0. -1.
        -11    1    5    5    0    0 -0.28408571231E+03  0.42589930732E+02  0.11566880687E+03  0.30967380745E+03  0.00000000000E+00 0.  1.
          4    1    6    6  503    0  0.46882989591E+03 -0.69124320509E+02  0.26064734332E+02  0.47461459455E+03  0.00000000000E+00 0. -1.
         -4    1    6    6    0  503  0.74143701971E+02  0.21893157229E+02 -0.13472220811E+02  0.78473559936E+02  0.00000000000E+00 0.  1.
<mgrwt>
<rscale>  0 0.12197288E+04</rscale>
<asrwt>0</asrwt>
<pdfrwt beam="1">  1        3 0.12934773E+00 0.12197288E+04</pdfrwt>
<pdfrwt beam="2">  1       -4 0.68058288E-01 0.12197288E+04</pdfrwt>
<totfact> 0.21163166E+00</totfact>
</mgrwt>
</event>
<event>
12    4  0.4486176E-008  0.1741743E+04  0.7818608E-02  0.8737909E-01
         -2   -1    0    0    0  501 -0.00000000000E+00  0.00000000000E+00  0.26562802992E+03  0.26562802992E+03  0.00000000000E+00 0.  1.
          1   -1    0    0  501    0  0.00000000000E+00 -0.00000000000E+00 -0.28551843613E+04  0.28551843613E+04  0.00000000000E+00 0. -1.
        -24    2    1    2    0    0  0.13840444793E+03  0.58217670095E+03 -0.13260938885E+04  0.14566638007E+04  0.72518444853E+02 0.  0.
        254    2    1    2    0    0 -0.13840444793E+03 -0.58217670095E+03 -0.12634624429E+04  0.16641485905E+04  0.90275560612E+03 0.  0.
         23    2    4    4    0    0 -0.22382754303E+03 -0.16206957376E+03  0.34935470626E+02  0.29387227046E+03  0.93675549003E+02 0.  0.
         23    2    4    4    0    0  0.85423095097E+02 -0.42010712719E+03 -0.12983979135E+04  0.13702763200E+04  0.89626714713E+02 0.  0.
          3    1    3    3  502    0  0.94935446382E+02  0.49886751145E+03 -0.11478989296E+04  0.12552105343E+04  0.00000000000E+00 0. -1.
         -4    1    3    3    0  502  0.43469001548E+02  0.83309189500E+02 -0.17819495892E+03  0.20145326638E+03  0.00000000000E+00 0.  1.
         11    1    5    5    0    0 -0.12489857227E+03 -0.59743737083E+02  0.57218460255E+02  0.14980961141E+03  0.00000000000E+00 0.  1.
        -11    1    5    5    0    0 -0.98928970758E+02 -0.10232583668E+03 -0.22282989629E+02  0.14406265906E+03  0.00000000000E+00 0. -1.
          4    1    6    6  503    0  0.55143698490E+02 -0.89236335126E+02 -0.34863453034E+03  0.36407415005E+03  0.00000000000E+00 0. -1.
         -4    1    6    6    0  503  0.30279396608E+02 -0.33087079207E+03 -0.94976338317E+03  0.10062021700E+04  0.00000000000E+00 0.  1.
<mgrwt>
<rscale>  0 0.17417428E+04</rscale>
<asrwt>0</asrwt>
<pdfrwt beam="1">  1        1 0.43925911E+00 0.17417428E+04</pdfrwt>
<pdfrwt beam="2">  1       -2 0.40865853E-01 0.17417428E+04</pdfrwt>
<totfact> 0.36040787E+00</totfact>
</mgrwt>
</event>
<event>
12    4  0.4486176E-008  0.2654548E+04  0.7818608E-02  0.8349905E-01
         -4   -1    0    0    0  501 -0.00000000000E+00  0.00000000000E+00  0.16024074362E+04  0.16024074362E+04  0.00000000000E+00 0.  1.
          3   -1    0    0  501    0  0.00000000000E+00 -0.00000000000E+00 -0.10993812809E+04  0.10993812809E+04  0.00000000000E+00 0. -1.
        -24    2    1    2    0    0  0.22932669515E+03  0.11527621490E+04  0.21642827457E+03  0.11978523262E+04  0.80979578356E+02 0.  0.
        254    2    1    2    0    0 -0.22932669515E+03 -0.11527621490E+04  0.28659788072E+03  0.15039363909E+04  0.89343999088E+03 0.  0.
         23    2    4    4    0    0 -0.17014556258E+02 -0.80388948307E+03  0.57766592163E+03  0.99397599549E+03  0.88105428225E+02 0.  0.
         23    2    4    4    0    0 -0.21231213889E+03 -0.34887266593E+03 -0.29106804091E+03  0.50996039539E+03  0.92468476128E+02 0.  0.
          1    1    3    3  502    0  0.75901124239E+02  0.22167111658E+03  0.34588878548E+02  0.23684479117E+03  0.00000000000E+00 0. -1.
         -2    1    3    3    0  502  0.15342557091E+03  0.93109103242E+03  0.18183939603E+03  0.96100753504E+03  0.00000000000E+00 0.  1.
         11    1    5    5    0    0  0.17159041193E+02 -0.16941146237E+03  0.87240631166E+02  0.19132591044E+03  0.00000000000E+00 0. -1.
        -11    1    5    5    0    0 -0.34173597451E+02 -0.63447802069E+03  0.49042529046E+03  0.80265008505E+03  0.00000000000E+00 0.  1.
          1    1    6    6  503    0 -0.87246520363E+02 -0.91554674533E+02 -0.13117159314E+03  0.18220922203E+03  0.00000000000E+00 0. -1.
         -1    1    6    6    0  503 -0.12506561853E+03 -0.25731799140E+03 -0.15989644777E+03  0.32775117337E+03  0.00000000000E+00 0.  1.
<mgrwt>
<rscale>  0 0.26545484E+04</rscale>
<asrwt>0</asrwt>
<pdfrwt beam="1">  1        3 0.16913558E+00 0.26545484E+04</pdfrwt>
<pdfrwt beam="2">  1       -4 0.24652422E+00 0.26545484E+04</pdfrwt>
<totfact> 0.31311778E-02</totfact>
</mgrwt>
</event>
<event>
12    4  0.4486176E-008  0.1871779E+04  0.7818608E-02  0.8669033E-01
          1   -1    0    0  501    0  0.00000000000E+00  0.00000000000E+00  0.24220188693E+04  0.24220188693E+04  0.00000000000E+00 0. -1.
         -2   -1    0    0    0  501 -0.00000000000E+00 -0.00000000000E+00 -0.36163588002E+03  0.36163588002E+03  0.00000000000E+00 0.  1.
        -24    2    1    2    0    0 -0.50343020731E+03  0.45381024101E+03  0.11467440630E+04  0.13345235220E+04  0.80903500049E+02 0.  0.
        254    2    1    2    0    0  0.50343020731E+03 -0.45381024101E+03  0.91363892628E+03  0.14491312273E+04  0.89769678503E+03 0.  0.
         23    2    4    4    0    0  0.10951120254E+03 -0.62377466497E+03  0.33190332977E+03  0.72062875410E+03  0.89768840829E+02 0.  0.
         23    2    4    4    0    0  0.39391900478E+03  0.16996442396E+03  0.58173559650E+03  0.72850247320E+03  0.90771479489E+02 0.  0.
          1    1    3    3  502    0 -0.56925608892E+02  0.37360301212E+02  0.16371237713E+03  0.17730780998E+03  0.00000000000E+00 0. -1.
         -2    1    3    3    0  502 -0.44650459842E+03  0.41644993979E+03  0.98303168587E+03  0.11572157120E+04  0.00000000000E+00 0.  1.
         11    1    5    5    0    0  0.18475265640E+02 -0.83897909770E+02  0.82116273275E+02  0.11884139448E+03  0.00000000000E+00 0.  1.
        -11    1    5    5    0    0  0.91035936899E+02 -0.53987675520E+03  0.24978705650E+03  0.60178735963E+03  0.00000000000E+00 0. -1.
          1    1    6    6  503    0  0.36176143301E+03  0.17654638440E+03  0.51088699323E+03  0.65041946474E+03  0.00000000000E+00 0. -1.
         -1    1    6    6    0  503  0.32157571763E+02 -0.65819604415E+01  0.70848603272E+02  0.78083008462E+02  0.00000000000E+00 0.  1.
<mgrwt>
<rscale>  0 0.18717788E+04</rscale>
<asrwt>0</asrwt>
<pdfrwt beam="1">  1        1 0.37261828E+00 0.18717788E+04</pdfrwt>
<pdfrwt beam="2">  1       -2 0.55636291E-01 0.18717788E+04</pdfrwt>
<totfact> 0.38382300E+00</totfact>
</mgrwt>
</event>
<event>
12    4  0.4486176E-008  0.1334920E+04  0.7818608E-02  0.9002322E-01
         -2   -1    0    0    0  501 -0.00000000000E+00  0.00000000000E+00  0.15900318912E+04  0.15900318912E+04  0.00000000000E+00 0.  1.
          1   -1    0    0  501    0  0.00000000000E+00 -0.00000000000E+00 -0.28018496370E+03  0.28018496370E+03  0.00000000000E+00 0. -1.
        -24    2    1    2    0    0  0.63064356646E+02  0.18903560428E+03  0.75053862709E+03  0.78055080171E+03  0.78992091610E+02 0.  0.
        254    2    1    2    0    0 -0.63064356646E+02 -0.18903560428E+03  0.55930830039E+03  0.10896660532E+04  0.91369292423E+03 0.  0.
         23    2    4    4    0    0 -0.12976920497E+02 -0.54952792193E+03  0.37226063816E+03  0.67002226259E+03  0.90567721630E+02 0.  0.
         23    2    4    4    0    0 -0.50087436150E+02  0.36049231764E+03  0.18704766223E+03  0.41964379059E+03  0.93008712981E+02 0.  0.
          1    1    3    3  502    0  0.48594357871E+01  0.78652706351E+02  0.17949657131E+03  0.19603285807E+03  0.00000000000E+00 0. -1.
         -2    1    3    3    0  502  0.58204920859E+02  0.11038289793E+03  0.57104205578E+03  0.58451794364E+03  0.00000000000E+00 0.  1.
         11    1    5    5    0    0  0.29168254044E+02 -0.31549335521E+03  0.24351700139E+03  0.39960902666E+03  0.00000000000E+00 0. -1.
        -11    1    5    5    0    0 -0.42145174540E+02 -0.23403456672E+03  0.12874363677E+03  0.27041323593E+03  0.00000000000E+00 0.  1.
          2    1    6    6  503    0 -0.61869328644E+02  0.34714454985E+03  0.15989295092E+03  0.38717296919E+03  0.00000000000E+00 0. -1.
         -2    1    6    6    0  503  0.11781892494E+02  0.13347767797E+02  0.27154711310E+02  0.32470821398E+02  0.00000000000E+00 0.  1.
<mgrwt>
<rscale>  0 0.13349203E+04</rscale>
<asrwt>0</asrwt>
<pdfrwt beam="1">  1        1 0.43105380E-01 0.13349203E+04</pdfrwt>
<pdfrwt beam="2">  1       -2 0.24462029E+00 0.13349203E+04</pdfrwt>
<totfact> 0.56931015E+00</totfact>
</mgrwt>
</event>
<event>
12    4  0.4486176E-008  0.1134378E+04  0.7818608E-02  0.9172318E-01
          1   -1    0    0  501    0  0.00000000000E+00  0.00000000000E+00  0.16749215213E+04  0.16749215213E+04  0.00000000000E+00 0. -1.
         -2   -1    0    0    0  501 -0.00000000000E+00 -0.00000000000E+00 -0.19207057921E+03  0.19207057921E+03  0.00000000000E+00 0.  1.
        -24    2    1    2    0    0  0.15600000532E+03 -0.57990422289E+02  0.82063291696E+03  0.84078928814E+03  0.76087790780E+02 0.  0.
        254    2    1    2    0    0 -0.15600000532E+03  0.57990422289E+02  0.66221802509E+03  0.10262028123E+04  0.76606827931E+03 0.  0.
         23    2    4    4    0    0 -0.41682145397E+03 -0.13194082486E+03  0.40830592631E+03  0.60588217159E+03  0.96077940416E+02 0.  0.
         23    2    4    4    0    0  0.26082144865E+03  0.18993124715E+03  0.25391209878E+03  0.42032064075E+03  0.89979888935E+02 0.  0.
          1    1    3    3  502    0  0.13636342727E+03 -0.51908239173E+02  0.79320245698E+03  0.80651074844E+03  0.00000000000E+00 0. -1.
         -2    1    3    3    0  502  0.19636578046E+02 -0.60821831155E+01  0.27430459983E+02  0.34278539696E+02  0.00000000000E+00 0.  1.
         11    1    5    5    0    0 -0.24436224143E+03 -0.10961216216E+03  0.29442823524E+03  0.39801471937E+03  0.00000000000E+00 0. -1.
        -11    1    5    5    0    0 -0.17245921254E+03 -0.22328662704E+02  0.11387769107E+03  0.20786745222E+03  0.00000000000E+00 0.  1.
          4    1    6    6  503    0  0.11728363788E+03  0.14069328802E+03  0.14229282066E+03  0.23194244937E+03  0.00000000000E+00 0. -1.
         -4    1    6    6    0  503  0.14353781077E+03  0.49237959135E+02  0.11161927812E+03  0.18837819138E+03  0.00000000000E+00 0.  1.
<mgrwt>
<rscale>  0 0.11343776E+04</rscale>
<asrwt>0</asrwt>
<pdfrwt beam="1">  1        1 0.25768022E+00 0.11343776E+04</pdfrwt>
<pdfrwt beam="2">  1       -2 0.29549321E-01 0.11343776E+04</pdfrwt>
<totfact> 0.45654164E+01</totfact>
</mgrwt>
</event>
<event>
12    4  0.4486176E-008  0.1087585E+04  0.7818608E-02  0.9217378E-01
         -2   -1    0    0    0  501 -0.00000000000E+00  0.00000000000E+00  0.66651563804E+03  0.66651563804E+03  0.00000000000E+00 0.  1.
          1   -1    0    0  501    0  0.00000000000E+00 -0.00000000000E+00 -0.44366584626E+03  0.44366584626E+03  0.00000000000E+00 0. -1.
        -24    2    1    2    0    0 -0.30180069918E+02 -0.12125597583E+03  0.12609657376E+03  0.19456608339E+03  0.79635209531E+02 0.  0.
        254    2    1    2    0    0  0.30180069918E+02  0.12125597583E+03  0.96753218033E+02  0.91561540091E+03  0.90187389856E+03 0.  0.
         23    2    4    4    0    0 -0.14985596467E+03 -0.28020825451E+03 -0.19296366467E+03  0.38061562560E+03  0.81607613144E+02 0.  0.
         23    2    4    4    0    0  0.18003603459E+03  0.40146423034E+03  0.28971688270E+03  0.53499977532E+03  0.93286577157E+02 0.  0.
          3    1    3    3  502    0 -0.41467768815E+02 -0.70196621368E+02  0.33337179854E+02  0.88082399278E+02  0.00000000000E+00 0. -1.
         -4    1    3    3    0  502  0.11287698897E+02 -0.51059354459E+02  0.92759393902E+02  0.10648368411E+03  0.00000000000E+00 0.  1.
         11    1    5    5    0    0 -0.14411508629E+03 -0.25109337189E+03 -0.19768650787E+03  0.35056667682E+03  0.00000000000E+00 0. -1.
        -11    1    5    5    0    0 -0.57408783732E+01 -0.29114882620E+02  0.47228432004E+01  0.30048948773E+02  0.00000000000E+00 0.  1.
          3    1    6    6  503    0  0.94330737422E+02  0.28531102269E+03  0.15761786088E+03  0.33932883425E+03  0.00000000000E+00 0. -1.
         -3    1    6    6    0  503  0.85705297165E+02  0.11615320765E+03  0.13209902182E+03  0.19567094106E+03  0.00000000000E+00 0.  1.
<mgrwt>
<rscale>  0 0.10875849E+04</rscale>
<asrwt>0</asrwt>
<pdfrwt beam="1">  1        1 0.68256284E-01 0.10875849E+04</pdfrwt>
<pdfrwt beam="2">  1       -2 0.10254087E+00 0.10875849E+04</pdfrwt>
<totfact> 0.35404685E+01</totfact>
</mgrwt>
</event>
<event>
12    4  0.4486176E-008  0.2775961E+04  0.7818608E-02  0.8310770E-01
         -2   -1    0    0    0  501 -0.00000000000E+00  0.00000000000E+00  0.99479287352E+03  0.99479287352E+03  0.00000000000E+00 0.  1.
          1   -1    0    0  501    0  0.00000000000E+00 -0.00000000000E+00 -0.19365743272E+04  0.19365743272E+04  0.00000000000E+00 0. -1.
        -24    2    1    2    0    0 -0.11759273820E+04  0.22788558840E+03 -0.76017831857E+03  0.14208859929E+04  0.79428456971E+02 0.  0.
        254    2    1    2    0    0  0.11759273820E+04 -0.22788558840E+03 -0.18160313515E+03  0.15104812078E+04  0.90212899929E+03 0.  0.
         23    2    4    4    0    0  0.12696561434E+04 -0.34077144879E+03 -0.10524138789E+03  0.13219491845E+04  0.91224962201E+02 0.  0.
         23    2    4    4    0    0 -0.93728761443E+02  0.11288586039E+03 -0.76361747265E+02  0.18853202335E+03  0.90470487925E+02 0.  0.
          1    1    3    3  502    0 -0.33676783302E+03  0.89099115226E+02 -0.18879826628E+03  0.39622722148E+03  0.00000000000E+00 0. -1.
         -2    1    3    3    0  502 -0.83915954898E+03  0.13878647317E+03 -0.57138005229E+03  0.10246587715E+04  0.00000000000E+00 0.  1.
         11    1    5    5    0    0  0.13284269390E+03 -0.63767101123E+02 -0.21023448632E+02  0.14884693447E+03  0.00000000000E+00 0.  1.
        -11    1    5    5    0    0  0.11368134495E+04 -0.27700434766E+03 -0.84217939254E+02  0.11731022500E+04  0.00000000000E+00 0. -1.
          4    1    6    6  503    0 -0.86028650224E+02  0.62890746982E+02 -0.86120982652E+02  0.13701459181E+03  0.00000000000E+00 0. -1.
         -4    1    6    6    0  503 -0.77001112190E+01  0.49995113406E+02  0.97592353867E+01  0.51517431541E+02  0.00000000000E+00 0.  1.
<mgrwt>
<rscale>  0 0.27759613E+04</rscale>
<asrwt>0</asrwt>
<pdfrwt beam="1">  1        1 0.29793451E+00 0.27759613E+04</pdfrwt>
<pdfrwt beam="2">  1       -2 0.15304506E+00 0.27759613E+04</pdfrwt>
<totfact> 0.71256691E-01</totfact>
</mgrwt>
</event>
<event>
12    4  0.4486176E-008  0.1889227E+04  0.7818608E-02  0.8660237E-01
          3   -1    0    0  501    0  0.00000000000E+00  0.00000000000E+00  0.11780004546E+04  0.11780004546E+04  0.00000000000E+00 0. -1.
         -2   -1    0    0    0  501 -0.00000000000E+00 -0.00000000000E+00 -0.75746577445E+03  0.75746577445E+03  0.00000000000E+00 0.  1.
        -24    2    1    2    0    0 -0.61381147640E+03 -0.34193310821E+03 -0.18877393750E+02  0.70832757402E+03  0.87685900070E+02 0.  0.
        254    2    1    2    0    0  0.61381147640E+03  0.34193310821E+03  0.43941207393E+03  0.12271386551E+04  0.90504338513E+03 0.  0.
         23    2    4    4    0    0  0.71146876727E+03  0.39220844840E+03  0.57473249883E+02  0.81986410120E+03  0.94120646963E+02 0.  0.
         23    2    4    4    0    0 -0.97657290877E+02 -0.50275340188E+02  0.38193882405E+03  0.40727455386E+03  0.89054705733E+02 0.  0.
          1    1    3    3  502    0 -0.13176117448E+03 -0.11347120646E+03  0.92978071303E+01  0.17413549613E+03  0.00000000000E+00 0. -1.
         -2    1    3    3    0  502 -0.48205030192E+03 -0.22846190175E+03 -0.28175200880E+02  0.53419207789E+03  0.00000000000E+00 0.  1.
         11    1    5    5    0    0  0.68179209636E+03  0.37103710322E+03  0.34925224922E+02  0.77699984939E+03  0.00000000000E+00 0.  1.
        -11    1    5    5    0    0  0.29676670913E+02  0.21171345183E+02  0.22548024961E+02  0.42864251807E+02  0.00000000000E+00 0. -1.
          2    1    6    6  503    0  0.33048588132E+01  0.37663568352E+01 -0.28790919366E+01  0.57789883167E+01  0.00000000000E+00 0. -1.
         -2    1    6    6    0  503 -0.10096214969E+03 -0.54041697023E+02  0.38481791598E+03  0.40149556554E+03  0.00000000000E+00 0.  1.
<mgrwt>
<rscale>  0 0.18892274E+04</rscale>
<asrwt>0</asrwt>
<pdfrwt beam="1">  1        3 0.18123084E+00 0.18892274E+04</pdfrwt>
<pdfrwt beam="2">  1       -2 0.11653320E+00 0.18892274E+04</pdfrwt>
<totfact> 0.43006785E-01</totfact>
</mgrwt>
</event>
<event>
12    4  0.4486176E-008  0.1484168E+04  0.7818608E-02  0.8895050E-01
          1   -1    0    0  501    0  0.00000000000E+00  0.00000000000E+00  0.74247873158E+03  0.74247873158E+03  0.00000000000E+00 0. -1.
         -2   -1    0    0    0  501 -0.00000000000E+00 -0.00000000000E+00 -0.74168910706E+03  0.74168910706E+03  0.00000000000E+00 0.  1.
        -24    2    1    2    0    0  0.21381539520E+03  0.32456711682E+03  0.23182650047E+03  0.45948637789E+03  0.79519611442E+02 0.  0.
        254    2    1    2    0    0 -0.21381539520E+03 -0.32456711682E+03 -0.23103687594E+03  0.10246814607E+04  0.91952880401E+03 0.  0.
         23    2    4    4    0    0  0.12510077367E+03 -0.51321095948E+03  0.46946060224E+02  0.53857724511E+03  0.93945856095E+02 0.  0.
         23    2    4    4    0    0 -0.33891616888E+03  0.18864384266E+03 -0.27798293617E+03  0.48610421563E+03  0.92585780530E+02 0.  0.
          3    1    3    3  502    0  0.13864072612E+03  0.14591686293E+03  0.97371288231E+02  0.22359371548E+03  0.00000000000E+00 0. -1.
         -4    1    3    3    0  502  0.75174669078E+02  0.17865025389E+03  0.13445521224E+03  0.23589266242E+03  0.00000000000E+00 0.  1.
         11    1    5    5    0    0  0.19959313549E+02 -0.39418149441E+02 -0.20296662751E+02  0.48622209139E+02  0.00000000000E+00 0. -1.
        -11    1    5    5    0    0  0.10514146013E+03 -0.47379281004E+03  0.67242722975E+02  0.48995503597E+03  0.00000000000E+00 0.  1.
          2    1    6    6  503    0 -0.30395049021E+03  0.19691622217E+03 -0.24432628498E+03  0.43687210094E+03  0.00000000000E+00 0.  1.
         -2    1    6    6    0  503 -0.34965678667E+02 -0.82723795100E+01 -0.33656651191E+02  0.49232114690E+02  0.00000000000E+00 0. -1.
<mgrwt>
<rscale>  0 0.14841676E+04</rscale>
<asrwt>0</asrwt>
<pdfrwt beam="1">  1        1 0.11422750E+00 0.14841676E+04</pdfrwt>
<pdfrwt beam="2">  1       -2 0.11410602E+00 0.14841676E+04</pdfrwt>
<totfact> 0.12683054E+01</totfact>
</mgrwt>
</event>
<event>
12    4  0.4486176E-008  0.1304490E+04  0.7818608E-02  0.9026012E-01
         -2   -1    0    0    0  501 -0.00000000000E+00  0.00000000000E+00  0.27060903001E+03  0.27060903001E+03  0.00000000000E+00 0.  1.
          1   -1    0    0  501    0  0.00000000000E+00 -0.00000000000E+00 -0.15720967779E+04  0.15720967779E+04  0.00000000000E+00 0. -1.
        -24    2    1    2    0    0  0.11936514999E+03 -0.22409023487E+03 -0.56125270683E+03  0.62090959707E+03  0.77843782069E+02 0.  0.
        254    2    1    2    0    0 -0.11936514999E+03  0.22409023487E+03 -0.74023504106E+03  0.12217962108E+04  0.93828225626E+03 0.  0.
         23    2    4    4    0    0  0.36316491572E+02 -0.95122258080E+02 -0.83287160337E+03  0.84474424444E+03  0.97727167492E+02 0.  0.
         23    2    4    4    0    0 -0.15568164156E+03  0.31921249295E+03  0.92636562317E+02  0.37705196640E+03  0.86332285433E+02 0.  0.
          3    1    3    3  502    0  0.48920122893E+02 -0.66037961431E+02 -0.26896186766E+03  0.28123775890E+03  0.00000000000E+00 0. -1.
         -4    1    3    3    0  502  0.70445027094E+02 -0.15805227344E+03 -0.29229083917E+03  0.33967183817E+03  0.00000000000E+00 0.  1.
         11    1    5    5    0    0  0.22989259557E+02 -0.10055105862E+03 -0.45276522047E+03  0.46436555246E+03  0.00000000000E+00 0. -1.
        -11    1    5    5    0    0  0.13327232015E+02  0.54288005370E+01 -0.38010638291E+03  0.38037869198E+03  0.00000000000E+00 0.  1.
          4    1    6    6  503    0 -0.68480630876E+02  0.22172905968E+03  0.37334980714E+02  0.23504738564E+03  0.00000000000E+00 0. -1.
         -4    1    6    6    0  503 -0.87201010683E+02  0.97483433270E+02  0.55301581603E+02  0.14200458075E+03  0.00000000000E+00 0.  1.
<mgrwt>
<rscale>  0 0.13044901E+04</rscale>
<asrwt>0</asrwt>
<pdfrwt beam="1">  1        1 0.24186104E+00 0.13044901E+04</pdfrwt>
<pdfrwt beam="2">  1       -2 0.41632159E-01 0.13044901E+04</pdfrwt>
<totfact> 0.27481410E+01</totfact>
</mgrwt>
</event>
<event>
12    4  0.4486176E-008  0.1714083E+04  0.7818608E-02  0.8753373E-01
          1   -1    0    0  501    0  0.00000000000E+00  0.00000000000E+00  0.17698676405E+04  0.17698676405E+04  0.00000000000E+00 0. -1.
         -2   -1    0    0    0  501 -0.00000000000E+00 -0.00000000000E+00 -0.41501435614E+03  0.41501435614E+03  0.00000000000E+00 0.  1.
        -24    2    1    2    0    0  0.54212565522E+03  0.20069378714E+03  0.76626931542E+03  0.96329247024E+03  0.81151076529E+02 0.  0.
        254    2    1    2    0    0 -0.54212565522E+03 -0.20069378714E+03  0.58858396892E+03  0.12215895264E+04  0.90092822149E+03 0.  0.
         23    2    4    4    0    0 -0.49338399360E+03  0.26426861339E+03  0.45441610201E+03  0.72666353008E+03  0.90995752764E+02 0.  0.
         23    2    4    4    0    0 -0.48741661622E+02 -0.46496240052E+03  0.13416786691E+03  0.49492599631E+03  0.91569328028E+02 0.  0.
          1    1    3    3  502    0  0.23237819040E+02 -0.78198690070E+01  0.33608361937E+02  0.41601304993E+02  0.00000000000E+00 0. -1.
         -2    1    3    3    0  502  0.51888783618E+03  0.20851365614E+03  0.73266095349E+03  0.92169116525E+03  0.00000000000E+00 0.  1.
         11    1    5    5    0    0 -0.48368386719E+03  0.24929410580E+03  0.45423492368E+03  0.70882085216E+03  0.00000000000E+00 0.  1.
        -11    1    5    5    0    0 -0.97001264118E+01  0.14974507588E+02  0.18117833328E+00  0.17842677924E+02  0.00000000000E+00 0. -1.
          3    1    6    6  503    0 -0.72312386486E+02 -0.38459798947E+03  0.96291976934E+02  0.40300972639E+03  0.00000000000E+00 0. -1.
         -3    1    6    6    0  503  0.23570724864E+02 -0.80364411053E+02  0.37875889977E+02  0.91916269920E+02  0.00000000000E+00 0.  1.
<mgrwt>
<rscale>  0 0.17140834E+04</rscale>
<asrwt>0</asrwt>
<pdfrwt beam="1">  1        1 0.27228733E+00 0.17140834E+04</pdfrwt>
<pdfrwt beam="2">  1       -2 0.63848363E-01 0.17140834E+04</pdfrwt>
<totfact> 0.80845348E+00</totfact>
</mgrwt>
</event>
<event>
12    4  0.4486176E-008  0.2294650E+04  0.7818608E-02  0.8480034E-01
         -2   -1    0    0    0  501 -0.00000000000E+00  0.00000000000E+00  0.50586179782E+03  0.50586179782E+03  0.00000000000E+00 0.  1.
          1   -1    0    0  501    0  0.00000000000E+00 -0.00000000000E+00 -0.26022018069E+04  0.26022018069E+04  0.00000000000E+00 0. -1.
        -24    2    1    2    0    0  0.90881924746E+02 -0.39379897216E+03  0.30311861852E+03  0.51364326332E+03  0.92797361687E+02 0.  0.
        254    2    1    2    0    0 -0.90881924746E+02  0.39379897216E+03 -0.23994586276E+04  0.25944203414E+04  0.90015445763E+03 0.  0.
         23    2    4    4    0    0 -0.85392079328E+02  0.61681148620E+03 -0.21781763227E+04  0.22672733289E+04  0.91258084983E+02 0.  0.
         23    2    4    4    0    0 -0.54898454179E+01 -0.22301251404E+03 -0.22128230491E+03  0.32714701259E+03  0.91074637307E+02 0.  0.
          3    1    3    3  502    0  0.53360410538E+02 -0.13211605354E+03  0.60398813180E+02  0.15475788074E+03  0.00000000000E+00 0. -1.
         -4    1    3    3    0  502  0.37521514207E+02 -0.26168291862E+03  0.24271980534E+03  0.35888538258E+03  0.00000000000E+00 0.  1.
         11    1    5    5    0    0 -0.76124248004E+02  0.22907781403E+03 -0.81541941256E+03  0.85040012017E+03  0.00000000000E+00 0.  1.
        -11    1    5    5    0    0 -0.92678313233E+01  0.38773367217E+03 -0.13627569102E+04  0.14168732087E+04  0.00000000000E+00 0. -1.
          4    1    6    6  503    0 -0.31285101762E+02 -0.20775507780E+03 -0.20236501865E+03  0.29170624045E+03  0.00000000000E+00 0. -1.
         -4    1    6    6    0  503  0.25795256344E+02 -0.15257436237E+02 -0.18917286254E+02  0.35440772136E+02  0.00000000000E+00 0.  1.
<mgrwt>
<rscale>  0 0.22946499E+04</rscale>
<asrwt>0</asrwt>
<pdfrwt beam="1">  1        1 0.40033874E+00 0.22946499E+04</pdfrwt>
<pdfrwt beam="2">  1       -2 0.77824891E-01 0.22946499E+04</pdfrwt>
<totfact> 0.13437930E+00</totfact>
</mgrwt>
</event>
<event>
12    4  0.4486176E-008  0.2499794E+04  0.7818608E-02  0.8403059E-01
         -2   -1    0    0    0  501 -0.00000000000E+00  0.00000000000E+00  0.10255626332E+04  0.10255626332E+04  0.00000000000E+00 0.  1.
          1   -1    0    0  501    0  0.00000000000E+00 -0.00000000000E+00 -0.15233032595E+04  0.15233032595E+04  0.00000000000E+00 0. -1.
        -24    2    1    2    0    0  0.32108819716E+03  0.68941424069E+03 -0.10121876233E+04  0.12686053500E+04  0.80287755884E+02 0.  0.
        254    2    1    2    0    0 -0.32108819716E+03 -0.68941424069E+03  0.51444699699E+03  0.12802605426E+04  0.89220049245E+03 0.  0.
         23    2    4    4    0    0 -0.10178943415E+03  0.20448403150E+03  0.13554780268E+03  0.28072314605E+03  0.90870621641E+02 0.  0.
         23    2    4    4    0    0 -0.21929876302E+03 -0.89389827219E+03  0.37889919431E+03  0.99953739659E+03  0.91456761702E+02 0.  0.
          3    1    3    3  502    0  0.56899508226E+02  0.13087646739E+03 -0.24517678443E+03  0.28368619877E+03  0.00000000000E+00 0. -1.
         -4    1    3    3    0  502  0.26418868894E+03  0.55853777331E+03 -0.76701083887E+03  0.98491915126E+03  0.00000000000E+00 0.  1.
         11    1    5    5    0    0 -0.98729590395E+02  0.97972452154E+02  0.82116941181E+02  0.16152190387E+03  0.00000000000E+00 0. -1.
        -11    1    5    5    0    0 -0.30598437540E+01  0.10651157934E+03  0.53430861497E+02  0.11920124218E+03  0.00000000000E+00 0.  1.
          2    1    6    6  503    0 -0.14992528198E+03 -0.75377384644E+03  0.31839175903E+03  0.83188094940E+03  0.00000000000E+00 0. -1.
         -2    1    6    6    0  503 -0.69373481035E+02 -0.14012442575E+03  0.60507435282E+02  0.16765644719E+03  0.00000000000E+00 0.  1.
<mgrwt>
<rscale>  0 0.24997943E+04</rscale>
<asrwt>0</asrwt>
<pdfrwt beam="1">  1        1 0.23435435E+00 0.24997943E+04</pdfrwt>
<pdfrwt beam="2">  1       -2 0.15777887E+00 0.24997943E+04</pdfrwt>
<totfact> 0.12866150E+00</totfact>
</mgrwt>
</event>
<event>
12    4  0.4486176E-008  0.2500416E+04  0.7818608E-02  0.8402837E-01
         -2   -1    0    0    0  501 -0.00000000000E+00  0.00000000000E+00  0.54728532613E+03  0.54728532613E+03  0.00000000000E+00 0.  1.
          1   -1    0    0  501    0  0.00000000000E+00 -0.00000000000E+00 -0.28559505348E+04  0.28559505348E+04  0.00000000000E+00 0. -1.
        -24    2    1    2    0    0 -0.36128883890E+03 -0.32340213579E+03  0.31236629455E+03  0.58266123138E+03  0.82479343091E+02 0.  0.
        254    2    1    2    0    0  0.36128883890E+03  0.32340213579E+03 -0.26210315032E+04  0.28205746295E+04  0.92234295868E+03 0.  0.
         23    2    4    4    0    0 -0.18882469459E+03  0.55268776210E+02 -0.16824254210E+04  0.16962636259E+04  0.89697203639E+02 0.  0.
         23    2    4    4    0    0  0.55011353349E+03  0.26813335958E+03 -0.93860608216E+03  0.11243110036E+04  0.92592964762E+02 0.  0.
          1    1    3    3  502    0 -0.13438704076E+03 -0.70811767814E+02  0.85594104318E+02  0.17435748874E+03  0.00000000000E+00 0. -1.
         -2    1    3    3    0  502 -0.22690179814E+03 -0.25259036797E+03  0.22677219023E+03  0.40830374264E+03  0.00000000000E+00 0.  1.
         11    1    5    5    0    0  0.66451211179E+01 -0.75483628109E+01 -0.11699894587E+03  0.11743035702E+03  0.00000000000E+00 0.  1.
        -11    1    5    5    0    0 -0.19546981571E+03  0.62817139021E+02 -0.15654264752E+04  0.15788332689E+04  0.00000000000E+00 0. -1.
          4    1    6    6  503    0  0.30346010776E+03  0.19183230551E+03 -0.50384406862E+03  0.61866510805E+03  0.00000000000E+00 0. -1.
         -4    1    6    6    0  503  0.24665342573E+03  0.76301054067E+02 -0.43476201354E+03  0.50564589555E+03  0.00000000000E+00 0.  1.
<mgrwt>
<rscale>  0 0.25004158E+04</rscale>
<asrwt>0</asrwt>
<pdfrwt beam="1">  1        1 0.43937701E+00 0.25004158E+04</pdfrwt>
<pdfrwt beam="2">  1       -2 0.84197742E-01 0.25004158E+04</pdfrwt>
<totfact> 0.73081074E-01</totfact>
</mgrwt>
</event>
<event>
12    4  0.4486176E-008  0.1565739E+04  0.7818608E-02  0.8841877E-01
         -2   -1    0    0    0  501 -0.00000000000E+00  0.00000000000E+00  0.23273589406E+03  0.23273589406E+03  0.00000000000E+00 0.  1.
          1   -1    0    0  501    0  0.00000000000E+00 -0.00000000000E+00 -0.26333904628E+04  0.26333904628E+04  0.00000000000E+00 0. -1.
        -24    2    1    2    0    0 -0.40668495367E+02  0.47433194099E+03 -0.46111864134E+03  0.66754988118E+03  0.79672615868E+02 0.  0.
        254    2    1    2    0    0  0.40668495367E+02 -0.47433194099E+03 -0.19395359274E+04  0.21985764757E+04  0.91939881932E+03 0.  0.
         23    2    4    4    0    0  0.17407636120E+03  0.20862570620E+03 -0.90454189457E+03  0.94809163607E+03  0.82791584992E+02 0.  0.
         23    2    4    4    0    0 -0.13340786583E+03 -0.68295764719E+03 -0.10349940328E+04  0.12504848396E+04  0.90944376222E+02 0.  0.
          1    1    3    3  502    0 -0.44123788035E+02  0.43961010407E+03 -0.39434712944E+03  0.59221078238E+03  0.00000000000E+00 0. -1.
         -2    1    3    3    0  502  0.34552926686E+01  0.34721836912E+02 -0.66771511906E+02  0.75339098801E+02  0.00000000000E+00 0.  1.
         11    1    5    5    0    0  0.10944433575E+03  0.15895867788E+03 -0.73587403386E+03  0.76076048636E+03  0.00000000000E+00 0. -1.
        -11    1    5    5    0    0  0.64632025449E+02  0.49667028317E+02 -0.16866786071E+03  0.18733114971E+03  0.00000000000E+00 0.  1.
          2    1    6    6  503    0 -0.45869842467E+02 -0.39467596062E+03 -0.52919224722E+03  0.66175342149E+03  0.00000000000E+00 0. -1.
         -2    1    6    6    0  503 -0.87538023365E+02 -0.28828168657E+03 -0.50580178561E+03  0.58873141811E+03  0.00000000000E+00 0.  1.
<mgrwt>
<rscale>  0 0.15657388E+04</rscale>
<asrwt>0</asrwt>
<pdfrwt beam="1">  1        1 0.40513699E+00 0.15657388E+04</pdfrwt>
<pdfrwt beam="2">  1       -2 0.35805523E-01 0.15657388E+04</pdfrwt>
<totfact> 0.67943094E+00</totfact>
</mgrwt>
</event>
<event>
12    4  0.4486176E-008  0.1652764E+04  0.7818608E-02  0.8788773E-01
         -2   -1    0    0    0  501 -0.00000000000E+00  0.00000000000E+00  0.22969836219E+03  0.22969836219E+03  0.00000000000E+00 0.  1.
          1   -1    0    0  501    0  0.00000000000E+00 -0.00000000000E+00 -0.29730622912E+04  0.29730622912E+04  0.00000000000E+00 0. -1.
        -24    2    1    2    0    0  0.36591611067E+03 -0.38388481831E+03 -0.14960543562E+04  0.15892644488E+04  0.79502815745E+02 0.  0.
        254    2    1    2    0    0 -0.36591611067E+03  0.38388481831E+03 -0.12473095728E+04  0.16134962046E+04  0.87540086704E+03 0.  0.
         23    2    4    4    0    0 -0.27281952899E+02  0.45822999810E+03 -0.20780995414E+03  0.51381029695E+03  0.10048386985E+03 0.  0.
         23    2    4    4    0    0 -0.33863415777E+03 -0.74345179793E+02 -0.10394996187E+04  0.10996859076E+04  0.92462639313E+02 0.  0.
          3    1    3    3  502    0  0.36923709033E+03 -0.38165176779E+03 -0.14715169319E+04  0.15644028195E+04  0.00000000000E+00 0. -1.
         -4    1    3    3    0  502 -0.33209796656E+01 -0.22330505167E+01 -0.24537424315E+02  0.24861629323E+02  0.00000000000E+00 0.  1.
         11    1    5    5    0    0  0.20884294025E+02  0.33205908370E+03 -0.16964761502E+03  0.37346981416E+03  0.00000000000E+00 0.  1.
        -11    1    5    5    0    0 -0.48166246924E+02  0.12617091440E+03 -0.38162339115E+02  0.14034048280E+03  0.00000000000E+00 0. -1.
          4    1    6    6  503    0 -0.69832423951E+01 -0.14580257102E+02 -0.18803203066E+02  0.24797379238E+02  0.00000000000E+00 0. -1.
         -4    1    6    6    0  503 -0.33165091537E+03 -0.59764922691E+02 -0.10206964156E+04  0.10748885284E+04  0.00000000000E+00 0.  1.
<mgrwt>
<rscale>  0 0.16527644E+04</rscale>
<asrwt>0</asrwt>
<pdfrwt beam="1">  1        1 0.45739415E+00 0.16527644E+04</pdfrwt>
<pdfrwt beam="2">  1       -2 0.35338213E-01 0.16527644E+04</pdfrwt>
<totfact> 0.39633463E+00</totfact>
</mgrwt>
</event>
<event>
12    4  0.4486176E-008  0.2990955E+04  0.7818608E-02  0.8246319E-01
          1   -1    0    0  501    0  0.00000000000E+00  0.00000000000E+00  0.20502383538E+04  0.20502383538E+04  0.00000000000E+00 0. -1.
         -2   -1    0    0    0  501 -0.00000000000E+00 -0.00000000000E+00 -0.10908256439E+04  0.10908256439E+04  0.00000000000E+00 0.  1.
        -24    2    1    2    0    0  0.98098046468E+03  0.22351965859E+03  0.13689363248E+04  0.17007659159E+04  0.79588501851E+02 0.  0.
        254    2    1    2    0    0 -0.98098046468E+03 -0.22351965859E+03 -0.40952361487E+03  0.14402980818E+04  0.94576173721E+03 0.  0.
         23    2    4    4    0    0 -0.42254191001E+03  0.31755020363E+03 -0.37924991270E+03  0.65661202374E+03  0.89045246360E+02 0.  0.
         23    2    4    4    0    0 -0.55843855467E+03 -0.54106986221E+03 -0.30273702163E+02  0.78368605811E+03  0.92936136608E+02 0.  0.
          1    1    3    3  502    0  0.42153850820E+03  0.69942621087E+02  0.63153780360E+03  0.76251339760E+03  0.00000000000E+00 0. -1.
         -2    1    3    3    0  502  0.55944195648E+03  0.15357703750E+03  0.73739852116E+03  0.93825251832E+03  0.00000000000E+00 0.  1.
         11    1    5    5    0    0 -0.18986575477E+03  0.17135819381E+03 -0.22967871712E+03  0.34375128875E+03  0.00000000000E+00 0. -1.
        -11    1    5    5    0    0 -0.23267615523E+03  0.14619200982E+03 -0.14957119558E+03  0.31286073499E+03  0.00000000000E+00 0.  1.
          1    1    6    6  503    0 -0.16714695748E+03 -0.11798762620E+03  0.17967360032E+02  0.20538259751E+03  0.00000000000E+00 0. -1.
         -1    1    6    6    0  503 -0.39129159719E+03 -0.42308223601E+03 -0.48241062196E+02  0.57830346060E+03  0.00000000000E+00 0.  1.
<mgrwt>
<rscale>  0 0.29909547E+04</rscale>
<asrwt>0</asrwt>
<pdfrwt beam="1">  1        1 0.31542128E+00 0.29909547E+04</pdfrwt>
<pdfrwt beam="2">  1       -2 0.16781933E+00 0.29909547E+04</pdfrwt>
<totfact> 0.45574512E-01</totfact>
</mgrwt>
</event>
<event>
12    4  0.4486176E-008  0.1711763E+04  0.7818608E-02  0.8754684E-01
         -2   -1    0    0    0  501 -0.00000000000E+00  0.00000000000E+00  0.10637575464E+04  0.10637575464E+04  0.00000000000E+00 0.  1.
          1   -1    0    0  501    0  0.00000000000E+00 -0.00000000000E+00 -0.68862782451E+03  0.68862782451E+03  0.00000000000E+00 0. -1.
        -24    2    1    2    0    0  0.32987199626E+03 -0.24847343502E+03  0.60172898227E+03  0.73369308753E+03  0.75320626327E+02 0.  0.
        254    2    1    2    0    0 -0.32987199626E+03  0.24847343502E+03 -0.22659926039E+03  0.10186922834E+04  0.90323427836E+03 0.  0.
         23    2    4    4    0    0 -0.52558496802E+03  0.58088775250E+02 -0.41099984391E+03  0.67555802942E+03  0.88565879439E+02 0.  0.
         23    2    4    4    0    0  0.19571297176E+03  0.19038465977E+03  0.18440058353E+03  0.34313425397E+03  0.95852256392E+02 0.  0.
          3    1    3    3  502    0  0.33134895131E+02 -0.53021954774E+02  0.66693623115E+02  0.91418205668E+02  0.00000000000E+00 0. -1.
         -4    1    3    3    0  502  0.29673710113E+03 -0.19545148024E+03  0.53503535916E+03  0.64227488186E+03  0.00000000000E+00 0.  1.
         11    1    5    5    0    0 -0.17649668271E+03 -0.22068361180E+02 -0.13005023679E+03  0.22034326780E+03  0.00000000000E+00 0.  1.
        -11    1    5    5    0    0 -0.34908828531E+03  0.80157136430E+02 -0.28094960712E+03  0.45521476162E+03  0.00000000000E+00 0. -1.
          2    1    6    6  503    0  0.66877055272E+02  0.69992984512E+02  0.12276248852E+03  0.15633997247E+03  0.00000000000E+00 0.  1.
         -2    1    6    6    0  503  0.12883591649E+03  0.12039167525E+03  0.61638095004E+02  0.18679428151E+03  0.00000000000E+00 0. -1.
<mgrwt>
<rscale>  0 0.17117629E+04</rscale>
<asrwt>0</asrwt>
<pdfrwt beam="1">  1        1 0.10594274E+00 0.17117629E+04</pdfrwt>
<pdfrwt beam="2">  1       -2 0.16365501E+00 0.17117629E+04</pdfrwt>
<totfact> 0.55018723E+00</totfact>
</mgrwt>
</event>
<event>
12    4  0.4486176E-008  0.2862915E+04  0.7818608E-02  0.8283998E-01
          1   -1    0    0  501    0  0.00000000000E+00  0.00000000000E+00  0.28568919853E+04  0.28568919853E+04  0.00000000000E+00 0. -1.
         -2   -1    0    0    0  501 -0.00000000000E+00 -0.00000000000E+00 -0.71723787126E+03  0.71723787126E+03  0.00000000000E+00 0.  1.
        -24    2    1    2    0    0 -0.73892718291E+03  0.64681839435E+03  0.20055271899E+04  0.22345646690E+04  0.82173801655E+02 0.  0.
        254    2    1    2    0    0  0.73892718291E+03 -0.64681839435E+03  0.13412692414E+03  0.13395651876E+04  0.90114229898E+03 0.  0.
         23    2    4    4    0    0  0.58946936129E+03 -0.81933413680E+02 -0.23071128042E+03  0.64476087493E+03  0.91113548670E+02 0.  0.
         23    2    4    4    0    0  0.14945782162E+03 -0.56488498067E+03  0.36483820456E+03  0.69480431262E+03  0.90628006160E+02 0.  0.
          1    1    3    3  502    0 -0.38339357656E+03  0.35140157941E+03  0.97239864216E+03  0.11027387831E+04  0.00000000000E+00 0. -1.
         -2    1    3    3    0  502 -0.35553360635E+03  0.29541681494E+03  0.10331285477E+04  0.11318258859E+04  0.00000000000E+00 0.  1.
         11    1    5    5    0    0  0.46673242747E+03 -0.10151085956E+03 -0.18863443248E+03  0.51354314578E+03  0.00000000000E+00 0.  1.
        -11    1    5    5    0    0  0.12273693382E+03  0.19577445880E+02 -0.42076847932E+02  0.13121772915E+03  0.00000000000E+00 0. -1.
          3    1    6    6  503    0  0.44352218351E+02 -0.18960401359E+03  0.73130405934E+02  0.20800206132E+03  0.00000000000E+00 0. -1.
         -3    1    6    6    0  503  0.10510560327E+03 -0.37528096708E+03  0.29170779863E+03  0.48680225130E+03  0.00000000000E+00 0.  1.
<mgrwt>
<rscale>  0 0.28629154E+04</rscale>
<asrwt>0</asrwt>
<pdfrwt beam="1">  1        1 0.43952184E+00 0.28629154E+04</pdfrwt>
<pdfrwt beam="2">  1       -2 0.11034429E+00 0.28629154E+04</pdfrwt>
<totfact> 0.37464903E-01</totfact>
</mgrwt>
</event>
<event>
12    4  0.4486176E-008  0.1628874E+04  0.7818608E-02  0.8803003E-01
          1   -1    0    0  501    0  0.00000000000E+00  0.00000000000E+00  0.20585546317E+04  0.20585546317E+04  0.00000000000E+00 0. -1.
         -2   -1    0    0    0  501 -0.00000000000E+00 -0.00000000000E+00 -0.32222006984E+03  0.32222006984E+03  0.00000000000E+00 0.  1.
        -24    2    1    2    0    0  0.18938734007E+03  0.53334980434E+03  0.54709872948E+03  0.79116900148E+03  0.79383819143E+02 0.  0.
        254    2    1    2    0    0 -0.18938734007E+03 -0.53334980434E+03  0.11892358324E+04  0.15896057001E+04  0.89007574862E+03 0.  0.
         23    2    4    4    0    0 -0.51488250519E+03 -0.27951400846E+03  0.47340318736E+03  0.75885867999E+03  0.92324662537E+02 0.  0.
         23    2    4    4    0    0  0.32549516512E+03 -0.25383579588E+03  0.71583264502E+03  0.83074702007E+03  0.85700186093E+02 0.  0.
          1    1    3    3  502    0  0.19210827912E+03  0.51343646417E+03  0.54092342163E+03  0.77014332544E+03  0.00000000000E+00 0. -1.
         -2    1    3    3    0  502 -0.27209390527E+01  0.19913340169E+02  0.61753078412E+01  0.21025676040E+02  0.00000000000E+00 0.  1.
         11    1    5    5    0    0 -0.42091008552E+03 -0.21330184739E+03  0.33372181898E+03  0.57795608021E+03  0.00000000000E+00 0. -1.
        -11    1    5    5    0    0 -0.93972419669E+02 -0.66212161073E+02  0.13968136838E+03  0.18090259977E+03  0.00000000000E+00 0.  1.
          1    1    6    6  503    0  0.26838810001E+03 -0.24455260645E+03  0.60112914282E+03  0.70227800471E+03  0.00000000000E+00 0. -1.
         -1    1    6    6    0  503  0.57107065119E+02 -0.92831894250E+01  0.11470350219E+03  0.12846901536E+03  0.00000000000E+00 0.  1.
<mgrwt>
<rscale>  0 0.16288740E+04</rscale>
<asrwt>0</asrwt>
<pdfrwt beam="1">  1        1 0.31670070E+00 0.16288740E+04</pdfrwt>
<pdfrwt beam="2">  1       -2 0.49572320E-01 0.16288740E+04</pdfrwt>
<totfact> 0.88059317E+00</totfact>
</mgrwt>
</event>
<event>
12    4  0.4486176E-008  0.1090780E+04  0.7818608E-02  0.9214225E-01
          1   -1    0    0  501    0  0.00000000000E+00  0.00000000000E+00  0.10426359211E+04  0.10426359211E+04  0.00000000000E+00 0. -1.
         -2   -1    0    0    0  501 -0.00000000000E+00 -0.00000000000E+00 -0.28528672038E+03  0.28528672038E+03  0.00000000000E+00 0.  1.
        -24    2    1    2    0    0 -0.10474396909E+03  0.59688425420E+01 -0.10685791348E+03  0.16950654500E+03  0.79416175826E+02 0.  0.
        254    2    1    2    0    0  0.10474396909E+03 -0.59688425420E+01  0.86420711418E+03  0.11584160965E+04  0.76424275605E+03 0.  0.
         23    2    4    4    0    0 -0.22328359299E+03 -0.24723503123E+03  0.47789945516E+03  0.58977279120E+03  0.91996371834E+02 0.  0.
         23    2    4    4    0    0  0.32802756207E+03  0.24126618869E+03  0.38630765902E+03  0.56864330525E+03  0.91160001659E+02 0.  0.
          1    1    3    3  502    0  0.13212058597E+02  0.18244418407E+01 -0.80489737324E+01  0.15577967086E+02  0.00000000000E+00 0. -1.
         -2    1    3    3    0  502 -0.11795602768E+03  0.41444007014E+01 -0.98808939752E+02  0.15392857791E+03  0.00000000000E+00 0.  1.
         11    1    5    5    0    0 -0.10355679702E+03 -0.14706556966E+03  0.18593928311E+03  0.25870003670E+03  0.00000000000E+00 0. -1.
        -11    1    5    5    0    0 -0.11972679597E+03 -0.10016946157E+03  0.29196017205E+03  0.33107275449E+03  0.00000000000E+00 0.  1.
          1    1    6    6  503    0  0.23872112208E+03  0.19295322767E+03  0.33676704214E+03  0.45566518724E+03  0.00000000000E+00 0. -1.
         -1    1    6    6    0  503  0.89306439998E+02  0.48312961019E+02  0.49540616883E+02  0.11297811801E+03  0.00000000000E+00 0.  1.
<mgrwt>
<rscale>  0 0.10907799E+04</rscale>
<asrwt>0</asrwt>
<pdfrwt beam="1">  1        1 0.16040552E+00 0.10907799E+04</pdfrwt>
<pdfrwt beam="2">  1       -2 0.43890265E-01 0.10907799E+04</pdfrwt>
<totfact> 0.60319740E+01</totfact>
</mgrwt>
</event>
<event>
12    4  0.4486176E-008  0.1351627E+04  0.7818608E-02  0.8989598E-01
          1   -1    0    0  501    0  0.00000000000E+00  0.00000000000E+00  0.25961725431E+04  0.25961725431E+04  0.00000000000E+00 0. -1.
         -2   -1    0    0    0  501 -0.00000000000E+00 -0.00000000000E+00 -0.17592191660E+03  0.17592191660E+03  0.00000000000E+00 0.  1.
        -24    2    1    2    0    0 -0.20311447054E+03 -0.22064789255E+03  0.11078926878E+04  0.11506470073E+04  0.81371660658E+02 0.  0.
        254    2    1    2    0    0  0.20311447054E+03  0.22064789255E+03  0.13123579387E+04  0.16214474524E+04  0.90380722553E+03 0.  0.
         23    2    4    4    0    0 -0.24335209631E+02  0.26184435909E+03 -0.73143753522E+01  0.27864953784E+03  0.91855288559E+02 0.  0.
         23    2    4    4    0    0  0.22744968017E+03 -0.41196466542E+02  0.13196723140E+04  0.13427979145E+04  0.90225921744E+02 0.  0.
          3    1    3    3  502    0 -0.18243721854E+03 -0.22150459464E+03  0.10655941475E+04  0.11035572080E+04  0.00000000000E+00 0. -1.
         -4    1    3    3    0  502 -0.20677252001E+02  0.85670208812E+00  0.42298540334E+02  0.47089799354E+02  0.00000000000E+00 0.  1.
         11    1    5    5    0    0 -0.51663147084E+02  0.19065181586E+03  0.17886571450E+02  0.19833588958E+03  0.00000000000E+00 0.  1.
        -11    1    5    5    0    0  0.27327937453E+02  0.71192543227E+02 -0.25200946802E+02  0.80313648256E+02  0.00000000000E+00 0. -1.
          1    1    6    6  503    0  0.76765996422E+02 -0.37106329048E+02  0.29421440252E+03  0.30632011445E+03  0.00000000000E+00 0. -1.
         -1    1    6    6    0  503  0.15068368375E+03 -0.40901374943E+01  0.10254579115E+04  0.10364778001E+04  0.00000000000E+00 0.  1.
<mgrwt>
<rscale>  0 0.13516266E+04</rscale>
<asrwt>0</asrwt>
<pdfrwt beam="1">  1        1 0.39941113E+00 0.13516266E+04</pdfrwt>
<pdfrwt beam="2">  1       -2 0.27064912E-01 0.13516266E+04</pdfrwt>
<totfact> 0.12440925E+01</totfact>
</mgrwt>
</event>
<event>
12    4  0.4486176E-008  0.2390357E+04  0.7818608E-02  0.8443123E-01
         -2   -1    0    0    0  501 -0.00000000000E+00  0.00000000000E+00  0.87764267621E+03  0.87764267621E+03  0.00000000000E+00 0.  1.
          1   -1    0    0  501    0  0.00000000000E+00 -0.00000000000E+00 -0.16276001597E+04  0.16276001597E+04  0.00000000000E+00 0. -1.
        -24    2    1    2    0    0  0.81912992055E+03  0.78520466606E+02 -0.95542826415E+03  0.12634441633E+04  0.79427295832E+02 0.  0.
        254    2    1    2    0    0 -0.81912992055E+03 -0.78520466606E+02  0.20547078066E+03  0.12417986726E+04  0.90703164843E+03 0.  0.
         23    2    4    4    0    0  0.75330308108E+02  0.43925005829E+02  0.30301413055E+03  0.32850558088E+03  0.92164482860E+02 0.  0.
         23    2    4    4    0    0 -0.89446022866E+03 -0.12244547243E+03 -0.97543349887E+02  0.91329309176E+03  0.97660493430E+02 0.  0.
          1    1    3    3  502    0  0.12623718862E+03  0.15437401445E+02 -0.19442277505E+03  0.23232381843E+03  0.00000000000E+00 0. -1.
         -2    1    3    3    0  502  0.69289273194E+03  0.63083065161E+02 -0.76100548911E+03  0.10311203448E+04  0.00000000000E+00 0.  1.
         11    1    5    5    0    0  0.47892327073E+02 -0.61949091568E+01  0.23388763778E+03  0.23882101875E+03  0.00000000000E+00 0. -1.
        -11    1    5    5    0    0  0.27437981035E+02  0.50119914986E+02  0.69126492767E+02  0.89684562126E+02  0.00000000000E+00 0.  1.
          2    1    6    6  503    0 -0.75993282317E+03 -0.68096150155E+02 -0.82169696531E+02  0.76738962752E+03  0.00000000000E+00 0. -1.
         -2    1    6    6    0  503 -0.13452740549E+03 -0.54349322280E+02 -0.15373653357E+02  0.14590346424E+03  0.00000000000E+00 0.  1.
<mgrwt>
<rscale>  0 0.23903568E+04</rscale>
<asrwt>0</asrwt>
<pdfrwt beam="1">  1        1 0.25040002E+00 0.23903568E+04</pdfrwt>
<pdfrwt beam="2">  1       -2 0.13502195E+00 0.23903568E+04</pdfrwt>
<totfact> 0.16592836E+00</totfact>
</mgrwt>
</event>
<event>
12    4  0.4486176E-008  0.2178964E+04  0.7818608E-02  0.8527235E-01
          1   -1    0    0  501    0  0.00000000000E+00  0.00000000000E+00  0.21364947014E+04  0.21364947014E+04  0.00000000000E+00 0. -1.
         -2   -1    0    0    0  501 -0.00000000000E+00 -0.00000000000E+00 -0.55556917014E+03  0.55556917014E+03  0.00000000000E+00 0.  1.
        -24    2    1    2    0    0 -0.67438454565E+03  0.34509033467E+03  0.50644294902E+02  0.76358516536E+03  0.81336373487E+02 0.  0.
        254    2    1    2    0    0  0.67438454565E+03 -0.34509033467E+03  0.15302812364E+04  0.19284787062E+04  0.89631891833E+03 0.  0.
         23    2    4    4    0    0  0.83744694807E+03 -0.42112126545E+03  0.14052194036E+04  0.16915818516E+04  0.90261162654E+02 0.  0.
         23    2    4    4    0    0 -0.16306240241E+03  0.76030930776E+02  0.12506183282E+03  0.23689685460E+03  0.90053362935E+02 0.  0.
          3    1    3    3  502    0 -0.29744034183E+03  0.17887775808E+03  0.56079346048E+02  0.35158626585E+03  0.00000000000E+00 0. -1.
         -4    1    3    3    0  502 -0.37694420383E+03  0.16621257659E+03 -0.54350511463E+01  0.41199889951E+03  0.00000000000E+00 0.  1.
         11    1    5    5    0    0  0.16043812569E+03 -0.95869607939E+02  0.34346098351E+03  0.39102023106E+03  0.00000000000E+00 0. -1.
        -11    1    5    5    0    0  0.67700882237E+03 -0.32525165751E+03  0.10617584201E+04  0.13005616206E+04  0.00000000000E+00 0.  1.
          1    1    6    6  503    0 -0.64336290565E+02  0.47765175970E+02  0.70184411247E+01  0.80435867838E+02  0.00000000000E+00 0. -1.
         -1    1    6    6    0  503 -0.98726111849E+02  0.28265754806E+02  0.11804339170E+03  0.15646098676E+03  0.00000000000E+00 0.  1.
<mgrwt>
<rscale>  0 0.21789636E+04</rscale>
<asrwt>0</asrwt>
<pdfrwt beam="1">  1        1 0.32869149E+00 0.21789636E+04</pdfrwt>
<pdfrwt beam="2">  1       -2 0.85472181E-01 0.21789636E+04</pdfrwt>
<totfact> 0.22976746E+00</totfact>
</mgrwt>
</event>
<event>
12    4  0.4486176E-008  0.1427443E+04  0.7818608E-02  0.8934190E-01
          1   -1    0    0  501    0  0.00000000000E+00  0.00000000000E+00  0.16136546336E+04  0.16136546336E+04  0.00000000000E+00 0. -1.
         -2   -1    0    0    0  501 -0.00000000000E+00 -0.00000000000E+00 -0.31567982454E+03  0.31567982454E+03  0.00000000000E+00 0.  1.
        -24    2    1    2    0    0  0.30269706138E+03 -0.94820855165E+02  0.75057055917E+03  0.81884044961E+03  0.80789925602E+02 0.  0.
        254    2    1    2    0    0 -0.30269706138E+03  0.94820855165E+02  0.54740424992E+03  0.11104940086E+04  0.91264945333E+03 0.  0.
         23    2    4    4    0    0 -0.48503981264E+03  0.14390938347E+02  0.69058759499E+03  0.84871768946E+03  0.89105393192E+02 0.  0.
         23    2    4    4    0    0  0.18234275126E+03  0.80429916818E+02 -0.14318334506E+03  0.26177631910E+03  0.91145600436E+02 0.  0.
          1    1    3    3  502    0  0.11559233726E+03  0.12651247127E+01  0.23100444410E+03  0.25831423144E+03  0.00000000000E+00 0. -1.
         -2    1    3    3    0  502  0.18710472412E+03 -0.96085979878E+02  0.51956611507E+03  0.56052621816E+03  0.00000000000E+00 0.  1.
         11    1    5    5    0    0 -0.42288675634E+03  0.42546327575E+02  0.60118710122E+03  0.73625357680E+03  0.00000000000E+00 0. -1.
        -11    1    5    5    0    0 -0.62153056307E+02 -0.28155389229E+02  0.89400493770E+02  0.11246411266E+03  0.00000000000E+00 0.  1.
          3    1    6    6  503    0  0.90064902597E+02  0.43314933992E+02 -0.17437245731E+02  0.10144913861E+03  0.00000000000E+00 0. -1.
         -3    1    6    6    0  503  0.92277848665E+02  0.37114982826E+02 -0.12574609933E+03  0.16032718048E+03  0.00000000000E+00 0.  1.
<mgrwt>
<rscale>  0 0.14274428E+04</rscale>
<asrwt>0</asrwt>
<pdfrwt beam="1">  1        1 0.24825455E+00 0.14274428E+04</pdfrwt>
<pdfrwt beam="2">  1       -2 0.48566128E-01 0.14274428E+04</pdfrwt>
<totfact> 0.18723925E+01</totfact>
</mgrwt>
</event>
<event>
12    4  0.4486176E-008  0.3384237E+04  0.7818608E-02  0.8141786E-01
         -2   -1    0    0    0  501 -0.00000000000E+00  0.00000000000E+00  0.32969329669E+04  0.32969329669E+04  0.00000000000E+00 0.  1.
          1   -1    0    0  501    0  0.00000000000E+00 -0.00000000000E+00 -0.86846341637E+03  0.86846341637E+03  0.00000000000E+00 0. -1.
        -24    2    1    2    0    0 -0.12343297314E+04 -0.91715005472E+03  0.71030633245E+03  0.16957677399E+04  0.79743546242E+02 0.  0.
        254    2    1    2    0    0  0.12343297314E+04  0.91715005472E+03  0.17181632181E+04  0.24696286433E+04  0.88444710612E+03 0.  0.
         23    2    4    4    0    0  0.12571358935E+04  0.55879626976E+03  0.15111617914E+04  0.20455442726E+04  0.89428661962E+02 0.  0.
         23    2    4    4    0    0 -0.22806162116E+02  0.35835378496E+03  0.20700142662E+03  0.42408437072E+03  0.89779767431E+02 0.  0.
          1    1    3    3  502    0 -0.97041711755E+03 -0.70954583468E+03  0.51988466928E+03  0.13097498780E+04  0.00000000000E+00 0. -1.
         -2    1    3    3    0  502 -0.26391261382E+03 -0.20760422004E+03  0.19042166317E+03  0.38601786191E+03  0.00000000000E+00 0.  1.
         11    1    5    5    0    0  0.37634895972E+02  0.34946515471E+02  0.58713254665E+02  0.78005708841E+02  0.00000000000E+00 0.  1.
        -11    1    5    5    0    0  0.12195009975E+04  0.52384975428E+03  0.14524485368E+04  0.19675385638E+04  0.00000000000E+00 0. -1.
          2    1    6    6  503    0 -0.57563470506E+02  0.22784697311E+03  0.13542925619E+03  0.27123583783E+03  0.00000000000E+00 0. -1.
         -2    1    6    6    0  503  0.34757308390E+02  0.13050681185E+03  0.71572170428E+02  0.15284853289E+03  0.00000000000E+00 0.  1.
<mgrwt>
<rscale>  0 0.33842374E+04</rscale>
<asrwt>0</asrwt>
<pdfrwt beam="1">  1        1 0.13360976E+00 0.33842374E+04</pdfrwt>
<pdfrwt beam="2">  1       -2 0.50722045E+00 0.33842374E+04</pdfrwt>
<totfact> 0.20760249E-02</totfact>
</mgrwt>
</event>
<event>
12    4  0.4567125E-008  0.2180213E+04  0.7818608E-02  0.8526709E-01
         -2   -1    0    0    0  501 -0.00000000000E+00  0.00000000000E+00  0.72561813634E+03  0.72561813634E+03  0.00000000000E+00 0.  1.
          1   -1    0    0  501    0  0.00000000000E+00 -0.00000000000E+00 -0.16376823430E+04  0.16376823430E+04  0.00000000000E+00 0. -1.
        -24    2    1    2    0    0  0.47462091039E+03  0.56527547535E+03  0.17266277458E+03  0.76214721460E+03  0.79085848203E+02 0.  0.
        254    2    1    2    0    0 -0.47462091039E+03 -0.56527547535E+03 -0.10847269812E+04  0.16011532647E+04  0.91774603336E+03 0.  0.
         23    2    4    4    0    0 -0.29969902691E+03 -0.79657099850E+03 -0.91394867189E+03  0.12521544384E+04  0.90794825639E+02 0.  0.
         23    2    4    4    0    0 -0.17492188348E+03  0.23129552316E+03 -0.17077830932E+03  0.34899882632E+03  0.92410310505E+02 0.  0.
          1    1    3    3  502    0  0.79759759406E+02  0.14610687416E+03  0.40300533114E+02  0.17126870953E+03  0.00000000000E+00 0. -1.
         -2    1    3    3    0  502  0.39486115099E+03  0.41916860119E+03  0.13236224146E+03  0.59087850506E+03  0.00000000000E+00 0.  1.
         11    1    5    5    0    0  0.81143681468E+00 -0.56038387416E+02 -0.72958502809E+02  0.91999469705E+02  0.00000000000E+00 0. -1.
        -11    1    5    5    0    0 -0.30051046372E+03 -0.74053261109E+03 -0.84099016908E+03  0.11601549687E+04  0.00000000000E+00 0.  1.
          3    1    6    6  503    0  0.18265549822E+01 -0.22103763963E+01 -0.18872626751E+02  0.19089214426E+02  0.00000000000E+00 0. -1.
         -3    1    6    6    0  503 -0.17674843847E+03  0.23350589955E+03 -0.15190568257E+03  0.32990961190E+03  0.00000000000E+00 0.  1.
<mgrwt>
<rscale>  0 0.21802128E+04</rscale>
<asrwt>0</asrwt>
<pdfrwt beam="1">  1        1 0.25195113E+00 0.21802128E+04</pdfrwt>
<pdfrwt beam="2">  1       -2 0.11163356E+00 0.21802128E+04</pdfrwt>
<totfact> 0.26727503E+00</totfact>
</mgrwt>
</event>
<event>
12    4  0.4486176E-008  0.3512927E+04  0.7818608E-02  0.8110733E-01
         -2   -1    0    0    0  501 -0.00000000000E+00  0.00000000000E+00  0.13834000931E+04  0.13834000931E+04  0.00000000000E+00 0.  1.
          1   -1    0    0  501    0  0.00000000000E+00 -0.00000000000E+00 -0.22301316563E+04  0.22301316563E+04  0.00000000000E+00 0. -1.
        -24    2    1    2    0    0 -0.55521998848E+03  0.11642320709E+04  0.63730817808E+03  0.14409083165E+04  0.79683827282E+02 0.  0.
        254    2    1    2    0    0  0.55521998848E+03 -0.11642320709E+04 -0.14840397413E+04  0.21726234329E+04  0.92423648312E+03 0.  0.
         23    2    4    4    0    0  0.62387444532E+03 -0.43737775909E+03 -0.11036089331E+04  0.13437824139E+04  0.85322159122E+02 0.  0.
         23    2    4    4    0    0 -0.68654456845E+02 -0.72685431179E+03 -0.38043080816E+03  0.82884101898E+03  0.96016716933E+02 0.  0.
          3    1    3    3  502    0 -0.42054503409E+03  0.94638331188E+03  0.49364272989E+03  0.11472500353E+04  0.00000000000E+00 0. -1.
         -4    1    3    3    0  502 -0.13467495438E+03  0.21784875900E+03  0.14366544819E+03  0.29365828124E+03  0.00000000000E+00 0.  1.
         11    1    5    5    0    0  0.62147725571E+03 -0.43409379613E+03 -0.11044965253E+04  0.13396208336E+04  0.00000000000E+00 0.  1.
        -11    1    5    5    0    0  0.23971896098E+01 -0.32839629608E+01  0.88759220267E+00  0.41615803094E+01  0.00000000000E+00 0. -1.
          3    1    6    6  503    0 -0.88808122300E+01 -0.31475719753E+03 -0.21232073751E+03  0.37977764258E+03  0.00000000000E+00 0. -1.
         -3    1    6    6    0  503 -0.59773644615E+02 -0.41209711426E+03 -0.16811007064E+03  0.44906337640E+03  0.00000000000E+00 0.  1.
<mgrwt>
<rscale>  0 0.35129272E+04</rscale>
<asrwt>0</asrwt>
<pdfrwt beam="1">  1        1 0.34309718E+00 0.35129272E+04</pdfrwt>
<pdfrwt beam="2">  1       -2 0.21283078E+00 0.35129272E+04</pdfrwt>
<totfact> 0.16354586E-01</totfact>
</mgrwt>
</event>
<event>
12    4  0.4486176E-008  0.2530312E+04  0.7818608E-02  0.8392266E-01
          1   -1    0    0  501    0  0.00000000000E+00  0.00000000000E+00  0.29628204954E+04  0.29628204954E+04  0.00000000000E+00 0. -1.
         -2   -1    0    0    0  501 -0.00000000000E+00 -0.00000000000E+00 -0.54023526049E+03  0.54023526049E+03  0.00000000000E+00 0.  1.
        -24    2    1    2    0    0 -0.94095931016E+03  0.53939726382E+03  0.79097280823E+03  0.13447345280E+04  0.79492992493E+02 0.  0.
        254    2    1    2    0    0  0.94095931016E+03 -0.53939726382E+03  0.16316124266E+04  0.21583212278E+04  0.90544882804E+03 0.  0.
         23    2    4    4    0    0  0.22586743275E+03 -0.37685086310E+03  0.10267901898E+03  0.46017040324E+03  0.90449703614E+02 0.  0.
         23    2    4    4    0    0  0.71509187741E+03 -0.16254640072E+03  0.15289334077E+04  0.16981508246E+04  0.91110551071E+02 0.  0.
          3    1    3    3  502    0 -0.53890716684E+03  0.31352078589E+03  0.50270397118E+03  0.80089169074E+03  0.00000000000E+00 0. -1.
         -4    1    3    3    0  502 -0.40205214332E+03  0.22587647793E+03  0.28826883705E+03  0.54384283727E+03  0.00000000000E+00 0.  1.
         11    1    5    5    0    0  0.22217848051E+03 -0.30887361975E+03  0.88187866621E+02  0.39056790703E+03  0.00000000000E+00 0.  1.
        -11    1    5    5    0    0  0.36889522313E+01 -0.67977243352E+02  0.14491152356E+02  0.69602496211E+02  0.00000000000E+00 0. -1.
          4    1    6    6  503    0  0.12664961279E+03 -0.17531139973E+02  0.19749599022E+03  0.23527033693E+03  0.00000000000E+00 0. -1.
         -4    1    6    6    0  503  0.58844226463E+03 -0.14501526075E+03  0.13314374174E+04  0.14628804877E+04  0.00000000000E+00 0.  1.
<mgrwt>
<rscale>  0 0.25303123E+04</rscale>
<asrwt>0</asrwt>
<pdfrwt beam="1">  1        1 0.45581853E+00 0.25303123E+04</pdfrwt>
<pdfrwt beam="2">  1       -2 0.83113119E-01 0.25303123E+04</pdfrwt>
<totfact> 0.62851613E-01</totfact>
</mgrwt>
</event>
<event>
12    4  0.4486176E-008  0.1680593E+04  0.7818608E-02  0.8772511E-01
          1   -1    0    0  501    0  0.00000000000E+00  0.00000000000E+00  0.95437158328E+03  0.95437158328E+03  0.00000000000E+00 0. -1.
         -2   -1    0    0    0  501 -0.00000000000E+00 -0.00000000000E+00 -0.73985695780E+03  0.73985695780E+03  0.00000000000E+00 0.  1.
        -24    2    1    2    0    0 -0.93483276481E+02 -0.62769698605E+02  0.66741115976E+03  0.68154900636E+03  0.79951446869E+02 0.  0.
        254    2    1    2    0    0  0.93483276481E+02  0.62769698605E+02 -0.45289653429E+03  0.10126795347E+04  0.89873545118E+03 0.  0.
         23    2    4    4    0    0  0.21549564575E+03  0.27687137594E+03 -0.60790745726E+03  0.70770151247E+03  0.90519732727E+02 0.  0.
         23    2    4    4    0    0 -0.12201236927E+03 -0.21410167733E+03  0.15501092297E+03  0.30497802224E+03  0.90866172580E+02 0.  0.
          1    1    3    3  502    0 -0.72080976348E+02 -0.17522577079E+02  0.53268597541E+03  0.53782623240E+03  0.00000000000E+00 0. -1.
         -2    1    3    3    0  502 -0.21402300133E+02 -0.45247121526E+02  0.13472518435E+03  0.14372277396E+03  0.00000000000E+00 0.  1.
         11    1    5    5    0    0  0.16012005911E+03  0.14893504512E+03 -0.31691132679E+03  0.38503619316E+03  0.00000000000E+00 0. -1.
        -11    1    5    5    0    0  0.55375586634E+02  0.12793633081E+03 -0.29099613047E+03  0.32266531931E+03  0.00000000000E+00 0.  1.
          1    1    6    6  503    0 -0.11580698153E+03 -0.11455255516E+03  0.97612003080E+02  0.18989904689E+03  0.00000000000E+00 0. -1.
         -1    1    6    6    0  503 -0.62053877322E+01 -0.99549122178E+02  0.57398919893E+02  0.11507897535E+03  0.00000000000E+00 0.  1.
<mgrwt>
<rscale>  0 0.16805933E+04</rscale>
<asrwt>0</asrwt>
<pdfrwt beam="1">  1        1 0.14682640E+00 0.16805933E+04</pdfrwt>
<pdfrwt beam="2">  1       -2 0.11382415E+00 0.16805933E+04</pdfrwt>
<totfact> 0.83050953E+00</totfact>
</mgrwt>
</event>
<event>
12    4  0.4486176E-008  0.3035079E+04  0.7818608E-02  0.8233784E-01
          1   -1    0    0  501    0  0.00000000000E+00  0.00000000000E+00  0.10760771456E+04  0.10760771456E+04  0.00000000000E+00 0. -1.
         -2   -1    0    0    0  501 -0.00000000000E+00 -0.00000000000E+00 -0.21401125560E+04  0.21401125560E+04  0.00000000000E+00 0.  1.
        -24    2    1    2    0    0 -0.15913964680E+03 -0.43884533881E+03 -0.18608937832E+04  0.19202119285E+04  0.79859371665E+02 0.  0.
        254    2    1    2    0    0  0.15913964680E+03  0.43884533881E+03  0.79685837286E+03  0.12959777731E+04  0.90921090144E+03 0.  0.
         23    2    4    4    0    0 -0.30774511341E+03 -0.89336767990E+01  0.89254580262E+02  0.33288217523E+03  0.89762448053E+02 0.  0.
         23    2    4    4    0    0  0.46688476021E+03  0.44777901561E+03  0.70760379259E+03  0.96309559783E+03  0.91447127520E+02 0.  0.
          1    1    3    3  502    0 -0.96499362741E+02 -0.22792714107E+03 -0.83100000778E+03  0.86707780595E+03  0.00000000000E+00 0. -1.
         -2    1    3    3    0  502 -0.62640284060E+02 -0.21091819774E+03 -0.10298937754E+04  0.10531341225E+04  0.00000000000E+00 0.  1.
         11    1    5    5    0    0 -0.13178622437E+03  0.39787975325E+02  0.29637804115E+02  0.14081580645E+03  0.00000000000E+00 0.  1.
        -11    1    5    5    0    0 -0.17595888904E+03 -0.48721652124E+02  0.59616776146E+02  0.19206636878E+03  0.00000000000E+00 0. -1.
          2    1    6    6  503    0  0.25380317340E+03  0.26749106731E+03  0.46358053364E+03  0.59234654814E+03  0.00000000000E+00 0. -1.
         -2    1    6    6    0  503  0.21308158680E+03  0.18028794830E+03  0.24402325895E+03  0.37074904969E+03  0.00000000000E+00 0.  1.
<mgrwt>
<rscale>  0 0.30350791E+04</rscale>
<asrwt>0</asrwt>
<pdfrwt beam="1">  1        1 0.16555033E+00 0.30350791E+04</pdfrwt>
<pdfrwt beam="2">  1       -2 0.32924808E+00 0.30350791E+04</pdfrwt>
<totfact> 0.20650604E-01</totfact>
</mgrwt>
</event>
<event>
12    4  0.4486176E-008  0.2138677E+04  0.7818608E-02  0.8544395E-01
          1   -1    0    0  501    0  0.00000000000E+00  0.00000000000E+00  0.13349511591E+04  0.13349511591E+04  0.00000000000E+00 0. -1.
         -2   -1    0    0    0  501 -0.00000000000E+00 -0.00000000000E+00 -0.85657424202E+03  0.85657424202E+03  0.00000000000E+00 0.  1.
        -24    2    1    2    0    0  0.34378692035E+03 -0.53416075014E+02 -0.63356094849E+03  0.72728435563E+03  0.80624653944E+02 0.  0.
        254    2    1    2    0    0 -0.34378692035E+03  0.53416075014E+02  0.11119378656E+04  0.14642410455E+04  0.88687840132E+03 0.  0.
         23    2    4    4    0    0 -0.30658055460E+03 -0.30612722254E+03  0.96949565935E+03  0.10657627650E+04  0.90680345148E+02 0.  0.
         23    2    4    4    0    0 -0.37206365758E+02  0.35954329755E+03  0.14244220624E+03  0.39847828048E+03  0.88540733137E+02 0.  0.
          1    1    3    3  502    0  0.11073457989E+02 -0.97848937273E+01 -0.66273562763E+01  0.16195291547E+02  0.00000000000E+00 0. -1.
         -2    1    3    3    0  502  0.33271346237E+03 -0.43631181287E+02 -0.62693359221E+03  0.71108906408E+03  0.00000000000E+00 0.  1.
         11    1    5    5    0    0 -0.85626687104E+02 -0.13635220097E+03  0.41631782071E+03  0.44636798731E+03  0.00000000000E+00 0.  1.
        -11    1    5    5    0    0 -0.22095386749E+03 -0.16977502156E+03  0.55317783863E+03  0.61939477771E+03  0.00000000000E+00 0. -1.
          1    1    6    6  503    0 -0.38000995742E+02  0.26038642295E+03  0.60908072244E+02  0.27010175527E+03  0.00000000000E+00 0. -1.
         -1    1    6    6    0  503  0.79462998348E+00  0.99156874602E+02  0.81534134000E+02  0.12837652521E+03  0.00000000000E+00 0.  1.
<mgrwt>
<rscale>  0 0.21386770E+04</rscale>
<asrwt>0</asrwt>
<pdfrwt beam="1">  1        1 0.20537710E+00 0.21386770E+04</pdfrwt>
<pdfrwt beam="2">  1       -2 0.13178065E+00 0.21386770E+04</pdfrwt>
<totfact> 0.28824844E+00</totfact>
</mgrwt>
</event>
<event>
12    4  0.4486176E-008  0.1179299E+04  0.7818608E-02  0.9131172E-01
          1   -1    0    0  501    0  0.00000000000E+00  0.00000000000E+00  0.94481812314E+03  0.94481812314E+03  0.00000000000E+00 0. -1.
         -2   -1    0    0    0  501 -0.00000000000E+00 -0.00000000000E+00 -0.36799295354E+03  0.36799295354E+03  0.00000000000E+00 0.  1.
        -24    2    1    2    0    0 -0.33470484537E+02  0.21405329121E+02  0.36476752622E+03  0.37486506264E+03  0.76746371606E+02 0.  0.
        254    2    1    2    0    0  0.33470484537E+02 -0.21405329121E+02  0.21205764339E+03  0.93794601404E+03  0.91279560674E+03 0.  0.
         23    2    4    4    0    0  0.18045714050E+02 -0.45736461629E+03  0.10686613128E+03  0.47935406898E+03  0.94084607699E+02 0.  0.
         23    2    4    4    0    0  0.15424770488E+02  0.43595928717E+03  0.10519151210E+03  0.45859194506E+03  0.94566877074E+02 0.  0.
          3    1    3    3  502    0 -0.54672652990E+02  0.27793637164E+02  0.21903124591E+03  0.22745608793E+03  0.00000000000E+00 0. -1.
         -4    1    3    3    0  502  0.21202168453E+02 -0.63883080430E+01  0.14573628031E+03  0.14740897471E+03  0.00000000000E+00 0.  1.
         11    1    5    5    0    0  0.36669507335E+02 -0.43832024517E+03  0.10715399443E+03  0.45271543890E+03  0.00000000000E+00 0. -1.
        -11    1    5    5    0    0 -0.18623793286E+02 -0.19044371119E+02 -0.28786314177E+00  0.26638630086E+02  0.00000000000E+00 0.  1.
          4    1    6    6  503    0  0.12707885498E+02  0.41271577761E+03  0.73827461130E+02  0.41945953018E+03  0.00000000000E+00 0. -1.
         -4    1    6    6    0  503  0.27168849895E+01  0.23243509558E+02  0.31364050973E+02  0.39132414876E+02  0.00000000000E+00 0.  1.
<mgrwt>
<rscale>  0 0.11792988E+04</rscale>
<asrwt>0</asrwt>
<pdfrwt beam="1">  1        1 0.14535663E+00 0.11792988E+04</pdfrwt>
<pdfrwt beam="2">  1       -2 0.56614301E-01 0.11792988E+04</pdfrwt>
<totfact> 0.42552820E+01</totfact>
</mgrwt>
</event>
<event>
12    4  0.4486176E-008  0.1138200E+04  0.7818608E-02  0.9168739E-01
         -2   -1    0    0    0  501 -0.00000000000E+00  0.00000000000E+00  0.37300640393E+03  0.37300640393E+03  0.00000000000E+00 0.  1.
          1   -1    0    0  501    0  0.00000000000E+00 -0.00000000000E+00 -0.86828190552E+03  0.86828190552E+03  0.00000000000E+00 0. -1.
        -24    2    1    2    0    0  0.99091914848E+02  0.16525606751E+03 -0.21375909777E+02  0.21009037462E+03  0.80946034814E+02 0.  0.
        254    2    1    2    0    0 -0.99091914848E+02 -0.16525606751E+03 -0.47389959181E+03  0.10311979348E+04  0.89535444503E+03 0.  0.
         23    2    4    4    0    0  0.37565515790E+01  0.72257063000E+02  0.23869093143E+03  0.26760028089E+03  0.96960583510E+02 0.  0.
         23    2    4    4    0    0 -0.10284846643E+03 -0.23751313051E+03 -0.71259052324E+03  0.76359765394E+03  0.91136321421E+02 0.  0.
          3    1    3    3  502    0  0.38621200513E+02  0.24673292660E+02 -0.33209042881E+02  0.56596899463E+02  0.00000000000E+00 0. -1.
         -4    1    3    3    0  502  0.60470714334E+02  0.14058277485E+03  0.11833133104E+02  0.15349347516E+03  0.00000000000E+00 0.  1.
         11    1    5    5    0    0  0.45687758501E+02  0.12189944374E+02  0.82677271187E+02  0.95244407666E+02  0.00000000000E+00 0.  1.
        -11    1    5    5    0    0 -0.41931206922E+02  0.60067118626E+02  0.15601366024E+03  0.17235587322E+03  0.00000000000E+00 0. -1.
          3    1    6    6  503    0 -0.88573206805E+02 -0.16984521762E+03 -0.40070060414E+03  0.44413239588E+03  0.00000000000E+00 0. -1.
         -3    1    6    6    0  503 -0.14275259622E+02 -0.67667912892E+02 -0.31188991910E+03  0.31946525806E+03  0.00000000000E+00 0.  1.
<mgrwt>
<rscale>  0 0.11381998E+04</rscale>
<asrwt>0</asrwt>
<pdfrwt beam="1">  1        1 0.13358183E+00 0.11381998E+04</pdfrwt>
<pdfrwt beam="2">  1       -2 0.57385601E-01 0.11381998E+04</pdfrwt>
<totfact> 0.47910586E+01</totfact>
</mgrwt>
</event>
<event>
12    4  0.4486176E-008  0.1952017E+04  0.7818608E-02  0.8629389E-01
          1   -1    0    0  501    0  0.00000000000E+00  0.00000000000E+00  0.14597034933E+04  0.14597034933E+04  0.00000000000E+00 0. -1.
         -2   -1    0    0    0  501 -0.00000000000E+00 -0.00000000000E+00 -0.65259352472E+03  0.65259352472E+03  0.00000000000E+00 0.  1.
        -24    2    1    2    0    0 -0.21800155753E+03  0.67998152906E+03  0.12857063256E+02  0.71864292537E+03  0.79892372329E+02 0.  0.
        254    2    1    2    0    0  0.21800155753E+03 -0.67998152906E+03  0.79425290528E+03  0.13936540926E+04  0.89528458791E+03 0.  0.
         23    2    4    4    0    0  0.31794256020E+03 -0.75350068843E+03  0.88944033319E+03  0.12117556336E+04  0.91634329275E+02 0.  0.
         23    2    4    4    0    0 -0.99941002671E+02  0.73519159366E+02 -0.95187427907E+02  0.18189845897E+03  0.92914649738E+02 0.  0.
          3    1    3    3  502    0  0.25051788620E+00  0.18240026501E+02  0.12006481318E+02  0.21838427590E+02  0.00000000000E+00 0. -1.
         -4    1    3    3    0  502 -0.21825207542E+03  0.66174150256E+03  0.85058193793E+00  0.69680449778E+03  0.00000000000E+00 0.  1.
         11    1    5    5    0    0  0.10510384447E+03 -0.28408705776E+03  0.39254623592E+03  0.49582741135E+03  0.00000000000E+00 0.  1.
        -11    1    5    5    0    0  0.21283871573E+03 -0.46941363067E+03  0.49689409727E+03  0.71592822229E+03  0.00000000000E+00 0. -1.
          1    1    6    6  503    0 -0.65755439069E+02  0.84435013182E+02 -0.99028994404E+02  0.14580737619E+03  0.00000000000E+00 0. -1.
         -1    1    6    6    0  503 -0.34185563602E+02 -0.10915853816E+02  0.38415664970E+01  0.36091082783E+02  0.00000000000E+00 0.  1.
<mgrwt>
<rscale>  0 0.19520175E+04</rscale>
<asrwt>0</asrwt>
<pdfrwt beam="1">  1        1 0.22456977E+00 0.19520175E+04</pdfrwt>
<pdfrwt beam="2">  1       -2 0.10039900E+00 0.19520175E+04</pdfrwt>
<totfact> 0.46675072E+00</totfact>
</mgrwt>
</event>
<event>
12    4  0.4486176E-008  0.2125922E+04  0.7818608E-02  0.8549910E-01
         -2   -1    0    0    0  501 -0.00000000000E+00  0.00000000000E+00  0.58394350014E+03  0.58394350014E+03  0.00000000000E+00 0.  1.
          1   -1    0    0  501    0  0.00000000000E+00 -0.00000000000E+00 -0.19349235055E+04  0.19349235055E+04  0.00000000000E+00 0. -1.
        -24    2    1    2    0    0  0.18507478953E+03  0.20541478480E+03 -0.15297413699E+04  0.15568643206E+04  0.85263957492E+02 0.  0.
        254    2    1    2    0    0 -0.18507478953E+03 -0.20541478480E+03  0.17876136448E+03  0.96200268510E+03  0.90390576344E+03 0.  0.
         23    2    4    4    0    0  0.81774243344E+02  0.28627343485E+03 -0.10434558617E+03  0.32834523545E+03  0.91011460350E+02 0.  0.
         23    2    4    4    0    0 -0.26684903288E+03 -0.49168821966E+03  0.28310695065E+03  0.63365744965E+03  0.91687001771E+02 0.  0.
          1    1    3    3  502    0  0.10682109027E+03  0.15615039252E+03 -0.11816670883E+04  0.11967166741E+04  0.00000000000E+00 0. -1.
         -2    1    3    3    0  502  0.78253699268E+02  0.49264392287E+02 -0.34807428154E+03  0.36014764648E+03  0.00000000000E+00 0.  1.
         11    1    5    5    0    0 -0.11425314894E+02  0.13176797813E+01 -0.32918340716E+01  0.11962870558E+02  0.00000000000E+00 0.  1.
        -11    1    5    5    0    0  0.93199558238E+02  0.28495575507E+03 -0.10105375210E+03  0.31638236490E+03  0.00000000000E+00 0. -1.
          1    1    6    6  503    0 -0.14717751911E+03 -0.21338243396E+03  0.17147143193E+03  0.31079854766E+03  0.00000000000E+00 0. -1.
         -1    1    6    6    0  503 -0.11967151377E+03 -0.27830578569E+03  0.11163551872E+03  0.32285890199E+03  0.00000000000E+00 0.  1.
<mgrwt>
<rscale>  0 0.21259219E+04</rscale>
<asrwt>0</asrwt>
<pdfrwt beam="1">  1        1 0.29768053E+00 0.21259219E+04</pdfrwt>
<pdfrwt beam="2">  1       -2 0.89837463E-01 0.21259219E+04</pdfrwt>
<totfact> 0.28214901E+00</totfact>
</mgrwt>
</event>
<event>
12    4  0.4486176E-008  0.2091020E+04  0.7818608E-02  0.8565209E-01
         -2   -1    0    0    0  501 -0.00000000000E+00  0.00000000000E+00  0.15592487334E+04  0.15592487334E+04  0.00000000000E+00 0.  1.
          1   -1    0    0  501    0  0.00000000000E+00 -0.00000000000E+00 -0.70103738504E+03  0.70103738504E+03  0.00000000000E+00 0. -1.
        -24    2    1    2    0    0  0.84335604689E+03 -0.33751811042E+02  0.26024122002E+03  0.88691280668E+03  0.80623988230E+02 0.  0.
        254    2    1    2    0    0 -0.84335604689E+03  0.33751811042E+02  0.59797012835E+03  0.13733733118E+04  0.90343642418E+03 0.  0.
         23    2    4    4    0    0 -0.55309342777E+03 -0.41187120878E+03  0.36859998875E+03  0.78726242194E+03  0.91465495294E+02 0.  0.
         23    2    4    4    0    0 -0.29026261912E+03  0.44562301982E+03  0.22937013960E+03  0.58611088984E+03  0.89905786201E+02 0.  0.
          3    1    3    3  502    0  0.65987194706E+03 -0.56262131209E+02  0.21870496795E+03  0.69744410308E+03  0.00000000000E+00 0. -1.
         -4    1    3    3    0  502  0.18348409983E+03  0.22510320167E+02  0.41536252067E+02  0.18946870359E+03  0.00000000000E+00 0.  1.
         11    1    5    5    0    0 -0.21209409238E+03 -0.21203841886E+03  0.14435313138E+03  0.33283933306E+03  0.00000000000E+00 0. -1.
        -11    1    5    5    0    0 -0.34099933539E+03 -0.19983278992E+03  0.22424685737E+03  0.45442308888E+03  0.00000000000E+00 0.  1.
          4    1    6    6  503    0 -0.58886563223E+02  0.36393942401E+02  0.31532552171E+02  0.76068707220E+02  0.00000000000E+00 0. -1.
         -4    1    6    6    0  503 -0.23137605590E+03  0.40922907742E+03  0.19783758743E+03  0.51004218262E+03  0.00000000000E+00 0.  1.
<mgrwt>
<rscale>  0 0.20910205E+04</rscale>
<asrwt>0</asrwt>
<pdfrwt beam="1">  1        1 0.10785191E+00 0.20910205E+04</pdfrwt>
<pdfrwt beam="2">  1       -2 0.23988442E+00 0.20910205E+04</pdfrwt>
<totfact> 0.16257834E+00</totfact>
</mgrwt>
</event>
<event>
12    4  0.4486176E-008  0.1919468E+04  0.7818608E-02  0.8645226E-01
          1   -1    0    0  501    0  0.00000000000E+00  0.00000000000E+00  0.69255911046E+03  0.69255911046E+03  0.00000000000E+00 0. -1.
         -2   -1    0    0    0  501 -0.00000000000E+00 -0.00000000000E+00 -0.13299797686E+04  0.13299797686E+04  0.00000000000E+00 0.  1.
        -24    2    1    2    0    0  0.69301651104E+02  0.73684874880E+03 -0.13942548026E+03  0.75749603281E+03  0.81314068363E+02 0.  0.
        254    2    1    2    0    0 -0.69301651104E+02 -0.73684874880E+03 -0.49799517785E+03  0.12650428462E+04  0.89698684948E+03 0.  0.
         23    2    4    4    0    0 -0.46313891455E+03 -0.33404439268E+03 -0.34507771064E+03  0.67328889933E+03  0.90310603595E+02 0.  0.
         23    2    4    4    0    0  0.39383726344E+03 -0.40280435612E+03 -0.15291746721E+03  0.59175394689E+03  0.97107376112E+02 0.  0.
          3    1    3    3  502    0  0.46570339872E+02  0.64509961309E+03 -0.14491305452E+03  0.66281377531E+03  0.00000000000E+00 0. -1.
         -4    1    3    3    0  502  0.22731311232E+02  0.91749135711E+02  0.54875742556E+01  0.94682257500E+02  0.00000000000E+00 0.  1.
         11    1    5    5    0    0  0.14848765447E+01 -0.51616258606E+01 -0.13466906725E+02  0.14498441868E+02  0.00000000000E+00 0.  1.
        -11    1    5    5    0    0 -0.46462379109E+03 -0.32888276682E+03 -0.33161080392E+03  0.65879045746E+03  0.00000000000E+00 0. -1.
          1    1    6    6  503    0  0.35649737572E+03 -0.39738196044E+03 -0.14056543904E+03  0.55205203018E+03  0.00000000000E+00 0. -1.
         -1    1    6    6    0  503  0.37339887728E+02 -0.54223956823E+01 -0.12352028172E+02  0.39701916710E+02  0.00000000000E+00 0.  1.
<mgrwt>
<rscale>  0 0.19194683E+04</rscale>
<asrwt>0</asrwt>
<pdfrwt beam="1">  1        1 0.10654756E+00 0.19194683E+04</pdfrwt>
<pdfrwt beam="2">  1       -2 0.20461227E+00 0.19194683E+04</pdfrwt>
<totfact> 0.28089960E+00</totfact>
</mgrwt>
</event>
<event>
12    4  0.4486176E-008  0.2754298E+04  0.7818608E-02  0.8317599E-01
         -2   -1    0    0    0  501 -0.00000000000E+00  0.00000000000E+00  0.17070310707E+04  0.17070310707E+04  0.00000000000E+00 0.  1.
          1   -1    0    0  501    0  0.00000000000E+00 -0.00000000000E+00 -0.11110166476E+04  0.11110166476E+04  0.00000000000E+00 0. -1.
        -24    2    1    2    0    0 -0.36883343250E+03 -0.75608170519E+03 -0.65581105887E+03  0.10696675699E+04  0.80018243254E+02 0.  0.
        254    2    1    2    0    0  0.36883343250E+03  0.75608170519E+03  0.12518254820E+04  0.17483801484E+04  0.88434634629E+03 0.  0.
         23    2    4    4    0    0  0.63478670391E+03  0.38425643025E+03  0.86026496783E+03  0.11396480498E+04  0.90192566106E+02 0.  0.
         23    2    4    4    0    0 -0.26595327141E+03  0.37182527493E+03  0.39156051419E+03  0.60873209860E+03  0.90829257084E+02 0.  0.
          3    1    3    3  502    0 -0.29436784126E+03 -0.57189343252E+03 -0.53909329346E+03  0.83924734327E+03  0.00000000000E+00 0. -1.
         -4    1    3    3    0  502 -0.74465591233E+02 -0.18418827266E+03 -0.11671776541E+03  0.23042022660E+03  0.00000000000E+00 0.  1.
         11    1    5    5    0    0  0.46156840257E+03  0.24087767235E+03  0.56173247074E+03  0.76590522389E+03  0.00000000000E+00 0. -1.
        -11    1    5    5    0    0  0.17321830134E+03  0.14337875790E+03  0.29853249708E+03  0.37374282595E+03  0.00000000000E+00 0.  1.
          1    1    6    6  503    0 -0.23988174012E+03  0.28856903137E+03  0.34546551906E+03  0.51006054540E+03  0.00000000000E+00 0. -1.
         -1    1    6    6    0  503 -0.26071531291E+02  0.83256243563E+02  0.46094995123E+02  0.98671553203E+02  0.00000000000E+00 0.  1.
<mgrwt>
<rscale>  0 0.27542984E+04</rscale>
<asrwt>0</asrwt>
<pdfrwt beam="1">  1        1 0.17092564E+00 0.27542984E+04</pdfrwt>
<pdfrwt beam="2">  1       -2 0.26262016E+00 0.27542984E+04</pdfrwt>
<totfact> 0.51006806E-01</totfact>
</mgrwt>
</event>
<event>
12    4  0.4486176E-008  0.2398033E+04  0.7818608E-02  0.8440240E-01
          1   -1    0    0  501    0  0.00000000000E+00  0.00000000000E+00  0.31294370860E+04  0.31294370860E+04  0.00000000000E+00 0. -1.
         -2   -1    0    0    0  501 -0.00000000000E+00 -0.00000000000E+00 -0.45939268441E+03  0.45939268441E+03  0.00000000000E+00 0.  1.
        -24    2    1    2    0    0 -0.36205022512E+03  0.18761796751E+03 -0.26003072148E+03  0.49042369421E+03  0.81354511145E+02 0.  0.
        254    2    1    2    0    0  0.36205022512E+03 -0.18761796751E+03  0.29300751230E+04  0.30984060762E+04  0.92114011906E+03 0.  0.
         23    2    4    4    0    0  0.26189311265E+03  0.29032850509E+03  0.20401255244E+04  0.20792723613E+04  0.91557377978E+02 0.  0.
         23    2    4    4    0    0  0.10015711247E+03 -0.47794647260E+03  0.88994959858E+03  0.10191337149E+04  0.90326978165E+02 0.  0.
          3    1    3    3  502    0 -0.21364870893E+02  0.33607313490E+02 -0.40780297475E+02  0.56999490264E+02  0.00000000000E+00 0. -1.
         -4    1    3    3    0  502 -0.34068535422E+03  0.15401065402E+03 -0.21925042401E+03  0.43342420394E+03  0.00000000000E+00 0.  1.
         11    1    5    5    0    0  0.53316670933E+02  0.10884197117E+03  0.49625392504E+03  0.51083970108E+03  0.00000000000E+00 0.  1.
        -11    1    5    5    0    0  0.20857644172E+03  0.18148653392E+03  0.15438715994E+04  0.15684326602E+04  0.00000000000E+00 0. -1.
          3    1    6    6  503    0  0.66842121260E+02 -0.41412137241E+03  0.70089814033E+03  0.81683693806E+03  0.00000000000E+00 0. -1.
         -3    1    6    6    0  503  0.33314991207E+02 -0.63825100190E+02  0.18905145825E+03  0.20229677684E+03  0.00000000000E+00 0.  1.
<mgrwt>
<rscale>  0 0.23980329E+04</rscale>
<asrwt>0</asrwt>
<pdfrwt beam="1">  1        1 0.48145185E+00 0.23980329E+04</pdfrwt>
<pdfrwt beam="2">  1       -2 0.70675800E-01 0.23980329E+04</pdfrwt>
<totfact> 0.68868072E-01</totfact>
</mgrwt>
</event>
<event>
12    4  0.4486176E-008  0.2141334E+04  0.7818608E-02  0.8543251E-01
         -2   -1    0    0    0  501 -0.00000000000E+00  0.00000000000E+00  0.58160953420E+03  0.58160953420E+03  0.00000000000E+00 0.  1.
          1   -1    0    0  501    0  0.00000000000E+00 -0.00000000000E+00 -0.19709570975E+04  0.19709570975E+04  0.00000000000E+00 0. -1.
        -24    2    1    2    0    0  0.23428922142E+03 -0.48033079607E+03 -0.14021164544E+04  0.15026470483E+04  0.80053026477E+02 0.  0.
        254    2    1    2    0    0 -0.23428922142E+03  0.48033079607E+03  0.12768891054E+02  0.10499195835E+04  0.90363652773E+03 0.  0.
         23    2    4    4    0    0  0.23194984883E+03 -0.24979314165E+02  0.21271873272E+03  0.32798810497E+03  0.88894540013E+02 0.  0.
         23    2    4    4    0    0 -0.46623907026E+03  0.50531011024E+03 -0.19994984166E+03  0.72193147850E+03  0.92130029442E+02 0.  0.
          3    1    3    3  502    0  0.14341414496E+03 -0.34781654947E+03 -0.10569773930E+04  0.11219381348E+04  0.00000000000E+00 0. -1.
         -4    1    3    3    0  502  0.90875076463E+02 -0.13251424660E+03 -0.34513906144E+03  0.38070891348E+03  0.00000000000E+00 0.  1.
         11    1    5    5    0    0  0.22377222797E+03 -0.51889715969E+01  0.20903103738E+03  0.30625954683E+03  0.00000000000E+00 0. -1.
        -11    1    5    5    0    0  0.81776208666E+01 -0.19790342568E+02  0.36876953339E+01  0.21728558141E+02  0.00000000000E+00 0.  1.
          3    1    6    6  503    0 -0.46950181660E+03  0.49246262178E+03 -0.19702310602E+03  0.70835689729E+03  0.00000000000E+00 0. -1.
         -3    1    6    6    0  503  0.32627463415E+01  0.12847488457E+02 -0.29267356450E+01  0.13574581205E+02  0.00000000000E+00 0.  1.
<mgrwt>
<rscale>  0 0.21413336E+04</rscale>
<asrwt>0</asrwt>
<pdfrwt beam="1">  1        1 0.30322417E+00 0.21413336E+04</pdfrwt>
<pdfrwt beam="2">  1       -2 0.89478390E-01 0.21413336E+04</pdfrwt>
<totfact> 0.26882853E+00</totfact>
</mgrwt>
</event>
<event>
12    4  0.4486176E-008  0.1160045E+04  0.7818608E-02  0.9148566E-01
          1   -1    0    0  501    0  0.00000000000E+00  0.00000000000E+00  0.31326749470E+03  0.31326749470E+03  0.00000000000E+00 0. -1.
         -2   -1    0    0    0  501 -0.00000000000E+00 -0.00000000000E+00 -0.10739268193E+04  0.10739268193E+04  0.00000000000E+00 0.  1.
        -24    2    1    2    0    0 -0.14286154982E+03  0.71681522089E+02 -0.31449793351E+03  0.35890167347E+03  0.65983316156E+02 0.  0.
        254    2    1    2    0    0  0.14286154982E+03 -0.71681522089E+02 -0.44616139114E+03  0.10282926406E+04  0.91256676726E+03 0.  0.
         23    2    4    4    0    0  0.73922808346E+02  0.39709219630E+03 -0.33547132420E+03  0.53281093338E+03  0.90552125418E+02 0.  0.
         23    2    4    4    0    0  0.68938741472E+02 -0.46877371839E+03 -0.11069006694E+03  0.49548170720E+03  0.93533320917E+02 0.  0.
          3    1    3    3  502    0 -0.51328437087E+02  0.27091939927E+02 -0.54249819868E+02  0.79445733797E+02  0.00000000000E+00 0. -1.
         -4    1    3    3    0  502 -0.91533112731E+02  0.44589582162E+02 -0.26024811364E+03  0.27945593967E+03  0.00000000000E+00 0.  1.
         11    1    5    5    0    0  0.15462227730E+02  0.38407728380E+02 -0.51804107761E+01  0.41726139787E+02  0.00000000000E+00 0. -1.
        -11    1    5    5    0    0  0.58460580617E+02  0.35868446792E+03 -0.33029091342E+03  0.49108479360E+03  0.00000000000E+00 0.  1.
          2    1    6    6  503    0  0.66705323374E+02 -0.17703087583E+03 -0.65796177911E+02  0.20029645077E+03  0.00000000000E+00 0. -1.
         -2    1    6    6    0  503  0.22334180975E+01 -0.29174284256E+03 -0.44893889031E+02  0.29518525643E+03  0.00000000000E+00 0.  1.
<mgrwt>
<rscale>  0 0.11600455E+04</rscale>
<asrwt>0</asrwt>
<pdfrwt beam="1">  1        1 0.48195000E-01 0.11600455E+04</pdfrwt>
<pdfrwt beam="2">  1       -2 0.16521951E+00 0.11600455E+04</pdfrwt>
<totfact> 0.16535867E+01</totfact>
</mgrwt>
</event>
<event>
12    4  0.4486176E-008  0.3239650E+04  0.7818608E-02  0.8178424E-01
         -2   -1    0    0    0  501 -0.00000000000E+00  0.00000000000E+00  0.12656376878E+04  0.12656376878E+04  0.00000000000E+00 0.  1.
          1   -1    0    0  501    0  0.00000000000E+00 -0.00000000000E+00 -0.20731307917E+04  0.20731307917E+04  0.00000000000E+00 0. -1.
        -24    2    1    2    0    0 -0.75973181685E+03 -0.32608968804E+03  0.90893431346E+03  0.12311459769E+04  0.77665384927E+02 0.  0.
        254    2    1    2    0    0  0.75973181685E+03  0.32608968804E+03 -0.17164274174E+04  0.21076225026E+04  0.90134489304E+03 0.  0.
         23    2    4    4    0    0  0.25162771208E+03 -0.11103508589E+03 -0.30954047567E+02  0.29141153947E+03  0.91198884267E+02 0.  0.
         23    2    4    4    0    0  0.50810410477E+03  0.43712477393E+03 -0.16854733698E+04  0.18162109632E+04  0.92487474854E+02 0.  0.
          1    1    3    3  502    0 -0.25183243005E+03 -0.83983514800E+02  0.24972284705E+03  0.36446440694E+03  0.00000000000E+00 0. -1.
         -2    1    3    3    0  502 -0.50789938680E+03 -0.24210617324E+03  0.65921146640E+03  0.86668156994E+03  0.00000000000E+00 0.  1.
         11    1    5    5    0    0  0.40157254651E+01  0.55205595823E+01  0.12565246079E+02  0.14299931404E+02  0.00000000000E+00 0. -1.
        -11    1    5    5    0    0  0.24761198662E+03 -0.11655564547E+03 -0.43519293647E+02  0.27711160807E+03  0.00000000000E+00 0.  1.
          2    1    6    6  503    0  0.20867000983E+03  0.12498946508E+03 -0.65049160549E+03  0.69448172632E+03  0.00000000000E+00 0. -1.
         -2    1    6    6    0  503  0.29943409494E+03  0.31213530886E+03 -0.10349817643E+04  0.11217292368E+04  0.00000000000E+00 0.  1.
<mgrwt>
<rscale>  0 0.32396496E+04</rscale>
<asrwt>0</asrwt>
<pdfrwt beam="1">  1        1 0.31894320E+00 0.32396496E+04</pdfrwt>
<pdfrwt beam="2">  1       -2 0.19471349E+00 0.32396496E+04</pdfrwt>
<totfact> 0.28092808E-01</totfact>
</mgrwt>
</event>
<event>
12    4  0.4486176E-008  0.1493032E+04  0.7818608E-02  0.8889100E-01
          1   -1    0    0  501    0  0.00000000000E+00  0.00000000000E+00  0.16614572906E+04  0.16614572906E+04  0.00000000000E+00 0. -1.
         -2   -1    0    0    0  501 -0.00000000000E+00 -0.00000000000E+00 -0.33542015526E+03  0.33542015526E+03  0.00000000000E+00 0.  1.
        -24    2    1    2    0    0  0.46950765192E+03 -0.10127669781E+03  0.43499383122E+03  0.65278390747E+03  0.78821265644E+02 0.  0.
        254    2    1    2    0    0 -0.46950765192E+03  0.10127669781E+03  0.89104330408E+03  0.13440935384E+04  0.88427080997E+03 0.  0.
         23    2    4    4    0    0  0.15198175830E+02  0.33865924974E+03  0.70914028369E+02  0.35814536199E+03  0.91204325073E+02 0.  0.
         23    2    4    4    0    0 -0.48470582775E+03 -0.23738255193E+03  0.82012927571E+03  0.98594817636E+03  0.90507249340E+02 0.  0.
          3    1    3    3  502    0  0.37018464377E+03 -0.83501878411E+02  0.29728676222E+03  0.48206706294E+03  0.00000000000E+00 0. -1.
         -4    1    3    3    0  502  0.99323008152E+02 -0.17774819395E+02  0.13770706900E+03  0.17071684452E+03  0.00000000000E+00 0.  1.
         11    1    5    5    0    0 -0.35246252263E+02  0.10201200984E+03  0.35414744949E+02  0.11359116432E+03  0.00000000000E+00 0. -1.
        -11    1    5    5    0    0  0.50444428093E+02  0.23664723990E+03  0.35499283420E+02  0.24455419767E+03  0.00000000000E+00 0.  1.
          1    1    6    6  503    0 -0.23076182510E+03 -0.15914846610E+03  0.45369732697E+03  0.53331090246E+03  0.00000000000E+00 0. -1.
         -1    1    6    6    0  503 -0.25394400266E+03 -0.78234085834E+02  0.36643194874E+03  0.45263727391E+03  0.00000000000E+00 0.  1.
<mgrwt>
<rscale>  0 0.14930322E+04</rscale>
<asrwt>0</asrwt>
<pdfrwt beam="1">  1        1 0.25560881E+00 0.14930322E+04</pdfrwt>
<pdfrwt beam="2">  1       -2 0.51603102E-01 0.14930322E+04</pdfrwt>
<totfact> 0.15260227E+01</totfact>
</mgrwt>
</event>
<event>
12    4  0.4486176E-008  0.1370930E+04  0.7818608E-02  0.8975134E-01
          3   -1    0    0  501    0  0.00000000000E+00  0.00000000000E+00  0.11085816894E+04  0.11085816894E+04  0.00000000000E+00 0. -1.
         -2   -1    0    0    0  501 -0.00000000000E+00 -0.00000000000E+00 -0.42384084212E+03  0.42384084212E+03  0.00000000000E+00 0.  1.
        -24    2    1    2    0    0 -0.26462262283E+03  0.21089486072E+03  0.42776709049E+03  0.55122260519E+03  0.79748993544E+02 0.  0.
        254    2    1    2    0    0  0.26462262283E+03 -0.21089486072E+03  0.25697375677E+03  0.98119992632E+03  0.88442976485E+03 0.  0.
         23    2    4    4    0    0  0.69847638325E+02 -0.24343199217E+03  0.55218093451E+03  0.61427952152E+03  0.91091814815E+02 0.  0.
         23    2    4    4    0    0  0.19477498451E+03  0.32537131455E+02 -0.29520717774E+03  0.36692040480E+03  0.92126793918E+02 0.  0.
          1    1    3    3  502    0 -0.26260858467E+03  0.20755358524E+03  0.39295751520E+03  0.51619508738E+03  0.00000000000E+00 0. -1.
         -2    1    3    3    0  502 -0.20140381644E+01  0.33412754762E+01  0.34809575290E+02  0.35027517802E+02  0.00000000000E+00 0.  1.
         11    1    5    5    0    0  0.11586415805E+02 -0.48625768184E+02  0.42769143871E+02  0.65786853019E+02  0.00000000000E+00 0. -1.
        -11    1    5    5    0    0  0.58261222520E+02 -0.19480622399E+03  0.50941179064E+03  0.54849266850E+03  0.00000000000E+00 0.  1.
          2    1    6    6  503    0  0.75249152790E+02  0.39288625877E+02 -0.63146385367E+02  0.10579932468E+03  0.00000000000E+00 0. -1.
         -2    1    6    6    0  503  0.11952583172E+03 -0.67514944220E+01 -0.23206079237E+03  0.26112108012E+03  0.00000000000E+00 0.  1.
<mgrwt>
<rscale>  0 0.13709299E+04</rscale>
<asrwt>0</asrwt>
<pdfrwt beam="1">  1        3 0.17055103E+00 0.13709299E+04</pdfrwt>
<pdfrwt beam="2">  1       -2 0.65206284E-01 0.13709299E+04</pdfrwt>
<totfact> 0.20041089E+00</totfact>
</mgrwt>
</event>
<event>
12    4  0.4486176E-008  0.1269036E+04  0.7818608E-02  0.9054487E-01
         -2   -1    0    0    0  501 -0.00000000000E+00  0.00000000000E+00  0.20810695976E+03  0.20810695976E+03  0.00000000000E+00 0.  1.
          1   -1    0    0  501    0  0.00000000000E+00 -0.00000000000E+00 -0.19346444632E+04  0.19346444632E+04  0.00000000000E+00 0. -1.
        -24    2    1    2    0    0 -0.20663140016E+03 -0.12498606687E+03 -0.10808254704E+03  0.27625736856E+03  0.79487384304E+02 0.  0.
        254    2    1    2    0    0  0.20663140016E+03  0.12498606687E+03 -0.16184549564E+04  0.18664940544E+04  0.89782267560E+03 0.  0.
         23    2    4    4    0    0 -0.16218989980E+02  0.32176569527E+03 -0.14942368908E+04  0.15314237120E+04  0.93372809548E+02 0.  0.
         23    2    4    4    0    0  0.22285039014E+03 -0.19677962840E+03 -0.12421806561E+03  0.33507034242E+03  0.91964601939E+02 0.  0.
          1    1    3    3  502    0 -0.52328747345E+02 -0.96333509432E+01  0.40231932115E+01  0.53359960014E+02  0.00000000000E+00 0. -1.
         -2    1    3    3    0  502 -0.15430265282E+03 -0.11535271592E+03 -0.11210574026E+03  0.22289740854E+03  0.00000000000E+00 0.  1.
         11    1    5    5    0    0  0.15504278413E+01  0.55053321264E+02 -0.12900271769E+03  0.14026750579E+03  0.00000000000E+00 0. -1.
        -11    1    5    5    0    0 -0.17769417821E+02  0.26671237400E+03 -0.13652341731E+04  0.13911562062E+04  0.00000000000E+00 0.  1.
          1    1    6    6  503    0  0.12672376152E+03 -0.14662621704E+03 -0.11706281094E+03  0.22641082342E+03  0.00000000000E+00 0. -1.
         -1    1    6    6    0  503  0.96126628617E+02 -0.50153411360E+02 -0.71552546705E+01  0.10865951900E+03  0.00000000000E+00 0.  1.
<mgrwt>
<rscale>  0 0.12690358E+04</rscale>
<asrwt>0</asrwt>
<pdfrwt beam="1">  1        1 0.29763759E+00 0.12690358E+04</pdfrwt>
<pdfrwt beam="2">  1       -2 0.32016457E-01 0.12690358E+04</pdfrwt>
<totfact> 0.25921680E+01</totfact>
</mgrwt>
</event>
<event>
12    4  0.4486176E-008  0.9772039E+03  0.7818608E-02  0.9333907E-01
          1   -1    0    0  501    0  0.00000000000E+00  0.00000000000E+00  0.37234296220E+03  0.37234296220E+03  0.00000000000E+00 0. -1.
         -2   -1    0    0    0  501 -0.00000000000E+00 -0.00000000000E+00 -0.64116121873E+03  0.64116121873E+03  0.00000000000E+00 0.  1.
        -24    2    1    2    0    0 -0.22781961648E+02  0.20436585157E+02 -0.99563352865E+01  0.87188101426E+02  0.81030640060E+02 0.  0.
        254    2    1    2    0    0  0.22781961648E+02 -0.20436585157E+02 -0.25886192124E+03  0.92631607950E+03  0.88888430804E+03 0.  0.
         23    2    4    4    0    0  0.41105258381E+03 -0.18116127699E+03 -0.11342986014E+03  0.47228195861E+03  0.91653043168E+02 0.  0.
         23    2    4    4    0    0 -0.38827062216E+03  0.16072469183E+03 -0.14543206110E+03  0.45403412089E+03  0.91706030005E+02 0.  0.
          1    1    3    3  502    0  0.55056689130E+01 -0.24651745321E+02  0.13931426533E+02  0.28846240358E+02  0.00000000000E+00 0. -1.
         -2    1    3    3    0  502 -0.28287630561E+02  0.45088330479E+02 -0.23887761819E+02  0.58341861068E+02  0.00000000000E+00 0.  1.
         11    1    5    5    0    0  0.19257801039E+03 -0.12359318012E+03 -0.27131022236E+02  0.23042928769E+03  0.00000000000E+00 0.  1.
        -11    1    5    5    0    0  0.21847457342E+03 -0.57568096867E+02 -0.86298837906E+02  0.24185267092E+03  0.00000000000E+00 0. -1.
          1    1    6    6  503    0 -0.37467804509E+03  0.14910601835E+03 -0.11602392591E+03  0.41961624559E+03  0.00000000000E+00 0. -1.
         -1    1    6    6    0  503 -0.13592577069E+02  0.11618673482E+02 -0.29408135184E+02  0.34417875296E+02  0.00000000000E+00 0.  1.
<mgrwt>
<rscale>  0 0.97720390E+03</rscale>
<asrwt>0</asrwt>
<pdfrwt beam="1">  1        1 0.57283533E-01 0.97720390E+03</pdfrwt>
<pdfrwt beam="2">  1       -2 0.98640187E-01 0.97720390E+03</pdfrwt>
<totfact> 0.49382877E+01</totfact>
</mgrwt>
</event>
<event>
12    4  0.4486176E-008  0.1438879E+04  0.7818608E-02  0.8926147E-01
          1   -1    0    0  501    0  0.00000000000E+00  0.00000000000E+00  0.18196485811E+04  0.18196485811E+04  0.00000000000E+00 0. -1.
         -2   -1    0    0    0  501 -0.00000000000E+00 -0.00000000000E+00 -0.28444684941E+03  0.28444684941E+03  0.00000000000E+00 0.  1.
        -24    2    1    2    0    0  0.91826589275E+02  0.26639341965E+03  0.10038446019E+04  0.10458072211E+04  0.81309176925E+02 0.  0.
        254    2    1    2    0    0 -0.91826589275E+02 -0.26639341965E+03  0.53135712975E+03  0.10582882094E+04  0.87076745367E+03 0.  0.
         23    2    4    4    0    0  0.34428168067E+03 -0.30325125662E+03  0.28314815930E+03  0.54706981139E+03  0.92850945788E+02 0.  0.
         23    2    4    4    0    0 -0.43610826994E+03  0.36857836961E+02  0.24820897045E+03  0.51121839806E+03  0.90485547162E+02 0.  0.
          1    1    3    3  502    0  0.84897894784E+02  0.25253757133E+03  0.84017770876E+03  0.88140879265E+03  0.00000000000E+00 0. -1.
         -2    1    3    3    0  502  0.69286944916E+01  0.13855848325E+02  0.16366689319E+03  0.16439842842E+03  0.00000000000E+00 0.  1.
         11    1    5    5    0    0  0.17855500752E+03 -0.21776237330E+03  0.17216483402E+03  0.33006525417E+03  0.00000000000E+00 0. -1.
        -11    1    5    5    0    0  0.16572667315E+03 -0.85488883313E+02  0.11098332528E+03  0.21700455722E+03  0.00000000000E+00 0.  1.
          3    1    6    6  503    0 -0.34900466427E+03  0.63870535031E+02  0.21040519187E+03  0.41249732810E+03  0.00000000000E+00 0. -1.
         -3    1    6    6    0  503 -0.87103605673E+02 -0.27012698070E+02  0.37803778580E+02  0.98721069956E+02  0.00000000000E+00 0.  1.
<mgrwt>
<rscale>  0 0.14388792E+04</rscale>
<asrwt>0</asrwt>
<pdfrwt beam="1">  1        1 0.27994593E+00 0.14388792E+04</pdfrwt>
<pdfrwt beam="2">  1       -2 0.43761055E-01 0.14388792E+04</pdfrwt>
<totfact> 0.16697764E+01</totfact>
</mgrwt>
</event>
<event>
12    4  0.4486176E-008  0.1689202E+04  0.7818608E-02  0.8767547E-01
          1   -1    0    0  501    0  0.00000000000E+00  0.00000000000E+00  0.58250827448E+03  0.58250827448E+03  0.00000000000E+00 0. -1.
         -2   -1    0    0    0  501 -0.00000000000E+00 -0.00000000000E+00 -0.12246193570E+04  0.12246193570E+04  0.00000000000E+00 0.  1.
        -24    2    1    2    0    0  0.12347786057E+03  0.17590585087E+03 -0.83275520391E+03  0.86374015862E+03  0.79850995976E+02 0.  0.
        254    2    1    2    0    0 -0.12347786057E+03 -0.17590585087E+03  0.19064412138E+03  0.94338747286E+03  0.89857948591E+03 0.  0.
         23    2    4    4    0    0 -0.28479575006E+03  0.14666323340E+03 -0.21237643653E+03  0.39538284871E+03  0.92763802073E+02 0.  0.
         23    2    4    4    0    0  0.16131788948E+03 -0.32256908427E+03  0.40302055791E+03  0.54800462415E+03  0.88369804763E+02 0.  0.
          1    1    3    3  502    0  0.35042887769E+02  0.94747687670E+02 -0.26887375400E+03  0.28722504050E+03  0.00000000000E+00 0. -1.
         -2    1    3    3    0  502  0.88434972804E+02  0.81158163199E+02 -0.56388144991E+03  0.57651511812E+03  0.00000000000E+00 0.  1.
         11    1    5    5    0    0 -0.78299745774E+01  0.33307980796E+01  0.94227908126E+01  0.12696129506E+02  0.00000000000E+00 0. -1.
        -11    1    5    5    0    0 -0.27696577548E+03  0.14333243532E+03 -0.22179922734E+03  0.38268671920E+03  0.00000000000E+00 0.  1.
          4    1    6    6  503    0  0.68071136500E+02 -0.80041697568E+02  0.72868007806E+02  0.12786750774E+03  0.00000000000E+00 0. -1.
         -4    1    6    6    0  503  0.93246752984E+02 -0.24252738671E+03  0.33015255011E+03  0.42013711641E+03  0.00000000000E+00 0.  1.
<mgrwt>
<rscale>  0 0.16892021E+04</rscale>
<asrwt>0</asrwt>
<pdfrwt beam="1">  1        1 0.89616658E-01 0.16892021E+04</pdfrwt>
<pdfrwt beam="2">  1       -2 0.18840298E+00 0.16892021E+04</pdfrwt>
<totfact> 0.47297339E+00</totfact>
</mgrwt>
</event>
<event>
12    4  0.4486176E-008  0.1399603E+04  0.7818608E-02  0.8954106E-01
         -4   -1    0    0    0  501 -0.00000000000E+00  0.00000000000E+00  0.57260496973E+03  0.57260496973E+03  0.00000000000E+00 0.  1.
          1   -1    0    0  501    0  0.00000000000E+00 -0.00000000000E+00 -0.85525344554E+03  0.85525344554E+03  0.00000000000E+00 0. -1.
        -24    2    1    2    0    0 -0.29510850425E+02 -0.32481506724E+03 -0.32736653001E+03  0.46903209470E+03  0.80290364844E+02 0.  0.
        254    2    1    2    0    0  0.29510850425E+02  0.32481506724E+03  0.44718054205E+02  0.95882632058E+03  0.90054011041E+03 0.  0.
         23    2    4    4    0    0 -0.34474978612E+03  0.32339799743E+03  0.22815288959E+03  0.53265481993E+03  0.90712382802E+02 0.  0.
         23    2    4    4    0    0  0.37426063654E+03  0.14170698065E+01 -0.18343483539E+03  0.42617150065E+03  0.88886314915E+02 0.  0.
          1    1    3    3  502    0 -0.31938078653E+02 -0.16587342564E+03 -0.11753424979E+03  0.20578710862E+03  0.00000000000E+00 0. -1.
         -2    1    3    3    0  502  0.24272282280E+01 -0.15894164160E+03 -0.20983228022E+03  0.26324498608E+03  0.00000000000E+00 0.  1.
         11    1    5    5    0    0 -0.19965865563E+03  0.20046953443E+03  0.87598849479E+02  0.29618435379E+03  0.00000000000E+00 0. -1.
        -11    1    5    5    0    0 -0.14509113049E+03  0.12292846300E+03  0.14055404011E+03  0.23647046614E+03  0.00000000000E+00 0.  1.
          4    1    6    6  503    0  0.30042701940E+03 -0.33925231612E+02 -0.13549360710E+03  0.33130927076E+03  0.00000000000E+00 0. -1.
         -4    1    6    6    0  503  0.73833617137E+02  0.35342301418E+02 -0.47941228286E+02  0.94862229885E+02  0.00000000000E+00 0.  1.
<mgrwt>
<rscale>  0 0.13996033E+04</rscale>
<asrwt>0</asrwt>
<pdfrwt beam="1">  1        1 0.13157745E+00 0.13996033E+04</pdfrwt>
<pdfrwt beam="2">  1       -4 0.88093072E-01 0.13996033E+04</pdfrwt>
<totfact> 0.10431081E+01</totfact>
</mgrwt>
</event>
<event>
12    4  0.4486176E-008  0.1205613E+04  0.7818608E-02  0.9107958E-01
          1   -1    0    0  501    0  0.00000000000E+00  0.00000000000E+00  0.40531177406E+03  0.40531177406E+03  0.00000000000E+00 0. -1.
         -2   -1    0    0    0  501 -0.00000000000E+00 -0.00000000000E+00 -0.89653340085E+03  0.89653340085E+03  0.00000000000E+00 0.  1.
        -24    2    1    2    0    0 -0.12420978738E+03 -0.15947718463E+03  0.63088539461E+02  0.22635862127E+03  0.79981359796E+02 0.  0.
        254    2    1    2    0    0  0.12420978738E+03  0.15947718463E+03 -0.55431016625E+03  0.10754865536E+04  0.89919437440E+03 0.  0.
         23    2    4    4    0    0  0.48882699195E+03  0.14772004841E+03 -0.19053502354E+03  0.55214541084E+03  0.88249185590E+02 0.  0.
         23    2    4    4    0    0 -0.36461720457E+03  0.11757136214E+02 -0.36377514272E+03  0.52334114280E+03  0.92030762075E+02 0.  0.
          1    1    3    3  502    0 -0.95080760913E+02 -0.75791212198E+02  0.64697963996E+02  0.13773338552E+03  0.00000000000E+00 0. -1.
         -2    1    3    3    0  502 -0.29129026471E+02 -0.83685972428E+02 -0.16094245347E+01  0.88625235750E+02  0.00000000000E+00 0.  1.
         11    1    5    5    0    0 -0.37184405976E+01  0.44889207207E+00 -0.33855316751E+01  0.50487750290E+01  0.00000000000E+00 0.  1.
        -11    1    5    5    0    0  0.49254543255E+03  0.14727115634E+03 -0.18714949186E+03  0.54709663582E+03  0.00000000000E+00 0. -1.
          4    1    6    6  503    0 -0.25934844445E+03 -0.22314888643E+02 -0.21312913026E+03  0.33642769812E+03  0.00000000000E+00 0.  1.
         -4    1    6    6    0  503 -0.10526876012E+03  0.34072024857E+02 -0.15064601245E+03  0.18691344468E+03  0.00000000000E+00 0. -1.
<mgrwt>
<rscale>  0 0.12056128E+04</rscale>
<asrwt>0</asrwt>
<pdfrwt beam="1">  1        1 0.62355659E-01 0.12056128E+04</pdfrwt>
<pdfrwt beam="2">  1       -2 0.13792821E+00 0.12056128E+04</pdfrwt>
<totfact> 0.19007733E+01</totfact>
</mgrwt>
</event>
<event>
12    4  0.4486176E-008  0.1335768E+04  0.7818608E-02  0.9001672E-01
         -2   -1    0    0    0  501 -0.00000000000E+00  0.00000000000E+00  0.62019499277E+03  0.62019499277E+03  0.00000000000E+00 0.  1.
          1   -1    0    0  501    0  0.00000000000E+00 -0.00000000000E+00 -0.71924014613E+03  0.71924014613E+03  0.00000000000E+00 0. -1.
        -24    2    1    2    0    0  0.43482402884E+02 -0.20187259079E+03  0.26735106146E+03  0.34726340608E+03  0.80448871151E+02 0.  0.
        254    2    1    2    0    0 -0.43482402884E+02  0.20187259079E+03 -0.36639621483E+03  0.99217173281E+03  0.89861855027E+03 0.  0.
         23    2    4    4    0    0  0.40382538815E+03  0.20992123369E+03 -0.20714322598E+03  0.50842160524E+03  0.91882229705E+02 0.  0.
         23    2    4    4    0    0 -0.44730779103E+03 -0.80486429069E+01 -0.15925298884E+03  0.48375012757E+03  0.92215133783E+02 0.  0.
          1    1    3    3  502    0  0.42720593837E+02 -0.98538717108E+02  0.82275183679E+02  0.13529277053E+03  0.00000000000E+00 0. -1.
         -2    1    3    3    0  502  0.76180904687E+00 -0.10333387368E+03  0.18507587778E+03  0.21197063556E+03  0.00000000000E+00 0.  1.
         11    1    5    5    0    0  0.34958034945E+03  0.20990117623E+03 -0.16561785357E+03  0.44010703008E+03  0.00000000000E+00 0. -1.
        -11    1    5    5    0    0  0.54245038700E+02  0.20057468829E-01 -0.41525372412E+02  0.68314575164E+02  0.00000000000E+00 0.  1.
          4    1    6    6  503    0 -0.18683890486E+03 -0.14002803561E+02 -0.11398078777E+03  0.21930908522E+03  0.00000000000E+00 0. -1.
         -4    1    6    6    0  503 -0.26046888617E+03  0.59541606539E+01 -0.45272201073E+02  0.26444104236E+03  0.00000000000E+00 0.  1.
<mgrwt>
<rscale>  0 0.13357681E+04</rscale>
<asrwt>0</asrwt>
<pdfrwt beam="1">  1        1 0.11065233E+00 0.13357681E+04</pdfrwt>
<pdfrwt beam="2">  1       -2 0.95414614E-01 0.13357681E+04</pdfrwt>
<totfact> 0.20693512E+01</totfact>
</mgrwt>
</event>
<event>
12    4  0.4486176E-008  0.1378309E+04  0.7818608E-02  0.8969671E-01
         -2   -1    0    0    0  501 -0.00000000000E+00  0.00000000000E+00  0.49055418073E+03  0.49055418073E+03  0.00000000000E+00 0.  1.
          1   -1    0    0  501    0  0.00000000000E+00 -0.00000000000E+00 -0.96815772907E+03  0.96815772907E+03  0.00000000000E+00 0. -1.
        -24    2    1    2    0    0 -0.12225214228E+03  0.35050316812E+03 -0.13037294136E+02  0.37994676506E+03  0.79946957918E+02 0.  0.
        254    2    1    2    0    0  0.12225214228E+03 -0.35050316812E+03 -0.46456625421E+03  0.10787651447E+04  0.90006353987E+03 0.  0.
         23    2    4    4    0    0 -0.34138691446E+03  0.32274769832E+01 -0.30399434406E+03  0.46712476910E+03  0.96112156942E+02 0.  0.
         23    2    4    4    0    0  0.46363905675E+03 -0.35373064511E+03 -0.16057191015E+03  0.61164037564E+03  0.90741757533E+02 0.  0.
          3    1    3    3  502    0 -0.12484590945E+03  0.29333741401E+03 -0.30139185280E+02  0.32022134541E+03  0.00000000000E+00 0. -1.
         -4    1    3    3    0  502  0.25937671689E+01  0.57165754115E+02  0.17101891144E+02  0.59725419650E+02  0.00000000000E+00 0.  1.
         11    1    5    5    0    0 -0.40814631381E+02  0.26586470309E+02 -0.19069833858E+02  0.52309971340E+02  0.00000000000E+00 0.  1.
        -11    1    5    5    0    0 -0.30057228308E+03 -0.23358993326E+02 -0.28492451021E+03  0.41481479776E+03  0.00000000000E+00 0. -1.
          1    1    6    6  503    0  0.41705365917E+03 -0.34073361454E+03 -0.12867908509E+03  0.55370701426E+03  0.00000000000E+00 0. -1.
         -1    1    6    6    0  503  0.46585397574E+02 -0.12997030571E+02 -0.31892825056E+02  0.57933361381E+02  0.00000000000E+00 0.  1.
<mgrwt>
<rscale>  0 0.13783089E+04</rscale>
<asrwt>0</asrwt>
<pdfrwt beam="1">  1        1 0.14894734E+00 0.13783089E+04</pdfrwt>
<pdfrwt beam="2">  1       -2 0.75469875E-01 0.13783089E+04</pdfrwt>
<totfact> 0.21616960E+01</totfact>
</mgrwt>
</event>
<event>
12    4  0.4486176E-008  0.1809577E+04  0.7818608E-02  0.8701223E-01
         -2   -1    0    0    0  501 -0.00000000000E+00  0.00000000000E+00  0.83534323683E+03  0.83534323683E+03  0.00000000000E+00 0.  1.
          1   -1    0    0  501    0  0.00000000000E+00 -0.00000000000E+00 -0.98000647259E+03  0.98000647259E+03  0.00000000000E+00 0. -1.
        -24    2    1    2    0    0 -0.34135392515E+03  0.17232248585E+03 -0.60832192138E+03  0.72274847150E+03  0.78052877485E+02 0.  0.
        254    2    1    2    0    0  0.34135392515E+03 -0.17232248585E+03  0.46365868562E+03  0.10926012379E+04  0.91245851797E+03 0.  0.
         23    2    4    4    0    0  0.38621512131E+03  0.13631212135E+03  0.60647621682E+03  0.73777583240E+03  0.93577042930E+02 0.  0.
         23    2    4    4    0    0 -0.44861196159E+02 -0.30863460719E+03 -0.14281753119E+03  0.35482540552E+03  0.90754468239E+02 0.  0.
          1    1    3    3  502    0 -0.31460377808E+03  0.17967645279E+03 -0.55837051111E+03  0.66561009048E+03  0.00000000000E+00 0. -1.
         -4    1    3    3    0  502 -0.26750147064E+02 -0.73539669436E+01 -0.49951410267E+02  0.57138381019E+02  0.00000000000E+00 0.  1.
         11    1    5    5    0    0  0.37391453039E+03  0.11022494245E+03  0.57857868570E+03  0.69764956068E+03  0.00000000000E+00 0.  1.
        -11    1    5    5    0    0  0.12300590913E+02  0.26087178899E+02  0.27897531119E+02  0.40126271722E+02  0.00000000000E+00 0. -1.
          1    1    6    6  503    0 -0.10938478518E+02 -0.11878901634E+03 -0.10366020770E+03  0.15803771504E+03  0.00000000000E+00 0. -1.
         -1    1    6    6    0  503 -0.33922717641E+02 -0.18984559085E+03 -0.39157323493E+02  0.19678769047E+03  0.00000000000E+00 0.  1.
<mgrwt>
<rscale>  0 0.18095765E+04</rscale>
<asrwt>0</asrwt>
<pdfrwt beam="1">  1        1 0.15077023E+00 0.18095765E+04</pdfrwt>
<pdfrwt beam="2">  1       -2 0.12851434E+00 0.18095765E+04</pdfrwt>
<totfact> 0.57971262E+00</totfact>
</mgrwt>
</event>
<event>
12    4  0.4486176E-008  0.1389892E+04  0.7818608E-02  0.8961168E-01
         -2   -1    0    0    0  501 -0.00000000000E+00  0.00000000000E+00  0.16110232923E+04  0.16110232923E+04  0.00000000000E+00 0.  1.
          1   -1    0    0  501    0  0.00000000000E+00 -0.00000000000E+00 -0.29977853837E+03  0.29977853837E+03  0.00000000000E+00 0. -1.
        -24    2    1    2    0    0 -0.22894642224E+03 -0.24875900814E+03  0.67569829060E+03  0.76019833861E+03  0.83879829086E+02 0.  0.
        254    2    1    2    0    0  0.22894642224E+03  0.24875900814E+03  0.63554646336E+03  0.11506034921E+04  0.89759210142E+03 0.  0.
         23    2    4    4    0    0  0.54066935837E+03  0.67774358761E+01  0.30148396712E+03  0.62555196983E+03  0.89740714289E+02 0.  0.
         23    2    4    4    0    0 -0.31172293614E+03  0.24198157226E+03  0.33406249624E+03  0.52505152226E+03  0.91406123460E+02 0.  0.
          3    1    3    3  502    0 -0.78077205401E+02 -0.32461491499E+02  0.16999746873E+03  0.18986557826E+03  0.00000000000E+00 0. -1.
         -4    1    3    3    0  502 -0.15086921684E+03 -0.21629751664E+03  0.50570082186E+03  0.57033276035E+03  0.00000000000E+00 0.  1.
         11    1    5    5    0    0  0.78839857157E+01 -0.55890791728E+01 -0.48933162813E+01  0.10832339590E+02  0.00000000000E+00 0. -1.
        -11    1    5    5    0    0  0.53278537266E+03  0.12366515049E+02  0.30637728340E+03  0.61471963024E+03  0.00000000000E+00 0.  1.
          4    1    6    6  503    0 -0.19337204580E+03  0.17807432296E+03  0.17066841807E+03  0.31341812571E+03  0.00000000000E+00 0.  1.
         -4    1    6    6    0  503 -0.11835089033E+03  0.63907249308E+02  0.16339407817E+03  0.21163339655E+03  0.00000000000E+00 0. -1.
<mgrwt>
<rscale>  0 0.13898924E+04</rscale>
<asrwt>0</asrwt>
<pdfrwt beam="1">  1        1 0.46119776E-01 0.13898924E+04</pdfrwt>
<pdfrwt beam="2">  1       -2 0.24784973E+00 0.13898924E+04</pdfrwt>
<totfact> 0.49587788E+00</totfact>
</mgrwt>
</event>
<event>
12    4  0.4486176E-008  0.1664461E+04  0.7818608E-02  0.8781897E-01
         -2   -1    0    0    0  501 -0.00000000000E+00  0.00000000000E+00  0.11423590275E+04  0.11423590275E+04  0.00000000000E+00 0.  1.
          1   -1    0    0  501    0  0.00000000000E+00 -0.00000000000E+00 -0.60629627213E+03  0.60629627213E+03  0.00000000000E+00 0. -1.
        -24    2    1    2    0    0  0.10665303545E+03 -0.27195471060E+03 -0.33851503357E+03  0.45441889814E+03  0.81054749702E+02 0.  0.
        254    2    1    2    0    0 -0.10665303545E+03  0.27195471060E+03  0.87457778889E+03  0.12942364014E+04  0.90820004371E+03 0.  0.
         23    2    4    4    0    0 -0.52835915708E+02 -0.32750577018E+03  0.30573769088E+03  0.46005134221E+03  0.90111255432E+02 0.  0.
         23    2    4    4    0    0 -0.53817119739E+02  0.59946048078E+03  0.56884009800E+03  0.83418505922E+03  0.10018236141E+03 0.  0.
          1    1    3    3  502    0  0.77894418758E+02 -0.13426531747E+03 -0.22660188219E+03  0.27466912633E+03  0.00000000000E+00 0. -1.
         -2    1    3    3    0  502  0.28758616689E+02 -0.13768939313E+03 -0.11191315138E+03  0.17974977181E+03  0.00000000000E+00 0.  1.
         11    1    5    5    0    0  0.22405534866E+02 -0.40381548080E+02  0.52127969153E+02  0.69641959952E+02  0.00000000000E+00 0. -1.
        -11    1    5    5    0    0 -0.75241450575E+02 -0.28712422210E+03  0.25360972173E+03  0.39040938226E+03  0.00000000000E+00 0.  1.
          3    1    6    6  503    0 -0.53428194664E+00  0.15503634841E+03  0.92475488020E+02  0.18052221656E+03  0.00000000000E+00 0. -1.
         -3    1    6    6    0  503 -0.53282837793E+02  0.44442413237E+03  0.47636460999E+03  0.65366284266E+03  0.00000000000E+00 0.  1.
<mgrwt>
<rscale>  0 0.16644615E+04</rscale>
<asrwt>0</asrwt>
<pdfrwt beam="1">  1        1 0.93276349E-01 0.16644615E+04</pdfrwt>
<pdfrwt beam="2">  1       -2 0.17574754E+00 0.16644615E+04</pdfrwt>
<totfact> 0.54658321E+00</totfact>
</mgrwt>
</event>
<event>
12    4  0.4486176E-008  0.1800220E+04  0.7818608E-02  0.8706182E-01
          1   -1    0    0  501    0  0.00000000000E+00  0.00000000000E+00  0.16621804602E+04  0.16621804602E+04  0.00000000000E+00 0. -1.
         -2   -1    0    0    0  501 -0.00000000000E+00 -0.00000000000E+00 -0.48743107701E+03  0.48743107701E+03  0.00000000000E+00 0.  1.
        -24    2    1    2    0    0  0.27121544679E+03 -0.37562261877E+03 -0.14098127522E+03  0.49080652817E+03  0.79781939251E+02 0.  0.
        254    2    1    2    0    0 -0.27121544679E+03  0.37562261877E+03  0.13157306584E+04  0.16588050090E+04  0.89768408819E+03 0.  0.
         23    2    4    4    0    0 -0.42514709146E+03  0.51937160012E+03  0.59078322531E+03  0.89825749185E+03  0.85701773424E+02 0.  0.
         23    2    4    4    0    0  0.15393164467E+03 -0.14374898135E+03  0.72494743305E+03  0.76054751714E+03  0.92331057990E+02 0.  0.
          1    1    3    3  502    0  0.10808468088E+03 -0.14501840993E+03 -0.96036942507E+02  0.20478215691E+03  0.00000000000E+00 0. -1.
         -2    1    3    3    0  502  0.16313076591E+03 -0.23060420883E+03 -0.44944332714E+02  0.28602437127E+03  0.00000000000E+00 0.  1.
         11    1    5    5    0    0 -0.16360681830E+03  0.20025479288E+03  0.28409089060E+03  0.38415726882E+03  0.00000000000E+00 0. -1.
        -11    1    5    5    0    0 -0.26154027317E+03  0.31911680724E+03  0.30669233471E+03  0.51410022303E+03  0.00000000000E+00 0.  1.
          4    1    6    6  503    0  0.65634148356E+02 -0.90828224106E+02  0.51073078913E+03  0.52288005000E+03  0.00000000000E+00 0.  1.
         -4    1    6    6    0  503  0.88297496316E+02 -0.52920757244E+02  0.21421664392E+03  0.23766746714E+03  0.00000000000E+00 0. -1.
<mgrwt>
<rscale>  0 0.18002204E+04</rscale>
<asrwt>0</asrwt>
<pdfrwt beam="1">  1        1 0.25572007E+00 0.18002204E+04</pdfrwt>
<pdfrwt beam="2">  1       -2 0.74989397E-01 0.18002204E+04</pdfrwt>
<totfact> 0.66918150E+00</totfact>
</mgrwt>
</event>
<event>
12    4  0.4486176E-008  0.1954051E+04  0.7818608E-02  0.8628410E-01
         -2   -1    0    0    0  501 -0.00000000000E+00  0.00000000000E+00  0.89354311285E+03  0.89354311285E+03  0.00000000000E+00 0.  1.
          1   -1    0    0  501    0  0.00000000000E+00 -0.00000000000E+00 -0.10683072771E+04  0.10683072771E+04  0.00000000000E+00 0. -1.
        -24    2    1    2    0    0 -0.21966827968E+03  0.56490234252E+03  0.40528441327E+03  0.73378903753E+03  0.82595921690E+02 0.  0.
        254    2    1    2    0    0  0.21966827968E+03 -0.56490234252E+03 -0.58004857756E+03  0.12280613524E+04  0.89683305211E+03 0.  0.
         23    2    4    4    0    0  0.41526678187E+03  0.47143884240E+02 -0.16418110918E+03  0.45698008217E+03  0.84890004920E+02 0.  0.
         23    2    4    4    0    0 -0.19559850219E+03 -0.61204622676E+03 -0.41586746838E+03  0.77108127028E+03  0.93601369468E+02 0.  0.
          3    1    3    3  502    0 -0.79667293137E+02  0.11120102381E+03  0.84967817783E+02  0.16103439183E+03  0.00000000000E+00 0. -1.
         -4    1    3    3    0  502 -0.14000098654E+03  0.45370131871E+03  0.32031659549E+03  0.57275464571E+03  0.00000000000E+00 0.  1.
         11    1    5    5    0    0  0.12201080528E+03 -0.10979962302E+01 -0.87206686709E+02  0.14997615946E+03  0.00000000000E+00 0.  1.
        -11    1    5    5    0    0  0.29325597660E+03  0.48241880470E+02 -0.76974422472E+02  0.30700392270E+03  0.00000000000E+00 0. -1.
          4    1    6    6  503    0 -0.12691592414E+02 -0.61732548981E+01 -0.20388600502E+02  0.24796786576E+02  0.00000000000E+00 0.  1.
         -4    1    6    6    0  503 -0.18290690978E+03 -0.60587297187E+03 -0.39547886788E+03  0.74628448371E+03  0.00000000000E+00 0. -1.
<mgrwt>
<rscale>  0 0.19540508E+04</rscale>
<asrwt>0</asrwt>
<pdfrwt beam="1">  1        1 0.16435496E+00 0.19540508E+04</pdfrwt>
<pdfrwt beam="2">  1       -2 0.13746817E+00 0.19540508E+04</pdfrwt>
<totfact> 0.41205482E+00</totfact>
</mgrwt>
</event>
<event>
12    4  0.4486176E-008  0.2110140E+04  0.7818608E-02  0.8556790E-01
          1   -1    0    0  501    0  0.00000000000E+00  0.00000000000E+00  0.11546540006E+04  0.11546540006E+04  0.00000000000E+00 0. -1.
         -2   -1    0    0    0  501 -0.00000000000E+00 -0.00000000000E+00 -0.96407472475E+03  0.96407472475E+03  0.00000000000E+00 0.  1.
        -24    2    1    2    0    0 -0.26656374363E+03  0.48596471393E+02 -0.74219866794E+03  0.79412551862E+03  0.79741019460E+02 0.  0.
        254    2    1    2    0    0  0.26656374363E+03 -0.48596471393E+02  0.93277794378E+03  0.13246032067E+04  0.90060041993E+03 0.  0.
         23    2    4    4    0    0 -0.25665101993E+03 -0.24437971104E+03  0.27986584696E+03  0.46053863478E+03  0.90441984895E+02 0.  0.
         23    2    4    4    0    0  0.52321476356E+03  0.19578323965E+03  0.65291209683E+03  0.86406457194E+03  0.90711700240E+02 0.  0.
          1    1    3    3  502    0 -0.51144671870E+02  0.30743781989E+02 -0.24144147637E+03  0.24870654214E+03  0.00000000000E+00 0. -1.
         -2    1    3    3    0  502 -0.21541907176E+03  0.17852689404E+02 -0.50075719157E+03  0.54541897648E+03  0.00000000000E+00 0.  1.
         11    1    5    5    0    0 -0.11463054754E+03 -0.11383728351E+03  0.71738895288E+02  0.17676413280E+03  0.00000000000E+00 0.  1.
        -11    1    5    5    0    0 -0.14202047238E+03 -0.13054242753E+03  0.20812695167E+03  0.28377450198E+03  0.00000000000E+00 0. -1.
          3    1    6    6  503    0  0.36253066149E+02  0.21300927511E+02  0.19723357657E+02  0.46443784894E+02  0.00000000000E+00 0. -1.
         -3    1    6    6    0  503  0.48696169741E+03  0.17448231214E+03  0.63318873917E+03  0.81762078704E+03  0.00000000000E+00 0.  1.
<mgrwt>
<rscale>  0 0.21101400E+04</rscale>
<asrwt>0</asrwt>
<pdfrwt beam="1">  1        1 0.17763908E+00 0.21101400E+04</pdfrwt>
<pdfrwt beam="2">  1       -2 0.14831919E+00 0.21101400E+04</pdfrwt>
<totfact> 0.28711589E+00</totfact>
</mgrwt>
</event>
<event>
12    4  0.4486176E-008  0.1208514E+04  0.7818608E-02  0.9105437E-01
         -2   -1    0    0    0  501 -0.00000000000E+00  0.00000000000E+00  0.16550848011E+04  0.16550848011E+04  0.00000000000E+00 0.  1.
          1   -1    0    0  501    0  0.00000000000E+00 -0.00000000000E+00 -0.22060903300E+03  0.22060903300E+03  0.00000000000E+00 0. -1.
        -24    2    1    2    0    0 -0.71493727103E+02 -0.17084008332E+03  0.39605001136E+02  0.20552647086E+03  0.79842889642E+02 0.  0.
        254    2    1    2    0    0  0.71493727103E+02  0.17084008332E+03  0.13948707670E+04  0.16701673632E+04  0.89972044416E+03 0.  0.
         23    2    4    4    0    0 -0.20612653414E+03  0.29630920086E+03  0.12769954767E+04  0.13302046253E+04  0.91867333697E+02 0.  0.
         23    2    4    4    0    0  0.27762026124E+03 -0.12546911754E+03  0.11787529021E+03  0.33996273792E+03  0.94151846636E+02 0.  0.
          1    1    3    3  502    0 -0.51981373778E+02 -0.17417854903E+03  0.37709179551E+02  0.18564000750E+03  0.00000000000E+00 0. -1.
         -2    1    3    3    0  502 -0.19512353325E+02  0.33384657111E+01  0.18958215846E+01  0.19886463362E+02  0.00000000000E+00 0.  1.
         11    1    5    5    0    0 -0.45960448910E+02  0.73704507322E+02  0.46798227347E+03  0.47597492113E+03  0.00000000000E+00 0.  1.
        -11    1    5    5    0    0 -0.16016608523E+03  0.22260469354E+03  0.80901320328E+03  0.85422970419E+03  0.00000000000E+00 0. -1.
          1    1    6    6  503    0  0.10083888010E+03 -0.35921095700E+02  0.89982414846E+02  0.13984148110E+03  0.00000000000E+00 0. -1.
         -1    1    6    6    0  503  0.17678138115E+03 -0.89548021840E+02  0.27892875367E+02  0.20012125682E+03  0.00000000000E+00 0.  1.
<mgrwt>
<rscale>  0 0.12085142E+04</rscale>
<asrwt>0</asrwt>
<pdfrwt beam="1">  1        1 0.33939852E-01 0.12085142E+04</pdfrwt>
<pdfrwt beam="2">  1       -2 0.25462842E+00 0.12085142E+04</pdfrwt>
<totfact> 0.68156881E+00</totfact>
</mgrwt>
</event>
<event>
12    4  0.4486176E-008  0.1659459E+04  0.7818608E-02  0.8784830E-01
          1   -1    0    0  501    0  0.00000000000E+00  0.00000000000E+00  0.13734905612E+04  0.13734905612E+04  0.00000000000E+00 0. -1.
         -2   -1    0    0    0  501 -0.00000000000E+00 -0.00000000000E+00 -0.50124166951E+03  0.50124166951E+03  0.00000000000E+00 0.  1.
        -24    2    1    2    0    0  0.41823277086E+03 -0.11549485141E+03  0.72710956432E+03  0.85052106740E+03  0.80249961001E+02 0.  0.
        254    2    1    2    0    0 -0.41823277086E+03  0.11549485141E+03  0.14513932735E+03  0.10242111633E+04  0.91634347891E+03 0.  0.
         23    2    4    4    0    0  0.28205100620E+03  0.58259960130E+02  0.60224208042E+02  0.31050564677E+03  0.99195808317E+02 0.  0.
         23    2    4    4    0    0 -0.70028377706E+03  0.57234891284E+02  0.84915119306E+02  0.71370551653E+03  0.92150885186E+02 0.  0.
          1    1    3    3  502    0  0.21604638212E+03 -0.95294886824E+02  0.43012487984E+03  0.49067766093E+03  0.00000000000E+00 0. -1.
         -2    1    3    3    0  502  0.20218638874E+03 -0.20199964590E+02  0.29698468448E+03  0.35984340647E+03  0.00000000000E+00 0.  1.
         11    1    5    5    0    0  0.13987264252E+03  0.27885535675E+02  0.80399916190E+02  0.16372570278E+03  0.00000000000E+00 0. -1.
        -11    1    5    5    0    0  0.14217836368E+03  0.30374424455E+02 -0.20175708148E+02  0.14677994399E+03  0.00000000000E+00 0.  1.
          3    1    6    6  503    0  0.48235593103E+00  0.59349839131E+01  0.14126007549E+01  0.61198155353E+01  0.00000000000E+00 0. -1.
         -3    1    6    6    0  503 -0.70076613299E+03  0.51299907371E+02  0.83502518551E+02  0.70758570099E+03  0.00000000000E+00 0.  1.
<mgrwt>
<rscale>  0 0.16594586E+04</rscale>
<asrwt>0</asrwt>
<pdfrwt beam="1">  1        1 0.21130624E+00 0.16594586E+04</pdfrwt>
<pdfrwt beam="2">  1       -2 0.77114103E-01 0.16594586E+04</pdfrwt>
<totfact> 0.10085035E+01</totfact>
</mgrwt>
</event>
<event>
12    4  0.4486176E-008  0.2163703E+04  0.7818608E-02  0.8533690E-01
         -2   -1    0    0    0  501 -0.00000000000E+00  0.00000000000E+00  0.47634593006E+03  0.47634593006E+03  0.00000000000E+00 0.  1.
          1   -1    0    0  501    0  0.00000000000E+00 -0.00000000000E+00 -0.24570427535E+04  0.24570427535E+04  0.00000000000E+00 0. -1.
        -24    2    1    2    0    0 -0.46491232426E+03  0.41324595278E+03 -0.16889957971E+04  0.18016245531E+04  0.78921104328E+02 0.  0.
        254    2    1    2    0    0  0.46491232426E+03 -0.41324595278E+03 -0.29170102634E+03  0.11317641305E+04  0.89938027087E+03 0.  0.
         23    2    4    4    0    0  0.51553214523E+03 -0.46332084166E+03  0.11537748519E+03  0.70877678113E+03  0.92806068206E+02 0.  0.
         23    2    4    4    0    0 -0.50619820975E+02  0.50074888877E+02 -0.40707851152E+03  0.42298734939E+03  0.90197130949E+02 0.  0.
          3    1    3    3  502    0 -0.21919676755E+03  0.18185561970E+03 -0.88353242032E+03  0.92830395188E+03  0.00000000000E+00 0. -1.
         -4    1    3    3    0  502 -0.24571555670E+03  0.23139033309E+03 -0.80546337681E+03  0.87332060117E+03  0.00000000000E+00 0.  1.
         11    1    5    5    0    0  0.46736586708E+02 -0.11384696169E+02  0.10193868854E+02  0.49171483669E+02  0.00000000000E+00 0.  1.
        -11    1    5    5    0    0  0.46879555853E+03 -0.45193614549E+03  0.10518361633E+03  0.65960529746E+03  0.00000000000E+00 0. -1.
          1    1    6    6  503    0 -0.18423777354E+01  0.62893817869E+02 -0.19083032586E+03  0.20093591005E+03  0.00000000000E+00 0. -1.
         -1    1    6    6    0  503 -0.48777443240E+02 -0.12818928992E+02 -0.21624818567E+03  0.22205143934E+03  0.00000000000E+00 0.  1.
<mgrwt>
<rscale>  0 0.21637027E+04</rscale>
<asrwt>0</asrwt>
<pdfrwt beam="1">  1        1 0.37800658E+00 0.21637027E+04</pdfrwt>
<pdfrwt beam="2">  1       -2 0.73283989E-01 0.21637027E+04</pdfrwt>
<totfact> 0.19599233E+00</totfact>
</mgrwt>
</event>
<event>
12    4  0.4486176E-008  0.1824052E+04  0.7818608E-02  0.8693612E-01
         -2   -1    0    0    0  501 -0.00000000000E+00  0.00000000000E+00  0.11010553922E+04  0.11010553922E+04  0.00000000000E+00 0.  1.
          1   -1    0    0  501    0  0.00000000000E+00 -0.00000000000E+00 -0.75544937720E+03  0.75544937720E+03  0.00000000000E+00 0. -1.
        -24    2    1    2    0    0  0.77085671084E+02 -0.20050556957E+03  0.74658491478E+03  0.78127802094E+03  0.82834937774E+02 0.  0.
        254    2    1    2    0    0 -0.77085671084E+02  0.20050556957E+03 -0.40097889980E+03  0.10752267484E+04  0.97426064190E+03 0.  0.
         23    2    4    4    0    0 -0.10801594492E+03  0.53675211365E+02 -0.70513166722E+03  0.72153495388E+03  0.94093298864E+02 0.  0.
         23    2    4    4    0    0  0.30930273838E+02  0.14683035820E+03  0.30415276742E+03  0.35369179456E+03  0.10036505208E+03 0.  0.
          1    1    3    3  502    0  0.90060552365E+01  0.66634962993E+01  0.23645169357E+02  0.26164962217E+02  0.00000000000E+00 0. -1.
         -2    1    3    3    0  502  0.68079615847E+02 -0.20716906587E+03  0.72293974542E+03  0.75511305873E+03  0.00000000000E+00 0.  1.
         11    1    5    5    0    0 -0.12408592127E+03  0.48477030255E+02 -0.66079854164E+03  0.67409350312E+03  0.00000000000E+00 0.  1.
        -11    1    5    5    0    0  0.16069976350E+02  0.51981811099E+01 -0.44333125576E+02  0.47441450758E+02  0.00000000000E+00 0. -1.
          1    1    6    6  503    0  0.12477546944E+02  0.55910758224E+02  0.30834325612E+02  0.65057341621E+02  0.00000000000E+00 0. -1.
         -1    1    6    6    0  503  0.18452726895E+02  0.90919599981E+02  0.27331844180E+03  0.28863445293E+03  0.00000000000E+00 0.  1.
<mgrwt>
<rscale>  0 0.18240522E+04</rscale>
<asrwt>0</asrwt>
<pdfrwt beam="1">  1        1 0.11622298E+00 0.18240522E+04</pdfrwt>
<pdfrwt beam="2">  1       -2 0.16939314E+00 0.18240522E+04</pdfrwt>
<totfact> 0.42975238E+00</totfact>
</mgrwt>
</event>
<event>
12    4  0.4486176E-008  0.1620104E+04  0.7818608E-02  0.8808292E-01
         -2   -1    0    0    0  501 -0.00000000000E+00  0.00000000000E+00  0.18205030914E+04  0.18205030914E+04  0.00000000000E+00 0.  1.
          1   -1    0    0  501    0  0.00000000000E+00 -0.00000000000E+00 -0.36044106185E+03  0.36044106185E+03  0.00000000000E+00 0. -1.
        -24    2    1    2    0    0 -0.43796153576E+02 -0.55564371709E+03  0.90680224535E+03  0.10673195519E+04  0.78883903324E+02 0.  0.
        254    2    1    2    0    0  0.43796153576E+02  0.55564371709E+03  0.55325978422E+03  0.11136246014E+04  0.78956020710E+03 0.  0.
         23    2    4    4    0    0  0.16418589523E+03 -0.11133334223E+03  0.32534589136E+03  0.39275130075E+03  0.95139444692E+02 0.  0.
         23    2    4    4    0    0 -0.12038974165E+03  0.66697705931E+03  0.22791389287E+03  0.72087330067E+03  0.91441158708E+02 0.  0.
          3    1    3    3  502    0 -0.60817337314E+02 -0.29595173267E+03  0.46388037255E+03  0.55359838929E+03  0.00000000000E+00 0. -1.
         -4    1    3    3    0  502  0.17021183738E+02 -0.25969198442E+03  0.44292187280E+03  0.51372116257E+03  0.00000000000E+00 0.  1.
         11    1    5    5    0    0  0.33243854842E+02 -0.42485246179E+02  0.28331522616E+02  0.60932956611E+02  0.00000000000E+00 0.  1.
        -11    1    5    5    0    0  0.13094204039E+03 -0.68848096047E+02  0.29701436874E+03  0.33181834414E+03  0.00000000000E+00 0. -1.
          2    1    6    6  503    0 -0.89807532313E+02  0.61568261504E+03  0.22299508202E+03  0.66095180000E+03  0.00000000000E+00 0. -1.
         -2    1    6    6    0  503 -0.30582209342E+02  0.51294444275E+02  0.49188108461E+01  0.59921500664E+02  0.00000000000E+00 0.  1.
<mgrwt>
<rscale>  0 0.16201038E+04</rscale>
<asrwt>0</asrwt>
<pdfrwt beam="1">  1        1 0.55452472E-01 0.16201038E+04</pdfrwt>
<pdfrwt beam="2">  1       -2 0.28007739E+00 0.16201038E+04</pdfrwt>
<totfact> 0.24305154E+00</totfact>
</mgrwt>
</event>
<event>
12    4  0.4486176E-008  0.2447087E+04  0.7818608E-02  0.8422082E-01
          1   -1    0    0  501    0  0.00000000000E+00  0.00000000000E+00  0.12392578697E+04  0.12392578697E+04  0.00000000000E+00 0. -1.
         -2   -1    0    0    0  501 -0.00000000000E+00 -0.00000000000E+00 -0.12080282517E+04  0.12080282517E+04  0.00000000000E+00 0.  1.
        -24    2    1    2    0    0  0.24787891407E+03  0.15829682471E+03 -0.10018610339E+04  0.10470151318E+04  0.77545562689E+02 0.  0.
        254    2    1    2    0    0 -0.24787891407E+03 -0.15829682471E+03  0.10330906519E+04  0.14002709895E+04  0.89832104973E+03 0.  0.
         23    2    4    4    0    0 -0.11095397621E+03 -0.48182016520E+03  0.86474109332E+03  0.10003223042E+04  0.91684771933E+02 0.  0.
         23    2    4    4    0    0 -0.13692493787E+03  0.32352334049E+03  0.16834955856E+03  0.39994868532E+03  0.90562611348E+02 0.  0.
          1    1    3    3  502    0  0.63111482540E+02  0.63737358039E+02 -0.41350055434E+03  0.42311726327E+03  0.00000000000E+00 0. -1.
         -2    1    3    3    0  502  0.18476743153E+03  0.94559466671E+02 -0.58836047952E+03  0.62389786853E+03  0.00000000000E+00 0.  1.
         11    1    5    5    0    0 -0.12581695047E+03 -0.45598199554E+03  0.81086637299E+03  0.93875117051E+03  0.00000000000E+00 0. -1.
        -11    1    5    5    0    0  0.14862974267E+02 -0.25838169661E+02  0.53874720325E+02  0.61571133704E+02  0.00000000000E+00 0.  1.
          2    1    6    6  503    0 -0.10275917347E+02  0.10337173377E+03  0.19915857217E+02  0.10577311184E+03  0.00000000000E+00 0. -1.
         -2    1    6    6    0  503 -0.12664902052E+03  0.22015160672E+03  0.14843370134E+03  0.29417557348E+03  0.00000000000E+00 0.  1.
<mgrwt>
<rscale>  0 0.24470869E+04</rscale>
<asrwt>0</asrwt>
<pdfrwt beam="1">  1        1 0.19065506E+00 0.24470869E+04</pdfrwt>
<pdfrwt beam="2">  1       -2 0.18585050E+00 0.24470869E+04</pdfrwt>
<totfact> 0.12953906E+00</totfact>
</mgrwt>
</event>
<event>
12    4  0.4486176E-008  0.1207666E+04  0.7818608E-02  0.9106173E-01
         -2   -1    0    0    0  501 -0.00000000000E+00  0.00000000000E+00  0.18720386435E+03  0.18720386435E+03  0.00000000000E+00 0.  1.
          1   -1    0    0  501    0  0.00000000000E+00 -0.00000000000E+00 -0.19476853966E+04  0.19476853966E+04  0.00000000000E+00 0. -1.
        -24    2    1    2    0    0 -0.13311052597E+03 -0.12849833586E+03 -0.70509405451E+03  0.73345435244E+03  0.81039662908E+02 0.  0.
        254    2    1    2    0    0  0.13311052597E+03  0.12849833586E+03 -0.10553874778E+04  0.14014349086E+04  0.90329775833E+03 0.  0.
         23    2    4    4    0    0 -0.15414352184E+03 -0.32202349954E+03 -0.53457348370E+03  0.64955797118E+03  0.93259792333E+02 0.  0.
         23    2    4    4    0    0  0.28725404781E+03  0.45052183540E+03 -0.52081399408E+03  0.75187693738E+03  0.92665529575E+02 0.  0.
          3    1    3    3  502    0 -0.57506075463E+02 -0.76575876451E+02 -0.49553243714E+03  0.50470110939E+03  0.00000000000E+00 0. -1.
         -4    1    3    3    0  502 -0.75604450506E+02 -0.51922459408E+02 -0.20956161737E+03  0.22875324304E+03  0.00000000000E+00 0.  1.
         11    1    5    5    0    0 -0.10340136009E+03 -0.11360716794E+03 -0.24529635665E+03  0.28942828552E+03  0.00000000000E+00 0.  1.
        -11    1    5    5    0    0 -0.50742161755E+02 -0.20841633160E+03 -0.28927712705E+03  0.36012968565E+03  0.00000000000E+00 0. -1.
          4    1    6    6  503    0  0.88115813734E+02  0.18120420765E+03 -0.25037346510E+03  0.32138175668E+03  0.00000000000E+00 0. -1.
         -4    1    6    6    0  503  0.19913823408E+03  0.26931762775E+03 -0.27044052898E+03  0.43049518070E+03  0.00000000000E+00 0.  1.
<mgrwt>
<rscale>  0 0.12076659E+04</rscale>
<asrwt>0</asrwt>
<pdfrwt beam="1">  1        1 0.29964389E+00 0.12076659E+04</pdfrwt>
<pdfrwt beam="2">  1       -2 0.28800596E-01 0.12076659E+04</pdfrwt>
<totfact> 0.31115940E+01</totfact>
</mgrwt>
</event>
<event>
12    4  0.4486176E-008  0.1352182E+04  0.7818608E-02  0.8989178E-01
         -2   -1    0    0    0  501 -0.00000000000E+00  0.00000000000E+00  0.14835518957E+04  0.14835518957E+04  0.00000000000E+00 0.  1.
          1   -1    0    0  501    0  0.00000000000E+00 -0.00000000000E+00 -0.30811132438E+03  0.30811132438E+03  0.00000000000E+00 0. -1.
        -24    2    1    2    0    0 -0.22996000289E+03 -0.44939527021E+02 -0.40544323253E+02  0.25090826403E+03  0.80062168309E+02 0.  0.
        254    2    1    2    0    0  0.22996000289E+03  0.44939527021E+02  0.12159848946E+04  0.15407549561E+04  0.91673627984E+03 0.  0.
         23    2    4    4    0    0 -0.21166512558E+03 -0.19388350973E+03  0.10660474808E+03  0.31949472588E+03  0.91210563114E+02 0.  0.
         23    2    4    4    0    0  0.44162512847E+03  0.23882303675E+03  0.11093801465E+04  0.12212602302E+04  0.93182849277E+02 0.  0.
          1    1    3    3  502    0 -0.98050827173E+01  0.52982779273E+01  0.14687850696E+02  0.18437579943E+02  0.00000000000E+00 0. -1.
         -4    1    3    3    0  502 -0.22015492017E+03 -0.50237804949E+02 -0.55232173949E+02  0.23247068409E+03  0.00000000000E+00 0.  1.
         11    1    5    5    0    0 -0.52620362952E+02 -0.16708336006E+02 -0.70714908518E+01  0.55660372548E+02  0.00000000000E+00 0. -1.
        -11    1    5    5    0    0 -0.15904476262E+03 -0.17717517372E+03  0.11367623893E+03  0.26383435333E+03  0.00000000000E+00 0.  1.
          4    1    6    6  503    0  0.19835986481E+03  0.58662921702E+02  0.48963360661E+03  0.53153461136E+03  0.00000000000E+00 0. -1.
         -4    1    6    6    0  503  0.24326526365E+03  0.18016011504E+03  0.61974653992E+03  0.68972561885E+03  0.00000000000E+00 0.  1.
<mgrwt>
<rscale>  0 0.13521821E+04</rscale>
<asrwt>0</asrwt>
<pdfrwt beam="1">  1        1 0.47401743E-01 0.13521821E+04</pdfrwt>
<pdfrwt beam="2">  1       -2 0.22823875E+00 0.13521821E+04</pdfrwt>
<totfact> 0.63455787E+00</totfact>
</mgrwt>
</event>
<event>
12    4  0.4486176E-008  0.2823981E+04  0.7818608E-02  0.8295862E-01
          1   -1    0    0  501    0  0.00000000000E+00  0.00000000000E+00  0.12144152435E+04  0.12144152435E+04  0.00000000000E+00 0. -1.
         -2   -1    0    0    0  501 -0.00000000000E+00 -0.00000000000E+00 -0.16417098484E+04  0.16417098484E+04  0.00000000000E+00 0.  1.
        -24    2    1    2    0    0  0.96410608236E+03  0.73456774117E+03 -0.56900554691E+03  0.13413649330E+04  0.80014165903E+02 0.  0.
        254    2    1    2    0    0 -0.96410608236E+03 -0.73456774117E+03  0.14171094206E+03  0.15147601589E+04  0.89739960074E+03 0.  0.
         23    2    4    4    0    0 -0.23776634794E+03 -0.13838059678E+02  0.38289901605E+03  0.45964393464E+03  0.89087384365E+02 0.  0.
         23    2    4    4    0    0 -0.72633973442E+03 -0.72072968149E+03 -0.24118807399E+03  0.10551162242E+04  0.89877004993E+02 0.  0.
          3    1    3    3  502    0  0.29402868834E+03  0.22260908195E+03 -0.13296301256E+03  0.39202912601E+03  0.00000000000E+00 0. -1.
         -4    1    3    3    0  502  0.67007739402E+03  0.51195865921E+03 -0.43604253436E+03  0.94933580702E+03  0.00000000000E+00 0.  1.
         11    1    5    5    0    0 -0.23850339440E+03 -0.26383361982E+02  0.37354746340E+03  0.44397934450E+03  0.00000000000E+00 0. -1.
        -11    1    5    5    0    0  0.73704645917E+00  0.12545302304E+02  0.93515526508E+01  0.15664590144E+02  0.00000000000E+00 0.  1.
          1    1    6    6  503    0 -0.65245167516E+03 -0.63421564053E+03 -0.18622768535E+03  0.92876445771E+03  0.00000000000E+00 0. -1.
         -1    1    6    6    0  503 -0.73888059262E+02 -0.86514040954E+02 -0.54960388640E+02  0.12635176652E+03  0.00000000000E+00 0.  1.
<mgrwt>
<rscale>  0 0.28239812E+04</rscale>
<asrwt>0</asrwt>
<pdfrwt beam="1">  1        1 0.18683312E+00 0.28239812E+04</pdfrwt>
<pdfrwt beam="2">  1       -2 0.25257074E+00 0.28239812E+04</pdfrwt>
<totfact> 0.49003344E-01</totfact>
</mgrwt>
</event>
<event>
12    4  0.4486176E-008  0.2711604E+04  0.7818608E-02  0.8331250E-01
         -2   -1    0    0    0  501 -0.00000000000E+00  0.00000000000E+00  0.22632893904E+04  0.22632893904E+04  0.00000000000E+00 0.  1.
          1   -1    0    0  501    0  0.00000000000E+00 -0.00000000000E+00 -0.81218051034E+03  0.81218051034E+03  0.00000000000E+00 0. -1.
        -24    2    1    2    0    0 -0.72077200528E+03 -0.87812899463E+03  0.12644031198E+03  0.11460338226E+04  0.82362340738E+02 0.  0.
        254    2    1    2    0    0  0.72077200528E+03  0.87812899463E+03  0.13246685681E+04  0.19294360782E+04  0.82301515766E+03 0.  0.
         23    2    4    4    0    0  0.19743955696E+03 -0.22007048893E+02 -0.27189105598E+02  0.22029843237E+03  0.91243975079E+02 0.  0.
         23    2    4    4    0    0  0.52333244832E+03  0.90013604352E+03  0.13518576737E+04  0.17091376458E+04  0.97522172529E+02 0.  0.
          3    1    3    3  502    0 -0.20567773397E+03 -0.25711690070E+03 -0.60198973508E+00  0.32926098048E+03  0.00000000000E+00 0. -1.
         -4    1    3    3    0  502 -0.51509427131E+03 -0.62101209393E+03  0.12704230172E+03  0.81677284209E+03  0.00000000000E+00 0.  1.
         11    1    5    5    0    0  0.13796159076E+03 -0.26957715765E+02 -0.59251509257E+02  0.15254789515E+03  0.00000000000E+00 0. -1.
        -11    1    5    5    0    0  0.59477966200E+02  0.49506668726E+01  0.32062403659E+02  0.67750537224E+02  0.00000000000E+00 0.  1.
          4    1    6    6  503    0  0.22657024738E+03  0.32950780310E+03  0.57875391879E+03  0.70346682069E+03  0.00000000000E+00 0. -1.
         -4    1    6    6    0  503  0.29676220094E+03  0.57062824041E+03  0.77310375491E+03  0.10056708251E+04  0.00000000000E+00 0.  1.
<mgrwt>
<rscale>  0 0.27116043E+04</rscale>
<asrwt>0</asrwt>
<pdfrwt beam="1">  1        1 0.12495085E+00 0.27116043E+04</pdfrwt>
<pdfrwt beam="2">  1       -2 0.34819836E+00 0.27116043E+04</pdfrwt>
<totfact> 0.26362562E-01</totfact>
</mgrwt>
</event>
<event>
12    4  0.4486176E-008  0.1996440E+04  0.7818608E-02  0.8608287E-01
         -2   -1    0    0    0  501 -0.00000000000E+00  0.00000000000E+00  0.28085752936E+04  0.28085752936E+04  0.00000000000E+00 0.  1.
          1   -1    0    0  501    0  0.00000000000E+00 -0.00000000000E+00 -0.35478608955E+03  0.35478608955E+03  0.00000000000E+00 0. -1.
        -24    2    1    2    0    0 -0.50402080063E+03  0.26847362211E+03  0.11355102889E+03  0.58786477300E+03  0.81093168246E+02 0.  0.
        254    2    1    2    0    0  0.50402080063E+03 -0.26847362211E+03  0.23402381752E+04  0.25754966102E+04  0.91123708174E+03 0.  0.
         23    2    4    4    0    0  0.17823534884E+03 -0.23837730108E+03  0.12278050569E+03  0.33217414122E+03  0.81688617738E+02 0.  0.
         23    2    4    4    0    0  0.32578545179E+03 -0.30096321022E+02  0.22174576695E+04  0.22433224689E+04  0.91297505687E+02 0.  0.
          1    1    3    3  502    0 -0.38197225226E+03  0.16949340220E+03  0.61865302182E+02  0.42244305001E+03  0.00000000000E+00 0. -1.
         -2    1    3    3    0  502 -0.12204854837E+03  0.98980219908E+02  0.51685726705E+02  0.16542172299E+03  0.00000000000E+00 0.  1.
         11    1    5    5    0    0  0.15218207498E+03 -0.18030843325E+03  0.61516280784E+02  0.24383348386E+03  0.00000000000E+00 0.  1.
        -11    1    5    5    0    0  0.26053273861E+02 -0.58068867832E+02  0.61264224905E+02  0.88340657363E+02  0.00000000000E+00 0. -1.
          2    1    6    6  503    0  0.16659780430E+03 -0.57733155797E+02  0.12713675503E+04  0.12835355054E+04  0.00000000000E+00 0.  1.
         -2    1    6    6    0  503  0.15918764749E+03  0.27636834775E+02  0.94609011913E+03  0.95978696348E+03  0.00000000000E+00 0. -1.
<mgrwt>
<rscale>  0 0.19964403E+04</rscale>
<asrwt>0</asrwt>
<pdfrwt beam="1">  1        1 0.54582477E-01 0.19964403E+04</pdfrwt>
<pdfrwt beam="2">  1       -2 0.43208849E+00 0.19964403E+04</pdfrwt>
<totfact> 0.26105520E-01</totfact>
</mgrwt>
</event>
<event>
12    4  0.4486176E-008  0.2070430E+04  0.7818608E-02  0.8574382E-01
          1   -1    0    0  501    0  0.00000000000E+00  0.00000000000E+00  0.13738762592E+04  0.13738762592E+04  0.00000000000E+00 0. -1.
         -2   -1    0    0    0  501 -0.00000000000E+00 -0.00000000000E+00 -0.78003380323E+03  0.78003380323E+03  0.00000000000E+00 0.  1.
        -24    2    1    2    0    0  0.39751089214E+03  0.13579149064E+03 -0.50266410444E+03  0.65992247000E+03  0.79826225190E+02 0.  0.
        254    2    1    2    0    0 -0.39751089214E+03 -0.13579149064E+03  0.10965065605E+04  0.14939875925E+04  0.92369803022E+03 0.  0.
         23    2    4    4    0    0 -0.45623622837E+03 -0.25310604247E+03  0.17405652259E+03  0.55760517938E+03  0.91726213257E+02 0.  0.
         23    2    4    4    0    0  0.58725336233E+02  0.11731455183E+03  0.92245003787E+03  0.93638241309E+03  0.93201834751E+02 0.  0.
          1    1    3    3  502    0  0.13293676765E+03  0.64039914583E+02 -0.12581014675E+03  0.19391103083E+03  0.00000000000E+00 0. -1.
         -2    1    3    3    0  502  0.26457412449E+03  0.71751576061E+02 -0.37685395769E+03  0.46601143917E+03  0.00000000000E+00 0.  1.
         11    1    5    5    0    0 -0.15163733501E+03 -0.79912397323E+02  0.10333398227E+03  0.20014440913E+03  0.00000000000E+00 0.  1.
        -11    1    5    5    0    0 -0.30459889335E+03 -0.17319364515E+03  0.70722540326E+02  0.35746077024E+03  0.00000000000E+00 0. -1.
          2    1    6    6  503    0  0.35609116659E+02  0.12976417038E+03  0.75852524826E+03  0.77036828942E+03  0.00000000000E+00 0. -1.
         -2    1    6    6    0  503  0.23116219574E+02 -0.12449618549E+02  0.16392478961E+03  0.16601412367E+03  0.00000000000E+00 0.  1.
<mgrwt>
<rscale>  0 0.20704298E+04</rscale>
<asrwt>0</asrwt>
<pdfrwt beam="1">  1        1 0.21136558E+00 0.20704298E+04</pdfrwt>
<pdfrwt beam="2">  1       -2 0.12000520E+00 0.20704298E+04</pdfrwt>
<totfact> 0.34437197E+00</totfact>
</mgrwt>
</event>
<event>
12    4  0.4486176E-008  0.1471652E+04  0.7818608E-02  0.8903526E-01
          1   -1    0    0  501    0  0.00000000000E+00  0.00000000000E+00  0.38424452329E+03  0.38424452329E+03  0.00000000000E+00 0. -1.
         -2   -1    0    0    0  501 -0.00000000000E+00 -0.00000000000E+00 -0.14091019600E+04  0.14091019600E+04  0.00000000000E+00 0.  1.
        -24    2    1    2    0    0 -0.36806869196E+03 -0.24870771082E+03 -0.17634948259E+03  0.48479707021E+03  0.81234055955E+02 0.  0.
        254    2    1    2    0    0  0.36806869196E+03  0.24870771082E+03 -0.84850795409E+03  0.13085494130E+04  0.89163093868E+03 0.  0.
         23    2    4    4    0    0 -0.17184618031E+03  0.37845991052E+03 -0.28454283017E+03  0.51156064550E+03  0.89256138570E+02 0.  0.
         23    2    4    4    0    0  0.53991487227E+03 -0.12975219969E+03 -0.56396512392E+03  0.79698876755E+03  0.93758903390E+02 0.  0.
          1    1    3    3  502    0 -0.25937936086E+03 -0.20619443966E+03 -0.10316079687E+03  0.34703883039E+03  0.00000000000E+00 0. -1.
         -2    1    3    3    0  502 -0.10868933110E+03 -0.42513271159E+02 -0.73188685719E+02  0.13775823981E+03  0.00000000000E+00 0.  1.
         11    1    5    5    0    0 -0.15290466083E+03  0.27995876993E+03 -0.17827210724E+03  0.36542809468E+03  0.00000000000E+00 0.  1.
        -11    1    5    5    0    0 -0.18941519478E+02  0.98501140591E+02 -0.10627072293E+03  0.14613255082E+03  0.00000000000E+00 0. -1.
          3    1    6    6  503    0  0.21179719540E+03 -0.91102585935E+02 -0.19755088754E+03  0.30361832341E+03  0.00000000000E+00 0. -1.
         -3    1    6    6    0  503  0.32811767687E+03 -0.38649613759E+02 -0.36641423639E+03  0.49337044413E+03  0.00000000000E+00 0.  1.
<mgrwt>
<rscale>  0 0.14716517E+04</rscale>
<asrwt>0</asrwt>
<pdfrwt beam="1">  1        1 0.59114542E-01 0.14716517E+04</pdfrwt>
<pdfrwt beam="2">  1       -2 0.21678492E+00 0.14716517E+04</pdfrwt>
<totfact> 0.55525695E+00</totfact>
</mgrwt>
</event>
<event>
12    4  0.4486176E-008  0.2902685E+04  0.7818608E-02  0.8272079E-01
          1   -1    0    0  501    0  0.00000000000E+00  0.00000000000E+00  0.18098563114E+04  0.18098563114E+04  0.00000000000E+00 0. -1.
         -2   -1    0    0    0  501 -0.00000000000E+00 -0.00000000000E+00 -0.11638467736E+04  0.11638467736E+04  0.00000000000E+00 0.  1.
        -24    2    1    2    0    0  0.73073823991E+03  0.26546832953E+02  0.14067316546E+04  0.15885240821E+04  0.99154937672E+02 0.  0.
        254    2    1    2    0    0 -0.73073823991E+03 -0.26546832953E+02 -0.76072211684E+03  0.13851790030E+04  0.89740716604E+03 0.  0.
         23    2    4    4    0    0 -0.67444180225E+03 -0.27132739709E+03 -0.19355764392E+03  0.75810516925E+03  0.93640723403E+02 0.  0.
         23    2    4    4    0    0 -0.56296437653E+02  0.24478056414E+03 -0.56716447292E+03  0.62707383374E+03  0.91974127591E+02 0.  0.
          3    1    3    3  502    0  0.43071821246E+03 -0.22329475344E+02  0.89041948266E+03  0.98937537827E+03  0.00000000000E+00 0. -1.
         -4    1    3    3    0  502  0.30002002745E+03  0.48876308297E+02  0.51631217197E+03  0.59914870384E+03  0.00000000000E+00 0.  1.
         11    1    5    5    0    0 -0.36871581766E+03 -0.14355098901E+03 -0.57182815038E+02  0.39978508598E+03  0.00000000000E+00 0. -1.
        -11    1    5    5    0    0 -0.30572598460E+03 -0.12777640808E+03 -0.13637482888E+03  0.35832008327E+03  0.00000000000E+00 0.  1.
          1    1    6    6  503    0 -0.58405388240E+02  0.24878092132E+03 -0.51702088612E+03  0.57672674021E+03  0.00000000000E+00 0. -1.
         -1    1    6    6    0  503  0.21089505864E+01 -0.40003571751E+01 -0.50143586796E+02  0.50347093529E+02  0.00000000000E+00 0.  1.
<mgrwt>
<rscale>  0 0.29026853E+04</rscale>
<asrwt>0</asrwt>
<pdfrwt beam="1">  1        1 0.27843943E+00 0.29026853E+04</pdfrwt>
<pdfrwt beam="2">  1       -2 0.17905335E+00 0.29026853E+04</pdfrwt>
<totfact> 0.55695907E-01</totfact>
</mgrwt>
</event>
<event>
12    4  0.4486176E-008  0.1363520E+04  0.7818608E-02  0.8980657E-01
         -2   -1    0    0    0  501 -0.00000000000E+00  0.00000000000E+00  0.29707707304E+03  0.29707707304E+03  0.00000000000E+00 0.  1.
          1   -1    0    0  501    0  0.00000000000E+00 -0.00000000000E+00 -0.15645650284E+04  0.15645650284E+04  0.00000000000E+00 0. -1.
        -24    2    1    2    0    0  0.17680872364E+03 -0.11287677403E+02  0.10482032464E+03  0.22119898660E+03  0.80950323018E+02 0.  0.
        254    2    1    2    0    0 -0.17680872364E+03  0.11287677403E+02 -0.13723082800E+04  0.16404431149E+04  0.88115541267E+03 0.  0.
         23    2    4    4    0    0 -0.21207376125E+03 -0.39821629618E+03 -0.55506510574E+03  0.72100120009E+03  0.90520495842E+02 0.  0.
         23    2    4    4    0    0  0.35265037604E+02  0.40950397358E+03 -0.81724317430E+03  0.91944191479E+03  0.92465677282E+02 0.  0.
          1    1    3    3  502    0  0.11120655173E+03 -0.21512246205E+02  0.22569634902E+02  0.11549485835E+03  0.00000000000E+00 0. -1.
         -2    1    3    3    0  502  0.65602171910E+02  0.10224568802E+02  0.82250689743E+02  0.10570412825E+03  0.00000000000E+00 0.  1.
         11    1    5    5    0    0 -0.14494966712E+03 -0.17689281139E+03 -0.28618146391E+03  0.36633496012E+03  0.00000000000E+00 0.  1.
        -11    1    5    5    0    0 -0.67124094130E+02 -0.22132348479E+03 -0.26888364184E+03  0.35466623998E+03  0.00000000000E+00 0. -1.
          1    1    6    6  503    0 -0.29644652082E+02  0.15070439282E+03 -0.27035956765E+03  0.31094198049E+03  0.00000000000E+00 0. -1.
         -1    1    6    6    0  503  0.64909689687E+02  0.25879958077E+03 -0.54688360666E+03  0.60849993431E+03  0.00000000000E+00 0.  1.
<mgrwt>
<rscale>  0 0.13635196E+04</rscale>
<asrwt>0</asrwt>
<pdfrwt beam="1">  1        1 0.24070231E+00 0.13635196E+04</pdfrwt>
<pdfrwt beam="2">  1       -2 0.45704165E-01 0.13635196E+04</pdfrwt>
<totfact> 0.22991793E+01</totfact>
</mgrwt>
</event>
<event>
12    4  0.4486176E-008  0.1141412E+04  0.7818608E-02  0.9165743E-01
          1   -1    0    0  501    0  0.00000000000E+00  0.00000000000E+00  0.10677781239E+04  0.10677781239E+04  0.00000000000E+00 0. -1.
         -4   -1    0    0    0  501 -0.00000000000E+00 -0.00000000000E+00 -0.30503078445E+03  0.30503078445E+03  0.00000000000E+00 0.  1.
        -24    2    1    2    0    0  0.14237827599E+03 -0.92471263190E+02  0.26423702585E+03  0.32369974344E+03  0.78344177102E+02 0.  0.
        254    2    1    2    0    0 -0.14237827599E+03  0.92471263190E+02  0.49851031364E+03  0.10491091649E+04  0.90735604873E+03 0.  0.
         23    2    4    4    0    0  0.23442800210E+03  0.15829611526E+03 -0.11608201655E+03  0.31950029147E+03  0.92689014508E+02 0.  0.
         23    2    4    4    0    0 -0.37680627809E+03 -0.65824852068E+02  0.61459233019E+03  0.72960887346E+03  0.91046655895E+02 0.  0.
          3    1    3    3  502    0  0.11939830358E+03 -0.73909847974E+02  0.25765405923E+03  0.29343523095E+03  0.00000000000E+00 0. -1.
         -4    1    3    3    0  502  0.22979972410E+02 -0.18561415216E+02  0.65829666158E+01  0.30264512490E+02  0.00000000000E+00 0.  1.
         11    1    5    5    0    0  0.22325656087E+03  0.11172545123E+03 -0.93990927257E+02  0.26675899766E+03  0.00000000000E+00 0. -1.
        -11    1    5    5    0    0  0.11171441229E+02  0.46570664029E+02 -0.22091089298E+02  0.52741293818E+02  0.00000000000E+00 0.  1.
          1    1    6    6  503    0 -0.30638510462E+03 -0.82899672555E+02  0.53418992438E+03  0.62137192031E+03  0.00000000000E+00 0. -1.
         -1    1    6    6    0  503 -0.70421173470E+02  0.17074820487E+02  0.80402405815E+02  0.10823695316E+03  0.00000000000E+00 0.  1.
<mgrwt>
<rscale>  0 0.11414118E+04</rscale>
<asrwt>0</asrwt>
<pdfrwt beam="1">  1        1 0.16427356E+00 0.11414118E+04</pdfrwt>
<pdfrwt beam="2">  1       -4 0.46927813E-01 0.11414118E+04</pdfrwt>
<totfact> 0.28663940E+01</totfact>
</mgrwt>
</event>
<event>
12    4  0.4486176E-008  0.1352490E+04  0.7818608E-02  0.8988945E-01
          1   -1    0    0  501    0  0.00000000000E+00  0.00000000000E+00  0.11717209109E+04  0.11717209109E+04  0.00000000000E+00 0. -1.
         -2   -1    0    0    0  501 -0.00000000000E+00 -0.00000000000E+00 -0.39028705281E+03  0.39028705281E+03  0.00000000000E+00 0.  1.
        -24    2    1    2    0    0  0.30501956459E+03 -0.20277502884E+03  0.15138233182E+03  0.40465984301E+03  0.81721056368E+02 0.  0.
        254    2    1    2    0    0 -0.30501956459E+03  0.20277502884E+03  0.63005152629E+03  0.11573481207E+04  0.89907457959E+03 0.  0.
         23    2    4    4    0    0 -0.44970720227E+03 -0.21728624404E+03  0.41608529031E+03  0.65632618825E+03  0.90483241223E+02 0.  0.
         23    2    4    4    0    0  0.14468763768E+03  0.42006127288E+03  0.21396623598E+03  0.50102193247E+03  0.88630926941E+02 0.  0.
          3    1    3    3  502    0  0.30200538654E+03 -0.18522140954E+03  0.15463134344E+03  0.38655539891E+03  0.00000000000E+00 0. -1.
         -4    1    3    3    0  502  0.30141780529E+01 -0.17553619299E+02 -0.32490116186E+01  0.18104444104E+02  0.00000000000E+00 0.  1.
         11    1    5    5    0    0  0.43228563924E+01 -0.39240662723E+01  0.60750001295E+01  0.84256163022E+01  0.00000000000E+00 0. -1.
        -11    1    5    5    0    0 -0.45403005866E+03 -0.21336217777E+03  0.41001029018E+03  0.64790057195E+03  0.00000000000E+00 0.  1.
          3    1    6    6  503    0  0.15887514531E+02  0.17805120234E+03  0.78665927062E+02  0.19530225767E+03  0.00000000000E+00 0. -1.
         -3    1    6    6    0  503  0.12880012315E+03  0.24201007054E+03  0.13530030891E+03  0.30571967480E+03  0.00000000000E+00 0.  1.
<mgrwt>
<rscale>  0 0.13524903E+04</rscale>
<asrwt>0</asrwt>
<pdfrwt beam="1">  1        1 0.18026475E+00 0.13524903E+04</pdfrwt>
<pdfrwt beam="2">  1       -2 0.60044162E-01 0.13524903E+04</pdfrwt>
<totfact> 0.24878222E+01</totfact>
</mgrwt>
</event>
<event>
12    4  0.4486176E-008  0.2113765E+04  0.7818608E-02  0.8555204E-01
         -2   -1    0    0    0  501 -0.00000000000E+00  0.00000000000E+00  0.44585087086E+03  0.44585087086E+03  0.00000000000E+00 0.  1.
          1   -1    0    0  501    0  0.00000000000E+00 -0.00000000000E+00 -0.25053233986E+04  0.25053233986E+04  0.00000000000E+00 0. -1.
        -24    2    1    2    0    0 -0.69109027418E+03  0.16864477762E+03 -0.15253308145E+04  0.16849512007E+04  0.79872567833E+02 0.  0.
        254    2    1    2    0    0  0.69109027418E+03 -0.16864477762E+03 -0.53414171321E+03  0.12662230687E+04  0.90109192752E+03 0.  0.
         23    2    4    4    0    0 -0.42433183633E+02  0.25970588781E+03 -0.58806679597E+02  0.28860193596E+03  0.10288405433E+03 0.  0.
         23    2    4    4    0    0  0.73352345782E+03 -0.42835066543E+03 -0.47533503361E+03  0.97762113274E+03  0.90877550934E+02 0.  0.
          3    1    3    3  502    0 -0.51345757177E+03  0.10403101802E+03 -0.11852821288E+04  0.12958992459E+04  0.00000000000E+00 0. -1.
         -4    1    3    3    0  502 -0.17763270242E+03  0.64613759597E+02 -0.34004868566E+03  0.38905195478E+03  0.00000000000E+00 0.  1.
         11    1    5    5    0    0 -0.67916070951E+02  0.11161387749E+03 -0.42792455941E+02  0.13748252481E+03  0.00000000000E+00 0.  1.
        -11    1    5    5    0    0  0.25482887318E+02  0.14809201032E+03 -0.16014223656E+02  0.15111941115E+03  0.00000000000E+00 0. -1.
          1    1    6    6  503    0  0.56636705558E+03 -0.36400685590E+03 -0.40151748983E+03  0.78389344138E+03  0.00000000000E+00 0. -1.
         -1    1    6    6    0  503  0.16715640223E+03 -0.64343809535E+02 -0.73817543781E+02  0.19372769137E+03  0.00000000000E+00 0.  1.
<mgrwt>
<rscale>  0 0.21137650E+04</rscale>
<asrwt>0</asrwt>
<pdfrwt beam="1">  1        1 0.38543437E+00 0.21137650E+04</pdfrwt>
<pdfrwt beam="2">  1       -2 0.68592441E-01 0.21137650E+04</pdfrwt>
<totfact> 0.21071125E+00</totfact>
</mgrwt>
</event>
<event>
12    4  0.4486176E-008  0.1346364E+04  0.7818608E-02  0.8993585E-01
         -2   -1    0    0    0  501 -0.00000000000E+00  0.00000000000E+00  0.23867265435E+03  0.23867265435E+03  0.00000000000E+00 0.  1.
          1   -1    0    0  501    0  0.00000000000E+00 -0.00000000000E+00 -0.18987271051E+04  0.18987271051E+04  0.00000000000E+00 0. -1.
        -24    2    1    2    0    0 -0.24349868633E+03 -0.51533822702E+02 -0.90297090068E+03  0.94004224521E+03  0.79847543280E+02 0.  0.
        254    2    1    2    0    0  0.24349868633E+03  0.51533822702E+02 -0.75708355005E+03  0.11973575142E+04  0.89361186765E+03 0.  0.
         23    2    4    4    0    0  0.23867099763E+03  0.38870528200E+03 -0.13533747853E+03  0.48457940531E+03  0.91898452580E+02 0.  0.
         23    2    4    4    0    0  0.48276887023E+01 -0.33717145930E+03 -0.62174607153E+03  0.71277810893E+03  0.88184780822E+02 0.  0.
          3    1    3    3  502    0 -0.15652310791E+03 -0.52855906635E+02 -0.46393839769E+03  0.49247544814E+03  0.00000000000E+00 0. -1.
         -4    1    3    3    0  502 -0.86975578426E+02  0.13220839330E+01 -0.43903250300E+03  0.44756679707E+03  0.00000000000E+00 0.  1.
         11    1    5    5    0    0  0.18268807347E+03  0.27780599854E+03 -0.55992435835E+02  0.33717392824E+03  0.00000000000E+00 0.  1.
        -11    1    5    5    0    0  0.55982924163E+02  0.11089928346E+03 -0.79345042691E+02  0.14740547707E+03  0.00000000000E+00 0. -1.
          2    1    6    6  503    0 -0.99969357259E+01 -0.67633168083E+02 -0.20629277693E+03  0.21732669869E+03  0.00000000000E+00 0. -1.
         -2    1    6    6    0  503  0.14824624428E+02 -0.26953829122E+03 -0.41545329460E+03  0.49545141024E+03  0.00000000000E+00 0.  1.
<mgrwt>
<rscale>  0 0.13463643E+04</rscale>
<asrwt>0</asrwt>
<pdfrwt beam="1">  1        1 0.29211186E+00 0.13463643E+04</pdfrwt>
<pdfrwt beam="2">  1       -2 0.36718870E-01 0.13463643E+04</pdfrwt>
<totfact> 0.20975985E+01</totfact>
</mgrwt>
</event>
<event>
12    4  0.4486176E-008  0.2282834E+04  0.7818608E-02  0.8484720E-01
          1   -1    0    0  501    0  0.00000000000E+00  0.00000000000E+00  0.20924357846E+04  0.20924357846E+04  0.00000000000E+00 0. -1.
         -2   -1    0    0    0  501 -0.00000000000E+00 -0.00000000000E+00 -0.62263929895E+03  0.62263929895E+03  0.00000000000E+00 0.  1.
        -24    2    1    2    0    0  0.85168977681E+03  0.32648369914E+03  0.67194242749E+03  0.11358016472E+04  0.81065862726E+02 0.  0.
        254    2    1    2    0    0 -0.85168977681E+03 -0.32648369914E+03  0.79785405812E+03  0.15792734364E+04  0.10127025264E+04 0.  0.
         23    2    4    4    0    0 -0.25992972443E+03 -0.63120322765E+03  0.44809477780E+03  0.82179170398E+03  0.92583468293E+02 0.  0.
         23    2    4    4    0    0 -0.59176005238E+03  0.30471952851E+03  0.34975928031E+03  0.75748173237E+03  0.91722789263E+02 0.  0.
          3    1    3    3  502    0  0.74621425889E+03  0.27466007639E+03  0.55265832730E+03  0.96835174625E+03  0.00000000000E+00 0. -1.
         -4    1    3    3    0  502  0.10547551792E+03  0.51823622751E+02  0.11928410019E+03  0.16744990091E+03  0.00000000000E+00 0.  1.
         11    1    5    5    0    0 -0.12381895120E+03 -0.32458853438E+03  0.17375904292E+03  0.38843410551E+03  0.00000000000E+00 0.  1.
        -11    1    5    5    0    0 -0.13611077323E+03 -0.30661469326E+03  0.27433573489E+03  0.43335759847E+03  0.00000000000E+00 0. -1.
          4    1    6    6  503    0 -0.32255063302E+03  0.21701805079E+03  0.20317753615E+03  0.43865345824E+03  0.00000000000E+00 0. -1.
         -4    1    6    6    0  503 -0.26920941935E+03  0.87701477717E+02  0.14658174417E+03  0.31882827413E+03  0.00000000000E+00 0.  1.
<mgrwt>
<rscale>  0 0.22828340E+04</rscale>
<asrwt>0</asrwt>
<pdfrwt beam="1">  1        1 0.32191320E+00 0.22828340E+04</pdfrwt>
<pdfrwt beam="2">  1       -2 0.95790662E-01 0.22828340E+04</pdfrwt>
<totfact> 0.18746620E+00</totfact>
</mgrwt>
</event>
<event>
12    4  0.4486176E-008  0.1251012E+04  0.7818608E-02  0.9069342E-01
         -2   -1    0    0    0  501 -0.00000000000E+00  0.00000000000E+00  0.42817022229E+03  0.42817022229E+03  0.00000000000E+00 0.  1.
          1   -1    0    0  501    0  0.00000000000E+00 -0.00000000000E+00 -0.91378961147E+03  0.91378961147E+03  0.00000000000E+00 0. -1.
        -24    2    1    2    0    0  0.28911119193E+03  0.70088277100E+02 -0.93410818307E+02  0.32219875981E+03  0.81171497183E+02 0.  0.
        254    2    1    2    0    0 -0.28911119193E+03 -0.70088277100E+02 -0.39220857087E+03  0.10197610740E+04  0.89307750896E+03 0.  0.
         23    2    4    4    0    0 -0.25906254239E+02 -0.11394444475E+01  0.27631241496E+03  0.29189376694E+03  0.90448815208E+02 0.  0.
         23    2    4    4    0    0 -0.26320493770E+03 -0.68948832652E+02 -0.66852098584E+03  0.72786730702E+03  0.94019824358E+02 0.  0.
          1    1    3    3  502    0  0.25228450276E+02  0.23454387789E+01 -0.35595660561E+02  0.43692411666E+02  0.00000000000E+00 0. -1.
         -2    1    3    3    0  502  0.26388274166E+03  0.67742838321E+02 -0.57815157745E+02  0.27850634814E+03  0.00000000000E+00 0.  1.
         11    1    5    5    0    0 -0.55737214075E+02  0.14319513851E+02  0.13717304341E+03  0.14875526663E+03  0.00000000000E+00 0.  1.
        -11    1    5    5    0    0  0.29830959836E+02 -0.15458958298E+02  0.13913937155E+03  0.14313850031E+03  0.00000000000E+00 0. -1.
          1    1    6    6  503    0 -0.15423352421E+02 -0.11045616813E+02 -0.90719809594E+01  0.21028226012E+02  0.00000000000E+00 0. -1.
         -1    1    6    6    0  503 -0.24778158527E+03 -0.57903215839E+02 -0.65944900488E+03  0.70683908101E+03  0.00000000000E+00 0.  1.
<mgrwt>
<rscale>  0 0.12510116E+04</rscale>
<asrwt>0</asrwt>
<pdfrwt beam="1">  1        1 0.14058302E+00 0.12510116E+04</pdfrwt>
<pdfrwt beam="2">  1       -2 0.65872342E-01 0.12510116E+04</pdfrwt>
<totfact> 0.32509718E+01</totfact>
</mgrwt>
</event>
<event>
12    4  0.4486176E-008  0.1255540E+04  0.7818608E-02  0.9065585E-01
         -2   -1    0    0    0  501 -0.00000000000E+00  0.00000000000E+00  0.34217997318E+03  0.34217997318E+03  0.00000000000E+00 0.  1.
          1   -1    0    0  501    0  0.00000000000E+00 -0.00000000000E+00 -0.11517193687E+04  0.11517193687E+04  0.00000000000E+00 0. -1.
        -24    2    1    2    0    0  0.10670616223E+03  0.69839333951E+02 -0.54910758838E+03  0.56979148615E+03  0.82942488771E+02 0.  0.
        254    2    1    2    0    0 -0.10670616223E+03 -0.69839333951E+02 -0.26043180719E+03  0.92410785578E+03  0.87743197189E+03 0.  0.
         23    2    4    4    0    0 -0.21537428970E+03 -0.35749653400E+03  0.10234723536E+03  0.43980431444E+03  0.93611013931E+02 0.  0.
         23    2    4    4    0    0  0.10866812747E+03  0.28765720005E+03 -0.36277904255E+03  0.48430354134E+03  0.91574340131E+02 0.  0.
          1    1    3    3  502    0  0.10477973527E+03  0.41091567741E+02 -0.50287367498E+03  0.51531470273E+03  0.00000000000E+00 0. -1.
         -2    1    3    3    0  502  0.19264269585E+01  0.28747766211E+02 -0.46233913397E+02  0.54476783412E+02  0.00000000000E+00 0.  1.
         11    1    5    5    0    0 -0.20218218910E+03 -0.27594441078E+03  0.10277375240E+03  0.35719098478E+03  0.00000000000E+00 0. -1.
        -11    1    5    5    0    0 -0.13192100598E+02 -0.81552123225E+02 -0.42651703432E+00  0.82613329660E+02  0.00000000000E+00 0.  1.
          3    1    6    6  503    0  0.84892324579E+02  0.26881415897E+03 -0.28521585722E+03  0.40101850836E+03  0.00000000000E+00 0. -1.
         -3    1    6    6    0  503  0.23775802887E+02  0.18843041079E+02 -0.77563185324E+02  0.83285032975E+02  0.00000000000E+00 0.  1.
<mgrwt>
<rscale>  0 0.12555402E+04</rscale>
<asrwt>0</asrwt>
<pdfrwt beam="1">  1        1 0.17718760E+00 0.12555402E+04</pdfrwt>
<pdfrwt beam="2">  1       -2 0.52643072E-01 0.12555402E+04</pdfrwt>
<totfact> 0.34130827E+01</totfact>
</mgrwt>
</event>
<event>
12    4  0.4486176E-008  0.2274874E+04  0.7818608E-02  0.8487894E-01
          1   -1    0    0  501    0  0.00000000000E+00  0.00000000000E+00  0.10343563964E+04  0.10343563964E+04  0.00000000000E+00 0. -1.
         -2   -1    0    0    0  501 -0.00000000000E+00 -0.00000000000E+00 -0.12507905158E+04  0.12507905158E+04  0.00000000000E+00 0.  1.
        -24    2    1    2    0    0 -0.36488953869E+02 -0.91698600100E+03  0.17657309066E+03  0.93798177013E+03  0.80230760738E+02 0.  0.
        254    2    1    2    0    0  0.36488953869E+02  0.91698600100E+03 -0.39300721009E+03  0.13471651421E+04  0.90454656215E+03 0.  0.
         23    2    4    4    0    0  0.38905024996E+03  0.40167894234E+03  0.60514548393E+02  0.56982870845E+03  0.91305403384E+02 0.  0.
         23    2    4    4    0    0 -0.35256129609E+03  0.51530705865E+03 -0.45352175848E+03  0.77733643364E+03  0.93429724663E+02 0.  0.
          1    1    3    3  502    0  0.18990683839E+01 -0.70859912796E+01  0.96162342718E+01  0.12095027685E+02  0.00000000000E+00 0. -1.
         -2    1    3    3    0  502 -0.38388022252E+02 -0.90990000972E+03  0.16695685639E+03  0.92588674244E+03  0.00000000000E+00 0.  1.
         11    1    5    5    0    0  0.30563399820E+03  0.28173369277E+03  0.77185832647E+02  0.42278087380E+03  0.00000000000E+00 0.  1.
        -11    1    5    5    0    0  0.83416251763E+02  0.11994524958E+03 -0.16671284254E+02  0.14704783464E+03  0.00000000000E+00 0. -1.
          1    1    6    6  503    0 -0.14755632688E+03  0.22833009986E+03 -0.14168129348E+03  0.30656335891E+03  0.00000000000E+00 0. -1.
         -1    1    6    6    0  503 -0.20500496921E+03  0.28697695880E+03 -0.31184046500E+03  0.47077307474E+03  0.00000000000E+00 0.  1.
<mgrwt>
<rscale>  0 0.22748742E+04</rscale>
<asrwt>0</asrwt>
<pdfrwt beam="1">  1        1 0.15913175E+00 0.22748742E+04</pdfrwt>
<pdfrwt beam="2">  1       -2 0.19242931E+00 0.22748742E+04</pdfrwt>
<totfact> 0.16872411E+00</totfact>
</mgrwt>
</event>
<event>
12    4  0.4486176E-008  0.1520209E+04  0.7818608E-02  0.8871125E-01
          1   -1    0    0  501    0  0.00000000000E+00  0.00000000000E+00  0.64180643958E+03  0.64180643958E+03  0.00000000000E+00 0. -1.
         -2   -1    0    0    0  501 -0.00000000000E+00 -0.00000000000E+00 -0.90020686884E+03  0.90020686884E+03  0.00000000000E+00 0.  1.
        -24    2    1    2    0    0  0.19811423855E+03  0.43188455780E+03 -0.19288547451E+03  0.51895778822E+03  0.79616938459E+02 0.  0.
        254    2    1    2    0    0 -0.19811423855E+03 -0.43188455780E+03 -0.65514954753E+02  0.10230555202E+04  0.90364642718E+03 0.  0.
         23    2    4    4    0    0 -0.22726649676E+03  0.13774999159E+03  0.24023436129E+03  0.36956619101E+03  0.90782710142E+02 0.  0.
         23    2    4    4    0    0  0.29152258208E+02 -0.56963454940E+03 -0.30574931604E+03  0.65348932920E+03  0.90731940852E+02 0.  0.
          3    1    3    3  502    0  0.18425823702E+03  0.37026567012E+03 -0.14015646916E+03  0.43668249361E+03  0.00000000000E+00 0. -1.
         -4    1    3    3    0  502  0.13856001537E+02  0.61618887687E+02 -0.52729005349E+02  0.82275294612E+02  0.00000000000E+00 0.  1.
         11    1    5    5    0    0 -0.96266497753E+01  0.35117624016E+02  0.54730610721E+02  0.65737049313E+02  0.00000000000E+00 0. -1.
        -11    1    5    5    0    0 -0.21763984699E+03  0.10263236758E+03  0.18550375057E+03  0.30382914170E+03  0.00000000000E+00 0.  1.
          2    1    6    6  503    0  0.21913188779E+01 -0.66810238758E+02 -0.51525545666E+01  0.67044453162E+02  0.00000000000E+00 0. -1.
         -2    1    6    6    0  503  0.26960939330E+02 -0.50282431064E+03 -0.30059676147E+03  0.58644487603E+03  0.00000000000E+00 0.  1.
<mgrwt>
<rscale>  0 0.15202086E+04</rscale>
<asrwt>0</asrwt>
<pdfrwt beam="1">  1        1 0.98739452E-01 0.15202086E+04</pdfrwt>
<pdfrwt beam="2">  1       -2 0.13849336E+00 0.15202086E+04</pdfrwt>
<totfact> 0.96863934E+00</totfact>
</mgrwt>
</event>
<event>
12    4  0.4486176E-008  0.1762864E+04  0.7818608E-02  0.8726301E-01
         -2   -1    0    0    0  501 -0.00000000000E+00  0.00000000000E+00  0.63583122752E+03  0.63583122752E+03  0.00000000000E+00 0.  1.
          1   -1    0    0  501    0  0.00000000000E+00 -0.00000000000E+00 -0.12219005588E+04  0.12219005588E+04  0.00000000000E+00 0. -1.
        -24    2    1    2    0    0  0.57236480530E+02  0.10163019567E+03 -0.89331920631E+03  0.90453459499E+03  0.80987145963E+02 0.  0.
        254    2    1    2    0    0 -0.57236480530E+02 -0.10163019567E+03  0.30724987507E+03  0.95319719128E+03  0.89475007033E+03 0.  0.
         23    2    4    4    0    0 -0.30935307554E+03  0.53157783194E+02 -0.18169204208E+03  0.37458581957E+03  0.93688114548E+02 0.  0.
         23    2    4    4    0    0  0.25211659501E+03 -0.15478797886E+03  0.48894191715E+03  0.57861137171E+03  0.90580490410E+02 0.  0.
          3    1    3    3  502    0  0.18847294213E+01  0.81493399024E+02 -0.45052350175E+03  0.45783856535E+03  0.00000000000E+00 0. -1.
         -4    1    3    3    0  502  0.55351751108E+02  0.20136796645E+02 -0.44279570455E+03  0.44669602965E+03  0.00000000000E+00 0.  1.
         11    1    5    5    0    0 -0.29615023136E+03  0.70824910477E+02 -0.16147759933E+03  0.34466816297E+03  0.00000000000E+00 0. -1.
        -11    1    5    5    0    0 -0.13202844182E+02 -0.17667127283E+02 -0.20214442752E+02  0.29917656604E+02  0.00000000000E+00 0.  1.
          1    1    6    6  503    0  0.25896526761E+03 -0.15607298112E+03  0.47600410440E+03  0.56391638801E+03  0.00000000000E+00 0. -1.
         -1    1    6    6    0  503 -0.68486725947E+01  0.12850022555E+01  0.12937812755E+02  0.14694983701E+02  0.00000000000E+00 0.  1.
<mgrwt>
<rscale>  0 0.17628642E+04</rscale>
<asrwt>0</asrwt>
<pdfrwt beam="1">  1        1 0.18798470E+00 0.17628642E+04</pdfrwt>
<pdfrwt beam="2">  1       -2 0.97820191E-01 0.17628642E+04</pdfrwt>
<totfact> 0.74413824E+00</totfact>
</mgrwt>
</event>
<event>
12    4  0.4486176E-008  0.1998116E+04  0.7818608E-02  0.8607502E-01
          1   -1    0    0  501    0  0.00000000000E+00  0.00000000000E+00  0.13637752619E+04  0.13637752619E+04  0.00000000000E+00 0. -1.
         -2   -1    0    0    0  501 -0.00000000000E+00 -0.00000000000E+00 -0.73187819348E+03  0.73187819348E+03  0.00000000000E+00 0.  1.
        -24    2    1    2    0    0 -0.36812975674E+03 -0.40516657867E+03 -0.36138666287E+03  0.66080593316E+03  0.79904236013E+02 0.  0.
        254    2    1    2    0    0  0.36812975674E+03  0.40516657867E+03  0.99328373130E+03  0.14348475222E+04  0.87891715589E+03 0.  0.
         23    2    4    4    0    0 -0.29299362562E+01  0.32702757780E+03  0.98860910198E+03  0.10452589848E+04  0.90899767483E+02 0.  0.
         23    2    4    4    0    0  0.37105969299E+03  0.78139000873E+02  0.46746293248E+01  0.38958853738E+03  0.89254563353E+02 0.  0.
          1    1    3    3  502    0 -0.16675125886E+03 -0.21729392402E+03 -0.21946909659E+03  0.35098335588E+03  0.00000000000E+00 0. -1.
         -2    1    3    3    0  502 -0.20137849788E+03 -0.18787265465E+03 -0.14191756628E+03  0.30982257728E+03  0.00000000000E+00 0.  1.
         11    1    5    5    0    0  0.38342029382E+02  0.12900057813E+03  0.45945942230E+03  0.47876322030E+03  0.00000000000E+00 0. -1.
        -11    1    5    5    0    0 -0.41271965638E+02  0.19802699967E+03  0.52914967968E+03  0.56649576455E+03  0.00000000000E+00 0.  1.
          2    1    6    6  503    0  0.19162284773E+03  0.74636856630E+02 -0.26781030801E+02  0.20738177295E+03  0.00000000000E+00 0. -1.
         -2    1    6    6    0  503  0.17943684526E+03  0.35021442425E+01  0.31455660126E+02  0.18220676444E+03  0.00000000000E+00 0.  1.
<mgrwt>
<rscale>  0 0.19981165E+04</rscale>
<asrwt>0</asrwt>
<pdfrwt beam="1">  1        1 0.20981158E+00 0.19981165E+04</pdfrwt>
<pdfrwt beam="2">  1       -2 0.11259665E+00 0.19981165E+04</pdfrwt>
<totfact> 0.41186624E+00</totfact>
</mgrwt>
</event>
<event>
12    4  0.4486176E-008  0.1432769E+04  0.7818608E-02  0.8930434E-01
         -4   -1    0    0    0  501 -0.00000000000E+00  0.00000000000E+00  0.15270570944E+04  0.15270570944E+04  0.00000000000E+00 0.  1.
          3   -1    0    0  501    0  0.00000000000E+00 -0.00000000000E+00 -0.33607586263E+03  0.33607586263E+03  0.00000000000E+00 0. -1.
        -24    2    1    2    0    0 -0.27339369434E+03 -0.12005595431E+03  0.75808842301E+03  0.81865811795E+03  0.79658726581E+02 0.  0.
        254    2    1    2    0    0  0.27339369434E+03  0.12005595431E+03  0.43289280879E+03  0.10444748391E+04  0.90242670693E+03 0.  0.
         23    2    4    4    0    0  0.27046944735E+03  0.14769250283E+02 -0.23057498690E+03  0.36669603511E+03  0.89046644386E+02 0.  0.
         23    2    4    4    0    0  0.29242469845E+01  0.10528670403E+03  0.66346779570E+03  0.67777880400E+03  0.90004166391E+02 0.  0.
          3    1    3    3  502    0 -0.28611863822E+02 -0.38420653128E+02  0.16626973480E+03  0.17303297388E+03  0.00000000000E+00 0. -1.
         -4    1    3    3    0  502 -0.24478183051E+03 -0.81635301181E+02  0.59181868821E+03  0.64562514407E+03  0.00000000000E+00 0.  1.
         11    1    5    5    0    0  0.16996518333E+03 -0.33937008983E+02 -0.13481322385E+03  0.21957798034E+03  0.00000000000E+00 0.  1.
        -11    1    5    5    0    0  0.10050426402E+03  0.48706259266E+02 -0.95761763052E+02  0.14711805478E+03  0.00000000000E+00 0. -1.
          4    1    6    6  503    0  0.39055706170E+02  0.65950956975E+02  0.49908718500E+03  0.50493850630E+03  0.00000000000E+00 0. -1.
         -4    1    6    6    0  503 -0.36131459186E+02  0.39335747051E+02  0.16438061069E+03  0.17284029770E+03  0.00000000000E+00 0.  1.
<mgrwt>
<rscale>  0 0.14327694E+04</rscale>
<asrwt>0</asrwt>
<pdfrwt beam="1">  1        3 0.51703980E-01 0.14327694E+04</pdfrwt>
<pdfrwt beam="2">  1       -4 0.23493186E+00 0.14327694E+04</pdfrwt>
<totfact> 0.64635052E-01</totfact>
</mgrwt>
</event>
<event>
12    4  0.4486176E-008  0.1711537E+04  0.7818608E-02  0.8754812E-01
          1   -1    0    0  501    0  0.00000000000E+00  0.00000000000E+00  0.41468830623E+03  0.41468830623E+03  0.00000000000E+00 0. -1.
         -2   -1    0    0    0  501 -0.00000000000E+00 -0.00000000000E+00 -0.17660002327E+04  0.17660002327E+04  0.00000000000E+00 0.  1.
        -24    2    1    2    0    0 -0.40718455033E+02  0.12922974592E+03 -0.12941859281E+04  0.13057175444E+04  0.10780894830E+03 0.  0.
        254    2    1    2    0    0  0.40718455033E+02 -0.12922974592E+03 -0.57125998327E+02  0.87497099454E+03  0.86252683540E+03 0.  0.
         23    2    4    4    0    0  0.60266520675E+02 -0.90374614050E+02 -0.44889708771E+03  0.47057453393E+03  0.90178557558E+02 0.  0.
         23    2    4    4    0    0 -0.19548065642E+02 -0.38855131870E+02  0.39177108939E+03  0.40439646061E+03  0.90333065567E+02 0.  0.
          3    1    3    3  502    0  0.21629909454E+02  0.62651110450E+02 -0.83079022249E+03  0.83342990611E+03  0.00000000000E+00 0. -1.
         -2    1    3    3    0  502 -0.62348364487E+02  0.66578635470E+02 -0.46339570562E+03  0.47228763825E+03  0.00000000000E+00 0.  1.
         11    1    5    5    0    0 -0.21489028362E+02 -0.48833606581E+01 -0.53463037934E+02  0.57826654549E+02  0.00000000000E+00 0. -1.
        -11    1    5    5    0    0  0.81755549037E+02 -0.85491253392E+02 -0.39543404978E+03  0.41274787938E+03  0.00000000000E+00 0.  1.
          2    1    6    6  503    0 -0.16427971064E+02 -0.18607735518E+02  0.19508719718E+02  0.31570812461E+02  0.00000000000E+00 0. -1.
         -2    1    6    6    0  503 -0.31200945779E+01 -0.20247396351E+02  0.37226236967E+03  0.37282564815E+03  0.00000000000E+00 0.  1.
<mgrwt>
<rscale>  0 0.17115369E+04</rscale>
<asrwt>0</asrwt>
<pdfrwt beam="1">  1        1 0.63798203E-01 0.17115369E+04</pdfrwt>
<pdfrwt beam="2">  1       -2 0.27169234E+00 0.17115369E+04</pdfrwt>
<totfact> 0.22514974E+00</totfact>
</mgrwt>
</event>
<event>
12    4  0.4486176E-008  0.2762943E+04  0.7818608E-02  0.8314866E-01
         -4   -1    0    0    0  501 -0.00000000000E+00  0.00000000000E+00  0.13751825482E+04  0.13751825482E+04  0.00000000000E+00 0.  1.
          1   -1    0    0  501    0  0.00000000000E+00 -0.00000000000E+00 -0.13877890446E+04  0.13877890446E+04  0.00000000000E+00 0. -1.
        -24    2    1    2    0    0 -0.50494168470E+03 -0.74541742312E+03  0.83720737788E+03  0.12319643687E+04  0.78783072638E+02 0.  0.
        254    2    1    2    0    0  0.50494168470E+03  0.74541742312E+03 -0.84981387429E+03  0.15310072242E+04  0.90065879216E+03 0.  0.
         23    2    4    4    0    0 -0.40882047906E+02 -0.19089393533E+02  0.13168903892E+03  0.16908927216E+03  0.95986625108E+02 0.  0.
         23    2    4    4    0    0  0.54582373261E+03  0.76450681665E+03 -0.98150291321E+03  0.13619179520E+04  0.95280216147E+02 0.  0.
          1    1    3    3  502    0 -0.86538415166E+02 -0.12283462287E+03  0.18180266759E+03  0.23585896595E+03  0.00000000000E+00 0. -1.
         -2    1    3    3    0  502 -0.41840326953E+03 -0.62258280025E+03  0.65540471029E+03  0.99610540275E+03  0.00000000000E+00 0.  1.
         11    1    5    5    0    0 -0.49531993316E+02 -0.47016249649E+02  0.11903092941E+03  0.13723085750E+03  0.00000000000E+00 0.  1.
        -11    1    5    5    0    0  0.86499454100E+01  0.27926856117E+02  0.12658109510E+02  0.31858414658E+02  0.00000000000E+00 0. -1.
          2    1    6    6  503    0  0.18043400913E+03  0.20891855077E+03 -0.23858313349E+03  0.36486340471E+03  0.00000000000E+00 0. -1.
         -2    1    6    6    0  503  0.36538972348E+03  0.55558826588E+03 -0.74291977972E+03  0.99705454731E+03  0.00000000000E+00 0.  1.
<mgrwt>
<rscale>  0 0.27629428E+04</rscale>
<asrwt>0</asrwt>
<pdfrwt beam="1">  1        1 0.21350601E+00 0.27629428E+04</pdfrwt>
<pdfrwt beam="2">  1       -4 0.21156655E+00 0.27629428E+04</pdfrwt>
<totfact> 0.36460475E-01</totfact>
</mgrwt>
</event>
<event>
12    4  0.4486176E-008  0.1380378E+04  0.7818608E-02  0.8968146E-01
         -2   -1    0    0    0  501 -0.00000000000E+00  0.00000000000E+00  0.20438792778E+03  0.20438792778E+03  0.00000000000E+00 0.  1.
          1   -1    0    0  501    0  0.00000000000E+00 -0.00000000000E+00 -0.23306687765E+04  0.23306687765E+04  0.00000000000E+00 0. -1.
        -24    2    1    2    0    0 -0.92703781595E+02 -0.29750108891E+03 -0.10892912839E+04  0.11357418666E+04  0.79077159873E+02 0.  0.
        254    2    1    2    0    0  0.92703781595E+02  0.29750108891E+03 -0.10369895648E+04  0.13993148377E+04  0.88635984146E+03 0.  0.
         23    2    4    4    0    0 -0.11449146435E+03 -0.27739657968E+03 -0.27138733424E+03  0.41500443844E+03  0.92306234412E+02 0.  0.
         23    2    4    4    0    0  0.20719524595E+03  0.57489766859E+03 -0.76560223055E+03  0.98431039928E+03  0.96348261079E+02 0.  0.
          3    1    3    3  502    0 -0.29877502659E+02 -0.21837638024E+03 -0.73827979909E+03  0.77047905251E+03  0.00000000000E+00 0. -1.
         -4    1    3    3    0  502 -0.62826278936E+02 -0.79124708670E+02 -0.35101148485E+03  0.36526281407E+03  0.00000000000E+00 0.  1.
         11    1    5    5    0    0 -0.14518861088E+02 -0.15157808460E+03 -0.14858657873E+03  0.21275498687E+03  0.00000000000E+00 0. -1.
        -11    1    5    5    0    0 -0.99972603266E+02 -0.12581849508E+03 -0.12280075552E+03  0.20224945158E+03  0.00000000000E+00 0.  1.
          2    1    6    6  503    0  0.27271058220E+02  0.20085191316E+03 -0.27621062026E+03  0.34260401104E+03  0.00000000000E+00 0. -1.
         -2    1    6    6    0  503  0.17992418773E+03  0.37404575542E+03 -0.48939161029E+03  0.64170638823E+03  0.00000000000E+00 0.  1.
<mgrwt>
<rscale>  0 0.13803776E+04</rscale>
<asrwt>0</asrwt>
<pdfrwt beam="1">  1        1 0.35856441E+00 0.13803776E+04</pdfrwt>
<pdfrwt beam="2">  1       -2 0.31444298E-01 0.13803776E+04</pdfrwt>
<totfact> 0.14311034E+01</totfact>
</mgrwt>
</event>
<event>
12    4  0.4486176E-008  0.1857646E+04  0.7818608E-02  0.8676230E-01
         -2   -1    0    0    0  501 -0.00000000000E+00  0.00000000000E+00  0.64631348020E+03  0.64631348020E+03  0.00000000000E+00 0.  1.
          1   -1    0    0  501    0  0.00000000000E+00 -0.00000000000E+00 -0.13348206959E+04  0.13348206959E+04  0.00000000000E+00 0. -1.
        -24    2    1    2    0    0  0.19434802694E+02  0.66316169674E+03 -0.36678452737E+02  0.66908031517E+03  0.78498482041E+02 0.  0.
        254    2    1    2    0    0 -0.19434802694E+02 -0.66316169674E+03 -0.65182876296E+03  0.13120538609E+04  0.92544229974E+03 0.  0.
         23    2    4    4    0    0 -0.16324617894E+03  0.16504849373E+03 -0.31684871540E+03  0.40249634791E+03  0.87862855681E+02 0.  0.
         23    2    4    4    0    0  0.14381137625E+03 -0.82821019046E+03 -0.33498004756E+03  0.90955751301E+03  0.92029373995E+02 0.  0.
          3    1    3    3  502    0  0.34894505116E+02  0.36690974476E+03 -0.51014229909E+02  0.37207907619E+03  0.00000000000E+00 0. -1.
         -4    1    3    3    0  502 -0.15459702422E+02  0.29625195198E+03  0.14335777171E+02  0.29700123898E+03  0.00000000000E+00 0.  1.
         11    1    5    5    0    0 -0.11753265707E+03  0.59849055323E+02 -0.19221326557E+03  0.23311322220E+03  0.00000000000E+00 0. -1.
        -11    1    5    5    0    0 -0.45713521875E+02  0.10519943840E+03 -0.12463544983E+03  0.16938312571E+03  0.00000000000E+00 0.  1.
          4    1    6    6  503    0 -0.10770438713E+02 -0.31245281053E+02 -0.58762965321E+01  0.33567853656E+02  0.00000000000E+00 0.  1.
         -4    1    6    6    0  503  0.15458181496E+03 -0.79696490941E+03 -0.32910375103E+03  0.87598965935E+03  0.00000000000E+00 0. -1.
<mgrwt>
<rscale>  0 0.18576465E+04</rscale>
<asrwt>0</asrwt>
<pdfrwt beam="1">  1        1 0.20535703E+00 0.18576465E+04</pdfrwt>
<pdfrwt beam="2">  1       -2 0.99432844E-01 0.18576465E+04</pdfrwt>
<totfact> 0.58925064E+00</totfact>
</mgrwt>
</event>
<event>
12    4  0.4486176E-008  0.1252929E+04  0.7818608E-02  0.9067749E-01
         -2   -1    0    0    0  501 -0.00000000000E+00  0.00000000000E+00  0.13404075695E+04  0.13404075695E+04  0.00000000000E+00 0.  1.
          1   -1    0    0  501    0  0.00000000000E+00 -0.00000000000E+00 -0.29279001168E+03  0.29279001168E+03  0.00000000000E+00 0. -1.
        -24    2    1    2    0    0 -0.12812664809E+02  0.22396756731E+03  0.56454737251E+03  0.61333127059E+03  0.84474114964E+02 0.  0.
        254    2    1    2    0    0  0.12812664809E+02 -0.22396756731E+03  0.48307018531E+03  0.10198663106E+04  0.86973838133E+03 0.  0.
         23    2    4    4    0    0 -0.15903942187E+03  0.27612430556E+03  0.60105430646E+02  0.33697859007E+03  0.91671901578E+02 0.  0.
         23    2    4    4    0    0  0.17185208668E+03 -0.50009187287E+03  0.42296475466E+03  0.68288772053E+03  0.88382318057E+02 0.  0.
          1    1    3    3  502    0  0.26247129614E+02  0.17517038107E+03  0.41020976934E+03  0.44681722111E+03  0.00000000000E+00 0. -1.
         -2    1    3    3    0  502 -0.39059794423E+02  0.48797186248E+02  0.15433760316E+03  0.16651404948E+03  0.00000000000E+00 0.  1.
         11    1    5    5    0    0 -0.30077003930E+02  0.96060172073E+02 -0.17748295833E+02  0.10221147112E+03  0.00000000000E+00 0.  1.
        -11    1    5    5    0    0 -0.12896241794E+03  0.18006413349E+03  0.77853726479E+02  0.23476711894E+03  0.00000000000E+00 0. -1.
          3    1    6    6  503    0  0.15409983813E+03 -0.33417840576E+03  0.26883403110E+03  0.45573424632E+03  0.00000000000E+00 0. -1.
         -3    1    6    6    0  503  0.17752248548E+02 -0.16591346711E+03  0.15413072357E+03  0.22715347420E+03  0.00000000000E+00 0.  1.
<mgrwt>
<rscale>  0 0.12529293E+04</rscale>
<asrwt>0</asrwt>
<pdfrwt beam="1">  1        1 0.45044618E-01 0.12529293E+04</pdfrwt>
<pdfrwt beam="2">  1       -2 0.20621655E+00 0.12529293E+04</pdfrwt>
<totfact> 0.94294302E+00</totfact>
</mgrwt>
</event>
<event>
12    4  0.4486176E-008  0.1988271E+04  0.7818608E-02  0.8612124E-01
         -4   -1    0    0    0  501 -0.00000000000E+00  0.00000000000E+00  0.31904792409E+03  0.31904792409E+03  0.00000000000E+00 0.  1.
          1   -1    0    0  501    0  0.00000000000E+00 -0.00000000000E+00 -0.30976702248E+04  0.30976702248E+04  0.00000000000E+00 0. -1.
        -24    2    1    2    0    0  0.33460089060E+02  0.66390870895E+03 -0.18213850050E+04  0.19405329044E+04  0.79562964208E+02 0.  0.
        254    2    1    2    0    0 -0.33460089060E+02 -0.66390870895E+03 -0.95723729573E+03  0.14761852445E+04  0.90604927258E+03 0.  0.
         23    2    4    4    0    0 -0.21764572824E+03  0.96840835634E+02 -0.50841561630E+03  0.56925939537E+03  0.93925554842E+02 0.  0.
         23    2    4    4    0    0  0.18418563918E+03 -0.76074954459E+03 -0.44882167943E+03  0.90692584912E+03  0.91702653219E+02 0.  0.
          3    1    3    3  502    0  0.34044113175E+02  0.66475211243E+03 -0.18216701846E+04  0.19394681317E+04  0.00000000000E+00 0. -1.
         -4    1    3    3    0  502 -0.58402411464E+00 -0.84340347176E+00  0.28517953327E+00  0.10647727217E+01  0.00000000000E+00 0.  1.
         11    1    5    5    0    0 -0.20163452327E+03  0.61480403802E+02 -0.37360820520E+03  0.42897483845E+03  0.00000000000E+00 0. -1.
        -11    1    5    5    0    0 -0.16011204966E+02  0.35360431831E+02 -0.13480741110E+03  0.14028455693E+03  0.00000000000E+00 0.  1.
          1    1    6    6  503    0  0.11623948633E+03 -0.31714961320E+03 -0.16491816508E+03  0.37589027190E+03  0.00000000000E+00 0. -1.
         -1    1    6    6    0  503  0.67946152845E+02 -0.44359993139E+03 -0.28390351435E+03  0.53103557722E+03  0.00000000000E+00 0.  1.
<mgrwt>
<rscale>  0 0.19882709E+04</rscale>
<asrwt>0</asrwt>
<pdfrwt beam="1">  1        1 0.47656463E+00 0.19882709E+04</pdfrwt>
<pdfrwt beam="2">  1       -4 0.49084298E-01 0.19882709E+04</pdfrwt>
<totfact> 0.94177782E-01</totfact>
</mgrwt>
</event>
<event>
12    4  0.4486176E-008  0.1333363E+04  0.7818608E-02  0.9003519E-01
          1   -1    0    0  501    0  0.00000000000E+00  0.00000000000E+00  0.34240369574E+03  0.34240369574E+03  0.00000000000E+00 0. -1.
         -2   -1    0    0    0  501 -0.00000000000E+00 -0.00000000000E+00 -0.12980698676E+04  0.12980698676E+04  0.00000000000E+00 0.  1.
        -24    2    1    2    0    0  0.10548214593E+03  0.14137099518E+03 -0.65120436240E+03  0.67905301563E+03  0.77030091767E+02 0.  0.
        254    2    1    2    0    0 -0.10548214593E+03 -0.14137099518E+03 -0.30446180950E+03  0.96142054775E+03  0.89471796383E+03 0.  0.
         23    2    4    4    0    0  0.30773235165E+03 -0.31565115465E+03 -0.11084865293E+03  0.46383682568E+03  0.92316441237E+02 0.  0.
         23    2    4    4    0    0 -0.41321449758E+03  0.17428015946E+03 -0.19361315656E+03  0.49758372207E+03  0.94782440775E+02 0.  0.
          1    1    3    3  502    0  0.72189365906E+02  0.34281590728E+02 -0.24930571725E+03  0.26180120830E+03  0.00000000000E+00 0. -1.
         -2    1    3    3    0  502  0.33292780028E+02  0.10708940445E+03 -0.40189864515E+03  0.41725180733E+03  0.00000000000E+00 0.  1.
         11    1    5    5    0    0  0.20358342743E+03 -0.26591903836E+03 -0.86280570620E+02  0.34583736604E+03  0.00000000000E+00 0.  1.
        -11    1    5    5    0    0  0.10414892422E+03 -0.49732116285E+02 -0.24568082314E+02  0.11799945964E+03  0.00000000000E+00 0. -1.
          1    1    6    6  503    0 -0.39040004177E+03  0.13648440267E+03 -0.16685913001E+03  0.44596205450E+03  0.00000000000E+00 0. -1.
         -1    1    6    6    0  503 -0.22814455810E+02  0.37795756798E+02 -0.26754026552E+02  0.51621667568E+02  0.00000000000E+00 0.  1.
<mgrwt>
<rscale>  0 0.13333625E+04</rscale>
<asrwt>0</asrwt>
<pdfrwt beam="1">  1        1 0.52677492E-01 0.13333625E+04</pdfrwt>
<pdfrwt beam="2">  1       -2 0.19970306E+00 0.13333625E+04</pdfrwt>
<totfact> 0.84228111E+00</totfact>
</mgrwt>
</event>
<event>
12    4  0.4486176E-008  0.2177452E+04  0.7818608E-02  0.8527872E-01
         -4   -1    0    0    0  501 -0.00000000000E+00  0.00000000000E+00  0.27194862158E+04  0.27194862158E+04  0.00000000000E+00 0.  1.
          1   -1    0    0  501    0  0.00000000000E+00 -0.00000000000E+00 -0.43586335056E+03  0.43586335056E+03  0.00000000000E+00 0. -1.
        -24    2    1    2    0    0 -0.55814531846E+03 -0.15285084740E+03 -0.55184762519E+02  0.58622512307E+03  0.75663457707E+02 0.  0.
        254    2    1    2    0    0  0.55814531846E+03  0.15285084740E+03  0.23388076278E+04  0.25691244433E+04  0.89190229698E+03 0.  0.
         23    2    4    4    0    0 -0.14907072036E+03  0.28616493723E+03  0.82519362750E+03  0.89067739004E+03  0.90825323045E+02 0.  0.
         23    2    4    4    0    0  0.70721603882E+03 -0.13331408983E+03  0.15136140003E+04  0.16784470532E+04  0.90719328885E+02 0.  0.
          1    1    3    3  502    0 -0.21131313448E+03 -0.20180934757E+02 -0.18724647403E+02  0.21309885817E+03  0.00000000000E+00 0. -1.
         -2    1    3    3    0  502 -0.34683218398E+03 -0.13266991264E+03 -0.36460115116E+02  0.37312626490E+03  0.00000000000E+00 0.  1.
         11    1    5    5    0    0 -0.17682551862E+01  0.48333355523E+02  0.19970386612E+03  0.20547718639E+03  0.00000000000E+00 0. -1.
        -11    1    5    5    0    0 -0.14730246517E+03  0.23783158171E+03  0.62548976137E+03  0.68520020365E+03  0.00000000000E+00 0.  1.
          3    1    6    6  503    0  0.16346294425E+03  0.70847069251E+01  0.32675555876E+03  0.36543059861E+03  0.00000000000E+00 0. -1.
         -3    1    6    6    0  503  0.54375309457E+03 -0.14039879675E+03  0.11868584415E+04  0.13130164546E+04  0.00000000000E+00 0.  1.
<mgrwt>
<rscale>  0 0.21774521E+04</rscale>
<asrwt>0</asrwt>
<pdfrwt beam="1">  1        1 0.67055902E-01 0.21774521E+04</pdfrwt>
<pdfrwt beam="2">  1       -4 0.41838248E+00 0.21774521E+04</pdfrwt>
<totfact> 0.11727398E-01</totfact>
</mgrwt>
</event>
<event>
12    4  0.4486176E-008  0.1519011E+04  0.7818608E-02  0.8871909E-01
         -2   -1    0    0    0  501 -0.00000000000E+00  0.00000000000E+00  0.38497359567E+03  0.38497359567E+03  0.00000000000E+00 0.  1.
          1   -1    0    0  501    0  0.00000000000E+00 -0.00000000000E+00 -0.14984100495E+04  0.14984100495E+04  0.00000000000E+00 0. -1.
        -24    2    1    2    0    0  0.26266867391E+03 -0.34027988564E+03 -0.65399851004E+03  0.78683005751E+03  0.81254264143E+02 0.  0.
        254    2    1    2    0    0 -0.26266867391E+03  0.34027988564E+03 -0.45943794375E+03  0.10965535876E+04  0.89808758678E+03 0.  0.
         23    2    4    4    0    0  0.10309871237E+03  0.42610911885E+03  0.57235596726E+02  0.45134247930E+03  0.90751277811E+02 0.  0.
         23    2    4    4    0    0 -0.36576738628E+03 -0.85829233207E+02 -0.51667354047E+03  0.64521110832E+03  0.90517339418E+02 0.  0.
          3    1    3    3  502    0  0.13733614619E+03 -0.13601457692E+03 -0.34890142584E+03  0.39886512400E+03  0.00000000000E+00 0. -1.
         -4    1    3    3    0  502  0.12533252772E+03 -0.20426530872E+03 -0.30509708420E+03  0.38796493351E+03  0.00000000000E+00 0.  1.
         11    1    5    5    0    0  0.11619603810E+03  0.41154515289E+03  0.50385296953E+02  0.43059216236E+03  0.00000000000E+00 0.  1.
        -11    1    5    5    0    0 -0.13097325735E+02  0.14563965965E+02  0.68502997729E+01  0.20750316938E+02  0.00000000000E+00 0. -1.
          4    1    6    6  503    0 -0.19856385977E+02  0.16262529206E+02 -0.30383984430E+02  0.39773514178E+02  0.00000000000E+00 0. -1.
         -4    1    6    6    0  503 -0.34591100031E+03 -0.10209176241E+03 -0.48628955604E+03  0.60543759414E+03  0.00000000000E+00 0.  1.
<mgrwt>
<rscale>  0 0.15190106E+04</rscale>
<asrwt>0</asrwt>
<pdfrwt beam="1">  1        1 0.23052462E+00 0.15190106E+04</pdfrwt>
<pdfrwt beam="2">  1       -2 0.59226707E-01 0.15190106E+04</pdfrwt>
<totfact> 0.14795520E+01</totfact>
</mgrwt>
</event>
<event>
12    4  0.4486176E-008  0.2442872E+04  0.7818608E-02  0.8423625E-01
          1   -1    0    0  501    0  0.00000000000E+00  0.00000000000E+00  0.16383134040E+04  0.16383134040E+04  0.00000000000E+00 0. -1.
         -2   -1    0    0    0  501 -0.00000000000E+00 -0.00000000000E+00 -0.91063549855E+03  0.91063549855E+03  0.00000000000E+00 0.  1.
        -24    2    1    2    0    0 -0.87418640504E+02 -0.99747484703E+03 -0.31798498973E+02  0.10052098684E+04  0.82690059382E+02 0.  0.
        254    2    1    2    0    0  0.87418640504E+02  0.99747484703E+03  0.75947640447E+03  0.15437390341E+04  0.89650862095E+03 0.  0.
         23    2    4    4    0    0  0.19795803407E+03  0.11044015497E+04  0.77079358306E+03  0.13643125111E+04  0.91300130993E+02 0.  0.
         23    2    4    4    0    0 -0.11053939356E+03 -0.10692670270E+03 -0.11317178587E+02  0.17942652306E+03  0.91725249343E+02 0.  0.
          3    1    3    3  502    0 -0.57433073052E+01 -0.37268668721E+02  0.14559848625E+02  0.40421880696E+02  0.00000000000E+00 0. -1.
         -4    1    3    3    0  502 -0.81675333199E+02 -0.96020617831E+03 -0.46358347598E+02  0.96478798775E+03  0.00000000000E+00 0.  1.
         11    1    5    5    0    0  0.14594850785E+03  0.55573427392E+03  0.39545941970E+03  0.69751681183E+03  0.00000000000E+00 0.  1.
        -11    1    5    5    0    0  0.52009526214E+02  0.54866727581E+03  0.37533416336E+03  0.66679569926E+03  0.00000000000E+00 0. -1.
          3    1    6    6  503    0  0.11115230359E+02  0.24399061586E+00  0.11154329562E+02  0.15748871239E+02  0.00000000000E+00 0. -1.
         -3    1    6    6    0  503 -0.12165462392E+03 -0.10717069332E+03 -0.22471508149E+02  0.16367765182E+03  0.00000000000E+00 0.  1.
<mgrwt>
<rscale>  0 0.24428724E+04</rscale>
<asrwt>0</asrwt>
<pdfrwt beam="1">  1        1 0.25204822E+00 0.24428724E+04</pdfrwt>
<pdfrwt beam="2">  1       -2 0.14009777E+00 0.24428724E+04</pdfrwt>
<totfact> 0.14765576E+00</totfact>
</mgrwt>
</event>
<event>
12    4  0.4486176E-008  0.1304357E+04  0.7818608E-02  0.9026117E-01
          1   -1    0    0  501    0  0.00000000000E+00  0.00000000000E+00  0.14891053533E+03  0.14891053533E+03  0.00000000000E+00 0. -1.
         -2   -1    0    0    0  501 -0.00000000000E+00 -0.00000000000E+00 -0.28563252785E+04  0.28563252785E+04  0.00000000000E+00 0.  1.
        -24    2    1    2    0    0  0.21300986740E+03  0.16848243633E+03 -0.11800311317E+04  0.12134868726E+04  0.79481967961E+02 0.  0.
        254    2    1    2    0    0 -0.21300986740E+03 -0.16848243633E+03 -0.15273836115E+04  0.17917489413E+04  0.89649541934E+03 0.  0.
         23    2    4    4    0    0  0.29275864142E+03  0.96635168034E+02 -0.80392223851E+03  0.86605234194E+03  0.93325856954E+02 0.  0.
         23    2    4    4    0    0 -0.50576850882E+03 -0.26511760436E+03 -0.72346137303E+03  0.92569659936E+03  0.86189948066E+02 0.  0.
          3    1    3    3  502    0  0.91986496560E+00  0.28241809457E+02 -0.98765429066E+02  0.10272806789E+03  0.00000000000E+00 0. -1.
         -4    1    3    3    0  502  0.21209000244E+03  0.14024062687E+03 -0.10812657026E+04  0.11107588047E+04  0.00000000000E+00 0.  1.
         11    1    5    5    0    0  0.28507338512E+02 -0.12837158807E+02 -0.43140235326E+02  0.53277958850E+02  0.00000000000E+00 0. -1.
        -11    1    5    5    0    0  0.26425130291E+03  0.10947232684E+03 -0.76078200319E+03  0.81277438309E+03  0.00000000000E+00 0.  1.
          1    1    6    6  503    0 -0.16744167620E+03 -0.93088246550E+02 -0.31016906948E+03  0.36456410717E+03  0.00000000000E+00 0. -1.
         -1    1    6    6    0  503 -0.33832683262E+03 -0.17202935781E+03 -0.41329230355E+03  0.56113249219E+03  0.00000000000E+00 0.  1.
<mgrwt>
<rscale>  0 0.13043572E+04</rscale>
<asrwt>0</asrwt>
<pdfrwt beam="1">  1        1 0.22909316E-01 0.13043572E+04</pdfrwt>
<pdfrwt beam="2">  1       -2 0.43943461E+00 0.13043572E+04</pdfrwt>
<totfact> 0.77652153E-01</totfact>
</mgrwt>
</event>
<event>
12    4  0.4486176E-008  0.1922014E+04  0.7818608E-02  0.8643975E-01
          1   -1    0    0  501    0  0.00000000000E+00  0.00000000000E+00  0.25565462161E+04  0.25565462161E+04  0.00000000000E+00 0. -1.
         -2   -1    0    0    0  501 -0.00000000000E+00 -0.00000000000E+00 -0.36124306500E+03  0.36124306500E+03  0.00000000000E+00 0.  1.
        -24    2    1    2    0    0 -0.69191021329E+02 -0.19983778224E+03 -0.23002580367E+03  0.32232332595E+03  0.79107012681E+02 0.  0.
        254    2    1    2    0    0  0.69191021329E+02  0.19983778224E+03  0.24253289548E+04  0.25954659552E+04  0.89972242880E+03 0.  0.
         23    2    4    4    0    0  0.28247300740E+03  0.32211540367E+03  0.22200619577E+04  0.22626998854E+04  0.87099609251E+02 0.  0.
         23    2    4    4    0    0 -0.21328198608E+03 -0.12227762143E+03  0.20526699706E+03  0.33276606980E+03  0.90319958142E+02 0.  0.
          3    1    3    3  502    0 -0.25392070548E+02 -0.62872837763E+01 -0.38373971664E+02  0.46441887185E+02  0.00000000000E+00 0. -1.
         -4    1    3    3    0  502 -0.43798950781E+02 -0.19355049846E+03 -0.19165183201E+03  0.27588143877E+03  0.00000000000E+00 0.  1.
         11    1    5    5    0    0  0.16013557359E+03  0.17464048304E+03  0.10003336259E+04  0.10280126767E+04  0.00000000000E+00 0.  1.
        -11    1    5    5    0    0  0.12233743381E+03  0.14747492063E+03  0.12197283318E+04  0.12346872087E+04  0.00000000000E+00 0. -1.
          2    1    6    6  503    0 -0.19742083987E+03 -0.10959800635E+03  0.21359271627E+03  0.31081917485E+03  0.00000000000E+00 0. -1.
         -2    1    6    6    0  503 -0.15861146206E+02 -0.12679615088E+02 -0.83257192057E+01  0.21946894952E+02  0.00000000000E+00 0.  1.
<mgrwt>
<rscale>  0 0.19220141E+04</rscale>
<asrwt>0</asrwt>
<pdfrwt beam="1">  1        1 0.39331479E+00 0.19220141E+04</pdfrwt>
<pdfrwt beam="2">  1       -2 0.55575858E-01 0.19220141E+04</pdfrwt>
<totfact> 0.30905721E+00</totfact>
</mgrwt>
</event>
<event>
12    4  0.4486176E-008  0.5239176E+04  0.7818608E-02  0.7792635E-01
          1   -1    0    0  501    0  0.00000000000E+00  0.00000000000E+00  0.34398944038E+04  0.34398944038E+04  0.00000000000E+00 0. -1.
         -2   -1    0    0    0  501 -0.00000000000E+00 -0.00000000000E+00 -0.19948986290E+04  0.19948986290E+04  0.00000000000E+00 0.  1.
        -24    2    1    2    0    0  0.43310547138E+03  0.22373073732E+04 -0.46549182789E+03  0.23271925236E+04  0.77574276027E+02 0.  0.
        254    2    1    2    0    0 -0.43310547138E+03 -0.22373073732E+04  0.19104876027E+04  0.31076005093E+04  0.90227125277E+03 0.  0.
         23    2    4    4    0    0  0.16661541207E+03 -0.13039144037E+04  0.12317160506E+04  0.18036870062E+04  0.90603086730E+02 0.  0.
         23    2    4    4    0    0 -0.59972088345E+03 -0.93339296959E+03  0.67877155209E+03  0.13039135031E+04  0.92585257835E+02 0.  0.
          3    1    3    3  502    0  0.44404978020E+02  0.13392156130E+03 -0.33262319293E+02  0.14495919612E+03  0.00000000000E+00 0. -1.
         -4    1    3    3    0  502  0.38870049336E+03  0.21033858119E+04 -0.43222950860E+03  0.21822333275E+04  0.00000000000E+00 0.  1.
         11    1    5    5    0    0  0.74303226063E+02 -0.39942172202E+03  0.33336510498E+03  0.52553874704E+03  0.00000000000E+00 0. -1.
        -11    1    5    5    0    0  0.92312186005E+02 -0.90449268164E+03  0.89835094560E+03  0.12781482591E+04  0.00000000000E+00 0.  1.
          1    1    6    6  503    0 -0.21692087893E+03 -0.31721068011E+03  0.28570208238E+03  0.47885588977E+03  0.00000000000E+00 0. -1.
         -1    1    6    6    0  503 -0.38280000452E+03 -0.61618228947E+03  0.39306946971E+03  0.82505761335E+03  0.00000000000E+00 0.  1.
<mgrwt>
<rscale>  0 0.52391757E+04</rscale>
<asrwt>0</asrwt>
<pdfrwt beam="1">  1        1 0.52921452E+00 0.52391757E+04</pdfrwt>
<pdfrwt beam="2">  1       -2 0.30690748E+00 0.52391757E+04</pdfrwt>
<totfact> 0.50032698E-03</totfact>
</mgrwt>
</event>
<event>
12    4  0.4486176E-008  0.1663050E+04  0.7818608E-02  0.8782724E-01
         -2   -1    0    0    0  501 -0.00000000000E+00  0.00000000000E+00  0.41585485948E+03  0.41585485948E+03  0.00000000000E+00 0.  1.
          1   -1    0    0  501    0  0.00000000000E+00 -0.00000000000E+00 -0.16626803714E+04  0.16626803714E+04  0.00000000000E+00 0. -1.
        -24    2    1    2    0    0  0.30772458540E+03  0.26801265825E+03 -0.97136643198E+03  0.10564163229E+04  0.77055153706E+02 0.  0.
        254    2    1    2    0    0 -0.30772458540E+03 -0.26801265825E+03 -0.27545907991E+03  0.10221189079E+04  0.89572548908E+03 0.  0.
         23    2    4    4    0    0  0.30956660069E+03 -0.11390848855E+03 -0.69821008974E+02  0.34722551738E+03  0.82969648685E+02 0.  0.
         23    2    4    4    0    0 -0.61729118609E+03 -0.15410416971E+03 -0.20563807094E+03  0.67489339054E+03  0.91638249848E+02 0.  0.
          3    1    3    3  502    0  0.30877366450E+03  0.27177667256E+03 -0.96081868111E+03  0.10451680600E+04  0.00000000000E+00 0. -1.
         -4    1    3    3    0  502 -0.10490791006E+01 -0.37640143114E+01 -0.10547750871E+02  0.11248262939E+02  0.00000000000E+00 0.  1.
         11    1    5    5    0    0  0.25027656169E+03 -0.71049206747E+02 -0.82590188649E+02  0.27296059491E+03  0.00000000000E+00 0. -1.
        -11    1    5    5    0    0  0.59290038993E+02 -0.42859281799E+02  0.12769179674E+02  0.74264922472E+02  0.00000000000E+00 0.  1.
          2    1    6    6  503    0 -0.23194356292E+03 -0.56011255290E+02 -0.31070183677E+02  0.24062508891E+03  0.00000000000E+00 0. -1.
         -2    1    6    6    0  503 -0.38534762317E+03 -0.98092914416E+02 -0.17456788726E+03  0.43426830164E+03  0.00000000000E+00 0.  1.
<mgrwt>
<rscale>  0 0.16630499E+04</rscale>
<asrwt>0</asrwt>
<pdfrwt beam="1">  1        1 0.25579697E+00 0.16630499E+04</pdfrwt>
<pdfrwt beam="2">  1       -2 0.63977672E-01 0.16630499E+04</pdfrwt>
<totfact> 0.95649729E+00</totfact>
</mgrwt>
</event>
<event>
12    4  0.4486176E-008  0.2434208E+04  0.7818608E-02  0.8426807E-01
          1   -1    0    0  501    0  0.00000000000E+00  0.00000000000E+00  0.14214726361E+04  0.14214726361E+04  0.00000000000E+00 0. -1.
         -2   -1    0    0    0  501 -0.00000000000E+00 -0.00000000000E+00 -0.10421178953E+04  0.10421178953E+04  0.00000000000E+00 0.  1.
        -24    2    1    2    0    0 -0.93969176065E+03 -0.30145664748E+03 -0.18697798170E+03  0.10075769942E+04  0.79711468604E+02 0.  0.
        254    2    1    2    0    0  0.93969176065E+03  0.30145664748E+03  0.56633272250E+03  0.14560135372E+04  0.90848552690E+03 0.  0.
         23    2    4    4    0    0  0.11166680433E+03  0.39046395773E+03  0.44559609845E+03  0.60947639971E+03  0.89297376068E+02 0.  0.
         23    2    4    4    0    0  0.82802495632E+03 -0.89007310252E+02  0.12073662405E+03  0.84653713749E+03  0.92196329565E+02 0.  0.
          3    1    3    3  502    0 -0.56372764325E+02 -0.38496864725E+02 -0.80063666507E+01  0.68731354258E+02  0.00000000000E+00 0. -1.
         -4    1    3    3    0  502 -0.88331899632E+03 -0.26295978275E+03 -0.17897161505E+03  0.93884563993E+03  0.00000000000E+00 0.  1.
         11    1    5    5    0    0  0.45661947193E+02  0.54840333025E+02  0.53754950774E+02  0.89342432699E+02  0.00000000000E+00 0.  1.
        -11    1    5    5    0    0  0.66004857133E+02  0.33562362471E+03  0.39184114767E+03  0.52013396701E+03  0.00000000000E+00 0. -1.
          1    1    6    6  503    0  0.81137979973E+03 -0.87248615741E+02  0.10364155489E+03  0.82261234629E+03  0.00000000000E+00 0. -1.
         -1    1    6    6    0  503  0.16645156589E+02 -0.17586945118E+01  0.17095069162E+02  0.23924791199E+02  0.00000000000E+00 0.  1.
<mgrwt>
<rscale>  0 0.24342079E+04</rscale>
<asrwt>0</asrwt>
<pdfrwt beam="1">  1        1 0.21868810E+00 0.24342079E+04</pdfrwt>
<pdfrwt beam="2">  1       -2 0.16032583E+00 0.24342079E+04</pdfrwt>
<totfact> 0.14581073E+00</totfact>
</mgrwt>
</event>
<event>
12    4  0.4486176E-008  0.1924402E+04  0.7818608E-02  0.8642805E-01
         -2   -1    0    0    0  501 -0.00000000000E+00  0.00000000000E+00  0.86526435847E+03  0.86526435847E+03  0.00000000000E+00 0.  1.
          1   -1    0    0  501    0  0.00000000000E+00 -0.00000000000E+00 -0.10699972776E+04  0.10699972776E+04  0.00000000000E+00 0. -1.
        -24    2    1    2    0    0  0.89094344067E+02 -0.34541985635E+03 -0.74787204610E+03  0.83236953946E+03  0.79207156106E+02 0.  0.
        254    2    1    2    0    0 -0.89094344067E+02  0.34541985635E+03  0.54313912693E+03  0.11028920966E+04  0.89113309126E+03 0.  0.
         23    2    4    4    0    0 -0.25286100025E+03  0.37769215588E+03  0.71145976029E+03  0.84914440077E+03  0.91000949344E+02 0.  0.
         23    2    4    4    0    0  0.16376665619E+03 -0.32272299533E+02 -0.16832063336E+03  0.25374769587E+03  0.90526452213E+02 0.  0.
          1    1    3    3  502    0  0.54665564541E+02 -0.30366114851E+03 -0.59575928667E+03  0.67091545273E+03  0.00000000000E+00 0. -1.
         -2    1    3    3    0  502  0.34428779525E+02 -0.41758707844E+02 -0.15211275944E+03  0.16145408674E+03  0.00000000000E+00 0.  1.
         11    1    5    5    0    0 -0.21560496002E+03  0.35166361960E+03  0.67418539845E+03  0.79036621361E+03  0.00000000000E+00 0. -1.
        -11    1    5    5    0    0 -0.37256040238E+02  0.26028536282E+02  0.37274361844E+02  0.58778187162E+02  0.00000000000E+00 0.  1.
          3    1    6    6  503    0  0.15239840861E+03 -0.43515165287E+02 -0.17528094903E+03  0.23630966051E+03  0.00000000000E+00 0. -1.
         -3    1    6    6    0  503  0.11368247578E+02  0.11242865755E+02  0.69603156645E+01  0.17438035369E+02  0.00000000000E+00 0.  1.
<mgrwt>
<rscale>  0 0.19244017E+04</rscale>
<asrwt>0</asrwt>
<pdfrwt beam="1">  1        1 0.16461497E+00 0.19244017E+04</pdfrwt>
<pdfrwt beam="2">  1       -2 0.13311759E+00 0.19244017E+04</pdfrwt>
<totfact> 0.44725379E+00</totfact>
</mgrwt>
</event>
<event>
12    4  0.4486176E-008  0.1536168E+04  0.7818608E-02  0.8860752E-01
          1   -1    0    0  501    0  0.00000000000E+00  0.00000000000E+00  0.26862750444E+04  0.26862750444E+04  0.00000000000E+00 0. -1.
         -2   -1    0    0    0  501 -0.00000000000E+00 -0.00000000000E+00 -0.21961740784E+03  0.21961740784E+03  0.00000000000E+00 0.  1.
        -24    2    1    2    0    0 -0.30272287358E+03  0.22573208656E+03  0.19428494055E+03  0.43155107635E+03  0.76769657300E+02 0.  0.
        254    2    1    2    0    0  0.30272287358E+03 -0.22573208656E+03  0.22723726960E+04  0.24743413759E+04  0.90337780678E+03 0.  0.
         23    2    4    4    0    0 -0.10301687349E+03 -0.20653582929E+03  0.18936930140E+04  0.19098521979E+04  0.90513322507E+02 0.  0.
         23    2    4    4    0    0  0.40573974707E+03 -0.19196257271E+02  0.37867968194E+03  0.56448917792E+03  0.10127433946E+03 0.  0.
          3    1    3    3  502    0 -0.15181443491E+03  0.15527497575E+03  0.12955433793E+03  0.25286808264E+03  0.00000000000E+00 0. -1.
         -4    1    3    3    0  502 -0.15090843867E+03  0.70457110809E+02  0.64730602618E+02  0.17868299371E+03  0.00000000000E+00 0.  1.
         11    1    5    5    0    0 -0.86842079786E+02 -0.93575034571E+02  0.12082042072E+04  0.12149301380E+04  0.00000000000E+00 0.  1.
        -11    1    5    5    0    0 -0.16174793703E+02 -0.11296079471E+03  0.68548880688E+03  0.69492205998E+03  0.00000000000E+00 0. -1.
          1    1    6    6  503    0  0.40402471042E+03 -0.84917013918E+01  0.37843778946E+03  0.55364540647E+03  0.00000000000E+00 0. -1.
         -1    1    6    6    0  503  0.17150366558E+01 -0.10704555879E+02  0.24189248123E+00  0.10843771450E+02  0.00000000000E+00 0.  1.
<mgrwt>
<rscale>  0 0.15361676E+04</rscale>
<asrwt>0</asrwt>
<pdfrwt beam="1">  1        1 0.41327306E+00 0.15361676E+04</pdfrwt>
<pdfrwt beam="2">  1       -2 0.33787295E-01 0.15361676E+04</pdfrwt>
<totfact> 0.69890698E+00</totfact>
</mgrwt>
</event>
<event>
12    4  0.4486176E-008  0.1315297E+04  0.7818608E-02  0.9017522E-01
         -2   -1    0    0    0  501 -0.00000000000E+00  0.00000000000E+00  0.36910780374E+03  0.36910780374E+03  0.00000000000E+00 0.  1.
          1   -1    0    0  501    0  0.00000000000E+00 -0.00000000000E+00 -0.11717489554E+04  0.11717489554E+04  0.00000000000E+00 0. -1.
        -24    2    1    2    0    0 -0.39439281763E+02 -0.17520014044E+03  0.12265070263E+03  0.23209560698E+03  0.81084090711E+02 0.  0.
        254    2    1    2    0    0  0.39439281763E+02  0.17520014044E+03 -0.92529185425E+03  0.13087611521E+04  0.90798688953E+03 0.  0.
         23    2    4    4    0    0  0.42364792216E+03 -0.98701488129E+02 -0.42058848457E+03  0.61215666378E+03  0.92852366438E+02 0.  0.
         23    2    4    4    0    0 -0.38420864040E+03  0.27390162857E+03 -0.50470336968E+03  0.69660448832E+03  0.88847849108E+02 0.  0.
          3    1    3    3  502    0 -0.50933320179E+02 -0.11520714637E+03  0.46040945910E+02  0.13411434815E+03  0.00000000000E+00 0. -1.
         -4    1    3    3    0  502  0.11494038415E+02 -0.59992994068E+02  0.76609756724E+02  0.97981258829E+02  0.00000000000E+00 0.  1.
         11    1    5    5    0    0  0.23379783264E+03 -0.15143167540E+02 -0.18701025307E+03  0.29977254181E+03  0.00000000000E+00 0. -1.
        -11    1    5    5    0    0  0.18985008952E+03 -0.83558320590E+02 -0.23357823150E+03  0.31238412198E+03  0.00000000000E+00 0.  1.
          1    1    6    6  503    0 -0.34101852043E+03  0.20506822078E+03 -0.40200892222E+03  0.56564810616E+03  0.00000000000E+00 0. -1.
         -1    1    6    6    0  503 -0.43190119964E+02  0.68833407788E+02 -0.10269444746E+03  0.13095638217E+03  0.00000000000E+00 0.  1.
<mgrwt>
<rscale>  0 0.13152972E+04</rscale>
<asrwt>0</asrwt>
<pdfrwt beam="1">  1        1 0.18026907E+00 0.13152972E+04</pdfrwt>
<pdfrwt beam="2">  1       -2 0.56785816E-01 0.13152972E+04</pdfrwt>
<totfact> 0.28056632E+01</totfact>
</mgrwt>
</event>
<event>
12    4  0.4486176E-008  0.1307047E+04  0.7818608E-02  0.9023996E-01
         -2   -1    0    0    0  501 -0.00000000000E+00  0.00000000000E+00  0.29970159067E+03  0.29970159067E+03  0.00000000000E+00 0.  1.
          1   -1    0    0  501    0  0.00000000000E+00 -0.00000000000E+00 -0.14250603714E+04  0.14250603714E+04  0.00000000000E+00 0. -1.
        -24    2    1    2    0    0 -0.29790058070E+03  0.10667583336E+03 -0.14954739401E+03  0.35867376419E+03  0.78472649122E+02 0.  0.
        254    2    1    2    0    0  0.29790058070E+03 -0.10667583336E+03 -0.97581138670E+03  0.13660881979E+04  0.90214445214E+03 0.  0.
         23    2    4    4    0    0  0.58958126731E+03 -0.16850718690E+03 -0.49996326925E+03  0.79652615302E+03  0.92140648166E+02 0.  0.
         23    2    4    4    0    0 -0.29168068661E+03  0.61831353542E+02 -0.47584811745E+03  0.56956204484E+03  0.95229999582E+02 0.  0.
          1    1    3    3  502    0 -0.33288030190E+01 -0.14087842477E+01  0.71020258057E+01  0.79689631158E+01  0.00000000000E+00 0. -1.
         -2    1    3    3    0  502 -0.29457177768E+03  0.10808461761E+03 -0.15664941981E+03  0.35070480107E+03  0.00000000000E+00 0.  1.
         11    1    5    5    0    0  0.23116611904E+03 -0.11290853223E+03 -0.20027317135E+03  0.32602983668E+03  0.00000000000E+00 0. -1.
        -11    1    5    5    0    0  0.35841514826E+03 -0.55598654672E+02 -0.29969009789E+03  0.47049631633E+03  0.00000000000E+00 0.  1.
          2    1    6    6  503    0 -0.16175237363E+03  0.51131411823E+02 -0.34709026786E+03  0.38632875338E+03  0.00000000000E+00 0. -1.
         -2    1    6    6    0  503 -0.12992831298E+03  0.10699941720E+02 -0.12875784960E+03  0.18323329146E+03  0.00000000000E+00 0.  1.
<mgrwt>
<rscale>  0 0.13070468E+04</rscale>
<asrwt>0</asrwt>
<pdfrwt beam="1">  1        1 0.21924006E+00 0.13070468E+04</pdfrwt>
<pdfrwt beam="2">  1       -2 0.46107935E-01 0.13070468E+04</pdfrwt>
<totfact> 0.28347884E+01</totfact>
</mgrwt>
</event>
<event>
12    4  0.4486176E-008  0.1404916E+04  0.7818608E-02  0.8950268E-01
         -2   -1    0    0    0  501 -0.00000000000E+00  0.00000000000E+00  0.98919342204E+03  0.98919342204E+03  0.00000000000E+00 0.  1.
          1   -1    0    0  501    0  0.00000000000E+00 -0.00000000000E+00 -0.49883761901E+03  0.49883761901E+03  0.00000000000E+00 0. -1.
        -24    2    1    2    0    0 -0.13992092948E+03  0.32863473470E+03  0.41955523586E+03  0.55686407099E+03  0.80575072216E+02 0.  0.
        254    2    1    2    0    0  0.13992092948E+03 -0.32863473470E+03  0.70800567172E+02  0.93116697007E+03  0.85701840731E+03 0.  0.
         23    2    4    4    0    0 -0.23469307975E+03 -0.44896335636E+03  0.10292885188E+03  0.52455803842E+03  0.88982302096E+02 0.  0.
         23    2    4    4    0    0  0.37461400923E+03  0.12032862166E+03 -0.32128284707E+02  0.40660893165E+03  0.97385643269E+02 0.  0.
          1    1    3    3  502    0 -0.20355743560E+02  0.13594348271E+03  0.18653340430E+03  0.23171037462E+03  0.00000000000E+00 0. -1.
         -2    1    3    3    0  502 -0.11956518592E+03  0.19269125200E+03  0.23302183156E+03  0.32515369637E+03  0.00000000000E+00 0.  1.
         11    1    5    5    0    0 -0.71954079853E+02 -0.21760527523E+03  0.70791992665E+02  0.23987695104E+03  0.00000000000E+00 0.  1.
        -11    1    5    5    0    0 -0.16273899989E+03 -0.23135808113E+03  0.32136859214E+02  0.28468108738E+03  0.00000000000E+00 0. -1.
          4    1    6    6  503    0  0.11292778915E+03  0.18973283832E+02  0.31690633120E+02  0.11881484457E+03  0.00000000000E+00 0. -1.
         -4    1    6    6    0  503  0.26168622008E+03  0.10135533783E+03 -0.63818917827E+02  0.28779408708E+03  0.00000000000E+00 0.  1.
<mgrwt>
<rscale>  0 0.14049155E+04</rscale>
<asrwt>0</asrwt>
<pdfrwt beam="1">  1        1 0.76744249E-01 0.14049155E+04</pdfrwt>
<pdfrwt beam="2">  1       -2 0.15218360E+00 0.14049155E+04</pdfrwt>
<totfact> 0.10918091E+01</totfact>
</mgrwt>
</event>
<event>
12    4  0.4486176E-008  0.1118123E+04  0.7818608E-02  0.9187705E-01
          1   -1    0    0  501    0  0.00000000000E+00  0.00000000000E+00  0.20920330255E+04  0.20920330255E+04  0.00000000000E+00 0. -1.
         -2   -1    0    0    0  501 -0.00000000000E+00 -0.00000000000E+00 -0.14940012977E+03  0.14940012977E+03  0.00000000000E+00 0.  1.
        -24    2    1    2    0    0 -0.10967638849E+03  0.10646945245E+03  0.55086319570E+03  0.57700542460E+03  0.78232634753E+02 0.  0.
        254    2    1    2    0    0  0.10967638849E+03 -0.10646945245E+03  0.13917697000E+04  0.16644277306E+04  0.89996228710E+03 0.  0.
         23    2    4    4    0    0 -0.38703490646E+03 -0.86917317502E+02  0.64012191713E+03  0.75896573414E+03  0.94457810200E+02 0.  0.
         23    2    4    4    0    0  0.49671129495E+03 -0.19552134947E+02  0.75164778286E+03  0.90546199649E+03  0.88219278585E+02 0.  0.
          3    1    3    3  502    0 -0.56542634008E+02  0.45463030928E+02  0.13416094022E+03  0.15252250497E+03  0.00000000000E+00 0. -1.
         -4    1    3    3    0  502 -0.53133754480E+02  0.61006421521E+02  0.41670225549E+03  0.42448291963E+03  0.00000000000E+00 0.  1.
         11    1    5    5    0    0 -0.87194231887E+02 -0.53622957771E+02  0.20964811283E+03  0.23330363668E+03  0.00000000000E+00 0. -1.
        -11    1    5    5    0    0 -0.29984067457E+03 -0.33294359731E+02  0.43047380430E+03  0.52566209746E+03  0.00000000000E+00 0.  1.
          1    1    6    6  503    0  0.12819246807E+03 -0.17628678476E+02  0.13437676575E+03  0.18655078222E+03  0.00000000000E+00 0. -1.
         -1    1    6    6    0  503  0.36851882688E+03 -0.19234564717E+01  0.61727101710E+03  0.71891121427E+03  0.00000000000E+00 0.  1.
<mgrwt>
<rscale>  0 0.11181234E+04</rscale>
<asrwt>0</asrwt>
<pdfrwt beam="1">  1        1 0.32185121E+00 0.11181234E+04</pdfrwt>
<pdfrwt beam="2">  1       -2 0.22984637E-01 0.11181234E+04</pdfrwt>
<totfact> 0.37776533E+01</totfact>
</mgrwt>
</event>
<event>
12    4  0.4486176E-008  0.3362592E+04  0.7818608E-02  0.8147149E-01
         -2   -1    0    0    0  501 -0.00000000000E+00  0.00000000000E+00  0.11597874972E+04  0.11597874972E+04  0.00000000000E+00 0.  1.
          1   -1    0    0  501    0  0.00000000000E+00 -0.00000000000E+00 -0.24373049672E+04  0.24373049672E+04  0.00000000000E+00 0. -1.
        -24    2    1    2    0    0 -0.11719393911E+03 -0.13264078197E+04  0.26919052774E+03  0.13609453145E+04  0.81341780814E+02 0.  0.
        254    2    1    2    0    0  0.11719393911E+03  0.13264078197E+04 -0.15467079978E+04  0.22361471500E+04  0.91375944450E+03 0.  0.
         23    2    4    4    0    0  0.38456495523E+03  0.56259601366E+03 -0.30769694340E+03  0.75342007039E+03  0.92519803888E+02 0.  0.
         23    2    4    4    0    0 -0.26737101612E+03  0.76381180604E+03 -0.12390110544E+04  0.14827270796E+04  0.91844784066E+02 0.  0.
          3    1    3    3  502    0 -0.70678505518E+02 -0.98792613837E+03  0.16787736951E+03  0.10045776810E+04  0.00000000000E+00 0. -1.
         -4    1    3    3    0  502 -0.46515433591E+02 -0.33848168133E+03  0.10131315823E+03  0.35636763347E+03  0.00000000000E+00 0.  1.
         11    1    5    5    0    0  0.28793974638E+03  0.43735981360E+03 -0.27665038193E+03  0.59222321630E+03  0.00000000000E+00 0.  1.
        -11    1    5    5    0    0  0.96625208848E+02  0.12523620006E+03 -0.31046561469E+02  0.16119685409E+03  0.00000000000E+00 0. -1.
          1    1    6    6  503    0 -0.65259241918E+01  0.50684124201E+02 -0.11974291227E+03  0.13019152496E+03  0.00000000000E+00 0. -1.
         -1    1    6    6    0  503 -0.26084509193E+03  0.71312768184E+03 -0.11192681421E+04  0.13525355546E+04  0.00000000000E+00 0.  1.
<mgrwt>
<rscale>  0 0.33625918E+04</rscale>
<asrwt>0</asrwt>
<pdfrwt beam="1">  1        1 0.37496999E+00 0.33625918E+04</pdfrwt>
<pdfrwt beam="2">  1       -2 0.17842885E+00 0.33625918E+04</pdfrwt>
<totfact> 0.20211233E-01</totfact>
</mgrwt>
</event>
<event>
12    4  0.4486176E-008  0.2209638E+04  0.7818608E-02  0.8514427E-01
         -2   -1    0    0    0  501 -0.00000000000E+00  0.00000000000E+00  0.79066582766E+03  0.79066582766E+03  0.00000000000E+00 0.  1.
          1   -1    0    0  501    0  0.00000000000E+00 -0.00000000000E+00 -0.15437945073E+04  0.15437945073E+04  0.00000000000E+00 0. -1.
        -24    2    1    2    0    0  0.40401019206E+03  0.37494980913E+03 -0.10835280424E+04  0.12182747356E+04  0.79678842514E+02 0.  0.
        254    2    1    2    0    0 -0.40401019206E+03 -0.37494980913E+03  0.33039936280E+03  0.11161855994E+04  0.91263078989E+03 0.  0.
         23    2    4    4    0    0 -0.12800478329E+03  0.14113101576E+03  0.46484740713E+03  0.51038064566E+03  0.90011684797E+02 0.  0.
         23    2    4    4    0    0 -0.27600540876E+03 -0.51608082488E+03 -0.13444804432E+03  0.60580495371E+03  0.80031005506E+02 0.  0.
          1    1    3    3  502    0  0.27036020776E+03  0.28577985933E+03 -0.71106498522E+03  0.81263656276E+03  0.00000000000E+00 0. -1.
         -2    1    3    3    0  502  0.13364998430E+03  0.89169949800E+02 -0.37246305720E+03  0.40563817280E+03  0.00000000000E+00 0.  1.
         11    1    5    5    0    0 -0.10447392662E+03  0.14950685233E+03  0.43343944594E+03  0.47025190434E+03  0.00000000000E+00 0.  1.
        -11    1    5    5    0    0 -0.23530856673E+02 -0.83758365791E+01  0.31407961183E+02  0.40128741319E+02  0.00000000000E+00 0. -1.
          3    1    6    6  503    0 -0.52577509550E+02 -0.17136700766E+03 -0.54042235426E+02  0.18722074948E+03  0.00000000000E+00 0. -1.
         -3    1    6    6    0  503 -0.22342789921E+03 -0.34471381722E+03 -0.80405808899E+02  0.41858420423E+03  0.00000000000E+00 0.  1.
<mgrwt>
<rscale>  0 0.22096385E+04</rscale>
<asrwt>0</asrwt>
<pdfrwt beam="1">  1        1 0.23750685E+00 0.22096385E+04</pdfrwt>
<pdfrwt beam="2">  1       -2 0.12164090E+00 0.22096385E+04</pdfrwt>
<totfact> 0.25046707E+00</totfact>
</mgrwt>
</event>
<event>
12    4  0.4486176E-008  0.1720557E+04  0.7818608E-02  0.8749726E-01
          1   -1    0    0  501    0  0.00000000000E+00  0.00000000000E+00  0.19616087853E+04  0.19616087853E+04  0.00000000000E+00 0. -1.
         -2   -1    0    0    0  501 -0.00000000000E+00 -0.00000000000E+00 -0.37728178224E+03  0.37728178224E+03  0.00000000000E+00 0.  1.
        -24    2    1    2    0    0  0.34805103511E+03 -0.39635266411E+03  0.13299252884E+03  0.54997581583E+03  0.80940891228E+02 0.  0.
        254    2    1    2    0    0 -0.34805103511E+03  0.39635266411E+03  0.14513344742E+04  0.17889147517E+04  0.90311088767E+03 0.  0.
         23    2    4    4    0    0  0.28934078048E+01  0.42340660554E+03  0.13411868368E+04  0.14095901074E+04  0.94237012459E+02 0.  0.
         23    2    4    4    0    0 -0.35094444292E+03 -0.27053941427E+02  0.11014763745E+03  0.37932464424E+03  0.88660960584E+02 0.  0.
          3    1    3    3  502    0  0.25413235137E+03 -0.30014088303E+03  0.13411953548E+03  0.41551877392E+03  0.00000000000E+00 0. -1.
         -4    1    3    3    0  502  0.93918683742E+02 -0.96211781084E+02 -0.11270066397E+01  0.13445704191E+03  0.00000000000E+00 0.  1.
         11    1    5    5    0    0  0.14904237019E+01  0.41119809052E+03  0.12127302909E+04  0.12805470899E+04  0.00000000000E+00 0. -1.
        -11    1    5    5    0    0  0.14029841028E+01  0.12208515026E+02  0.12845654588E+03  0.12904301756E+03  0.00000000000E+00 0.  1.
          4    1    6    6  503    0 -0.32857747946E+03 -0.47822362946E+02  0.10583951476E+03  0.34849984403E+03  0.00000000000E+00 0. -1.
         -4    1    6    6    0  503 -0.22366963458E+02  0.20768421519E+02  0.43081226804E+01  0.30824800206E+02  0.00000000000E+00 0.  1.
<mgrwt>
<rscale>  0 0.17205572E+04</rscale>
<asrwt>0</asrwt>
<pdfrwt beam="1">  1        1 0.30178596E+00 0.17205572E+04</pdfrwt>
<pdfrwt beam="2">  1       -2 0.58043352E-01 0.17205572E+04</pdfrwt>
<totfact> 0.73320449E+00</totfact>
</mgrwt>
</event>
<event>
12    4  0.4486176E-008  0.1818201E+04  0.7818608E-02  0.8696680E-01
          1   -1    0    0  501    0  0.00000000000E+00  0.00000000000E+00  0.10477255593E+04  0.10477255593E+04  0.00000000000E+00 0. -1.
         -2   -1    0    0    0  501 -0.00000000000E+00 -0.00000000000E+00 -0.78881666082E+03  0.78881666082E+03  0.00000000000E+00 0.  1.
        -24    2    1    2    0    0 -0.78998314520E+02  0.62455295626E+03 -0.17378454258E+03  0.65809945187E+03  0.81158440410E+02 0.  0.
        254    2    1    2    0    0  0.78998314520E+02 -0.62455295626E+03  0.43269344103E+03  0.11784427682E+04  0.89732748490E+03 0.  0.
         23    2    4    4    0    0 -0.13746970714E+03 -0.58090529819E+03  0.62685680316E+03  0.87043902485E+03  0.91464520190E+02 0.  0.
         23    2    4    4    0    0  0.21646802166E+03 -0.43647658062E+02 -0.19416336213E+03  0.30800374336E+03  0.91669909312E+02 0.  0.
          1    1    3    3  502    0 -0.74580719592E+02  0.62343827002E+03 -0.17719587845E+03  0.65240780161E+03  0.00000000000E+00 0. -1.
         -2    1    3    3    0  502 -0.44175949274E+01  0.11146862351E+01  0.34113358648E+01  0.56916502640E+01  0.00000000000E+00 0.  1.
         11    1    5    5    0    0  0.42272784536E+01 -0.14903077595E+03  0.16681414843E+03  0.22372975256E+03  0.00000000000E+00 0.  1.
        -11    1    5    5    0    0 -0.14169698560E+03 -0.43187452224E+03  0.46004265473E+03  0.64670927228E+03  0.00000000000E+00 0. -1.
          2    1    6    6  503    0  0.15641837680E+03  0.10505296688E+02 -0.11157805266E+03  0.19242331381E+03  0.00000000000E+00 0. -1.
         -2    1    6    6    0  503  0.60049644859E+02 -0.54152954750E+02 -0.82585309470E+02  0.11558042956E+03  0.00000000000E+00 0.  1.
<mgrwt>
<rscale>  0 0.18182006E+04</rscale>
<asrwt>0</asrwt>
<pdfrwt beam="1">  1        1 0.16118855E+00 0.18182006E+04</pdfrwt>
<pdfrwt beam="2">  1       -2 0.12135641E+00 0.18182006E+04</pdfrwt>
<totfact> 0.59263741E+00</totfact>
</mgrwt>
</event>
<event>
12    4  0.4486176E-008  0.1975389E+04  0.7818608E-02  0.8618214E-01
         -2   -1    0    0    0  501 -0.00000000000E+00  0.00000000000E+00  0.56977398503E+03  0.56977398503E+03  0.00000000000E+00 0.  1.
          1   -1    0    0  501    0  0.00000000000E+00 -0.00000000000E+00 -0.17121528892E+04  0.17121528892E+04  0.00000000000E+00 0. -1.
        -24    2    1    2    0    0  0.26805144549E+03  0.66655547861E+03 -0.98728868615E+02  0.72970983985E+03  0.81125072452E+02 0.  0.
        254    2    1    2    0    0 -0.26805144549E+03 -0.66655547861E+03 -0.10436500356E+04  0.15522170344E+04  0.89667415576E+03 0.  0.
         23    2    4    4    0    0  0.19252962608E+03  0.11087764445E+03 -0.24972977324E+03  0.34562170925E+03  0.87908459806E+02 0.  0.
         23    2    4    4    0    0 -0.46058107157E+03 -0.77743312307E+03 -0.79392026233E+03  0.12065953251E+04  0.95003744054E+02 0.  0.
          1    1    3    3  502    0  0.53072656968E+02  0.75176989194E+02  0.41363016166E+01  0.92116207113E+02  0.00000000000E+00 0. -1.
         -2    1    3    3    0  502  0.21497878853E+03  0.59137848942E+03 -0.10286517023E+03  0.63759363274E+03  0.00000000000E+00 0.  1.
         11    1    5    5    0    0  0.15474337365E+02 -0.13107013985E+02 -0.92849949805E+01  0.22303812775E+02  0.00000000000E+00 0.  1.
        -11    1    5    5    0    0  0.17705528871E+03  0.12398465844E+03 -0.24044477826E+03  0.32331789648E+03  0.00000000000E+00 0. -1.
          1    1    6    6  503    0 -0.43536331975E+03 -0.73306227945E+03 -0.77491594355E+03  0.11521355152E+04  0.00000000000E+00 0. -1.
         -1    1    6    6    0  503 -0.25217751819E+02 -0.44370843620E+02 -0.19004318775E+02  0.54459809975E+02  0.00000000000E+00 0.  1.
<mgrwt>
<rscale>  0 0.19753887E+04</rscale>
<asrwt>0</asrwt>
<pdfrwt beam="1">  1        1 0.26340814E+00 0.19753887E+04</pdfrwt>
<pdfrwt beam="2">  1       -2 0.87657535E-01 0.19753887E+04</pdfrwt>
<totfact> 0.42853408E+00</totfact>
</mgrwt>
</event>
<event>
12    4  0.4486176E-008  0.1856590E+04  0.7818608E-02  0.8676771E-01
         -2   -1    0    0    0  501 -0.00000000000E+00  0.00000000000E+00  0.71536127105E+03  0.71536127105E+03  0.00000000000E+00 0.  1.
          1   -1    0    0  501    0  0.00000000000E+00 -0.00000000000E+00 -0.12046100145E+04  0.12046100145E+04  0.00000000000E+00 0. -1.
        -24    2    1    2    0    0 -0.21481096180E+03 -0.12805833501E+03  0.50006330386E+03  0.56485010329E+03  0.80309680907E+02 0.  0.
        254    2    1    2    0    0  0.21481096180E+03  0.12805833501E+03 -0.98931204734E+03  0.13551211823E+04  0.89166832691E+03 0.  0.
         23    2    4    4    0    0 -0.21252607107E+03  0.33844024963E+03 -0.28539934516E+03  0.49980432409E+03  0.92964739059E+02 0.  0.
         23    2    4    4    0    0  0.42733703287E+03 -0.21038191463E+03 -0.70391270218E+03  0.85531685820E+03  0.95897580563E+02 0.  0.
          3    1    3    3  502    0 -0.18882332119E+02 -0.45989725848E+02  0.81431048477E+02  0.95407615030E+02  0.00000000000E+00 0. -1.
         -4    1    3    3    0  502 -0.19592862968E+03 -0.82068609161E+02  0.41863225539E+03  0.46944248826E+03  0.00000000000E+00 0.  1.
         11    1    5    5    0    0 -0.17682722311E+03  0.20218005681E+03 -0.17175359470E+03  0.31881646679E+03  0.00000000000E+00 0.  1.
        -11    1    5    5    0    0 -0.35698847965E+02  0.13626019282E+03 -0.11364575046E+03  0.18098785730E+03  0.00000000000E+00 0. -1.
          2    1    6    6  503    0  0.30804173729E+03 -0.15787751908E+03 -0.58023468505E+03  0.67563844820E+03  0.00000000000E+00 0.  1.
         -2    1    6    6    0  503  0.11929529558E+03 -0.52504395543E+02 -0.12367801713E+03  0.17967841000E+03  0.00000000000E+00 0. -1.
<mgrwt>
<rscale>  0 0.18565897E+04</rscale>
<asrwt>0</asrwt>
<pdfrwt beam="1">  1        1 0.18532461E+00 0.18565897E+04</pdfrwt>
<pdfrwt beam="2">  1       -2 0.11005558E+00 0.18565897E+04</pdfrwt>
<totfact> 0.57313933E+00</totfact>
</mgrwt>
</event>
<event>
12    4  0.4486176E-008  0.2544379E+04  0.7818608E-02  0.8387344E-01
         -2   -1    0    0    0  501 -0.00000000000E+00  0.00000000000E+00  0.99074615905E+03  0.99074615905E+03  0.00000000000E+00 0.  1.
          1   -1    0    0  501    0  0.00000000000E+00 -0.00000000000E+00 -0.16335833773E+04  0.16335833773E+04  0.00000000000E+00 0. -1.
        -24    2    1    2    0    0 -0.74626390448E+03 -0.80092519338E+03 -0.47424186561E+03  0.11956184020E+04  0.78784742767E+02 0.  0.
        254    2    1    2    0    0  0.74626390448E+03  0.80092519338E+03 -0.16859535264E+03  0.14287111343E+04  0.90244120688E+03 0.  0.
         23    2    4    4    0    0  0.50348082840E+03  0.26995799711E+02  0.17780174074E+03  0.54215287259E+03  0.89969775374E+02 0.  0.
         23    2    4    4    0    0  0.24278307608E+03  0.77392939367E+03 -0.34639709338E+03  0.88655826173E+03  0.89912606026E+02 0.  0.
          3    1    3    3  502    0 -0.62303008223E+03 -0.68869999633E+03 -0.37438363514E+03  0.10013177690E+04  0.00000000000E+00 0. -1.
         -4    1    3    3    0  502 -0.12323382225E+03 -0.11222519705E+03 -0.99858230465E+02  0.19430063301E+03  0.00000000000E+00 0.  1.
         11    1    5    5    0    0  0.54322549910E+02  0.10323387965E+02  0.50798340592E+02  0.75086504611E+02  0.00000000000E+00 0. -1.
        -11    1    5    5    0    0  0.44915827849E+03  0.16672411746E+02  0.12700340015E+03  0.46706636798E+03  0.00000000000E+00 0.  1.
          3    1    6    6  503    0  0.94039818522E+02  0.28749872422E+03 -0.17679119515E+03  0.35036285559E+03  0.00000000000E+00 0. -1.
         -3    1    6    6    0  503  0.14874325756E+03  0.48643066944E+03 -0.16960589823E+03  0.53619540613E+03  0.00000000000E+00 0.  1.
<mgrwt>
<rscale>  0 0.25443793E+04</rscale>
<asrwt>0</asrwt>
<pdfrwt beam="1">  1        1 0.25132052E+00 0.25443793E+04</pdfrwt>
<pdfrwt beam="2">  1       -2 0.15242248E+00 0.25443793E+04</pdfrwt>
<totfact> 0.11810480E+00</totfact>
</mgrwt>
</event>
<event>
12    4  0.4486176E-008  0.1466403E+04  0.7818608E-02  0.8907107E-01
         -2   -1    0    0    0  501 -0.00000000000E+00  0.00000000000E+00  0.26261740670E+03  0.26261740670E+03  0.00000000000E+00 0.  1.
          1   -1    0    0  501    0  0.00000000000E+00 -0.00000000000E+00 -0.20470238984E+04  0.20470238984E+04  0.00000000000E+00 0. -1.
        -24    2    1    2    0    0 -0.22373651405E+03 -0.29150438704E+03 -0.11799111541E+04  0.12383013269E+04  0.78530307702E+02 0.  0.
        254    2    1    2    0    0  0.22373651405E+03  0.29150438704E+03 -0.60449533761E+03  0.10713399782E+04  0.80456317362E+03 0.  0.
         23    2    4    4    0    0  0.49903869831E+03  0.55534029357E+02 -0.33636050122E+03  0.61110968894E+03  0.90515271128E+02 0.  0.
         23    2    4    4    0    0 -0.27530218427E+03  0.23597035768E+03 -0.26813483639E+03  0.46023028927E+03  0.91882132721E+02 0.  0.
          1    1    3    3  502    0 -0.20990112049E+03 -0.22692225228E+03 -0.99770078188E+03  0.10444898463E+04  0.00000000000E+00 0. -1.
         -2    1    3    3    0  502 -0.13835393558E+02 -0.64582134760E+02 -0.18221037222E+03  0.19381148054E+03  0.00000000000E+00 0.  1.
         11    1    5    5    0    0  0.57954999069E+02  0.36633897251E+02 -0.50536624637E+02  0.85174965657E+02  0.00000000000E+00 0. -1.
        -11    1    5    5    0    0  0.44108369924E+03  0.18900132106E+02 -0.28582387658E+03  0.52593472328E+03  0.00000000000E+00 0.  1.
          2    1    6    6  503    0 -0.98553127101E+02  0.34333323800E+02 -0.56777560202E+02  0.11880735384E+03  0.00000000000E+00 0. -1.
         -2    1    6    6    0  503 -0.17674905717E+03  0.20163703388E+03 -0.21135727619E+03  0.34142293543E+03  0.00000000000E+00 0.  1.
<mgrwt>
<rscale>  0 0.14664025E+04</rscale>
<asrwt>0</asrwt>
<pdfrwt beam="1">  1        1 0.31492674E+00 0.14664025E+04</pdfrwt>
<pdfrwt beam="2">  1       -2 0.40402679E-01 0.14664025E+04</pdfrwt>
<totfact> 0.13684469E+01</totfact>
</mgrwt>
</event>
<event>
12    4  0.4486176E-008  0.1776276E+04  0.7818608E-02  0.8719018E-01
         -2   -1    0    0    0  501 -0.00000000000E+00  0.00000000000E+00  0.77111552523E+03  0.77111552523E+03  0.00000000000E+00 0.  1.
          1   -1    0    0  501    0  0.00000000000E+00 -0.00000000000E+00 -0.10229196590E+04  0.10229196590E+04  0.00000000000E+00 0. -1.
        -24    2    1    2    0    0  0.46683895473E+02 -0.32251750746E+03 -0.66506560092E+03  0.74548446887E+03  0.85075913610E+02 0.  0.
        254    2    1    2    0    0 -0.46683895473E+02  0.32251750746E+03  0.41326146720E+03  0.10485507153E+04  0.90690497496E+03 0.  0.
         23    2    4    4    0    0 -0.33340052539E+03 -0.83522363130E+02  0.41003547403E+03  0.54261499589E+03  0.90388319628E+02 0.  0.
         23    2    4    4    0    0  0.28671662992E+03  0.40603987059E+03  0.32259931702E+01  0.50593571943E+03  0.94264217967E+02 0.  0.
          3    1    3    3  502    0  0.40861630504E+02 -0.31101860547E+03 -0.57951859668E+03  0.65897196427E+03  0.00000000000E+00 0. -1.
         -4    1    3    3    0  502  0.58222649698E+01 -0.11498901985E+02 -0.85547004248E+02  0.86512504599E+02  0.00000000000E+00 0.  1.
         11    1    5    5    0    0 -0.29763437197E+03 -0.81778749158E+02  0.40034252446E+03  0.50551767534E+03  0.00000000000E+00 0. -1.
        -11    1    5    5    0    0 -0.35766153424E+02 -0.17436139715E+01  0.96929495701E+01  0.37097320548E+02  0.00000000000E+00 0.  1.
          1    1    6    6  503    0  0.28625758126E+03  0.36960889870E+03  0.14727163569E+02  0.46772965501E+03  0.00000000000E+00 0. -1.
         -1    1    6    6    0  503  0.45904865634E+00  0.36430971886E+02 -0.11501170398E+02  0.38206064423E+02  0.00000000000E+00 0.  1.
<mgrwt>
<rscale>  0 0.17762761E+04</rscale>
<asrwt>0</asrwt>
<pdfrwt beam="1">  1        1 0.15737225E+00 0.17762761E+04</pdfrwt>
<pdfrwt beam="2">  1       -2 0.11863316E+00 0.17762761E+04</pdfrwt>
<totfact> 0.65761347E+00</totfact>
</mgrwt>
</event>
<event>
12    4  0.4486176E-008  0.2745429E+04  0.7818608E-02  0.8320414E-01
          1   -1    0    0  501    0  0.00000000000E+00  0.00000000000E+00  0.20975887008E+04  0.20975887008E+04  0.00000000000E+00 0. -1.
         -2   -1    0    0    0  501 -0.00000000000E+00 -0.00000000000E+00 -0.89833858142E+03  0.89833858142E+03  0.00000000000E+00 0.  1.
        -24    2    1    2    0    0  0.23260227386E+03  0.15841109220E+03  0.18346199510E+04  0.18578560171E+04  0.81244837437E+02 0.  0.
        254    2    1    2    0    0 -0.23260227386E+03 -0.15841109220E+03 -0.63536983165E+03  0.11380712651E+04  0.90128435558E+03 0.  0.
         23    2    4    4    0    0  0.69550215882E+02 -0.32020333140E+03  0.71044555047E+02  0.34744563487E+03  0.91124828775E+02 0.  0.
         23    2    4    4    0    0 -0.30215248974E+03  0.16179223920E+03 -0.70641438670E+03  0.79062563026E+03  0.92707851693E+02 0.  0.
          1    1    3    3  502    0  0.15813889495E+03  0.14961896629E+03  0.13316064090E+04  0.13492847638E+04  0.00000000000E+00 0. -1.
         -2    1    3    3    0  502  0.74463378910E+02  0.87921259149E+01  0.50301354200E+03  0.50857125333E+03  0.00000000000E+00 0.  1.
         11    1    5    5    0    0 -0.76468026191E+01 -0.49176217563E+02  0.40162909098E+02  0.63951803972E+02  0.00000000000E+00 0. -1.
        -11    1    5    5    0    0  0.77197018501E+02 -0.27102711384E+03  0.30881645949E+02  0.28349383090E+03  0.00000000000E+00 0.  1.
          2    1    6    6  503    0 -0.21423705199E+03  0.99551143251E+02 -0.56850091663E+03  0.61563076334E+03  0.00000000000E+00 0. -1.
         -2    1    6    6    0  503 -0.87915437750E+02  0.62241095948E+02 -0.13791347007E+03  0.17499486691E+03  0.00000000000E+00 0.  1.
<mgrwt>
<rscale>  0 0.27454288E+04</rscale>
<asrwt>0</asrwt>
<pdfrwt beam="1">  1        1 0.32270595E+00 0.27454288E+04</pdfrwt>
<pdfrwt beam="2">  1       -2 0.13820594E+00 0.27454288E+04</pdfrwt>
<totfact> 0.72637691E-01</totfact>
</mgrwt>
</event>
<event>
12    4  0.4486176E-008  0.1067377E+04  0.7818608E-02  0.9237585E-01
          1   -1    0    0  501    0  0.00000000000E+00  0.00000000000E+00  0.40040803208E+03  0.40040803208E+03  0.00000000000E+00 0. -1.
         -2   -1    0    0    0  501 -0.00000000000E+00 -0.00000000000E+00 -0.71133304159E+03  0.71133304159E+03  0.00000000000E+00 0.  1.
        -24    2    1    2    0    0 -0.98553693429E+02  0.11472485328E+02  0.44262719328E+02  0.13516448931E+03  0.80410213529E+02 0.  0.
        254    2    1    2    0    0  0.98553693429E+02 -0.11472485328E+02 -0.35518772884E+03  0.97657658437E+03  0.90426713642E+03 0.  0.
         23    2    4    4    0    0  0.42074494119E+03  0.22406553778E+03 -0.27935830300E+03  0.56086679052E+03  0.96430412699E+02 0.  0.
         23    2    4    4    0    0 -0.32219124776E+03 -0.23553802310E+03 -0.75829425842E+02  0.41570979385E+03  0.88199605541E+02 0.  0.
          3    1    3    3  502    0 -0.76880464470E+02 -0.15120476917E+02  0.58742078149E+02  0.97927863168E+02  0.00000000000E+00 0. -1.
         -4    1    3    3    0  502 -0.21673228959E+02  0.26592962245E+02 -0.14479358822E+02  0.37236626141E+02  0.00000000000E+00 0.  1.
         11    1    5    5    0    0  0.28921110160E+03  0.18242759600E+03 -0.15620236150E+03  0.37592827349E+03  0.00000000000E+00 0.  1.
        -11    1    5    5    0    0  0.13153383959E+03  0.41637941771E+02 -0.12315594150E+03  0.18493851703E+03  0.00000000000E+00 0. -1.
          4    1    6    6  503    0 -0.24903222077E+03 -0.20981593987E+03 -0.87741354106E+02  0.33725112428E+03  0.00000000000E+00 0.  1.
         -4    1    6    6    0  503 -0.73159026994E+02 -0.25722083232E+02  0.11911928263E+02  0.78458669575E+02  0.00000000000E+00 0. -1.
<mgrwt>
<rscale>  0 0.10673771E+04</rscale>
<asrwt>0</asrwt>
<pdfrwt beam="1">  1        1 0.61601236E-01 0.10673771E+04</pdfrwt>
<pdfrwt beam="2">  1       -2 0.10943585E+00 0.10673771E+04</pdfrwt>
<totfact> 0.34770363E+01</totfact>
</mgrwt>
</event>
<event>
12    4  0.4486176E-008  0.1701602E+04  0.7818608E-02  0.8760451E-01
         -2   -1    0    0    0  501 -0.00000000000E+00  0.00000000000E+00  0.87049183526E+03  0.87049183526E+03  0.00000000000E+00 0.  1.
          1   -1    0    0  501    0  0.00000000000E+00 -0.00000000000E+00 -0.83155555633E+03  0.83155555633E+03  0.00000000000E+00 0. -1.
        -24    2    1    2    0    0 -0.53265041691E+02  0.34495191705E+03  0.51271260439E+03  0.62566830589E+03  0.82204772058E+02 0.  0.
        254    2    1    2    0    0  0.53265041691E+02 -0.34495191705E+03 -0.47377632546E+03  0.10763790857E+04  0.90127628386E+03 0.  0.
         23    2    4    4    0    0 -0.12861184602E+03 -0.22045014919E+03  0.21604155004E+03  0.34658238899E+03  0.91137949316E+02 0.  0.
         23    2    4    4    0    0  0.18187688771E+03 -0.12450176787E+03 -0.68981787549E+03  0.72979669672E+03  0.90413631181E+02 0.  0.
          3    1    3    3  502    0 -0.52077222578E+02  0.11335936026E+03  0.14708751622E+03  0.19286554668E+03  0.00000000000E+00 0. -1.
         -4    1    3    3    0  502 -0.11878191130E+01  0.23159255679E+03  0.36562508817E+03  0.43280275920E+03  0.00000000000E+00 0.  1.
         11    1    5    5    0    0 -0.12624674611E+03 -0.20936596825E+03  0.16658233205E+03  0.29584121234E+03  0.00000000000E+00 0. -1.
        -11    1    5    5    0    0 -0.23650999037E+01 -0.11084180933E+02  0.49459217984E+02  0.50741176652E+02  0.00000000000E+00 0.  1.
          1    1    6    6  503    0  0.71299811792E+02 -0.14655644582E+01 -0.17204292728E+03  0.18623796570E+03  0.00000000000E+00 0. -1.
         -1    1    6    6    0  503  0.11057707592E+03 -0.12303620341E+03 -0.51777494821E+03  0.54355873102E+03  0.00000000000E+00 0.  1.
<mgrwt>
<rscale>  0 0.17016020E+04</rscale>
<asrwt>0</asrwt>
<pdfrwt beam="1">  1        1 0.12793162E+00 0.17016020E+04</pdfrwt>
<pdfrwt beam="2">  1       -2 0.13392182E+00 0.17016020E+04</pdfrwt>
<totfact> 0.69683327E+00</totfact>
</mgrwt>
</event>
<event>
12    4  0.4486176E-008  0.1785183E+04  0.7818608E-02  0.8714219E-01
         -4   -1    0    0    0  501 -0.00000000000E+00  0.00000000000E+00  0.35713653110E+04  0.35713653110E+04  0.00000000000E+00 0.  1.
          3   -1    0    0  501    0  0.00000000000E+00 -0.00000000000E+00 -0.22308531948E+03  0.22308531948E+03  0.00000000000E+00 0. -1.
        -24    2    1    2    0    0 -0.64138645641E+03 -0.14232576206E+03  0.13224711162E+04  0.14788631767E+04  0.80456405355E+02 0.  0.
        254    2    1    2    0    0  0.64138645641E+03  0.14232576206E+03  0.20258088753E+04  0.23155874538E+04  0.90907120062E+03 0.  0.
         23    2    4    4    0    0  0.24142933044E+03 -0.26657880794E+03  0.14577659081E+04  0.15044119625E+04  0.93922987789E+02 0.  0.
         23    2    4    4    0    0  0.39995712596E+03  0.40890457000E+03  0.56804296721E+03  0.81117549128E+03  0.90356046196E+02 0.  0.
          3    1    3    3  502    0 -0.28566297624E+03 -0.68010378017E+02  0.50324886239E+03  0.58265612930E+03  0.00000000000E+00 0. -1.
         -4    1    3    3    0  502 -0.35572348017E+03 -0.74315384039E+02  0.81922225378E+03  0.89620704736E+03  0.00000000000E+00 0.  1.
         11    1    5    5    0    0  0.16989899226E+03 -0.19352428174E+03  0.85164934108E+03  0.88973249651E+03  0.00000000000E+00 0.  1.
        -11    1    5    5    0    0  0.71530338183E+02 -0.73054526203E+02  0.60611656704E+03  0.61467946599E+03  0.00000000000E+00 0. -1.
          2    1    6    6  503    0  0.28066836525E+03  0.34058115724E+03  0.44375386158E+03  0.62584961898E+03  0.00000000000E+00 0.  1.
         -2    1    6    6    0  503  0.11928876072E+03  0.68323412763E+02  0.12428910563E+03  0.18532587230E+03  0.00000000000E+00 0. -1.
<mgrwt>
<rscale>  0 0.17851825E+04</rscale>
<asrwt>0</asrwt>
<pdfrwt beam="1">  1        3 0.34320821E-01 0.17851825E+04</pdfrwt>
<pdfrwt beam="2">  1       -4 0.54944078E+00 0.17851825E+04</pdfrwt>
<totfact> 0.86157826E-03</totfact>
</mgrwt>
</event>
<event>
12    4  0.4558184E-008  0.2551723E+04  0.7818608E-02  0.8384787E-01
         -2   -1    0    0    0  501 -0.00000000000E+00  0.00000000000E+00  0.13369750654E+04  0.13369750654E+04  0.00000000000E+00 0.  1.
          1   -1    0    0  501    0  0.00000000000E+00 -0.00000000000E+00 -0.12175417112E+04  0.12175417112E+04  0.00000000000E+00 0. -1.
        -24    2    1    2    0    0  0.38235395924E+02 -0.20266982886E+03  0.11493942821E+04  0.11704079470E+04  0.78806988852E+02 0.  0.
        254    2    1    2    0    0 -0.38235395924E+02  0.20266982886E+03 -0.10299609280E+04  0.13841088296E+04  0.90133275434E+03 0.  0.
         23    2    4    4    0    0  0.10680010972E+03 -0.57033537751E+02  0.12014315706E+03  0.19272315517E+03  0.89714817535E+02 0.  0.
         23    2    4    4    0    0 -0.14503550564E+03  0.25970336661E+03 -0.11501040850E+04  0.11913856745E+04  0.90439384930E+02 0.  0.
          1    1    3    3  502    0 -0.18775310676E+02 -0.15969702474E+02  0.98542146621E+02  0.10157804068E+03  0.00000000000E+00 0. -1.
         -2    1    3    3    0  502  0.57010706600E+02 -0.18670012638E+03  0.10508521355E+04  0.10688299063E+04  0.00000000000E+00 0.  1.
         11    1    5    5    0    0  0.12258192255E+03 -0.56141915000E+02  0.10586694812E+03  0.17142360707E+03  0.00000000000E+00 0.  1.
        -11    1    5    5    0    0 -0.15781812835E+02 -0.89162275190E+00  0.14276208940E+02  0.21299548098E+02  0.00000000000E+00 0. -1.
          2    1    6    6  503    0  0.88841212898E+01  0.11226280335E+02 -0.11223379073E+03  0.11314318699E+03  0.00000000000E+00 0. -1.
         -2    1    6    6    0  503 -0.15391962693E+03  0.24847708627E+03 -0.10378702943E+04  0.10782424875E+04  0.00000000000E+00 0.  1.
<mgrwt>
<rscale>  0 0.25517233E+04</rscale>
<asrwt>0</asrwt>
<pdfrwt beam="1">  1        1 0.18731411E+00 0.25517233E+04</pdfrwt>
<pdfrwt beam="2">  1       -2 0.20568847E+00 0.25517233E+04</pdfrwt>
<totfact> 0.98310215E-01</totfact>
</mgrwt>
</event>
<event>
12    4  0.4486176E-008  0.3937522E+04  0.7818608E-02  0.8017270E-01
         -2   -1    0    0    0  501 -0.00000000000E+00  0.00000000000E+00  0.17735631166E+04  0.17735631166E+04  0.00000000000E+00 0.  1.
          1   -1    0    0  501    0  0.00000000000E+00 -0.00000000000E+00 -0.21854427897E+04  0.21854427897E+04  0.00000000000E+00 0. -1.
        -24    2    1    2    0    0 -0.12307901092E+04  0.13980941624E+04 -0.23963898319E+03  0.18796235813E+04  0.77758505684E+02 0.  0.
        254    2    1    2    0    0  0.12307901092E+04 -0.13980941624E+04 -0.17224069000E+03  0.20793823250E+04  0.90810374847E+03 0.  0.
         23    2    4    4    0    0  0.66278488894E+03 -0.45880183715E+03 -0.47146820910E+03  0.93805161399E+03  0.88744709871E+02 0.  0.
         23    2    4    4    0    0  0.56800522031E+03 -0.93929232529E+03  0.29922751910E+03  0.11413307110E+04  0.90546567981E+02 0.  0.
          1    1    3    3  502    0 -0.19929883865E+03  0.20856753328E+03 -0.62999667973E+02  0.29527851461E+03  0.00000000000E+00 0. -1.
         -2    1    3    3    0  502 -0.10314912706E+04  0.11895266292E+04 -0.17663931521E+03  0.15843450667E+04  0.00000000000E+00 0.  1.
         11    1    5    5    0    0  0.20625459098E+03 -0.98560501258E+02 -0.11421652018E+03  0.25553970766E+03  0.00000000000E+00 0. -1.
        -11    1    5    5    0    0  0.45653029796E+03 -0.36024133589E+03 -0.35725168892E+03  0.68251190633E+03  0.00000000000E+00 0.  1.
          3    1    6    6  503    0  0.17879611785E+03 -0.34870366443E+03  0.72049825083E+02  0.39843879660E+03  0.00000000000E+00 0. -1.
         -3    1    6    6    0  503  0.38920910245E+03 -0.59058866086E+03  0.22717769402E+03  0.74289191436E+03  0.00000000000E+00 0.  1.
<mgrwt>
<rscale>  0 0.39375224E+04</rscale>
<asrwt>0</asrwt>
<pdfrwt beam="1">  1        1 0.33622197E+00 0.39375224E+04</pdfrwt>
<pdfrwt beam="2">  1       -2 0.27285586E+00 0.39375224E+04</pdfrwt>
<totfact> 0.71789870E-02</totfact>
</mgrwt>
</event>
<event>
12    4  0.4486176E-008  0.1987213E+04  0.7818608E-02  0.8612622E-01
          1   -1    0    0  501    0  0.00000000000E+00  0.00000000000E+00  0.14026102717E+04  0.14026102717E+04  0.00000000000E+00 0. -1.
         -2   -1    0    0    0  501 -0.00000000000E+00 -0.00000000000E+00 -0.70386927294E+03  0.70386927294E+03  0.00000000000E+00 0.  1.
        -24    2    1    2    0    0  0.74150460586E+03 -0.28512697981E+02  0.49096410190E+01  0.74617706060E+03  0.78192370090E+02 0.  0.
        254    2    1    2    0    0 -0.74150460586E+03  0.28512697981E+02  0.69383135775E+03  0.13603024840E+04  0.90464293544E+03 0.  0.
         23    2    4    4    0    0 -0.45161768093E+03  0.57372864708E+02 -0.12929841132E+03  0.48243357502E+03  0.93669097401E+02 0.  0.
         23    2    4    4    0    0 -0.28988692493E+03 -0.28860166726E+02  0.82312976907E+03  0.87786890902E+03  0.90795739069E+02 0.  0.
          1    1    3    3  502    0  0.55317965812E+03 -0.17045335464E+02  0.37491804238E+02  0.55471065701E+03  0.00000000000E+00 0. -1.
         -2    1    3    3    0  502  0.18832494774E+03 -0.11467362517E+02 -0.32582163219E+02  0.19146640359E+03  0.00000000000E+00 0.  1.
         11    1    5    5    0    0 -0.55004821364E+02 -0.23126082892E+02 -0.98670001253E+01  0.60478953155E+02  0.00000000000E+00 0.  1.
        -11    1    5    5    0    0 -0.39661285956E+03  0.80498947599E+02 -0.11943141119E+03  0.42195462187E+03  0.00000000000E+00 0. -1.
          3    1    6    6  503    0 -0.23237609494E+03 -0.52259981631E+02  0.58147572813E+03  0.62836595833E+03  0.00000000000E+00 0. -1.
         -3    1    6    6    0  503 -0.57510829984E+02  0.23399814904E+02  0.24165404094E+03  0.24950295069E+03  0.00000000000E+00 0.  1.
<mgrwt>
<rscale>  0 0.19872134E+04</rscale>
<asrwt>0</asrwt>
<pdfrwt beam="1">  1        1 0.21578620E+00 0.19872134E+04</pdfrwt>
<pdfrwt beam="2">  1       -2 0.10828758E+00 0.19872134E+04</pdfrwt>
<totfact> 0.42551287E+00</totfact>
</mgrwt>
</event>
<event>
12    4  0.4486176E-008  0.1152612E+04  0.7818608E-02  0.9155377E-01
         -2   -1    0    0    0  501 -0.00000000000E+00  0.00000000000E+00  0.27179095229E+03  0.27179095229E+03  0.00000000000E+00 0.  1.
          1   -1    0    0  501    0  0.00000000000E+00 -0.00000000000E+00 -0.12220007552E+04  0.12220007552E+04  0.00000000000E+00 0. -1.
        -24    2    1    2    0    0 -0.65800809598E+01 -0.16317767884E+03 -0.37229813930E+03  0.41424350305E+03  0.79508005616E+02 0.  0.
        254    2    1    2    0    0  0.65800809598E+01  0.16317767884E+03 -0.57791166358E+03  0.10795482044E+04  0.89709095549E+03 0.  0.
         23    2    4    4    0    0  0.37255947344E+03  0.23834405986E+03 -0.52283174881E+03  0.69084714101E+03  0.91149780838E+02 0.  0.
         23    2    4    4    0    0 -0.36597939248E+03 -0.75166381019E+02 -0.55079914764E+02  0.38870106341E+03  0.91999017010E+02 0.  0.
          1    1    3    3  502    0 -0.26272271283E+01 -0.80986236194E+02 -0.27564013589E+03  0.28730324970E+03  0.00000000000E+00 0. -1.
         -2    1    3    3    0  502 -0.39528538315E+01 -0.82191442645E+02 -0.96658003413E+02  0.12694025335E+03  0.00000000000E+00 0.  1.
         11    1    5    5    0    0 -0.24192214946E+01  0.14575731924E+02 -0.14343029664E+02  0.20591918165E+02  0.00000000000E+00 0. -1.
        -11    1    5    5    0    0  0.37497869494E+03  0.22376832793E+03 -0.50848871915E+03  0.67025522284E+03  0.00000000000E+00 0.  1.
          3    1    6    6  503    0 -0.45823836491E+02 -0.19321753968E+02  0.22494010120E+02  0.54581449765E+02  0.00000000000E+00 0. -1.
         -3    1    6    6    0  503 -0.32015555599E+03 -0.55844627051E+02 -0.77573924884E+02  0.33411961365E+03  0.00000000000E+00 0.  1.
<mgrwt>
<rscale>  0 0.11526122E+04</rscale>
<asrwt>0</asrwt>
<pdfrwt beam="1">  1        1 0.18800012E+00 0.11526122E+04</pdfrwt>
<pdfrwt beam="2">  1       -2 0.41813993E-01 0.11526122E+04</pdfrwt>
<totfact> 0.48592532E+01</totfact>
</mgrwt>
</event>
<event>
12    4  0.4486176E-008  0.1747683E+04  0.7818608E-02  0.8734627E-01
          3   -1    0    0  501    0  0.00000000000E+00  0.00000000000E+00  0.26864232665E+04  0.26864232665E+04  0.00000000000E+00 0. -1.
         -4   -1    0    0    0  501 -0.00000000000E+00 -0.00000000000E+00 -0.28424381015E+03  0.28424381015E+03  0.00000000000E+00 0.  1.
        -24    2    1    2    0    0 -0.28014025528E+03 -0.55401841636E+03  0.11529845847E+04  0.13118815005E+04  0.79023100424E+02 0.  0.
        254    2    1    2    0    0  0.28014025528E+03  0.55401841636E+03  0.12491948716E+04  0.16587855761E+04  0.89758943402E+03 0.  0.
         23    2    4    4    0    0  0.55164912508E+03  0.41041186925E+03  0.53421057715E+03  0.87537840906E+03  0.90287090456E+02 0.  0.
         23    2    4    4    0    0 -0.27150886980E+03  0.14360654711E+03  0.71498429442E+03  0.78340716704E+03  0.90467349688E+02 0.  0.
          1    1    3    3  502    0 -0.24022745309E+03 -0.50733854128E+03  0.99570138211E+03  0.11430323123E+04  0.00000000000E+00 0. -1.
         -2    1    3    3    0  502 -0.39912802192E+02 -0.46679875083E+02  0.15728320263E+03  0.16884918817E+03  0.00000000000E+00 0.  1.
         11    1    5    5    0    0  0.41016762289E+03  0.27949609034E+03  0.42742363100E+03  0.65501641485E+03  0.00000000000E+00 0. -1.
        -11    1    5    5    0    0  0.14148150218E+03  0.13091577890E+03  0.10678694614E+03  0.22036199421E+03  0.00000000000E+00 0.  1.
          3    1    6    6  503    0 -0.59601885110E+02 -0.24891435406E+01  0.95773212432E+02  0.11283212647E+03  0.00000000000E+00 0. -1.
         -3    1    6    6    0  503 -0.21190698469E+03  0.14609569066E+03  0.61921108198E+03  0.67057504057E+03  0.00000000000E+00 0.  1.
<mgrwt>
<rscale>  0 0.17476832E+04</rscale>
<asrwt>0</asrwt>
<pdfrwt beam="1">  1        3 0.41329587E+00 0.17476832E+04</pdfrwt>
<pdfrwt beam="2">  1       -4 0.43729819E-01 0.17476832E+04</pdfrwt>
<totfact> 0.10544059E-01</totfact>
</mgrwt>
</event>
<event>
12    4  0.4486176E-008  0.2123586E+04  0.7818608E-02  0.8550924E-01
         -2   -1    0    0    0  501 -0.00000000000E+00  0.00000000000E+00  0.70781888760E+03  0.70781888760E+03  0.00000000000E+00 0.  1.
          1   -1    0    0  501    0  0.00000000000E+00 -0.00000000000E+00 -0.15927863368E+04  0.15927863368E+04  0.00000000000E+00 0. -1.
        -24    2    1    2    0    0 -0.32762606969E+03  0.68635564235E+03 -0.85651993349E+03  0.11481215034E+04  0.78317818979E+02 0.  0.
        254    2    1    2    0    0  0.32762606969E+03 -0.68635564235E+03 -0.28447515748E+02  0.11524837210E+04  0.86544009428E+03 0.  0.
         23    2    4    4    0    0  0.23194951981E+02  0.58249720947E+02 -0.28081092343E+03  0.30431892931E+03  0.99117103606E+02 0.  0.
         23    2    4    4    0    0  0.30443111771E+03 -0.74460536330E+03  0.25236340768E+03  0.84816479174E+03  0.92632456057E+02 0.  0.
          3    1    3    3  502    0 -0.31524509394E+03  0.64193844286E+03 -0.82714046282E+03  0.10934467426E+04  0.00000000000E+00 0. -1.
         -4    1    3    3    0  502 -0.12380975749E+02  0.44417199491E+02 -0.29379470674E+02  0.54674760797E+02  0.00000000000E+00 0.  1.
         11    1    5    5    0    0  0.57622318606E+00  0.24558373359E+02 -0.44134506005E+01  0.24958451102E+02  0.00000000000E+00 0. -1.
        -11    1    5    5    0    0  0.22618728795E+02  0.33691347588E+02 -0.27639747283E+03  0.27936047820E+03  0.00000000000E+00 0.  1.
          4    1    6    6  503    0  0.99638908925E+02 -0.18836843358E+03  0.10409560461E+03  0.23716339060E+03  0.00000000000E+00 0. -1.
         -4    1    6    6    0  503  0.20479220879E+03 -0.55623692972E+03  0.14826780308E+03  0.61100140114E+03  0.00000000000E+00 0.  1.
<mgrwt>
<rscale>  0 0.21235859E+04</rscale>
<asrwt>0</asrwt>
<pdfrwt beam="1">  1        1 0.24504405E+00 0.21235859E+04</pdfrwt>
<pdfrwt beam="2">  1       -2 0.10889521E+00 0.21235859E+04</pdfrwt>
<totfact> 0.30620983E+00</totfact>
</mgrwt>
</event>
<event>
12    4  0.4486176E-008  0.1418784E+04  0.7818608E-02  0.8940333E-01
         -2   -1    0    0    0  501 -0.00000000000E+00  0.00000000000E+00  0.73930968636E+03  0.73930968636E+03  0.00000000000E+00 0.  1.
          1   -1    0    0  501    0  0.00000000000E+00 -0.00000000000E+00 -0.68068462427E+03  0.68068462427E+03  0.00000000000E+00 0. -1.
        -24    2    1    2    0    0 -0.27181793551E+03  0.15608733736E+03  0.28979590040E+03  0.43476066883E+03  0.82382815679E+02 0.  0.
        254    2    1    2    0    0  0.27181793551E+03 -0.15608733736E+03 -0.23117083831E+03  0.98523364179E+03  0.90498459958E+03 0.  0.
         23    2    4    4    0    0  0.30722762168E+03 -0.39635805748E+03  0.14353268599E+03  0.52957488088E+03  0.91429761296E+02 0.  0.
         23    2    4    4    0    0 -0.35409686168E+02  0.24027072012E+03 -0.37470352430E+03  0.45565876092E+03  0.90765138973E+02 0.  0.
          1    1    3    3  502    0 -0.13674587013E+03  0.80037233308E+02  0.91157987718E+02  0.18279816859E+03  0.00000000000E+00 0. -1.
         -4    1    3    3    0  502 -0.13507206538E+03  0.76050104053E+02  0.19863791269E+03  0.25196250025E+03  0.00000000000E+00 0.  1.
         11    1    5    5    0    0  0.25634517761E+03 -0.26678464908E+03  0.11532943294E+03  0.38754067808E+03  0.00000000000E+00 0.  1.
        -11    1    5    5    0    0  0.50882444076E+02 -0.12957340840E+03  0.28203253049E+02  0.14203420279E+03  0.00000000000E+00 0. -1.
          2    1    6    6  503    0  0.66381932372E+00  0.19420727208E+03 -0.23954898206E+03  0.30838388413E+03  0.00000000000E+00 0. -1.
         -2    1    6    6    0  503 -0.36073505491E+02  0.46063448045E+02 -0.13515454225E+03  0.14727487679E+03  0.00000000000E+00 0.  1.
<mgrwt>
<rscale>  0 0.14187836E+04</rscale>
<asrwt>0</asrwt>
<pdfrwt beam="1">  1        1 0.10472071E+00 0.14187836E+04</pdfrwt>
<pdfrwt beam="2">  1       -2 0.11373995E+00 0.14187836E+04</pdfrwt>
<totfact> 0.14674827E+01</totfact>
</mgrwt>
</event>
<event>
12    4  0.4486176E-008  0.1370782E+04  0.7818608E-02  0.8975244E-01
          3   -1    0    0  501    0  0.00000000000E+00  0.00000000000E+00  0.53983887327E+03  0.53983887327E+03  0.00000000000E+00 0. -1.
         -4   -1    0    0    0  501 -0.00000000000E+00 -0.00000000000E+00 -0.87018730963E+03  0.87018730963E+03  0.00000000000E+00 0.  1.
        -24    2    1    2    0    0 -0.17730840257E+03  0.14771409380E+03 -0.42037490546E+03  0.48632225591E+03  0.80848947555E+02 0.  0.
        254    2    1    2    0    0  0.17730840257E+03 -0.14771409380E+03  0.90026469093E+02  0.92370392699E+03  0.88986878610E+03 0.  0.
         23    2    4    4    0    0  0.36789540502E+02 -0.32924814880E+03  0.39995575511E+03  0.52752351830E+03  0.92512931749E+02 0.  0.
         23    2    4    4    0    0  0.14051886207E+03  0.18153405499E+03 -0.30992928602E+03  0.39618040869E+03  0.90568152126E+02 0.  0.
          3    1    3    3  502    0 -0.19217554774E+02  0.98316391218E+01 -0.68731199376E+01  0.22654256046E+02  0.00000000000E+00 0. -1.
         -4    1    3    3    0  502 -0.15809084780E+03  0.13788245468E+03 -0.41350178552E+03  0.46366799986E+03  0.00000000000E+00 0.  1.
         11    1    5    5    0    0  0.26024809569E+02 -0.16975322431E+03  0.13655836969E+03  0.21941202385E+03  0.00000000000E+00 0. -1.
        -11    1    5    5    0    0  0.10764730933E+02 -0.15949492448E+03  0.26339738542E+03  0.30811149445E+03  0.00000000000E+00 0.  1.
          1    1    6    6  503    0  0.18040682721E+02  0.54305819182E+02 -0.28496111745E+02  0.63926650269E+02  0.00000000000E+00 0. -1.
         -1    1    6    6    0  503  0.12247817935E+03  0.12722823581E+03 -0.28143317427E+03  0.33225375842E+03  0.00000000000E+00 0.  1.
<mgrwt>
<rscale>  0 0.13707822E+04</rscale>
<asrwt>0</asrwt>
<pdfrwt beam="1">  1        3 0.83052134E-01 0.13707822E+04</pdfrwt>
<pdfrwt beam="2">  1       -4 0.13387497E+00 0.13707822E+04</pdfrwt>
<totfact> 0.11981850E+00</totfact>
</mgrwt>
</event>
<event>
12    4  0.4486176E-008  0.1560919E+04  0.7818608E-02  0.8844923E-01
          1   -1    0    0  501    0  0.00000000000E+00  0.00000000000E+00  0.71527689280E+03  0.71527689280E+03  0.00000000000E+00 0. -1.
         -2   -1    0    0    0  501 -0.00000000000E+00 -0.00000000000E+00 -0.85158224690E+03  0.85158224690E+03  0.00000000000E+00 0.  1.
        -24    2    1    2    0    0  0.48174955768E+02 -0.51804293400E+03 -0.67391188549E+02  0.53069856895E+03  0.80063043699E+02 0.  0.
        254    2    1    2    0    0 -0.48174955768E+02  0.51804293400E+03 -0.68914165555E+02  0.10361605707E+04  0.89341494185E+03 0.  0.
         23    2    4    4    0    0 -0.17609272231E+03  0.70916229916E+03  0.90390592762E+02  0.74205412905E+03  0.92488149364E+02 0.  0.
         23    2    4    4    0    0  0.12791776654E+03 -0.19111936517E+03 -0.15930475832E+03  0.29410644170E+03  0.90725003646E+02 0.  0.
          3    1    3    3  502    0  0.13732282689E+02 -0.10823888288E+02 -0.66016838161E+01  0.18689953845E+02  0.00000000000E+00 0. -1.
         -4    1    3    3    0  502  0.34442673079E+02 -0.50721904571E+03 -0.60789504732E+02  0.51200861511E+03  0.00000000000E+00 0.  1.
         11    1    5    5    0    0 -0.13822418251E+03  0.57426499264E+03  0.10923214350E+03  0.60068116965E+03  0.00000000000E+00 0.  1.
        -11    1    5    5    0    0 -0.37868539794E+02  0.13489730653E+03 -0.18841550740E+02  0.14137295940E+03  0.00000000000E+00 0. -1.
          1    1    6    6  503    0  0.16671648497E+02  0.84615626652E+01 -0.13443305857E+02  0.23027470089E+02  0.00000000000E+00 0. -1.
         -1    1    6    6    0  503  0.11124611804E+03 -0.19958092783E+03 -0.14586145246E+03  0.27107897161E+03  0.00000000000E+00 0.  1.
<mgrwt>
<rscale>  0 0.15609191E+04</rscale>
<asrwt>0</asrwt>
<pdfrwt beam="1">  1        1 0.11004260E+00 0.15609191E+04</pdfrwt>
<pdfrwt beam="2">  1       -2 0.13101265E+00 0.15609191E+04</pdfrwt>
<totfact> 0.94582816E+00</totfact>
</mgrwt>
</event>
<event>
12    4  0.4486176E-008  0.1361612E+04  0.7818608E-02  0.8982085E-01
         -2   -1    0    0    0  501 -0.00000000000E+00  0.00000000000E+00  0.12864596436E+04  0.12864596436E+04  0.00000000000E+00 0.  1.
          1   -1    0    0  501    0  0.00000000000E+00 -0.00000000000E+00 -0.36028840170E+03  0.36028840170E+03  0.00000000000E+00 0. -1.
        -24    2    1    2    0    0  0.18999892361E+03 -0.18273105717E+03 -0.65414450749E+02  0.28370686750E+03  0.81977472962E+02 0.  0.
        254    2    1    2    0    0 -0.18999892361E+03  0.18273105717E+03  0.99158569260E+03  0.13630411778E+04  0.89730086162E+03 0.  0.
         23    2    4    4    0    0 -0.10792130182E+03 -0.18467583225E+03 -0.60546855041E+02  0.24124961714E+03  0.93719185406E+02 0.  0.
         23    2    4    4    0    0 -0.82077621785E+02  0.36740688941E+03  0.10521325476E+04  0.11217915606E+04  0.98533493091E+02 0.  0.
          1    1    3    3  502    0  0.13968032245E+03 -0.98608538217E+02 -0.71870334999E+02  0.18547124128E+03  0.00000000000E+00 0. -1.
         -4    1    3    3    0  502  0.50318601158E+02 -0.84122518950E+02  0.64558842500E+01  0.98235626218E+02  0.00000000000E+00 0.  1.
         11    1    5    5    0    0 -0.74627998089E+02 -0.75990466793E+02 -0.69579306395E+02  0.12722094568E+03  0.00000000000E+00 0.  1.
        -11    1    5    5    0    0 -0.33293303735E+02 -0.10868536545E+03  0.90324513543E+01  0.11402867146E+03  0.00000000000E+00 0. -1.
          1    1    6    6  503    0 -0.10125793103E+03  0.24397995819E+03  0.72477546343E+03  0.77141354732E+03  0.00000000000E+00 0. -1.
         -1    1    6    6    0  503  0.19180309250E+02  0.12342693123E+03  0.32735708421E+03  0.35037801329E+03  0.00000000000E+00 0.  1.
<mgrwt>
<rscale>  0 0.13616115E+04</rscale>
<asrwt>0</asrwt>
<pdfrwt beam="1">  1        1 0.55428986E-01 0.13616115E+04</pdfrwt>
<pdfrwt beam="2">  1       -2 0.19791687E+00 0.13616115E+04</pdfrwt>
<totfact> 0.80759654E+00</totfact>
</mgrwt>
</event>
<event>
12    4  0.4486176E-008  0.2144724E+04  0.7818608E-02  0.8541794E-01
          3   -1    0    0  501    0  0.00000000000E+00  0.00000000000E+00  0.97399839198E+03  0.97399839198E+03  0.00000000000E+00 0. -1.
         -4   -1    0    0    0  501 -0.00000000000E+00 -0.00000000000E+00 -0.11806596441E+04  0.11806596441E+04  0.00000000000E+00 0.  1.
        -24    2    1    2    0    0 -0.57029016110E+03 -0.48150071746E+03 -0.55544622345E+03  0.93381080012E+03  0.80051823990E+02 0.  0.
        254    2    1    2    0    0  0.57029016110E+03  0.48150071746E+03  0.34878497131E+03  0.12208472360E+04  0.90096792874E+03 0.  0.
         23    2    4    4    0    0  0.60236173486E+02  0.56394552543E+03  0.38928474017E+03  0.69457961710E+03  0.96100381427E+02 0.  0.
         23    2    4    4    0    0  0.51005398762E+03 -0.82444807976E+02 -0.40499768860E+02  0.52626761888E+03  0.91461241805E+02 0.  0.
          3    1    3    3  502    0 -0.22303577811E+03 -0.14501275092E+03 -0.22135782459E+03  0.34608227743E+03  0.00000000000E+00 0. -1.
         -4    1    3    3    0  502 -0.34725438300E+03 -0.33648796654E+03 -0.33408839886E+03  0.58772852269E+03  0.00000000000E+00 0.  1.
         11    1    5    5    0    0  0.21412942241E+02  0.49808677786E+03  0.34423048308E+03  0.60584121505E+03  0.00000000000E+00 0. -1.
        -11    1    5    5    0    0  0.38823231245E+02  0.65858747571E+02  0.45054257091E+02  0.88738402047E+02  0.00000000000E+00 0.  1.
          3    1    6    6  503    0  0.50317714060E+03 -0.88707685732E+02 -0.29394238144E+02  0.51178150569E+03  0.00000000000E+00 0. -1.
         -3    1    6    6    0  503  0.68768470145E+01  0.62628777555E+01 -0.11105530717E+02  0.14486113183E+02  0.00000000000E+00 0.  1.
<mgrwt>
<rscale>  0 0.21447243E+04</rscale>
<asrwt>0</asrwt>
<pdfrwt beam="1">  1        3 0.14984591E+00 0.21447243E+04</pdfrwt>
<pdfrwt beam="2">  1       -4 0.18163995E+00 0.21447243E+04</pdfrwt>
<totfact> 0.11916537E-01</totfact>
</mgrwt>
</event>
<event>
12    4  0.4486176E-008  0.1677119E+04  0.7818608E-02  0.8774523E-01
          1   -1    0    0  501    0  0.00000000000E+00  0.00000000000E+00  0.29814664305E+03  0.29814664305E+03  0.00000000000E+00 0. -1.
         -2   -1    0    0    0  501 -0.00000000000E+00 -0.00000000000E+00 -0.23585107091E+04  0.23585107091E+04  0.00000000000E+00 0.  1.
        -24    2    1    2    0    0  0.15299796044E+03 -0.42607000243E+03 -0.12923186515E+03  0.47724086049E+03  0.78191694427E+02 0.  0.
        254    2    1    2    0    0 -0.15299796044E+03  0.42607000243E+03 -0.19311322009E+04  0.21794164916E+04  0.90312825440E+03 0.  0.
         23    2    4    4    0    0  0.34143742349E+03  0.13879048518E+03 -0.45440359928E+03  0.59284750741E+03  0.95620202193E+02 0.  0.
         23    2    4    4    0    0 -0.49443538392E+03  0.28727951726E+03 -0.14767286016E+04  0.15865689842E+04  0.97354553298E+02 0.  0.
          1    1    3    3  502    0  0.11612077672E+03 -0.38975144172E+03 -0.10459119997E+03  0.41991611093E+03  0.00000000000E+00 0. -1.
         -2    1    3    3    0  502  0.36877183720E+02 -0.36318560718E+02 -0.24640665179E+02  0.57324749561E+02  0.00000000000E+00 0.  1.
         11    1    5    5    0    0  0.20699774306E+02  0.31999408923E+02 -0.22069080840E+02  0.44039608954E+02  0.00000000000E+00 0. -1.
        -11    1    5    5    0    0  0.32073764918E+03  0.10679107625E+03 -0.43233451844E+03  0.54880789845E+03  0.00000000000E+00 0.  1.
          2    1    6    6  503    0 -0.10377322349E+03  0.10737718389E+03 -0.34874746918E+03  0.37937255935E+03  0.00000000000E+00 0. -1.
         -2    1    6    6    0  503 -0.39066216044E+03  0.17990233336E+03 -0.11279811324E+04  0.12071964249E+04  0.00000000000E+00 0.  1.
<mgrwt>
<rscale>  0 0.16771190E+04</rscale>
<asrwt>0</asrwt>
<pdfrwt beam="1">  1        1 0.45868715E-01 0.16771190E+04</pdfrwt>
<pdfrwt beam="2">  1       -2 0.36284780E+00 0.16771190E+04</pdfrwt>
<totfact> 0.95478364E-01</totfact>
</mgrwt>
</event>
<event>
12    4  0.4486176E-008  0.1270658E+04  0.7818608E-02  0.9053163E-01
         -2   -1    0    0    0  501 -0.00000000000E+00  0.00000000000E+00  0.40663989721E+03  0.40663989721E+03  0.00000000000E+00 0.  1.
          1   -1    0    0  501    0  0.00000000000E+00 -0.00000000000E+00 -0.99262965864E+03  0.99262965864E+03  0.00000000000E+00 0. -1.
        -24    2    1    2    0    0 -0.31725749876E+02  0.23438097334E+03  0.64154380019E+02  0.25944960893E+03  0.85190088802E+02 0.  0.
        254    2    1    2    0    0  0.31725749876E+02 -0.23438097334E+03 -0.65014414146E+03  0.11398199469E+04  0.90584830014E+03 0.  0.
         23    2    4    4    0    0  0.13432760544E+03 -0.55671958642E+03 -0.34903868738E+03  0.67736157082E+03  0.94921487866E+02 0.  0.
         23    2    4    4    0    0 -0.10260185556E+03  0.32233861308E+03 -0.30110545408E+03  0.46245837610E+03  0.93669274058E+02 0.  0.
          1    1    3    3  502    0 -0.64199387746E+01  0.34384250528E+02 -0.20792361065E+02  0.40691701573E+02  0.00000000000E+00 0. -1.
         -2    1    3    3    0  502 -0.25305811102E+02  0.19999672281E+03  0.84946741084E+02  0.21875790736E+03  0.00000000000E+00 0.  1.
         11    1    5    5    0    0  0.31613546256E+02 -0.30801335129E+03 -0.16011790925E+03  0.34858196416E+03  0.00000000000E+00 0. -1.
        -11    1    5    5    0    0  0.10271405918E+03 -0.24870623513E+03 -0.18892077813E+03  0.32877960666E+03  0.00000000000E+00 0.  1.
          2    1    6    6  503    0 -0.69844104921E+02  0.29847906449E+03 -0.24084704991E+03  0.38984003435E+03  0.00000000000E+00 0. -1.
         -2    1    6    6    0  503 -0.32757750639E+02  0.23859548591E+02 -0.60258404165E+02  0.72618341749E+02  0.00000000000E+00 0.  1.
<mgrwt>
<rscale>  0 0.12706578E+04</rscale>
<asrwt>0</asrwt>
<pdfrwt beam="1">  1        1 0.15271225E+00 0.12706578E+04</pdfrwt>
<pdfrwt beam="2">  1       -2 0.62559985E-01 0.12706578E+04</pdfrwt>
<totfact> 0.31368974E+01</totfact>
</mgrwt>
</event>
<event>
12    4  0.4486176E-008  0.2482635E+04  0.7818608E-02  0.8409198E-01
          1   -1    0    0  501    0  0.00000000000E+00  0.00000000000E+00  0.27109879862E+04  0.27109879862E+04  0.00000000000E+00 0. -1.
         -2   -1    0    0    0  501 -0.00000000000E+00 -0.00000000000E+00 -0.56837920947E+03  0.56837920947E+03  0.00000000000E+00 0.  1.
        -24    2    1    2    0    0  0.78780170851E+03  0.21505476522E+03  0.18487443869E+04  0.20225713529E+04  0.77839487329E+02 0.  0.
        254    2    1    2    0    0 -0.78780170851E+03 -0.21505476522E+03  0.29386438983E+03  0.12567958427E+04  0.90901013560E+03 0.  0.
         23    2    4    4    0    0 -0.12139143534E+03  0.32375075751E+03  0.12390174179E+03  0.37822597560E+03  0.90292931302E+02 0.  0.
         23    2    4    4    0    0 -0.66641027317E+03 -0.53880552273E+03  0.16996264805E+03  0.87856986709E+03  0.92648076723E+02 0.  0.
          3    1    3    3  502    0  0.66793507842E+03  0.16676602932E+03  0.16120220810E+04  0.17528728896E+04  0.00000000000E+00 0. -1.
         -4    1    3    3    0  502  0.11986663009E+03  0.48288735899E+02  0.23672230583E+03  0.26969846329E+03  0.00000000000E+00 0.  1.
         11    1    5    5    0    0 -0.34634055493E+02  0.19024032281E+03  0.98433012692E+02  0.21697916077E+03  0.00000000000E+00 0.  1.
        -11    1    5    5    0    0 -0.86757379845E+02  0.13351043470E+03  0.25468729093E+02  0.16124681483E+03  0.00000000000E+00 0. -1.
          3    1    6    6  503    0 -0.60116732963E+02 -0.46619558143E+02  0.43024168704E+02  0.87398420330E+02  0.00000000000E+00 0. -1.
         -3    1    6    6    0  503 -0.60629354020E+03 -0.49218596458E+03  0.12693847934E+03  0.79117144676E+03  0.00000000000E+00 0.  1.
<mgrwt>
<rscale>  0 0.24826351E+04</rscale>
<asrwt>0</asrwt>
<pdfrwt beam="1">  1        1 0.41707507E+00 0.24826351E+04</pdfrwt>
<pdfrwt beam="2">  1       -2 0.87442957E-01 0.24826351E+04</pdfrwt>
<totfact> 0.85145748E-01</totfact>
</mgrwt>
</event>
<event>
12    4  0.4486176E-008  0.1332919E+04  0.7818608E-02  0.9003859E-01
         -2   -1    0    0    0  501 -0.00000000000E+00  0.00000000000E+00  0.15460543250E+03  0.15460543250E+03  0.00000000000E+00 0.  1.
          1   -1    0    0  501    0  0.00000000000E+00 -0.00000000000E+00 -0.28729171305E+04  0.28729171305E+04  0.00000000000E+00 0. -1.
        -24    2    1    2    0    0 -0.25184339402E+02 -0.10454827246E+03  0.25359463789E+02  0.13525752997E+03  0.78018618195E+02 0.  0.
        254    2    1    2    0    0  0.25184339402E+02  0.10454827246E+03 -0.27436711618E+04  0.28922650330E+04  0.90879094681E+03 0.  0.
         23    2    4    4    0    0  0.27470974925E+03  0.20449902765E+02 -0.25155381838E+04  0.25322653100E+04  0.92474867541E+02 0.  0.
         23    2    4    4    0    0 -0.24952540985E+03  0.84098369691E+02 -0.22813297801E+03  0.35999972306E+03  0.90662445383E+02 0.  0.
          1    1    3    3  502    0  0.11156539988E+02  0.62878141158E+01  0.12522721333E+02  0.17911547685E+02  0.00000000000E+00 0. -1.
         -2    1    3    3    0  502 -0.36340879391E+02 -0.11083608657E+03  0.12836742456E+02  0.11734598228E+03  0.00000000000E+00 0.  1.
         11    1    5    5    0    0  0.46759545189E+02  0.53489184066E+01 -0.82768371656E+03  0.82902074802E+03  0.00000000000E+00 0. -1.
        -11    1    5    5    0    0  0.22795020407E+03  0.15100984358E+02 -0.16878544672E+04  0.17032445620E+04  0.00000000000E+00 0.  1.
          1    1    6    6  503    0 -0.51213906582E+02  0.50083515492E+02 -0.93993183203E+02  0.11817758349E+03  0.00000000000E+00 0. -1.
         -1    1    6    6    0  503 -0.19831150327E+03  0.34014854199E+02 -0.13413979480E+03  0.24182213957E+03  0.00000000000E+00 0.  1.
<mgrwt>
<rscale>  0 0.13329195E+04</rscale>
<asrwt>0</asrwt>
<pdfrwt beam="1">  1        1 0.44198722E+00 0.13329195E+04</pdfrwt>
<pdfrwt beam="2">  1       -2 0.23785453E-01 0.13329195E+04</pdfrwt>
<totfact> 0.10061549E+01</totfact>
</mgrwt>
</event>
<event>
12    4  0.4486176E-008  0.1347443E+04  0.7818608E-02  0.8992766E-01
         -2   -1    0    0    0  501 -0.00000000000E+00  0.00000000000E+00  0.24078314361E+04  0.24078314361E+04  0.00000000000E+00 0.  1.
          1   -1    0    0  501    0  0.00000000000E+00 -0.00000000000E+00 -0.18851012513E+03  0.18851012513E+03  0.00000000000E+00 0. -1.
        -24    2    1    2    0    0  0.17310150265E+03 -0.10921175772E+03  0.33407629425E+02  0.22440679634E+03  0.85737986290E+02 0.  0.
        254    2    1    2    0    0 -0.17310150265E+03  0.10921175772E+03  0.21859136816E+04  0.23719347649E+04  0.89775529381E+03 0.  0.
         23    2    4    4    0    0  0.34196103326E+03 -0.67869344633E+01  0.58356335032E+03  0.68238345005E+03  0.90097604422E+02 0.  0.
         23    2    4    4    0    0 -0.51506253591E+03  0.11599869218E+03  0.16023503313E+04  0.16895513149E+04  0.91169891094E+02 0.  0.
          1    1    3    3  502    0  0.42417975353E+02 -0.75870338384E+02  0.16600647144E+02  0.88493922758E+02  0.00000000000E+00 0. -1.
         -2    1    3    3    0  502  0.13068352730E+03 -0.33341419336E+02  0.16806982281E+02  0.13591287358E+03  0.00000000000E+00 0.  1.
         11    1    5    5    0    0  0.34035464809E+03 -0.18932247969E+02  0.55532875122E+03  0.65160550828E+03  0.00000000000E+00 0. -1.
        -11    1    5    5    0    0  0.16063851699E+01  0.12145313506E+02  0.28234599094E+02  0.30777941768E+02  0.00000000000E+00 0.  1.
          2    1    6    6  503    0 -0.15081792206E+03  0.67724636350E+02  0.58363542773E+03  0.60659952562E+03  0.00000000000E+00 0. -1.
         -2    1    6    6    0  503 -0.36424461386E+03  0.48274055834E+02  0.10187149035E+04  0.10829517893E+04  0.00000000000E+00 0.  1.
<mgrwt>
<rscale>  0 0.13474429E+04</rscale>
<asrwt>0</asrwt>
<pdfrwt beam="1">  1        1 0.29001560E-01 0.13474429E+04</pdfrwt>
<pdfrwt beam="2">  1       -2 0.37043558E+00 0.13474429E+04</pdfrwt>
<totfact> 0.16014441E+00</totfact>
</mgrwt>
</event>
<event>
12    4  0.4486176E-008  0.1606670E+04  0.7818608E-02  0.8816461E-01
         -2   -1    0    0    0  501 -0.00000000000E+00  0.00000000000E+00  0.65352981662E+03  0.65352981662E+03  0.00000000000E+00 0.  1.
          1   -1    0    0  501    0  0.00000000000E+00 -0.00000000000E+00 -0.98747890232E+03  0.98747890232E+03  0.00000000000E+00 0. -1.
        -24    2    1    2    0    0  0.28949804505E+02 -0.55356791752E+03 -0.88161654924E+02  0.56766956724E+03  0.84857113301E+02 0.  0.
        254    2    1    2    0    0 -0.28949804505E+02  0.55356791752E+03 -0.24578743078E+03  0.10733391517E+04  0.88564662421E+03 0.  0.
         23    2    4    4    0    0  0.27369516448E+03  0.51373761465E+03  0.10749140106E+03  0.59784907718E+03  0.83867383517E+02 0.  0.
         23    2    4    4    0    0 -0.30264496899E+03  0.39830302871E+02 -0.35327883184E+03  0.47549007452E+03  0.90024705857E+02 0.  0.
          3    1    3    3  502    0  0.37680900255E+02 -0.12948110705E+03 -0.22013568390E+01  0.13487050567E+03  0.00000000000E+00 0. -1.
         -4    1    3    3    0  502 -0.87310957500E+01 -0.42408681047E+03 -0.85960298085E+02  0.43279906157E+03  0.00000000000E+00 0.  1.
         11    1    5    5    0    0  0.40995977722E+02  0.38320697579E+02  0.27619092178E+02  0.62545665757E+02  0.00000000000E+00 0.  1.
        -11    1    5    5    0    0  0.23269918676E+03  0.47541691707E+03  0.79872308886E+02  0.53530341143E+03  0.00000000000E+00 0. -1.
          1    1    6    6  503    0 -0.24840181339E+03  0.82443348529E+01 -0.23738923562E+03  0.34369329226E+03  0.00000000000E+00 0. -1.
         -1    1    6    6    0  503 -0.54243155598E+02  0.31585968019E+02 -0.11588959622E+03  0.13179678227E+03  0.00000000000E+00 0.  1.
<mgrwt>
<rscale>  0 0.16066697E+04</rscale>
<asrwt>0</asrwt>
<pdfrwt beam="1">  1        1 0.15191983E+00 0.16066697E+04</pdfrwt>
<pdfrwt beam="2">  1       -2 0.10054305E+00 0.16066697E+04</pdfrwt>
<totfact> 0.10610254E+01</totfact>
</mgrwt>
</event>
<event>
12    4  0.4486176E-008  0.1117071E+04  0.7818608E-02  0.9188711E-01
          1   -1    0    0  501    0  0.00000000000E+00  0.00000000000E+00  0.10967476416E+04  0.10967476416E+04  0.00000000000E+00 0. -1.
         -2   -1    0    0    0  501 -0.00000000000E+00 -0.00000000000E+00 -0.28444265615E+03  0.28444265615E+03  0.00000000000E+00 0.  1.
        -24    2    1    2    0    0 -0.23697470745E+02 -0.21304807572E+01 -0.81244877212E+02  0.11600858168E+03  0.79316781848E+02 0.  0.
        254    2    1    2    0    0  0.23697470745E+02  0.21304807572E+01  0.89354986263E+03  0.12651817160E+04  0.89536992832E+03 0.  0.
         23    2    4    4    0    0 -0.76902794322E+02 -0.39612233119E+03  0.21410639420E+03  0.46579055482E+03  0.91062351589E+02 0.  0.
         23    2    4    4    0    0  0.10060026507E+03  0.39825281195E+03  0.67944346843E+03  0.79939116123E+03  0.93043464554E+02 0.  0.
          3    1    3    3  502    0  0.22709474443E+02  0.13671527601E+02 -0.53430021653E+02  0.59643927690E+02  0.00000000000E+00 0. -1.
         -4    1    3    3    0  502 -0.46406945188E+02 -0.15802008358E+02 -0.27814855559E+02  0.56364653992E+02  0.00000000000E+00 0.  1.
         11    1    5    5    0    0 -0.71952380804E+02 -0.27867807778E+03  0.10792780090E+03  0.30738742060E+03  0.00000000000E+00 0. -1.
        -11    1    5    5    0    0 -0.49504135186E+01 -0.11744425342E+03  0.10617859330E+03  0.15840313422E+03  0.00000000000E+00 0.  1.
          4    1    6    6  503    0  0.45080268370E+02  0.10375598705E+03  0.12119304533E+03  0.16578688031E+03  0.00000000000E+00 0.  1.
         -4    1    6    6    0  503  0.55519996697E+02  0.29449682490E+03  0.55825042310E+03  0.63360428092E+03  0.00000000000E+00 0. -1.
<mgrwt>
<rscale>  0 0.11170708E+04</rscale>
<asrwt>0</asrwt>
<pdfrwt beam="1">  1        1 0.16873040E+00 0.11170708E+04</pdfrwt>
<pdfrwt beam="2">  1       -2 0.43760409E-01 0.11170708E+04</pdfrwt>
<totfact> 0.55092120E+01</totfact>
</mgrwt>
</event>
<event>
12    4  0.4486176E-008  0.1368907E+04  0.7818608E-02  0.8976638E-01
          1   -1    0    0  501    0  0.00000000000E+00  0.00000000000E+00  0.19636074666E+04  0.19636074666E+04  0.00000000000E+00 0. -1.
         -2   -1    0    0    0  501 -0.00000000000E+00 -0.00000000000E+00 -0.23857945061E+03  0.23857945061E+03  0.00000000000E+00 0.  1.
        -24    2    1    2    0    0  0.43145671474E+02 -0.37236815737E+03  0.38796589505E+03  0.54565547358E+03  0.81870425244E+02 0.  0.
        254    2    1    2    0    0 -0.43145671474E+02  0.37236815737E+03  0.13370621209E+04  0.16565314436E+04  0.90323956674E+03 0.  0.
         23    2    4    4    0    0 -0.26074524522E+02  0.87804758074E+02 -0.11528312753E+03  0.17395823946E+03  0.92637536738E+02 0.  0.
         23    2    4    4    0    0 -0.17071146953E+02  0.28456339930E+03  0.14523452485E+04  0.14825732042E+04  0.86306620215E+02 0.  0.
          1    1    3    3  502    0 -0.17762543950E+00 -0.93545016572E+02  0.14881281888E+03  0.17577245728E+03  0.00000000000E+00 0. -1.
         -2    1    3    3    0  502  0.43323296914E+02 -0.27882314080E+03  0.23915307618E+03  0.36988301630E+03  0.00000000000E+00 0.  1.
         11    1    5    5    0    0  0.42906675134E+01  0.98048373862E+02 -0.84158090304E+02  0.12928448325E+03  0.00000000000E+00 0. -1.
        -11    1    5    5    0    0 -0.30365192035E+02 -0.10243615788E+02 -0.31125037230E+02  0.44673756215E+02  0.00000000000E+00 0.  1.
          2    1    6    6  503    0  0.10289170848E+02  0.10328085309E+03  0.72920288331E+03  0.73655254170E+03  0.00000000000E+00 0. -1.
         -2    1    6    6    0  503 -0.27360317800E+02  0.18128254620E+03  0.72314236517E+03  0.74602066248E+03  0.00000000000E+00 0.  1.
<mgrwt>
<rscale>  0 0.13689067E+04</rscale>
<asrwt>0</asrwt>
<pdfrwt beam="1">  1        1 0.30209345E+00 0.13689067E+04</pdfrwt>
<pdfrwt beam="2">  1       -2 0.36704532E-01 0.13689067E+04</pdfrwt>
<totfact> 0.18938850E+01</totfact>
</mgrwt>
</event>
<event>
12    4  0.4486176E-008  0.1658470E+04  0.7818608E-02  0.8785411E-01
         -2   -1    0    0    0  501 -0.00000000000E+00  0.00000000000E+00  0.42973157013E+03  0.42973157013E+03  0.00000000000E+00 0.  1.
          1   -1    0    0  501    0  0.00000000000E+00 -0.00000000000E+00 -0.16001405073E+04  0.16001405073E+04  0.00000000000E+00 0. -1.
        -24    2    1    2    0    0  0.18681659272E+03 -0.38269396300E+03  0.67494419619E+02  0.43858045067E+03  0.80263356518E+02 0.  0.
        254    2    1    2    0    0 -0.18681659272E+03  0.38269396300E+03 -0.12379033567E+04  0.15912916267E+04  0.90468182915E+03 0.  0.
         23    2    4    4    0    0  0.30568632349E+03 -0.44700755306E+02 -0.55979262097E+03  0.64610600516E+03  0.92967228179E+02 0.  0.
         23    2    4    4    0    0 -0.49250291621E+03  0.42739471830E+03 -0.67811073577E+03  0.94518562156E+03  0.91193867792E+02 0.  0.
          3    1    3    3  502    0  0.47652615368E+02 -0.89080944158E+02  0.51174176362E+02  0.11324744010E+03  0.00000000000E+00 0. -1.
         -4    1    3    3    0  502  0.13916397735E+03 -0.29361301884E+03  0.16320243256E+02  0.32533301056E+03  0.00000000000E+00 0.  1.
         11    1    5    5    0    0  0.12587824082E+03 -0.65003905601E+02 -0.24600312341E+03  0.28388091866E+03  0.00000000000E+00 0.  1.
        -11    1    5    5    0    0  0.17980808267E+03  0.20303150295E+02 -0.31378949757E+03  0.36222508649E+03  0.00000000000E+00 0. -1.
          2    1    6    6  503    0 -0.34136966278E+03  0.34083882171E+03 -0.52885878101E+03  0.71581838430E+03  0.00000000000E+00 0.  1.
         -2    1    6    6    0  503 -0.15113325343E+03  0.86555896592E+02 -0.14925195476E+03  0.22936723726E+03  0.00000000000E+00 0. -1.
<mgrwt>
<rscale>  0 0.16584703E+04</rscale>
<asrwt>0</asrwt>
<pdfrwt beam="1">  1        1 0.24617546E+00 0.16584703E+04</pdfrwt>
<pdfrwt beam="2">  1       -2 0.66112550E-01 0.16584703E+04</pdfrwt>
<totfact> 0.98402114E+00</totfact>
</mgrwt>
</event>
<event>
12    4  0.4486176E-008  0.1212365E+04  0.7818608E-02  0.9102102E-01
          1   -1    0    0  501    0  0.00000000000E+00  0.00000000000E+00  0.18704484309E+04  0.18704484309E+04  0.00000000000E+00 0. -1.
         -2   -1    0    0    0  501 -0.00000000000E+00 -0.00000000000E+00 -0.19645400130E+03  0.19645400130E+03  0.00000000000E+00 0.  1.
        -24    2    1    2    0    0 -0.98879716130E+02  0.19560701700E+02  0.83793856419E+03  0.84804771766E+03  0.82970324517E+02 0.  0.
        254    2    1    2    0    0  0.98879716130E+02 -0.19560701700E+02  0.83605586540E+03  0.12188547145E+04  0.88116830729E+03 0.  0.
         23    2    4    4    0    0  0.17319233644E+02 -0.36104243316E+03  0.76302508999E+03  0.84933224837E+03  0.92230069846E+02 0.  0.
         23    2    4    4    0    0  0.81560482486E+02  0.34148173146E+03  0.73030775416E+02  0.36952246616E+03  0.89171035772E+02 0.  0.
          3    1    3    3  502    0 -0.40189514036E+02  0.49287540791E+02  0.46855354289E+03  0.47284974492E+03  0.00000000000E+00 0. -1.
         -4    1    3    3    0  502 -0.58690202094E+02 -0.29726839091E+02  0.36938502130E+03  0.37519797274E+03  0.00000000000E+00 0.  1.
         11    1    5    5    0    0  0.27195442754E+02 -0.13159438220E+03  0.19675498869E+03  0.23826287816E+03  0.00000000000E+00 0.  1.
        -11    1    5    5    0    0 -0.98762091097E+01 -0.22944805096E+03  0.56627010130E+03  0.61106937022E+03  0.00000000000E+00 0. -1.
          2    1    6    6  503    0  0.99126748183E+02  0.28072713013E+03  0.48256154315E+02  0.30159988433E+03  0.00000000000E+00 0. -1.
         -2    1    6    6    0  503 -0.17566265697E+02  0.60754601322E+02  0.24774621101E+02  0.67922581835E+02  0.00000000000E+00 0.  1.
<mgrwt>
<rscale>  0 0.12123648E+04</rscale>
<asrwt>0</asrwt>
<pdfrwt beam="1">  1        1 0.28776128E+00 0.12123648E+04</pdfrwt>
<pdfrwt beam="2">  1       -2 0.30223694E-01 0.12123648E+04</pdfrwt>
<totfact> 0.32064469E+01</totfact>
</mgrwt>
</event>
<event>
12    4  0.4486176E-008  0.1553311E+04  0.7818608E-02  0.8849755E-01
         -2   -1    0    0    0  501 -0.00000000000E+00  0.00000000000E+00  0.12482515639E+04  0.12482515639E+04  0.00000000000E+00 0.  1.
          1   -1    0    0  501    0  0.00000000000E+00 -0.00000000000E+00 -0.48323118706E+03  0.48323118706E+03  0.00000000000E+00 0. -1.
        -24    2    1    2    0    0 -0.86780541324E+02  0.86612125097E+02 -0.29361980928E+03  0.32932275659E+03  0.84902079138E+02 0.  0.
        254    2    1    2    0    0  0.86780541324E+02 -0.86612125097E+02  0.10586401861E+04  0.14021599944E+04  0.91120858403E+03 0.  0.
         23    2    4    4    0    0 -0.95753690864E+02 -0.46417760674E+03  0.64942863223E+03  0.80908093129E+03  0.90690601027E+02 0.  0.
         23    2    4    4    0    0  0.18253423219E+03  0.37756548164E+03  0.40921155390E+03  0.59307906309E+03  0.91729168681E+02 0.  0.
          1    1    3    3  502    0 -0.14212292358E+02  0.36281167760E+02 -0.18633008334E+03  0.19036074266E+03  0.00000000000E+00 0. -1.
         -2    1    3    3    0  502 -0.72568248965E+02  0.50330957337E+02 -0.10728972594E+03  0.13896201393E+03  0.00000000000E+00 0.  1.
         11    1    5    5    0    0 -0.43828065805E+02 -0.57887092383E+02  0.87128544349E+02  0.11341603968E+03  0.00000000000E+00 0. -1.
        -11    1    5    5    0    0 -0.51925625059E+02 -0.40629051435E+03  0.56230008788E+03  0.69566489161E+03  0.00000000000E+00 0.  1.
          3    1    6    6  503    0  0.99938722766E+02  0.11823884054E+03  0.17852739901E+03  0.23630531928E+03  0.00000000000E+00 0. -1.
         -3    1    6    6    0  503  0.82595509422E+02  0.25932664110E+03  0.23068415489E+03  0.35677374381E+03  0.00000000000E+00 0.  1.
<mgrwt>
<rscale>  0 0.15533114E+04</rscale>
<asrwt>0</asrwt>
<pdfrwt beam="1">  1        1 0.74343260E-01 0.15533114E+04</pdfrwt>
<pdfrwt beam="2">  1       -2 0.19203870E+00 0.15533114E+04</pdfrwt>
<totfact> 0.58723118E+00</totfact>
</mgrwt>
</event>
<event>
12    4  0.4486176E-008  0.1133002E+04  0.7818608E-02  0.9173609E-01
          1   -1    0    0  501    0  0.00000000000E+00  0.00000000000E+00  0.32477179426E+03  0.32477179426E+03  0.00000000000E+00 0. -1.
         -2   -1    0    0    0  501 -0.00000000000E+00 -0.00000000000E+00 -0.98815117509E+03  0.98815117509E+03  0.00000000000E+00 0.  1.
        -24    2    1    2    0    0  0.17654266433E+03  0.54858485901E+02 -0.59261106044E+02  0.20976545473E+03  0.79453769611E+02 0.  0.
        254    2    1    2    0    0 -0.17654266433E+03 -0.54858485901E+02 -0.60411827478E+03  0.11031575146E+04  0.90433447703E+03 0.  0.
         23    2    4    4    0    0 -0.25841149903E+02 -0.31562520214E+03  0.89345683073E+02  0.34163746492E+03  0.91904695717E+02 0.  0.
         23    2    4    4    0    0 -0.15070151443E+03  0.26076671624E+03 -0.69346395785E+03  0.76152004970E+03  0.91160838679E+02 0.  0.
          3    1    3    3  502    0  0.11940967238E+03  0.74434079064E+02 -0.44737747495E+02  0.14765015420E+03  0.00000000000E+00 0. -1.
         -4    1    3    3    0  502  0.57132991950E+02 -0.19575593163E+02 -0.14523358549E+02  0.62115300534E+02  0.00000000000E+00 0.  1.
         11    1    5    5    0    0  0.15703111154E+02 -0.21557024536E+03  0.87787998748E+02  0.23328920058E+03  0.00000000000E+00 0. -1.
        -11    1    5    5    0    0 -0.41544261057E+02 -0.10005495679E+03  0.15576843248E+01  0.10834826434E+03  0.00000000000E+00 0.  1.
          4    1    6    6  503    0 -0.70762277111E+02  0.89665342198E+02 -0.16803657148E+03  0.20318332316E+03  0.00000000000E+00 0. -1.
         -4    1    6    6    0  503 -0.79939237315E+02  0.17110137405E+03 -0.52542738637E+03  0.55833672655E+03  0.00000000000E+00 0.  1.
<mgrwt>
<rscale>  0 0.11330024E+04</rscale>
<asrwt>0</asrwt>
<pdfrwt beam="1">  1        1 0.49964892E-01 0.11330024E+04</pdfrwt>
<pdfrwt beam="2">  1       -2 0.15202326E+00 0.11330024E+04</pdfrwt>
<totfact> 0.19809282E+01</totfact>
</mgrwt>
</event>
<event>
12    4  0.4486176E-008  0.1117153E+04  0.7818608E-02  0.9188632E-01
         -2   -1    0    0    0  501 -0.00000000000E+00  0.00000000000E+00  0.24952590354E+03  0.24952590354E+03  0.00000000000E+00 0.  1.
          1   -1    0    0  501    0  0.00000000000E+00 -0.00000000000E+00 -0.12504030965E+04  0.12504030965E+04  0.00000000000E+00 0. -1.
        -24    2    1    2    0    0 -0.10355953608E+02  0.13536617761E+03 -0.16505333425E+02  0.15508063196E+03  0.73118592464E+02 0.  0.
        254    2    1    2    0    0  0.10355953608E+02 -0.13536617761E+03 -0.98437185954E+03  0.13448483681E+04  0.90619971720E+03 0.  0.
         23    2    4    4    0    0 -0.29377284387E+03 -0.69788325660E+02 -0.97076994547E+03  0.10210273098E+04  0.94496486999E+02 0.  0.
         23    2    4    4    0    0  0.30412879748E+03 -0.65577851945E+02 -0.13601914078E+02  0.32382105832E+03  0.88770972881E+02 0.  0.
          1    1    3    3  502    0 -0.39667863896E+02  0.99371390350E+02 -0.18657341354E+02  0.10861081453E+03  0.00000000000E+00 0. -1.
         -2    1    3    3    0  502  0.29311910287E+02  0.35994787256E+02  0.21520079292E+01  0.46469817435E+02  0.00000000000E+00 0.  1.
         11    1    5    5    0    0 -0.54646219879E+02  0.22100947684E+02 -0.14830239930E+03  0.15958779049E+03  0.00000000000E+00 0. -1.
        -11    1    5    5    0    0 -0.23912662399E+03 -0.91889273344E+02 -0.82246754616E+03  0.86143951926E+03  0.00000000000E+00 0.  1.
          1    1    6    6  503    0  0.18521659921E+03 -0.46434844160E+02 -0.51113909185E+02  0.19767148274E+03  0.00000000000E+00 0. -1.
         -1    1    6    6    0  503  0.11891219827E+03 -0.19143007785E+02  0.37511995107E+02  0.12614957559E+03  0.00000000000E+00 0.  1.
<mgrwt>
<rscale>  0 0.11171535E+04</rscale>
<asrwt>0</asrwt>
<pdfrwt beam="1">  1        1 0.19236970E+00 0.11171535E+04</pdfrwt>
<pdfrwt beam="2">  1       -2 0.38388602E-01 0.11171535E+04</pdfrwt>
<totfact> 0.54925377E+01</totfact>
</mgrwt>
</event>
<event>
12    4  0.4486176E-008  0.1446094E+04  0.7818608E-02  0.8921113E-01
         -2   -1    0    0    0  501 -0.00000000000E+00  0.00000000000E+00  0.15888971220E+04  0.15888971220E+04  0.00000000000E+00 0.  1.
          1   -1    0    0  501    0  0.00000000000E+00 -0.00000000000E+00 -0.32903149098E+03  0.32903149098E+03  0.00000000000E+00 0. -1.
        -24    2    1    2    0    0  0.13564415069E+02  0.42059863590E+03  0.49830343356E+03  0.65720675700E+03  0.80791111401E+02 0.  0.
        254    2    1    2    0    0 -0.13564415069E+02 -0.42059863590E+03  0.76156219745E+03  0.12607218560E+04  0.91233514216E+03 0.  0.
         23    2    4    4    0    0 -0.26608114181E+03 -0.44078141360E+03  0.81629268251E+02  0.52954741137E+03  0.93111196140E+02 0.  0.
         23    2    4    4    0    0  0.25251672674E+03  0.20182777707E+02  0.67993292920E+03  0.73117444459E+03  0.90195556500E+02 0.  0.
          1    1    3    3  502    0 -0.63951071634E+01  0.98043262272E+01  0.82604361912E+00  0.11734758475E+02  0.00000000000E+00 0. -1.
         -2    1    3    3    0  502  0.19959522232E+02  0.41079430967E+03  0.49747738994E+03  0.64547199853E+03  0.00000000000E+00 0.  1.
         11    1    5    5    0    0 -0.67501847134E+02 -0.19720039657E+03  0.21065832207E+02  0.20949526262E+03  0.00000000000E+00 0. -1.
        -11    1    5    5    0    0 -0.19857929467E+03 -0.24358101704E+03  0.60563436044E+02  0.32005214875E+03  0.00000000000E+00 0.  1.
          2    1    6    6  503    0  0.14675383802E+03  0.49882618304E+02  0.45847177940E+03  0.48396418988E+03  0.00000000000E+00 0. -1.
         -2    1    6    6    0  503  0.10576288872E+03 -0.29699840597E+02  0.22146114980E+03  0.24721025471E+03  0.00000000000E+00 0.  1.
<mgrwt>
<rscale>  0 0.14460943E+04</rscale>
<asrwt>0</asrwt>
<pdfrwt beam="1">  1        1 0.50620230E-01 0.14460943E+04</pdfrwt>
<pdfrwt beam="2">  1       -2 0.24444571E+00 0.14460943E+04</pdfrwt>
<totfact> 0.45862846E+00</totfact>
</mgrwt>
</event>
<event>
12    4  0.4486176E-008  0.1259677E+04  0.7818608E-02  0.9062167E-01
         -2   -1    0    0    0  501 -0.00000000000E+00  0.00000000000E+00  0.27453372018E+03  0.27453372018E+03  0.00000000000E+00 0.  1.
          1   -1    0    0  501    0  0.00000000000E+00 -0.00000000000E+00 -0.14449828451E+04  0.14449828451E+04  0.00000000000E+00 0. -1.
        -24    2    1    2    0    0 -0.37988802139E+02  0.25615393937E+03 -0.49672750982E+03  0.56536090661E+03  0.76398599260E+02 0.  0.
        254    2    1    2    0    0  0.37988802139E+02 -0.25615393937E+03 -0.67372161512E+03  0.11541556587E+04  0.90062005310E+03 0.  0.
         23    2    4    4    0    0  0.42007783162E+03 -0.18469477805E+01 -0.48865733176E+03  0.65045248286E+03  0.88507902109E+02 0.  0.
         23    2    4    4    0    0 -0.38208902948E+03 -0.25430699159E+03 -0.18506428336E+03  0.50370317582E+03  0.93829781710E+02 0.  0.
          3    1    3    3  502    0 -0.60037052059E+02  0.16006650626E+03 -0.33054898278E+03  0.37214024784E+03  0.00000000000E+00 0. -1.
         -4    1    3    3    0  502  0.22048249920E+02  0.96087433112E+02 -0.16617852704E+03  0.19322065877E+03  0.00000000000E+00 0.  1.
         11    1    5    5    0    0  0.38746996630E+03  0.19899975186E+02 -0.46071090252E+03  0.60231513305E+03  0.00000000000E+00 0.  1.
        -11    1    5    5    0    0  0.32607865321E+02 -0.21746922966E+02 -0.27946429234E+02  0.48137349805E+02  0.00000000000E+00 0. -1.
          4    1    6    6  503    0 -0.12470377733E+03 -0.36046527487E+02 -0.35492542216E+02  0.13457378934E+03  0.00000000000E+00 0. -1.
         -4    1    6    6    0  503 -0.25738525215E+03 -0.21826046410E+03 -0.14957174114E+03  0.36912938648E+03  0.00000000000E+00 0.  1.
<mgrwt>
<rscale>  0 0.12596770E+04</rscale>
<asrwt>0</asrwt>
<pdfrwt beam="1">  1        1 0.22230506E+00 0.12596770E+04</pdfrwt>
<pdfrwt beam="2">  1       -2 0.42235956E-01 0.12596770E+04</pdfrwt>
<totfact> 0.32819216E+01</totfact>
</mgrwt>
</event>
<event>
12    4  0.4486176E-008  0.1649466E+04  0.7818608E-02  0.8790722E-01
         -2   -1    0    0    0  501 -0.00000000000E+00  0.00000000000E+00  0.75311608381E+03  0.75311608381E+03  0.00000000000E+00 0.  1.
          1   -1    0    0  501    0  0.00000000000E+00 -0.00000000000E+00 -0.90316066924E+03  0.90316066924E+03  0.00000000000E+00 0. -1.
        -24    2    1    2    0    0 -0.43648290859E+03 -0.37663743493E+03 -0.14944053541E+03  0.60104003682E+03  0.80892307113E+02 0.  0.
        254    2    1    2    0    0  0.43648290859E+03  0.37663743493E+03 -0.60405001002E+00  0.10552367162E+04  0.88382751457E+03 0.  0.
         23    2    4    4    0    0  0.53886703428E+03 -0.61992068806E+02  0.15378184833E+03  0.57050266756E+03  0.87199424238E+02 0.  0.
         23    2    4    4    0    0 -0.10238412569E+03  0.43862950374E+03 -0.15438589834E+03  0.48473404867E+03  0.90850105053E+02 0.  0.
          3    1    3    3  502    0 -0.27936863085E+02 -0.26036320380E+02 -0.32454741433E+02  0.50116549557E+02  0.00000000000E+00 0. -1.
         -4    1    3    3    0  502 -0.40854604551E+03 -0.35060111455E+03 -0.11698579398E+03  0.55092348726E+03  0.00000000000E+00 0.  1.
         11    1    5    5    0    0  0.14469775314E+03 -0.41662877077E+02  0.74203060874E+02  0.16786699894E+03  0.00000000000E+00 0. -1.
        -11    1    5    5    0    0  0.39416928114E+03 -0.20329191730E+02  0.79578787451E+02  0.40263566862E+03  0.00000000000E+00 0.  1.
          2    1    6    6  503    0 -0.36524844359E+02  0.16675185432E+03 -0.12749500244E+02  0.17118059157E+03  0.00000000000E+00 0. -1.
         -2    1    6    6    0  503 -0.65859281331E+02  0.27187764942E+03 -0.14163639809E+03  0.31355345709E+03  0.00000000000E+00 0.  1.
<mgrwt>
<rscale>  0 0.16494664E+04</rscale>
<asrwt>0</asrwt>
<pdfrwt beam="1">  1        1 0.13894779E+00 0.16494664E+04</pdfrwt>
<pdfrwt beam="2">  1       -2 0.11586401E+00 0.16494664E+04</pdfrwt>
<totfact> 0.87695161E+00</totfact>
</mgrwt>
</event>
<event>
12    4  0.4486176E-008  0.1398959E+04  0.7818608E-02  0.8954573E-01
         -2   -1    0    0    0  501 -0.00000000000E+00  0.00000000000E+00  0.22247076086E+03  0.22247076086E+03  0.00000000000E+00 0.  1.
          1   -1    0    0  501    0  0.00000000000E+00 -0.00000000000E+00 -0.21992609929E+04  0.21992609929E+04  0.00000000000E+00 0. -1.
        -24    2    1    2    0    0  0.34545005638E+03 -0.57543056278E+02 -0.23829125159E+03  0.43058713017E+03  0.77302078291E+02 0.  0.
        254    2    1    2    0    0 -0.34545005638E+03  0.57543056278E+02 -0.17384989804E+04  0.19911446236E+04  0.90533488956E+03 0.  0.
         23    2    4    4    0    0 -0.22250392110E+03  0.50153427160E+02 -0.18051138504E+04  0.18218291081E+04  0.92746563617E+02 0.  0.
         23    2    4    4    0    0 -0.12294613528E+03  0.73896291184E+01  0.66614870000E+02  0.16931551544E+03  0.95183213154E+02 0.  0.
          1    1    3    3  502    0  0.31867944352E+01  0.93115676023E+01 -0.79394089162E+01  0.12644965952E+02  0.00000000000E+00 0. -1.
         -2    1    3    3    0  502  0.34226326194E+03 -0.66854623880E+02 -0.23035184267E+03  0.41794216422E+03  0.00000000000E+00 0.  1.
         11    1    5    5    0    0 -0.15849010623E+03 -0.73763862566E+01 -0.10713135289E+04  0.10829987082E+04  0.00000000000E+00 0.  1.
        -11    1    5    5    0    0 -0.64013814869E+02  0.57529813416E+02 -0.73380032155E+03  0.73883039991E+03  0.00000000000E+00 0. -1.
          2    1    6    6  503    0  0.14787745486E+02  0.10063494930E+02  0.83717404408E+01  0.19749364161E+02  0.00000000000E+00 0. -1.
         -2    1    6    6    0  503 -0.13773388076E+03 -0.26738658120E+01  0.58243129559E+02  0.14956615128E+03  0.00000000000E+00 0.  1.
<mgrwt>
<rscale>  0 0.13989586E+04</rscale>
<asrwt>0</asrwt>
<pdfrwt beam="1">  1        1 0.33834785E+00 0.13989586E+04</pdfrwt>
<pdfrwt beam="2">  1       -2 0.34226271E-01 0.13989586E+04</pdfrwt>
<totfact> 0.14955814E+01</totfact>
</mgrwt>
</event>
<event>
12    4  0.4486176E-008  0.1596994E+04  0.7818608E-02  0.8822397E-01
         -2   -1    0    0    0  501 -0.00000000000E+00  0.00000000000E+00  0.11454665180E+04  0.11454665180E+04  0.00000000000E+00 0.  1.
          1   -1    0    0  501    0  0.00000000000E+00 -0.00000000000E+00 -0.55662712760E+03  0.55662712760E+03  0.00000000000E+00 0. -1.
        -24    2    1    2    0    0  0.45839036817E+03 -0.18908681236E+03  0.41748845856E+03  0.65310300900E+03  0.79820893824E+02 0.  0.
        254    2    1    2    0    0 -0.45839036817E+03  0.18908681236E+03  0.17135093183E+03  0.10489906366E+04  0.90837473631E+03 0.  0.
         23    2    4    4    0    0  0.33344233029E+02 -0.22312735495E+03  0.30222650501E+03  0.38773268913E+03  0.89989574326E+02 0.  0.
         23    2    4    4    0    0 -0.49173460120E+03  0.41221416731E+03 -0.13087557318E+03  0.66125794746E+03  0.91707249820E+02 0.  0.
          1    1    3    3  502    0  0.26403361913E+03 -0.10874959705E+03  0.29093345988E+03  0.40765488463E+03  0.00000000000E+00 0. -1.
         -2    1    3    3    0  502  0.19435674905E+03 -0.80337215315E+02  0.12655499868E+03  0.24544812437E+03  0.00000000000E+00 0.  1.
         11    1    5    5    0    0  0.18993886944E+02 -0.21336394937E+03  0.30214775631E+03  0.37037576767E+03  0.00000000000E+00 0.  1.
        -11    1    5    5    0    0  0.14350346084E+02 -0.97634055728E+01  0.78748696571E-01  0.17356921457E+02  0.00000000000E+00 0. -1.
          1    1    6    6  503    0 -0.56818893535E+02  0.54205125437E+02  0.13637530139E+02  0.79702976823E+02  0.00000000000E+00 0. -1.
         -1    1    6    6    0  503 -0.43491570767E+03  0.35800904187E+03 -0.14451310332E+03  0.58155497063E+03  0.00000000000E+00 0.  1.
<mgrwt>
<rscale>  0 0.15969943E+04</rscale>
<asrwt>0</asrwt>
<pdfrwt beam="1">  1        1 0.85634943E-01 0.15969943E+04</pdfrwt>
<pdfrwt beam="2">  1       -2 0.17622562E+00 0.15969943E+04</pdfrwt>
<totfact> 0.61637463E+00</totfact>
</mgrwt>
</event>
<event>
12    4  0.4486176E-008  0.2133280E+04  0.7818608E-02  0.8546723E-01
         -2   -1    0    0    0  501 -0.00000000000E+00  0.00000000000E+00  0.47933535983E+03  0.47933535983E+03  0.00000000000E+00 0.  1.
          1   -1    0    0  501    0  0.00000000000E+00 -0.00000000000E+00 -0.23735382572E+04  0.23735382572E+04  0.00000000000E+00 0. -1.
        -24    2    1    2    0    0 -0.29612903897E+03  0.81273304875E+03 -0.68814398680E+03  0.11083329581E+04  0.81439445000E+02 0.  0.
        254    2    1    2    0    0  0.29612903897E+03 -0.81273304875E+03 -0.12060589106E+04  0.17445406590E+04  0.91685145944E+03 0.  0.
         23    2    4    4    0    0  0.29406249875E+03 -0.37196323408E+03 -0.27247927220E+02  0.48314334942E+03  0.88632081481E+02 0.  0.
         23    2    4    4    0    0  0.20665402251E+01 -0.44076981467E+03 -0.11788109834E+04  0.12613973095E+04  0.85120725259E+02 0.  0.
          1    1    3    3  502    0 -0.24811755156E+03  0.58833309183E+03 -0.52733883936E+03  0.82812100434E+03  0.00000000000E+00 0. -1.
         -2    1    3    3    0  502 -0.48011487413E+02  0.22439995693E+03 -0.16080514745E+03  0.28021195377E+03  0.00000000000E+00 0.  1.
         11    1    5    5    0    0  0.21965537728E+03 -0.22851073164E+03 -0.46663691520E+02  0.32037967999E+03  0.00000000000E+00 0. -1.
        -11    1    5    5    0    0  0.74407121466E+02 -0.14345250244E+03  0.19415764301E+02  0.16276366943E+03  0.00000000000E+00 0.  1.
          4    1    6    6  503    0 -0.39309265329E+02 -0.25113584281E+03 -0.63511271514E+03  0.68409253088E+03  0.00000000000E+00 0. -1.
         -4    1    6    6    0  503  0.41375805554E+02 -0.18963397186E+03 -0.54369826825E+03  0.57730477866E+03  0.00000000000E+00 0.  1.
<mgrwt>
<rscale>  0 0.21332799E+04</rscale>
<asrwt>0</asrwt>
<pdfrwt beam="1">  1        1 0.36515973E+00 0.21332799E+04</pdfrwt>
<pdfrwt beam="2">  1       -2 0.73743903E-01 0.21332799E+04</pdfrwt>
<totfact> 0.22129512E+00</totfact>
</mgrwt>
</event>
<event>
12    4  0.4486176E-008  0.1689175E+04  0.7818608E-02  0.8767562E-01
          1   -1    0    0  501    0  0.00000000000E+00  0.00000000000E+00  0.12412952661E+04  0.12412952661E+04  0.00000000000E+00 0. -1.
         -2   -1    0    0    0  501 -0.00000000000E+00 -0.00000000000E+00 -0.57466458446E+03  0.57466458446E+03  0.00000000000E+00 0.  1.
        -24    2    1    2    0    0  0.93900455688E+02 -0.41764687227E+03 -0.21739741243E+03  0.48707920369E+03  0.82087211183E+02 0.  0.
        254    2    1    2    0    0 -0.93900455688E+02  0.41764687227E+03  0.88402809402E+03  0.13288806468E+04  0.89508206160E+03 0.  0.
         23    2    4    4    0    0  0.54183768987E+02  0.37582196863E+02 -0.16496407390E+03  0.19973178746E+03  0.91276168314E+02 0.  0.
         23    2    4    4    0    0 -0.14808422468E+03  0.38006467540E+03  0.10489921679E+04  0.11291488594E+04  0.90633785885E+02 0.  0.
          3    1    3    3  502    0  0.31509805716E+02 -0.23605361387E+03 -0.80974154202E+02  0.25153725395E+03  0.00000000000E+00 0. -1.
         -4    1    3    3    0  502  0.62390649973E+02 -0.18159325840E+03 -0.13642325822E+03  0.23554194973E+03  0.00000000000E+00 0.  1.
         11    1    5    5    0    0  0.25255286131E+02 -0.29881392684E+02 -0.60862403865E+02  0.72353018669E+02  0.00000000000E+00 0. -1.
        -11    1    5    5    0    0  0.28928482856E+02  0.67463589548E+02 -0.10410167004E+03  0.12737876879E+03  0.00000000000E+00 0.  1.
          2    1    6    6  503    0 -0.83660149714E+02  0.29773455960E+03  0.71074203164E+03  0.77511233003E+03  0.00000000000E+00 0. -1.
         -2    1    6    6    0  503 -0.64424074961E+02  0.82330115809E+02  0.33825013629E+03  0.35403652933E+03  0.00000000000E+00 0.  1.
<mgrwt>
<rscale>  0 0.16891755E+04</rscale>
<asrwt>0</asrwt>
<pdfrwt beam="1">  1        1 0.19096850E+00 0.16891755E+04</pdfrwt>
<pdfrwt beam="2">  1       -2 0.88409936E-01 0.16891755E+04</pdfrwt>
<totfact> 0.91727145E+00</totfact>
</mgrwt>
</event>
<event>
12    4  0.4486176E-008  0.1421401E+04  0.7818608E-02  0.8938472E-01
          1   -1    0    0  501    0  0.00000000000E+00  0.00000000000E+00  0.25778531490E+04  0.25778531490E+04  0.00000000000E+00 0. -1.
         -2   -1    0    0    0  501 -0.00000000000E+00 -0.00000000000E+00 -0.19593624070E+03  0.19593624070E+03  0.00000000000E+00 0.  1.
        -24    2    1    2    0    0 -0.40265629142E+03  0.10565381611E+03  0.58849020399E+03  0.72523594024E+03  0.79697120131E+02 0.  0.
        254    2    1    2    0    0  0.40265629142E+03 -0.10565381611E+03  0.17934267043E+04  0.20485534494E+04  0.89827449794E+03 0.  0.
         23    2    4    4    0    0 -0.85276018731E+02 -0.13050114004E+03 -0.46448483570E+01  0.18296087057E+03  0.95658552260E+02 0.  0.
         23    2    4    4    0    0  0.48793231015E+03  0.24847323933E+02  0.17980715527E+04  0.18655925789E+04  0.93161328245E+02 0.  0.
          3    1    3    3  502    0 -0.33374768726E+03  0.84897394280E+02  0.53205393838E+03  0.63377951975E+03  0.00000000000E+00 0. -1.
         -4    1    3    3    0  502 -0.68908604162E+02  0.20756421827E+02  0.56436265605E+02  0.91456420496E+02  0.00000000000E+00 0.  1.
         11    1    5    5    0    0 -0.55725547854E+02 -0.15429514375E+02 -0.23970704489E+02  0.62593939572E+02  0.00000000000E+00 0.  1.
        -11    1    5    5    0    0 -0.29550470877E+02 -0.11507162566E+03  0.19325856132E+02  0.12036693100E+03  0.00000000000E+00 0. -1.
          2    1    6    6  503    0  0.36548852984E+03  0.33452611088E+02  0.14753775002E+04  0.15203419717E+04  0.00000000000E+00 0. -1.
         -2    1    6    6    0  503  0.12244378031E+03 -0.86052871550E+01  0.32269405242E+03  0.34525060720E+03  0.00000000000E+00 0.  1.
<mgrwt>
<rscale>  0 0.14214005E+04</rscale>
<asrwt>0</asrwt>
<pdfrwt beam="1">  1        1 0.39659277E+00 0.14214005E+04</pdfrwt>
<pdfrwt beam="2">  1       -2 0.30144039E-01 0.14214005E+04</pdfrwt>
<totfact> 0.10426974E+01</totfact>
</mgrwt>
</event>
<event>
12    4  0.4486176E-008  0.1266599E+04  0.7818608E-02  0.9056480E-01
          1   -1    0    0  501    0  0.00000000000E+00  0.00000000000E+00  0.18173366648E+04  0.18173366648E+04  0.00000000000E+00 0. -1.
         -2   -1    0    0    0  501 -0.00000000000E+00 -0.00000000000E+00 -0.22069014690E+03  0.22069014690E+03  0.00000000000E+00 0.  1.
        -24    2    1    2    0    0 -0.26993650138E+03 -0.68878163350E+02  0.32221621554E+03  0.43379298895E+03  0.82116694675E+02 0.  0.
        254    2    1    2    0    0  0.26993650138E+03  0.68878163350E+02  0.12744303023E+04  0.16042338227E+04  0.93369355052E+03 0.  0.
         23    2    4    4    0    0 -0.32258496104E+03  0.54554418610E+02  0.26833680403E+03  0.43286078216E+03  0.91250066605E+02 0.  0.
         23    2    4    4    0    0  0.59252146241E+03  0.14323744740E+02  0.10060934983E+04  0.11713730405E+04  0.92756777366E+02 0.  0.
          1    1    3    3  502    0 -0.26790007853E+03 -0.73750713533E+02  0.29185202559E+03  0.40297298255E+03  0.00000000000E+00 0. -1.
         -2    1    3    3    0  502 -0.20364228446E+01  0.48725501831E+01  0.30364189947E+02  0.30820006399E+02  0.00000000000E+00 0.  1.
         11    1    5    5    0    0 -0.21691307795E+03  0.35465491718E+02  0.23178870334E+03  0.31942931531E+03  0.00000000000E+00 0.  1.
        -11    1    5    5    0    0 -0.10567188309E+03  0.19088926891E+02  0.36548100690E+02  0.11343146684E+03  0.00000000000E+00 0. -1.
          3    1    6    6  503    0  0.23530225161E+02 -0.11127366719E+02  0.80251079168E+02  0.84366613621E+02  0.00000000000E+00 0. -1.
         -3    1    6    6    0  503  0.56899123725E+03  0.25451111460E+02  0.92584241912E+03  0.10870064269E+04  0.00000000000E+00 0.  1.
<mgrwt>
<rscale>  0 0.12665991E+04</rscale>
<asrwt>0</asrwt>
<pdfrwt beam="1">  1        1 0.27959025E+00 0.12665991E+04</pdfrwt>
<pdfrwt beam="2">  1       -2 0.33952332E-01 0.12665991E+04</pdfrwt>
<totfact> 0.27848110E+01</totfact>
</mgrwt>
</event>
<event>
12    4  0.4486176E-008  0.3078804E+04  0.7818608E-02  0.8221579E-01
         -2   -1    0    0    0  501 -0.00000000000E+00  0.00000000000E+00  0.17120093637E+04  0.17120093637E+04  0.00000000000E+00 0.  1.
          1   -1    0    0  501    0  0.00000000000E+00 -0.00000000000E+00 -0.13841973692E+04  0.13841973692E+04  0.00000000000E+00 0. -1.
        -24    2    1    2    0    0  0.27831591350E+03  0.86803523985E+03  0.12266238298E+04  0.15303486141E+04  0.80099535561E+02 0.  0.
        254    2    1    2    0    0 -0.27831591350E+03 -0.86803523985E+03 -0.89881183535E+03  0.15658581188E+04  0.90172279970E+03 0.  0.
         23    2    4    4    0    0  0.15286983879E+03 -0.35131468912E+03 -0.78293899298E+03  0.87638025766E+03  0.90871837709E+02 0.  0.
         23    2    4    4    0    0 -0.43118575229E+03 -0.51672055073E+03 -0.11587284237E+03  0.68947786113E+03  0.95036439702E+02 0.  0.
          1    1    3    3  502    0  0.18775302267E+02  0.29288428287E+02  0.28534404436E+02  0.44994846852E+02  0.00000000000E+00 0. -1.
         -2    1    3    3    0  502  0.25954061123E+03  0.83874681156E+03  0.11980894254E+04  0.14853537673E+04  0.00000000000E+00 0.  1.
         11    1    5    5    0    0  0.60327557023E+02 -0.17020519024E+03 -0.27237860446E+03  0.32680166017E+03  0.00000000000E+00 0. -1.
        -11    1    5    5    0    0  0.92542281766E+02 -0.18110949888E+03 -0.51056038852E+03  0.54957859750E+03  0.00000000000E+00 0.  1.
          2    1    6    6  503    0 -0.34730844186E+03 -0.36530398620E+03 -0.60131807242E+02  0.50762780692E+03  0.00000000000E+00 0. -1.
         -2    1    6    6    0  503 -0.83877310431E+02 -0.15141656453E+03 -0.55741035131E+02  0.18185005421E+03  0.00000000000E+00 0.  1.
<mgrwt>
<rscale>  0 0.30788042E+04</rscale>
<asrwt>0</asrwt>
<pdfrwt beam="1">  1        1 0.21295344E+00 0.30788042E+04</pdfrwt>
<pdfrwt beam="2">  1       -2 0.26338606E+00 0.30788042E+04</pdfrwt>
<totfact> 0.31123406E-01</totfact>
</mgrwt>
</event>
<event>
12    4  0.4486176E-008  0.1929198E+04  0.7818608E-02  0.8640458E-01
         -2   -1    0    0    0  501 -0.00000000000E+00  0.00000000000E+00  0.54347717126E+03  0.54347717126E+03  0.00000000000E+00 0.  1.
          1   -1    0    0  501    0  0.00000000000E+00 -0.00000000000E+00 -0.17120340993E+04  0.17120340993E+04  0.00000000000E+00 0. -1.
        -24    2    1    2    0    0 -0.72207767774E+03 -0.80616041887E+02 -0.22612494435E+03  0.76546527060E+03  0.83123228679E+02 0.  0.
        254    2    1    2    0    0  0.72207767774E+03  0.80616041887E+02 -0.94243198373E+03  0.14900460000E+04  0.89675187162E+03 0.  0.
         23    2    4    4    0    0  0.63567820487E+03 -0.26816128034E+03 -0.31976144204E+03  0.76567427936E+03  0.89512400497E+02 0.  0.
         23    2    4    4    0    0  0.86399472873E+02  0.34877732223E+03 -0.62267054169E+03  0.72437172063E+03  0.88799193436E+02 0.  0.
          1    1    3    3  502    0 -0.25247673371E+03 -0.14448642437E+02 -0.11795417893E+03  0.27904561036E+03  0.00000000000E+00 0. -1.
         -2    1    3    3    0  502 -0.46960094402E+03 -0.66167399449E+02 -0.10817076542E+03  0.48641966024E+03  0.00000000000E+00 0.  1.
         11    1    5    5    0    0  0.23864395029E+03 -0.12521256588E+03 -0.83941901241E+02  0.28226824909E+03  0.00000000000E+00 0. -1.
        -11    1    5    5    0    0  0.39703425458E+03 -0.14294871447E+03 -0.23581954080E+03  0.48340603027E+03  0.00000000000E+00 0.  1.
          3    1    6    6  503    0  0.80562605287E+02  0.17138237958E+03 -0.27326445038E+03  0.33246911622E+03  0.00000000000E+00 0. -1.
         -3    1    6    6    0  503  0.58368675858E+01  0.17739494265E+03 -0.34940609131E+03  0.39190260441E+03  0.00000000000E+00 0.  1.
<mgrwt>
<rscale>  0 0.19291982E+04</rscale>
<asrwt>0</asrwt>
<pdfrwt beam="1">  1        1 0.26338986E+00 0.19291982E+04</pdfrwt>
<pdfrwt beam="2">  1       -2 0.83611873E-01 0.19291982E+04</pdfrwt>
<totfact> 0.47931162E+00</totfact>
</mgrwt>
</event>
<event>
12    4  0.4486176E-008  0.1506178E+04  0.7818608E-02  0.8880355E-01
         -2   -1    0    0    0  501 -0.00000000000E+00  0.00000000000E+00  0.11670545875E+04  0.11670545875E+04  0.00000000000E+00 0.  1.
          1   -1    0    0  501    0  0.00000000000E+00 -0.00000000000E+00 -0.48596075897E+03  0.48596075897E+03  0.00000000000E+00 0. -1.
        -24    2    1    2    0    0  0.14644034365E+03  0.44735568063E+03  0.30952977402E+03  0.57310206052E+03  0.10519225980E+03 0.  0.
        254    2    1    2    0    0 -0.14644034365E+03 -0.44735568063E+03  0.37156405446E+03  0.10799132859E+04  0.89809853538E+03 0.  0.
         23    2    4    4    0    0 -0.49160236365E+03 -0.18493556765E+03  0.34508508703E+03  0.63595693550E+03  0.97383049787E+02 0.  0.
         23    2    4    4    0    0  0.34516202000E+03 -0.26242011298E+03  0.26478967434E+02  0.44395635041E+03  0.91624066733E+02 0.  0.
          3    1    3    3  502    0  0.15782161952E+03  0.42418628661E+03  0.27361619445E+03  0.52887379515E+03  0.00000000000E+00 0. -1.
         -4    1    3    3    0  502 -0.11381275869E+02  0.23169394026E+02  0.35913579562E+02  0.44228265362E+02  0.00000000000E+00 0.  1.
         11    1    5    5    0    0 -0.42221418272E+03 -0.16364088109E+03  0.33368578887E+03  0.56248498624E+03  0.00000000000E+00 0. -1.
        -11    1    5    5    0    0 -0.69388180933E+02 -0.21294686562E+02  0.11399298160E+02  0.73471949256E+02  0.00000000000E+00 0.  1.
          4    1    6    6  503    0  0.30721756268E+03 -0.20709341631E+03 -0.33992344855E+01  0.37051567942E+03  0.00000000000E+00 0. -1.
         -4    1    6    6    0  503  0.37944457316E+02 -0.55326696671E+02  0.29878201919E+02  0.73440670990E+02  0.00000000000E+00 0.  1.
<mgrwt>
<rscale>  0 0.15061776E+04</rscale>
<asrwt>0</asrwt>
<pdfrwt beam="1">  1        1 0.74763194E-01 0.15061776E+04</pdfrwt>
<pdfrwt beam="2">  1       -2 0.17954686E+00 0.15061776E+04</pdfrwt>
<totfact> 0.71119366E+00</totfact>
</mgrwt>
</event>
<event>
12    4  0.4486176E-008  0.1694885E+04  0.7818608E-02  0.8764287E-01
         -2   -1    0    0    0  501 -0.00000000000E+00  0.00000000000E+00  0.61196112250E+03  0.61196112250E+03  0.00000000000E+00 0.  1.
          1   -1    0    0  501    0  0.00000000000E+00 -0.00000000000E+00 -0.11735366497E+04  0.11735366497E+04  0.00000000000E+00 0. -1.
        -24    2    1    2    0    0 -0.45416650265E+03 -0.40360357329E+03 -0.17153094263E+03  0.63525048919E+03  0.70407834984E+02 0.  0.
        254    2    1    2    0    0  0.45416650265E+03  0.40360357329E+03 -0.39004458453E+03  0.11502472830E+04  0.89541665026E+03 0.  0.
         23    2    4    4    0    0  0.68251084472E+03  0.20381264783E+03 -0.10956891862E+03  0.72660446333E+03  0.92671730448E+02 0.  0.
         23    2    4    4    0    0 -0.22834434207E+03  0.19979092546E+03 -0.28047566591E+03  0.42364281964E+03  0.93536554425E+02 0.  0.
          1    1    3    3  502    0 -0.80465757434E+02 -0.60702121993E+02 -0.55116217363E+02  0.11487942875E+03  0.00000000000E+00 0. -1.
         -2    1    3    3    0  502 -0.37370074522E+03 -0.34290145130E+03 -0.11641472527E+03  0.52037106044E+03  0.00000000000E+00 0.  1.
         11    1    5    5    0    0  0.30124150721E+03  0.85399507321E+02 -0.94593858988E+02  0.32708946738E+03  0.00000000000E+00 0.  1.
        -11    1    5    5    0    0  0.38126933752E+03  0.11841314051E+03 -0.14975059628E+02  0.39951499595E+03  0.00000000000E+00 0. -1.
          1    1    6    6  503    0 -0.15420466753E+03  0.96716454334E+02 -0.21187083036E+03  0.27932490184E+03  0.00000000000E+00 0. -1.
         -1    1    6    6    0  503 -0.74139674543E+02  0.10307447113E+03 -0.68604835547E+02  0.14431791781E+03  0.00000000000E+00 0.  1.
<mgrwt>
<rscale>  0 0.16948850E+04</rscale>
<asrwt>0</asrwt>
<pdfrwt beam="1">  1        1 0.18054410E+00 0.16948850E+04</pdfrwt>
<pdfrwt beam="2">  1       -2 0.94147865E-01 0.16948850E+04</pdfrwt>
<totfact> 0.88815815E+00</totfact>
</mgrwt>
</event>
<event>
12    4  0.4486176E-008  0.1934602E+04  0.7818608E-02  0.8637822E-01
          1   -1    0    0  501    0  0.00000000000E+00  0.00000000000E+00  0.80509546358E+03  0.80509546358E+03  0.00000000000E+00 0. -1.
         -2   -1    0    0    0  501 -0.00000000000E+00 -0.00000000000E+00 -0.11621865115E+04  0.11621865115E+04  0.00000000000E+00 0.  1.
        -24    2    1    2    0    0 -0.90759315496E+01 -0.35629201309E+03 -0.81295004564E+03  0.89125340929E+03  0.80115490021E+02 0.  0.
        254    2    1    2    0    0  0.90759315496E+01  0.35629201309E+03  0.45585899771E+03  0.10760285658E+04  0.90719550124E+03 0.  0.
         23    2    4    4    0    0 -0.13219370112E+03 -0.12848196911E+03  0.51980935589E+03  0.55892470124E+03  0.90621543689E+02 0.  0.
         23    2    4    4    0    0  0.14126963267E+03  0.48477398220E+03 -0.63950358180E+02  0.51710386454E+03  0.91344597425E+02 0.  0.
          1    1    3    3  502    0 -0.11940395313E+02 -0.50458438893E+02 -0.19473320489E+03  0.20151835694E+03  0.00000000000E+00 0. -1.
         -2    1    3    3    0  502  0.28644637637E+01 -0.30583357420E+03 -0.61821684074E+03  0.68973505235E+03  0.00000000000E+00 0.  1.
         11    1    5    5    0    0 -0.10891061961E+03 -0.10764570984E+03  0.49749677212E+03  0.52053065249E+03  0.00000000000E+00 0. -1.
        -11    1    5    5    0    0 -0.23283081508E+02 -0.20836259274E+02  0.22312583778E+02  0.38394048756E+02  0.00000000000E+00 0.  1.
          3    1    6    6  503    0  0.12738826579E+03  0.48226528175E+03 -0.64661001068E+02  0.50297973846E+03  0.00000000000E+00 0. -1.
         -3    1    6    6    0  503  0.13881366876E+02  0.25087004553E+01  0.71064288819E+00  0.14124126084E+02  0.00000000000E+00 0.  1.
<mgrwt>
<rscale>  0 0.19346019E+04</rscale>
<asrwt>0</asrwt>
<pdfrwt beam="1">  1        1 0.12386084E+00 0.19346019E+04</pdfrwt>
<pdfrwt beam="2">  1       -2 0.17879792E+00 0.19346019E+04</pdfrwt>
<totfact> 0.33045662E+00</totfact>
</mgrwt>
</event>
<event>
12    4  0.4486176E-008  0.2327736E+04  0.7818608E-02  0.8467065E-01
          1   -1    0    0  501    0  0.00000000000E+00  0.00000000000E+00  0.24661253440E+04  0.24661253440E+04  0.00000000000E+00 0. -1.
         -2   -1    0    0    0  501 -0.00000000000E+00 -0.00000000000E+00 -0.54927818706E+03  0.54927818706E+03  0.00000000000E+00 0.  1.
        -24    2    1    2    0    0  0.80758715342E+03 -0.18751932686E+03  0.15088918970E+04  0.17235298801E+04  0.80249502016E+02 0.  0.
        254    2    1    2    0    0 -0.80758715342E+03  0.18751932686E+03  0.40795525994E+03  0.12918736509E+04  0.90285631610E+03 0.  0.
         23    2    4    4    0    0 -0.24741197090E+03  0.48627006482E+03  0.33409326662E+03  0.64621015377E+03  0.91093318950E+02 0.  0.
         23    2    4    4    0    0 -0.56017518252E+03 -0.29875073795E+03  0.73861993316E+02  0.64566349715E+03  0.91528787562E+02 0.  0.
          1    1    3    3  502    0  0.65554035469E+03 -0.15103046098E+03  0.11548550951E+04  0.13365005228E+04  0.00000000000E+00 0. -1.
         -2    1    3    3    0  502  0.15204679873E+03 -0.36488865879E+02  0.35403680194E+03  0.38702935737E+03  0.00000000000E+00 0.  1.
         11    1    5    5    0    0 -0.10294696771E+03  0.28599447209E+03  0.15527641462E+03  0.34132342604E+03  0.00000000000E+00 0. -1.
        -11    1    5    5    0    0 -0.14446500319E+03  0.20027559273E+03  0.17881685200E+03  0.30488672774E+03  0.00000000000E+00 0.  1.
          3    1    6    6  503    0 -0.51138553584E+03 -0.24778812818E+03  0.83848023562E+02  0.57440805512E+03  0.00000000000E+00 0. -1.
         -3    1    6    6    0  503 -0.48789646685E+02 -0.50962609779E+02 -0.99860302460E+01  0.71255442032E+02  0.00000000000E+00 0.  1.
<mgrwt>
<rscale>  0 0.23277361E+04</rscale>
<asrwt>0</asrwt>
<pdfrwt beam="1">  1        1 0.37940389E+00 0.23277361E+04</pdfrwt>
<pdfrwt beam="2">  1       -2 0.84504338E-01 0.23277361E+04</pdfrwt>
<totfact> 0.13837344E+00</totfact>
</mgrwt>
</event>
<event>
12    4  0.4486176E-008  0.1297902E+04  0.7818608E-02  0.9031230E-01
          1   -1    0    0  501    0  0.00000000000E+00  0.00000000000E+00  0.68521912328E+03  0.68521912328E+03  0.00000000000E+00 0. -1.
         -2   -1    0    0    0  501 -0.00000000000E+00 -0.00000000000E+00 -0.61460293366E+03  0.61460293366E+03  0.00000000000E+00 0.  1.
        -24    2    1    2    0    0 -0.23916699453E+03 -0.10646756827E+03  0.22453922654E+03  0.35407975742E+03  0.80115017272E+02 0.  0.
        254    2    1    2    0    0  0.23916699453E+03  0.10646756827E+03 -0.15392303692E+03  0.94574229952E+03  0.89565618484E+03 0.  0.
         23    2    4    4    0    0 -0.90570586264E+01 -0.16352501861E+03 -0.43457774328E+03  0.47360225642E+03  0.92837601809E+02 0.  0.
         23    2    4    4    0    0  0.24822405316E+03  0.26999258688E+03  0.28065470636E+03  0.47214004310E+03  0.98173206941E+02 0.  0.
          3    1    3    3  502    0 -0.19769876448E+03 -0.94022750417E+02  0.14218860527E+03  0.26104152647E+03  0.00000000000E+00 0. -1.
         -4    1    3    3    0  502 -0.41468230055E+02 -0.12444817848E+02  0.82350621266E+02  0.93038230949E+02  0.00000000000E+00 0.  1.
         11    1    5    5    0    0 -0.95387346845E+01  0.10289158335E+02 -0.41561998359E+02  0.43866319041E+02  0.00000000000E+00 0. -1.
        -11    1    5    5    0    0  0.48167605816E+00 -0.17381417695E+03 -0.39301574492E+03  0.42973593738E+03  0.00000000000E+00 0.  1.
          2    1    6    6  503    0  0.78914702945E+02  0.74645171894E+02  0.31482614251E+02  0.11309547749E+03  0.00000000000E+00 0. -1.
         -2    1    6    6    0  503  0.16930935022E+03  0.19534741498E+03  0.24917209211E+03  0.35904456561E+03  0.00000000000E+00 0.  1.
<mgrwt>
<rscale>  0 0.12979024E+04</rscale>
<asrwt>0</asrwt>
<pdfrwt beam="1">  1        1 0.10541833E+00 0.12979024E+04</pdfrwt>
<pdfrwt beam="2">  1       -2 0.94554298E-01 0.12979024E+04</pdfrwt>
<totfact> 0.22819634E+01</totfact>
</mgrwt>
</event>
<event>
12    4  0.4486176E-008  0.3925179E+04  0.7818608E-02  0.8019813E-01
          1   -1    0    0  501    0  0.00000000000E+00  0.00000000000E+00  0.33234787700E+04  0.33234787700E+04  0.00000000000E+00 0. -1.
         -2   -1    0    0    0  501 -0.00000000000E+00 -0.00000000000E+00 -0.11589536751E+04  0.11589536751E+04  0.00000000000E+00 0.  1.
        -24    2    1    2    0    0 -0.11586345619E+04 -0.14046116580E+04  0.14564344439E+04  0.23330294658E+04  0.80356961656E+02 0.  0.
        254    2    1    2    0    0  0.11586345619E+04  0.14046116580E+04  0.70809065090E+03  0.21494029793E+04  0.89619910715E+03 0.  0.
         23    2    4    4    0    0  0.11464204261E+04  0.93354007356E+03  0.28254935700E+03  0.15078927736E+04  0.90164379020E+02 0.  0.
         23    2    4    4    0    0  0.12214135855E+02  0.47107158439E+03  0.42554129390E+03  0.64151020568E+03  0.91609652545E+02 0.  0.
          1    1    3    3  502    0 -0.34506162917E+03 -0.45696445828E+03  0.42221288078E+03  0.71144062349E+03  0.00000000000E+00 0. -1.
         -2    1    3    3    0  502 -0.81357293276E+03 -0.94764719967E+03  0.10342215631E+04  0.16215888424E+04  0.00000000000E+00 0.  1.
         11    1    5    5    0    0  0.35663330472E+03  0.27562178016E+03  0.12693841134E+03  0.46826065392E+03  0.00000000000E+00 0.  1.
        -11    1    5    5    0    0  0.78978712135E+03  0.65791829340E+03  0.15561094566E+03  0.10396321197E+04  0.00000000000E+00 0. -1.
          1    1    6    6  503    0 -0.24402457886E+02  0.96396420056E+02  0.12544007682E+03  0.16007174211E+03  0.00000000000E+00 0. -1.
         -1    1    6    6    0  503  0.36616593741E+02  0.37467516434E+03  0.30010121708E+03  0.48143846357E+03  0.00000000000E+00 0.  1.
<mgrwt>
<rscale>  0 0.39251792E+04</rscale>
<asrwt>0</asrwt>
<pdfrwt beam="1">  1        1 0.51130442E+00 0.39251792E+04</pdfrwt>
<pdfrwt beam="2">  1       -2 0.17830057E+00 0.39251792E+04</pdfrwt>
<totfact> 0.44238680E-02</totfact>
</mgrwt>
</event>
<event>
12    4  0.4486176E-008  0.1249418E+04  0.7818608E-02  0.9070668E-01
          1   -1    0    0  501    0  0.00000000000E+00  0.00000000000E+00  0.25685192058E+04  0.25685192058E+04  0.00000000000E+00 0. -1.
         -2   -1    0    0    0  501 -0.00000000000E+00 -0.00000000000E+00 -0.15194024115E+03  0.15194024115E+03  0.00000000000E+00 0.  1.
        -24    2    1    2    0    0 -0.18182280761E+03 -0.19320832577E+03  0.31862488414E+03  0.42226407019E+03  0.79975856742E+02 0.  0.
        254    2    1    2    0    0  0.18182280761E+03  0.19320832577E+03  0.20979540806E+04  0.22981953768E+04  0.89994537354E+03 0.  0.
         23    2    4    4    0    0 -0.29247787759E+03  0.27546727872E+03  0.65033202547E+03  0.76980399414E+03  0.90779488342E+02 0.  0.
         23    2    4    4    0    0  0.47430068520E+03 -0.82258952953E+02  0.14476220551E+04  0.15283913827E+04  0.92967354186E+02 0.  0.
          3    1    3    3  502    0  0.77935113597E+01 -0.26975508701E+01  0.11085437720E+02  0.13816748151E+02  0.00000000000E+00 0. -1.
         -4    1    3    3    0  502 -0.18961631897E+03 -0.19051077490E+03  0.30753944642E+03  0.40844732203E+03  0.00000000000E+00 0.  1.
         11    1    5    5    0    0 -0.24539786813E+03  0.24374386410E+03  0.49046244270E+03  0.60015380751E+03  0.00000000000E+00 0. -1.
        -11    1    5    5    0    0 -0.47080009464E+02  0.31723414623E+02  0.15986958277E+03  0.16965018663E+03  0.00000000000E+00 0.  1.
          3    1    6    6  503    0  0.32310671263E+03 -0.98714696383E+02  0.10241770120E+04  0.10784623734E+04  0.00000000000E+00 0. -1.
         -3    1    6    6    0  503  0.15119397257E+03  0.16455743430E+02  0.42344504313E+03  0.44992900927E+03  0.00000000000E+00 0.  1.
<mgrwt>
<rscale>  0 0.12494181E+04</rscale>
<asrwt>0</asrwt>
<pdfrwt beam="1">  1        1 0.39515677E+00 0.12494181E+04</pdfrwt>
<pdfrwt beam="2">  1       -2 0.23375424E-01 0.12494181E+04</pdfrwt>
<totfact> 0.17128364E+01</totfact>
</mgrwt>
</event>
<event>
12    4  0.4486176E-008  0.1692206E+04  0.7818608E-02  0.8765822E-01
          1   -1    0    0  501    0  0.00000000000E+00  0.00000000000E+00  0.17333868877E+04  0.17333868877E+04  0.00000000000E+00 0. -1.
         -2   -1    0    0    0  501 -0.00000000000E+00 -0.00000000000E+00 -0.41300083695E+03  0.41300083695E+03  0.00000000000E+00 0.  1.
        -24    2    1    2    0    0  0.50373348063E+03 -0.10622428669E+03  0.78238566759E+02  0.52688919561E+03  0.80373705450E+02 0.  0.
        254    2    1    2    0    0 -0.50373348063E+03  0.10622428669E+03  0.12421474840E+04  0.16194985291E+04  0.90267053515E+03 0.  0.
         23    2    4    4    0    0 -0.31061706430E+03 -0.38461831074E+03  0.62589318353E+03  0.80291897529E+03  0.92316835350E+02 0.  0.
         23    2    4    4    0    0 -0.19311641634E+03  0.49084259743E+03  0.61625430047E+03  0.81657955378E+03  0.93874379281E+02 0.  0.
          3    1    3    3  502    0  0.15616805649E+02  0.94561677027E+01  0.94505364953E+01  0.20557635232E+02  0.00000000000E+00 0. -1.
         -4    1    3    3    0  502  0.48811667498E+03 -0.11568045439E+03  0.68788030263E+02  0.50633156038E+03  0.00000000000E+00 0.  1.
         11    1    5    5    0    0 -0.24983773290E+03 -0.25185770726E+03  0.47610069650E+03  0.59373653306E+03  0.00000000000E+00 0.  1.
        -11    1    5    5    0    0 -0.60779331398E+02 -0.13276060349E+03  0.14979248704E+03  0.20918244223E+03  0.00000000000E+00 0. -1.
          4    1    6    6  503    0 -0.78655476086E+02  0.93218954033E+02  0.13774377853E+03  0.18398316725E+03  0.00000000000E+00 0. -1.
         -4    1    6    6    0  503 -0.11446094025E+03  0.39762364340E+03  0.47851052195E+03  0.63259638653E+03  0.00000000000E+00 0.  1.
<mgrwt>
<rscale>  0 0.16922059E+04</rscale>
<asrwt>0</asrwt>
<pdfrwt beam="1">  1        1 0.26667490E+00 0.16922059E+04</pdfrwt>
<pdfrwt beam="2">  1       -2 0.63538592E-01 0.16922059E+04</pdfrwt>
<totfact> 0.86656795E+00</totfact>
</mgrwt>
</event>
<event>
12    4  0.4486176E-008  0.3135117E+04  0.7818608E-02  0.8206166E-01
          1   -1    0    0  501    0  0.00000000000E+00  0.00000000000E+00  0.33692343654E+04  0.33692343654E+04  0.00000000000E+00 0. -1.
         -2   -1    0    0    0  501 -0.00000000000E+00 -0.00000000000E+00 -0.72931693644E+03  0.72931693644E+03  0.00000000000E+00 0.  1.
        -24    2    1    2    0    0 -0.10749597107E+04 -0.87218292442E+03  0.71090056739E+03  0.15582302104E+04  0.80376230776E+02 0.  0.
        254    2    1    2    0    0  0.10749597107E+04  0.87218292442E+03  0.19290168616E+04  0.25403210915E+04  0.90326284228E+03 0.  0.
         23    2    4    4    0    0  0.96813118158E+03  0.91664428756E+03  0.11975779993E+04  0.17940489516E+04  0.83089358857E+02 0.  0.
         23    2    4    4    0    0  0.10682852914E+03 -0.44461363144E+02  0.73143886224E+03  0.74627213988E+03  0.92358811819E+02 0.  0.
          3    1    3    3  502    0 -0.25757797839E+03 -0.17640437864E+03  0.13565484929E+03  0.34039265252E+03  0.00000000000E+00 0. -1.
         -4    1    3    3    0  502 -0.81738173233E+03 -0.69577854578E+03  0.57524571810E+03  0.12178375578E+04  0.00000000000E+00 0.  1.
         11    1    5    5    0    0  0.68335007690E+03  0.68029685691E+03  0.90280647878E+03  0.13209203910E+04  0.00000000000E+00 0. -1.
        -11    1    5    5    0    0  0.28478110468E+03  0.23634743065E+03  0.29477152055E+03  0.47312856063E+03  0.00000000000E+00 0.  1.
          1    1    6    6  503    0  0.11153104402E+03 -0.29044535320E+02  0.45519885510E+03  0.46956230311E+03  0.00000000000E+00 0. -1.
         -1    1    6    6    0  503 -0.47025148751E+01 -0.15416827824E+02  0.27624000713E+03  0.27670983677E+03  0.00000000000E+00 0.  1.
<mgrwt>
<rscale>  0 0.31351170E+04</rscale>
<asrwt>0</asrwt>
<pdfrwt beam="1">  1        1 0.51834374E+00 0.31351170E+04</pdfrwt>
<pdfrwt beam="2">  1       -2 0.11220261E+00 0.31351170E+04</pdfrwt>
<totfact> 0.14641738E-01</totfact>
</mgrwt>
</event>
<event>
12    4  0.4486176E-008  0.1344828E+04  0.7818608E-02  0.8994752E-01
          1   -1    0    0  501    0  0.00000000000E+00  0.00000000000E+00  0.87392474986E+03  0.87392474986E+03  0.00000000000E+00 0. -1.
         -2   -1    0    0    0  501 -0.00000000000E+00 -0.00000000000E+00 -0.51736805262E+03  0.51736805262E+03  0.00000000000E+00 0.  1.
        -24    2    1    2    0    0  0.25200380048E+02 -0.11471053085E+03  0.44859196110E+03  0.47075130025E+03  0.81107792966E+02 0.  0.
        254    2    1    2    0    0 -0.25200380048E+02  0.11471053085E+03 -0.92035263859E+02  0.92054150223E+03  0.90836809856E+03 0.  0.
         23    2    4    4    0    0 -0.36348740024E+03 -0.21523222846E+03 -0.82751062022E+02  0.43978768151E+03  0.90096971326E+02 0.  0.
         23    2    4    4    0    0  0.33828702019E+03  0.32994275930E+03 -0.92842018367E+01  0.48075382072E+03  0.87964238661E+02 0.  0.
          1    1    3    3  502    0 -0.27954256366E+02 -0.25820847714E+02  0.14811780959E+03  0.15292822546E+03  0.00000000000E+00 0. -1.
         -2    1    3    3    0  502  0.53154636414E+02 -0.88889683132E+02  0.30047415151E+03  0.31782307478E+03  0.00000000000E+00 0.  1.
         11    1    5    5    0    0 -0.25063121180E+03 -0.97993870211E+02 -0.56007212663E+02  0.27487380886E+03  0.00000000000E+00 0. -1.
        -11    1    5    5    0    0 -0.11285618844E+03 -0.11723835825E+03 -0.26743849359E+02  0.16491387265E+03  0.00000000000E+00 0.  1.
          3    1    6    6  503    0  0.13281555680E+02  0.26389266585E+02  0.19021203845E+02  0.35136865368E+02  0.00000000000E+00 0. -1.
         -3    1    6    6    0  503  0.32500546451E+03  0.30355349272E+03 -0.28305405681E+02  0.44561695535E+03  0.00000000000E+00 0.  1.
<mgrwt>
<rscale>  0 0.13448282E+04</rscale>
<asrwt>0</asrwt>
<pdfrwt beam="1">  1        1 0.13444996E+00 0.13448282E+04</pdfrwt>
<pdfrwt beam="2">  1       -2 0.79595085E-01 0.13448282E+04</pdfrwt>
<totfact> 0.22946767E+01</totfact>
</mgrwt>
</event>
<event>
12    4  0.4486176E-008  0.3098877E+04  0.7818608E-02  0.8216046E-01
         -2   -1    0    0    0  501 -0.00000000000E+00  0.00000000000E+00  0.12161273370E+04  0.12161273370E+04  0.00000000000E+00 0.  1.
          1   -1    0    0  501    0  0.00000000000E+00 -0.00000000000E+00 -0.19741019963E+04  0.19741019963E+04  0.00000000000E+00 0. -1.
        -24    2    1    2    0    0  0.62328712983E+03 -0.34658334548E+03 -0.16699573963E+04  0.18175850954E+04  0.79063341861E+02 0.  0.
        254    2    1    2    0    0 -0.62328712983E+03  0.34658334548E+03  0.91198273699E+03  0.13726442378E+04  0.73745022174E+03 0.  0.
         23    2    4    4    0    0 -0.48334606356E+03  0.31622927376E+03  0.16539580679E+03  0.60729428284E+03  0.88465825760E+02 0.  0.
         23    2    4    4    0    0 -0.13994106627E+03  0.30354071719E+02  0.74658693020E+03  0.76534995500E+03  0.88677153656E+02 0.  0.
          3    1    3    3  502    0  0.57471798453E+03 -0.29367322343E+03 -0.15182232196E+04  0.16497110257E+04  0.00000000000E+00 0. -1.
         -4    1    3    3    0  502  0.48569145300E+02 -0.52910122049E+02 -0.15173417672E+03  0.16787406970E+03  0.00000000000E+00 0.  1.
         11    1    5    5    0    0 -0.36907291648E+03  0.19584545645E+03  0.10655166354E+03  0.43118849415E+03  0.00000000000E+00 0.  1.
        -11    1    5    5    0    0 -0.11427314709E+03  0.12038381731E+03  0.58844143245E+02  0.17610578869E+03  0.00000000000E+00 0. -1.
          2    1    6    6  503    0 -0.70997696401E+02 -0.26651536778E+02  0.27040399932E+03  0.28083678562E+03  0.00000000000E+00 0. -1.
         -2    1    6    6    0  503 -0.68943369869E+02  0.57005608497E+02  0.47618293088E+03  0.48451316938E+03  0.00000000000E+00 0.  1.
<mgrwt>
<rscale>  0 0.30988768E+04</rscale>
<asrwt>0</asrwt>
<pdfrwt beam="1">  1        1 0.30370800E+00 0.30988768E+04</pdfrwt>
<pdfrwt beam="2">  1       -2 0.18709651E+00 0.30988768E+04</pdfrwt>
<totfact> 0.37331132E-01</totfact>
</mgrwt>
</event>
<event>
12    4  0.4486176E-008  0.1528718E+04  0.7818608E-02  0.8865577E-01
          3   -1    0    0  501    0  0.00000000000E+00  0.00000000000E+00  0.25099674480E+04  0.25099674480E+04  0.00000000000E+00 0. -1.
         -4   -1    0    0    0  501 -0.00000000000E+00 -0.00000000000E+00 -0.23276997344E+03  0.23276997344E+03  0.00000000000E+00 0.  1.
        -24    2    1    2    0    0 -0.40582484215E+03 -0.27996347672E+03  0.74807453455E+03  0.90176214104E+03  0.10240165509E+03 0.  0.
        254    2    1    2    0    0  0.40582484215E+03  0.27996347672E+03  0.15291229400E+04  0.18409752803E+04  0.89883239068E+03 0.  0.
         23    2    4    4    0    0  0.18635655247E+03  0.47048072847E+03  0.34711309476E+03  0.62034608225E+03  0.90889387188E+02 0.  0.
         23    2    4    4    0    0  0.21946828968E+03 -0.19051725175E+03  0.11820098452E+04  0.12206291981E+04  0.91242598138E+02 0.  0.
          1    1    3    3  502    0 -0.29242518669E+02  0.64328013174E+01  0.54617919183E+02  0.62286619163E+02  0.00000000000E+00 0. -1.
         -2    1    3    3    0  502 -0.37658232348E+03 -0.28639627804E+03  0.69345661537E+03  0.83947552188E+03  0.00000000000E+00 0.  1.
         11    1    5    5    0    0  0.15215414612E+03  0.37103251698E+03  0.22742186913E+03  0.46101704892E+03  0.00000000000E+00 0.  1.
        -11    1    5    5    0    0  0.34202406342E+02  0.99448211483E+02  0.11969122564E+03  0.15932903333E+03  0.00000000000E+00 0. -1.
          2    1    6    6  503    0  0.71556179230E+02 -0.96655839961E+02  0.34146137655E+03  0.36202004068E+03  0.00000000000E+00 0. -1.
         -2    1    6    6    0  503  0.14791211045E+03 -0.93861411786E+02  0.84054846865E+03  0.85860915741E+03  0.00000000000E+00 0.  1.
<mgrwt>
<rscale>  0 0.15287185E+04</rscale>
<asrwt>0</asrwt>
<pdfrwt beam="1">  1        3 0.38614882E+00 0.15287185E+04</pdfrwt>
<pdfrwt beam="2">  1       -4 0.35810767E-01 0.15287185E+04</pdfrwt>
<totfact> 0.22387424E-01</totfact>
</mgrwt>
</event>
<event>
12    4  0.4486176E-008  0.1135545E+04  0.7818608E-02  0.9171223E-01
         -2   -1    0    0    0  501 -0.00000000000E+00  0.00000000000E+00  0.14485506642E+04  0.14485506642E+04  0.00000000000E+00 0.  1.
          1   -1    0    0  501    0  0.00000000000E+00 -0.00000000000E+00 -0.22254353183E+03  0.22254353183E+03  0.00000000000E+00 0. -1.
        -24    2    1    2    0    0 -0.13341272869E+03 -0.53361309605E+02  0.13128473694E+03  0.21022119313E+03  0.79441062093E+02 0.  0.
        254    2    1    2    0    0  0.13341272869E+03  0.53361309605E+02  0.10947223954E+04  0.14608730029E+04  0.95660149594E+03 0.  0.
         23    2    4    4    0    0  0.43558254275E+03  0.25183034256E+03  0.91174828889E+03  0.10455600886E+04  0.93596386961E+02 0.  0.
         23    2    4    4    0    0 -0.30216981406E+03 -0.19846903296E+03  0.18297410652E+03  0.41531291427E+03  0.91152287577E+02 0.  0.
          1    1    3    3  502    0 -0.13098382719E+02 -0.92343706601E+01 -0.10457135403E+02  0.19136167646E+02  0.00000000000E+00 0. -1.
         -2    1    3    3    0  502 -0.12031434597E+03 -0.44126938945E+02  0.14174187235E+03  0.19108502548E+03  0.00000000000E+00 0.  1.
         11    1    5    5    0    0  0.42503642332E+03  0.24032554640E+03  0.83536450492E+03  0.96759815289E+03  0.00000000000E+00 0.  1.
        -11    1    5    5    0    0  0.10546119430E+02  0.11504796161E+02  0.76383783976E+02  0.77961935740E+02  0.00000000000E+00 0. -1.
          2    1    6    6  503    0 -0.21910585265E+03 -0.15521818473E+03  0.17672992187E+03  0.32145532321E+03  0.00000000000E+00 0.  1.
         -2    1    6    6    0  503 -0.83063961408E+02 -0.43250848222E+02  0.62441846492E+01  0.93857591055E+02  0.00000000000E+00 0. -1.
<mgrwt>
<rscale>  0 0.11355449E+04</rscale>
<asrwt>0</asrwt>
<pdfrwt beam="1">  1        1 0.34237467E-01 0.11355449E+04</pdfrwt>
<pdfrwt beam="2">  1       -2 0.22285394E+00 0.11355449E+04</pdfrwt>
<totfact> 0.10646339E+01</totfact>
</mgrwt>
</event>
<event>
12    4  0.4486176E-008  0.1523099E+04  0.7818608E-02  0.8869236E-01
          1   -1    0    0  501    0  0.00000000000E+00  0.00000000000E+00  0.91254179195E+03  0.91254179195E+03  0.00000000000E+00 0. -1.
         -2   -1    0    0    0  501 -0.00000000000E+00 -0.00000000000E+00 -0.63554129067E+03  0.63554129067E+03  0.00000000000E+00 0.  1.
        -24    2    1    2    0    0  0.13536130088E+03  0.48828530084E+03 -0.13054277419E+03  0.52947071198E+03  0.80948144854E+02 0.  0.
        254    2    1    2    0    0 -0.13536130088E+03 -0.48828530084E+03  0.40754327548E+03  0.10186123706E+04  0.78405001335E+03 0.  0.
         23    2    4    4    0    0  0.14196925371E+03 -0.58534409838E+03  0.18180086382E+03  0.63688685622E+03  0.98946101679E+02 0.  0.
         23    2    4    4    0    0 -0.27733055458E+03  0.97058797538E+02  0.22574241166E+03  0.38172551441E+03  0.91771919725E+02 0.  0.
          3    1    3    3  502    0  0.40955640641E+02  0.16042644278E+03 -0.41260892550E+01  0.16562316461E+03  0.00000000000E+00 0. -1.
         -4    1    3    3    0  502  0.94405660234E+02  0.32785885807E+03 -0.12641668494E+03  0.36384754737E+03  0.00000000000E+00 0.  1.
         11    1    5    5    0    0  0.73263601993E+02 -0.35399233990E+03  0.59601484423E+02  0.36637476582E+03  0.00000000000E+00 0. -1.
        -11    1    5    5    0    0  0.68705651713E+02 -0.23135175848E+03  0.12219937939E+03  0.27051209041E+03  0.00000000000E+00 0.  1.
          3    1    6    6  503    0 -0.14543593920E+03  0.95757791416E+02  0.14863440819E+03  0.22893963031E+03  0.00000000000E+00 0. -1.
         -3    1    6    6    0  503 -0.13189461538E+03  0.13010061228E+01  0.77108003464E+02  0.15278588410E+03  0.00000000000E+00 0.  1.
<mgrwt>
<rscale>  0 0.15230995E+04</rscale>
<asrwt>0</asrwt>
<pdfrwt beam="1">  1        1 0.14039104E+00 0.15230995E+04</pdfrwt>
<pdfrwt beam="2">  1       -2 0.97775584E-01 0.15230995E+04</pdfrwt>
<totfact> 0.13100225E+01</totfact>
</mgrwt>
</event>
<event>
12    4  0.4486176E-008  0.1340815E+04  0.7818608E-02  0.8997810E-01
          1   -1    0    0  501    0  0.00000000000E+00  0.00000000000E+00  0.10004054203E+04  0.10004054203E+04  0.00000000000E+00 0. -1.
         -2   -1    0    0    0  501 -0.00000000000E+00 -0.00000000000E+00 -0.44926389693E+03  0.44926389693E+03  0.00000000000E+00 0.  1.
        -24    2    1    2    0    0 -0.88610983326E+02 -0.50771061752E+02 -0.25996045288E+03  0.29075351442E+03  0.80799517374E+02 0.  0.
        254    2    1    2    0    0  0.88610983326E+02  0.50771061752E+02  0.81110197627E+03  0.11589158028E+04  0.82144373823E+03 0.  0.
         23    2    4    4    0    0 -0.17940543759E+03 -0.30875593940E+03  0.31597534427E+03  0.48483396675E+03  0.87789612000E+02 0.  0.
         23    2    4    4    0    0  0.26801642092E+03  0.35952700115E+03  0.49512663200E+03  0.67408183609E+03  0.90241196716E+02 0.  0.
          3    1    3    3  502    0 -0.50843390341E+02  0.15757974714E+02 -0.94410749496E+02  0.10838244198E+03  0.00000000000E+00 0. -1.
         -4    1    3    3    0  502 -0.37767592984E+02 -0.66529036466E+02 -0.16554970339E+03  0.18237107244E+03  0.00000000000E+00 0.  1.
         11    1    5    5    0    0 -0.14884162917E+03 -0.30161353533E+03  0.28919321541E+03  0.44357329846E+03  0.00000000000E+00 0. -1.
        -11    1    5    5    0    0 -0.30563808424E+02 -0.71424040669E+01  0.26782128863E+02  0.41260668290E+02  0.00000000000E+00 0.  1.
          3    1    6    6  503    0  0.22334885568E+03  0.30505419771E+03  0.36185254998E+03  0.52333549737E+03  0.00000000000E+00 0. -1.
         -3    1    6    6    0  503  0.44667565238E+02  0.54472803437E+02  0.13327408202E+03  0.15074633872E+03  0.00000000000E+00 0.  1.
<mgrwt>
<rscale>  0 0.13408147E+04</rscale>
<asrwt>0</asrwt>
<pdfrwt beam="1">  1        1 0.15390853E+00 0.13408147E+04</pdfrwt>
<pdfrwt beam="2">  1       -2 0.69117523E-01 0.13408147E+04</pdfrwt>
<totfact> 0.24815439E+01</totfact>
</mgrwt>
</event>
<event>
12    4  0.4486176E-008  0.2294997E+04  0.7818608E-02  0.8479896E-01
          1   -1    0    0  501    0  0.00000000000E+00  0.00000000000E+00  0.78433932876E+03  0.78433932876E+03  0.00000000000E+00 0. -1.
         -2   -1    0    0    0  501 -0.00000000000E+00 -0.00000000000E+00 -0.16788050828E+04  0.16788050828E+04  0.00000000000E+00 0.  1.
        -24    2    1    2    0    0  0.38523420484E+03 -0.88227550916E+03 -0.26572635004E+03  0.10020172665E+04  0.81318156978E+02 0.  0.
        254    2    1    2    0    0 -0.38523420484E+03  0.88227550916E+03 -0.62873940399E+03  0.14611271450E+04  0.90153415308E+03 0.  0.
         23    2    4    4    0    0 -0.61114062221E+03  0.73011963065E+03 -0.67135280051E+03  0.11685018929E+04  0.90080829235E+02 0.  0.
         23    2    4    4    0    0  0.22590641737E+03  0.15215587852E+03  0.42613396521E+02  0.29262525213E+03  0.98125001128E+02 0.  0.
          3    1    3    3  502    0  0.34208808613E+03 -0.81168934512E+03 -0.26294951003E+03  0.91924224037E+03  0.00000000000E+00 0. -1.
         -4    1    3    3    0  502  0.43146118712E+02 -0.70586164048E+02 -0.27768400079E+01  0.82775026157E+02  0.00000000000E+00 0.  1.
         11    1    5    5    0    0 -0.28957473782E+03  0.30324612685E+03 -0.33853513381E+03  0.53890423923E+03  0.00000000000E+00 0.  1.
        -11    1    5    5    0    0 -0.32156588438E+03  0.42687350379E+03 -0.33281766669E+03  0.62959765367E+03  0.00000000000E+00 0. -1.
          4    1    6    6  503    0  0.88872043956E+02  0.58901615625E+01  0.12040720433E+02  0.89877211510E+02  0.00000000000E+00 0. -1.
         -4    1    6    6    0  503  0.13703437341E+03  0.14626571695E+03  0.30572676088E+02  0.20274804062E+03  0.00000000000E+00 0.  1.
<mgrwt>
<rscale>  0 0.22949970E+04</rscale>
<asrwt>0</asrwt>
<pdfrwt beam="1">  1        1 0.12066759E+00 0.22949970E+04</pdfrwt>
<pdfrwt beam="2">  1       -2 0.25827770E+00 0.22949970E+04</pdfrwt>
<totfact> 0.10338801E+00</totfact>
</mgrwt>
</event>
<event>
12    4  0.4486176E-008  0.2061640E+04  0.7818608E-02  0.8578332E-01
         -2   -1    0    0    0  501 -0.00000000000E+00  0.00000000000E+00  0.14612352131E+04  0.14612352131E+04  0.00000000000E+00 0.  1.
          1   -1    0    0  501    0  0.00000000000E+00 -0.00000000000E+00 -0.72718634058E+03  0.72718634058E+03  0.00000000000E+00 0. -1.
        -24    2    1    2    0    0  0.23966454982E+03 -0.72991331170E+03 -0.43209499672E+02  0.77353823319E+03  0.79257796497E+02 0.  0.
        254    2    1    2    0    0 -0.23966454982E+03  0.72991331170E+03  0.77725837222E+03  0.14148833205E+04  0.89863880089E+03 0.  0.
         23    2    4    4    0    0  0.12259991818E+03 -0.12065267531E+03  0.32998022160E+03  0.38365211045E+03  0.93349810983E+02 0.  0.
         23    2    4    4    0    0 -0.36226446800E+03  0.85056598701E+03  0.44727815062E+03  0.10312312101E+04  0.93177366222E+02 0.  0.
          3    1    3    3  502    0  0.49452988933E+02 -0.20983299362E+03 -0.42677681971E+02  0.21976548379E+03  0.00000000000E+00 0. -1.
         -4    1    3    3    0  502  0.19021156089E+03 -0.52008031808E+03 -0.53181770117E+00  0.55377274940E+03  0.00000000000E+00 0.  1.
         11    1    5    5    0    0 -0.13403474418E+02 -0.23307111911E+02  0.30703035599E+02  0.40811162531E+02  0.00000000000E+00 0. -1.
        -11    1    5    5    0    0  0.13600339260E+03 -0.97345563395E+02  0.29927718601E+03  0.34284094792E+03  0.00000000000E+00 0.  1.
          2    1    6    6  503    0 -0.13663408928E+03  0.40777070723E+03  0.17251214609E+03  0.46336407346E+03  0.00000000000E+00 0. -1.
         -2    1    6    6    0  503 -0.22563037872E+03  0.44279527978E+03  0.27476600453E+03  0.56786713661E+03  0.00000000000E+00 0.  1.
<mgrwt>
<rscale>  0 0.20616404E+04</rscale>
<asrwt>0</asrwt>
<pdfrwt beam="1">  1        1 0.11187482E+00 0.20616404E+04</pdfrwt>
<pdfrwt beam="2">  1       -2 0.22480542E+00 0.20616404E+04</pdfrwt>
<totfact> 0.19137352E+00</totfact>
</mgrwt>
</event>
<event>
12    4  0.4486176E-008  0.1116033E+04  0.7818608E-02  0.9189704E-01
          3   -1    0    0  501    0  0.00000000000E+00  0.00000000000E+00  0.64919479803E+03  0.64919479803E+03  0.00000000000E+00 0. -1.
         -4   -1    0    0    0  501 -0.00000000000E+00 -0.00000000000E+00 -0.47964402880E+03  0.47964402880E+03  0.00000000000E+00 0.  1.
        -24    2    1    2    0    0  0.61665311142E+02  0.11311942622E+03 -0.10704819641E+03  0.18423592603E+03  0.76713394521E+02 0.  0.
        254    2    1    2    0    0 -0.61665311142E+02 -0.11311942622E+03  0.27659896565E+03  0.94460290079E+03  0.89396254799E+03 0.  0.
         23    2    4    4    0    0 -0.15524194570E+03 -0.13835351957E+03  0.57511839950E+03  0.61803812564E+03  0.89264736679E+02 0.  0.
         23    2    4    4    0    0  0.93576634561E+02  0.25234093352E+02 -0.29851943385E+03  0.32656477516E+03  0.90207283430E+02 0.  0.
          1    1    3    3  502    0  0.35349143157E+02  0.13732567498E+02 -0.31272349712E+01  0.38051608778E+02  0.00000000000E+00 0. -1.
         -2    1    3    3    0  502  0.26316167985E+02  0.99386858717E+02 -0.10392096144E+03  0.14618431725E+03  0.00000000000E+00 0.  1.
         11    1    5    5    0    0  0.46161371652E+01 -0.12723274063E+02  0.83451313041E+01  0.15900680542E+02  0.00000000000E+00 0. -1.
        -11    1    5    5    0    0 -0.15985808287E+03 -0.12563024550E+03  0.56677326820E+03  0.60213744509E+03  0.00000000000E+00 0.  1.
          1    1    6    6  503    0  0.93806933563E+02  0.39120347629E+01 -0.15314020565E+03  0.17963008486E+03  0.00000000000E+00 0. -1.
         -1    1    6    6    0  503 -0.23029900183E+00  0.21322058589E+02 -0.14537922821E+03  0.14693469030E+03  0.00000000000E+00 0.  1.
<mgrwt>
<rscale>  0 0.11160330E+04</rscale>
<asrwt>0</asrwt>
<pdfrwt beam="1">  1        3 0.99876122E-01 0.11160330E+04</pdfrwt>
<pdfrwt beam="2">  1       -4 0.73791389E-01 0.11160330E+04</pdfrwt>
<totfact> 0.33130414E+00</totfact>
</mgrwt>
</event>
<event>
12    4  0.4486176E-008  0.1448954E+04  0.7818608E-02  0.8919126E-01
         -4   -1    0    0    0  501 -0.00000000000E+00  0.00000000000E+00  0.16986442065E+04  0.16986442065E+04  0.00000000000E+00 0.  1.
          3   -1    0    0  501    0  0.00000000000E+00 -0.00000000000E+00 -0.30899165408E+03  0.30899165408E+03  0.00000000000E+00 0. -1.
        -24    2    1    2    0    0  0.12004294970E+03  0.34650709952E+03  0.74851252127E+03  0.83735940615E+03  0.80139258676E+02 0.  0.
        254    2    1    2    0    0 -0.12004294970E+03 -0.34650709952E+03  0.64114003115E+03  0.11702764544E+04  0.90774939299E+03 0.  0.
         23    2    4    4    0    0  0.29243121243E+03  0.11188194003E+03  0.93881409556E+02  0.34088261876E+03  0.96714312276E+02 0.  0.
         23    2    4    4    0    0 -0.41247416214E+03 -0.45838903955E+03  0.54725862160E+03  0.82939383568E+03  0.90259014705E+02 0.  0.
          3    1    3    3  502    0  0.26796306198E+02  0.40065452223E+02  0.16274775577E+03  0.16973542499E+03  0.00000000000E+00 0. -1.
         -4    1    3    3    0  502  0.93246643507E+02  0.30644164730E+03  0.58576476550E+03  0.66762398116E+03  0.00000000000E+00 0.  1.
         11    1    5    5    0    0  0.50791020393E+02 -0.11353801440E+02  0.36665248489E+02  0.63662995583E+02  0.00000000000E+00 0.  1.
        -11    1    5    5    0    0  0.24164019204E+03  0.12323574147E+03  0.57216161066E+02  0.27721962317E+03  0.00000000000E+00 0. -1.
          1    1    6    6  503    0 -0.24180395726E+03 -0.33204744481E+03  0.36820937341E+03  0.55163647633E+03  0.00000000000E+00 0. -1.
         -1    1    6    6    0  503 -0.17067020488E+03 -0.12634159474E+03  0.17904924819E+03  0.27775735935E+03  0.00000000000E+00 0.  1.
<mgrwt>
<rscale>  0 0.14489539E+04</rscale>
<asrwt>0</asrwt>
<pdfrwt beam="1">  1        3 0.47537178E-01 0.14489539E+04</pdfrwt>
<pdfrwt beam="2">  1       -4 0.26132987E+00 0.14489539E+04</pdfrwt>
<totfact> 0.52557125E-01</totfact>
</mgrwt>
</event>
<event>
12    4  0.4486176E-008  0.2728196E+04  0.7818608E-02  0.8325914E-01
          1   -1    0    0  501    0  0.00000000000E+00  0.00000000000E+00  0.24176150749E+04  0.24176150749E+04  0.00000000000E+00 0. -1.
         -2   -1    0    0    0  501 -0.00000000000E+00 -0.00000000000E+00 -0.76966882178E+03  0.76966882178E+03  0.00000000000E+00 0.  1.
        -24    2    1    2    0    0  0.32061785557E+03  0.94438329777E+03 -0.61761624903E+02  0.10025542719E+04  0.81516546612E+02 0.  0.
        254    2    1    2    0    0 -0.32061785557E+03 -0.94438329777E+03  0.17097078780E+04  0.21847296248E+04  0.92481721589E+03 0.  0.
         23    2    4    4    0    0 -0.54143447912E+03 -0.85646334092E+03  0.98284095334E+03  0.14144178491E+04  0.88998667424E+02 0.  0.
         23    2    4    4    0    0  0.22081662355E+03 -0.87919956856E+02  0.72686692469E+03  0.77031177568E+03  0.92492191517E+02 0.  0.
          3    1    3    3  502    0  0.27217100248E+03  0.79988875157E+03 -0.22711030341E+02  0.84523065513E+03  0.00000000000E+00 0. -1.
         -4    1    3    3    0  502  0.48446853097E+02  0.14449454621E+03 -0.39050594563E+02  0.15732361677E+03  0.00000000000E+00 0.  1.
         11    1    5    5    0    0 -0.45856862711E+03 -0.67075445205E+03  0.75706230334E+03  0.11105584414E+04  0.00000000000E+00 0. -1.
        -11    1    5    5    0    0 -0.82865852006E+02 -0.18570888887E+03  0.22577865000E+03  0.30385940767E+03  0.00000000000E+00 0.  1.
          4    1    6    6  503    0  0.13159560962E+03 -0.90461959109E+02  0.54182728882E+03  0.56486952602E+03  0.00000000000E+00 0. -1.
         -4    1    6    6    0  503  0.89221013923E+02  0.25420022538E+01  0.18503963588E+03  0.20544224966E+03  0.00000000000E+00 0.  1.
<mgrwt>
<rscale>  0 0.27281957E+04</rscale>
<asrwt>0</asrwt>
<pdfrwt beam="1">  1        1 0.37194078E+00 0.27281957E+04</pdfrwt>
<pdfrwt beam="2">  1       -2 0.11841059E+00 0.27281957E+04</pdfrwt>
<totfact> 0.64934735E-01</totfact>
</mgrwt>
</event>
<event>
12    4  0.4486176E-008  0.1218993E+04  0.7818608E-02  0.9096393E-01
          1   -1    0    0  501    0  0.00000000000E+00  0.00000000000E+00  0.12798129294E+04  0.12798129294E+04  0.00000000000E+00 0. -1.
         -2   -1    0    0    0  501 -0.00000000000E+00 -0.00000000000E+00 -0.29026575630E+03  0.29026575630E+03  0.00000000000E+00 0.  1.
        -24    2    1    2    0    0  0.74657800936E+02  0.23948717315E+03  0.34228176380E+03  0.43176238183E+03  0.79586777765E+02 0.  0.
        254    2    1    2    0    0 -0.74657800936E+02 -0.23948717315E+03  0.64726540926E+03  0.11383163038E+04  0.90215497793E+03 0.  0.
         23    2    4    4    0    0  0.80487787480E+02 -0.55185424113E+03  0.47940814480E+03  0.74114695213E+03  0.91898030269E+02 0.  0.
         23    2    4    4    0    0 -0.15514558842E+03  0.31236706798E+03  0.16785726446E+03  0.39716935169E+03  0.89017379921E+02 0.  0.
          1    1    3    3  502    0  0.86412617880E+02  0.18684968761E+03  0.29682604848E+03  0.36122797420E+03  0.00000000000E+00 0. -1.
         -2    1    3    3    0  502 -0.11754816944E+02  0.52637485535E+02  0.45455715319E+02  0.70534407632E+02  0.00000000000E+00 0.  1.
         11    1    5    5    0    0  0.51499222101E+02 -0.37683932330E+03  0.38068627828E+03  0.53812831921E+03  0.00000000000E+00 0.  1.
        -11    1    5    5    0    0  0.28988565379E+02 -0.17501491783E+03  0.98721866524E+02  0.20301863293E+03  0.00000000000E+00 0. -1.
          1    1    6    6  503    0 -0.10991961550E+03  0.25904326998E+03  0.16704265838E+03  0.32724453748E+03  0.00000000000E+00 0. -1.
         -1    1    6    6    0  503 -0.45225972914E+02  0.53323798006E+02  0.81460608172E+00  0.69924814215E+02  0.00000000000E+00 0.  1.
<mgrwt>
<rscale>  0 0.12189928E+04</rscale>
<asrwt>0</asrwt>
<pdfrwt beam="1">  1        1 0.19689429E+00 0.12189928E+04</pdfrwt>
<pdfrwt beam="2">  1       -2 0.44656271E-01 0.12189928E+04</pdfrwt>
<totfact> 0.38551173E+01</totfact>
</mgrwt>
</event>
<event>
12    4  0.4486176E-008  0.1136812E+04  0.7818608E-02  0.9170037E-01
          1   -1    0    0  501    0  0.00000000000E+00  0.00000000000E+00  0.69094253152E+03  0.69094253152E+03  0.00000000000E+00 0. -1.
         -2   -1    0    0    0  501 -0.00000000000E+00 -0.00000000000E+00 -0.46760086258E+03  0.46760086258E+03  0.00000000000E+00 0.  1.
        -24    2    1    2    0    0  0.23809692842E+03  0.10900485562E+03  0.30567906233E+02  0.27557852533E+03  0.80230423504E+02 0.  0.
        254    2    1    2    0    0 -0.23809692842E+03 -0.10900485562E+03  0.19277376271E+03  0.88296486878E+03  0.82090987936E+03 0.  0.
         23    2    4    4    0    0 -0.10392109660E+03  0.49534862411E+02 -0.30362868388E+03  0.33745214933E+03  0.91816548068E+02 0.  0.
         23    2    4    4    0    0 -0.13417583182E+03 -0.15853971803E+03  0.49640244658E+03  0.54551271945E+03  0.89614407701E+02 0.  0.
          1    1    3    3  502    0  0.24450227435E+03  0.10533880976E+03  0.27719650657E+02  0.26766771572E+03  0.00000000000E+00 0. -1.
         -2    1    3    3    0  502 -0.64053459325E+01  0.36660458652E+01  0.28482555762E+01  0.79108096064E+01  0.00000000000E+00 0.  1.
         11    1    5    5    0    0 -0.74068482565E+02  0.75517422927E+02 -0.19505957077E+03  0.22189469896E+03  0.00000000000E+00 0.  1.
        -11    1    5    5    0    0 -0.29852614036E+02 -0.25982560516E+02 -0.10856911310E+03  0.11555745037E+03  0.00000000000E+00 0. -1.
          1    1    6    6  503    0 -0.43737771537E+02 -0.41856740184E+02  0.61757947821E+02  0.86481347567E+02  0.00000000000E+00 0. -1.
         -1    1    6    6    0  503 -0.90438060284E+02 -0.11668297785E+03  0.43464449876E+03  0.45903137188E+03  0.00000000000E+00 0.  1.
<mgrwt>
<rscale>  0 0.11368119E+04</rscale>
<asrwt>0</asrwt>
<pdfrwt beam="1">  1        1 0.10629885E+00 0.11368119E+04</pdfrwt>
<pdfrwt beam="2">  1       -2 0.71938594E-01 0.11368119E+04</pdfrwt>
<totfact> 0.42367451E+01</totfact>
</mgrwt>
</event>
<event>
12    4  0.4486176E-008  0.2365735E+04  0.7818608E-02  0.8452444E-01
         -2   -1    0    0    0  501 -0.00000000000E+00  0.00000000000E+00  0.11865109675E+04  0.11865109675E+04  0.00000000000E+00 0.  1.
          1   -1    0    0  501    0  0.00000000000E+00 -0.00000000000E+00 -0.11792354461E+04  0.11792354461E+04  0.00000000000E+00 0. -1.
        -24    2    1    2    0    0 -0.22004613023E+03  0.65729823318E+03  0.74336208643E+03  0.10197415201E+04  0.82609379008E+02 0.  0.
        254    2    1    2    0    0  0.22004613023E+03 -0.65729823318E+03 -0.73608656495E+03  0.13460048935E+04  0.88850687978E+03 0.  0.
         23    2    4    4    0    0  0.55759547509E+03 -0.41606177733E+03 -0.43969793853E+03  0.82820348684E+03  0.92556048306E+02 0.  0.
         23    2    4    4    0    0 -0.33754934486E+03 -0.24123645585E+03 -0.29638862642E+03  0.51780140664E+03  0.90208042874E+02 0.  0.
          3    1    3    3  502    0 -0.69378601913E+02  0.24544230910E+03  0.21915127089E+03  0.33627755951E+03  0.00000000000E+00 0. -1.
         -4    1    3    3    0  502 -0.15066752832E+03  0.41185592408E+03  0.52421081554E+03  0.68346396059E+03  0.00000000000E+00 0.  1.
         11    1    5    5    0    0  0.26637651888E+03 -0.19012979327E+03 -0.15311811452E+03  0.36131834315E+03  0.00000000000E+00 0.  1.
        -11    1    5    5    0    0  0.29121895621E+03 -0.22593198406E+03 -0.28657982401E+03  0.46688514370E+03  0.00000000000E+00 0. -1.
          3    1    6    6  503    0 -0.28988545621E+03 -0.20407927829E+03 -0.20895826607E+03  0.41151608293E+03  0.00000000000E+00 0. -1.
         -3    1    6    6    0  503 -0.47663888653E+02 -0.37157177566E+02 -0.87430360352E+02  0.10628532372E+03  0.00000000000E+00 0.  1.
<mgrwt>
<rscale>  0 0.23657352E+04</rscale>
<asrwt>0</asrwt>
<pdfrwt beam="1">  1        1 0.18142084E+00 0.23657352E+04</pdfrwt>
<pdfrwt beam="2">  1       -2 0.18254015E+00 0.23657352E+04</pdfrwt>
<totfact> 0.15198903E+00</totfact>
</mgrwt>
</event>
<event>
12    4  0.4486176E-008  0.1692267E+04  0.7818608E-02  0.8765787E-01
         -2   -1    0    0    0  501 -0.00000000000E+00  0.00000000000E+00  0.17096449342E+04  0.17096449342E+04  0.00000000000E+00 0.  1.
          1   -1    0    0  501    0  0.00000000000E+00 -0.00000000000E+00 -0.41876631950E+03  0.41876631950E+03  0.00000000000E+00 0. -1.
        -24    2    1    2    0    0 -0.22076088853E+03 -0.25262221489E+02 -0.24165498461E+03  0.33822569881E+03  0.81399889501E+02 0.  0.
        254    2    1    2    0    0  0.22076088853E+03  0.25262221489E+02  0.15325335993E+04  0.17901855549E+04  0.89818235244E+03 0.  0.
         23    2    4    4    0    0  0.39207107125E+03  0.29959812018E+03  0.12644692973E+04  0.13604357768E+04  0.91783117036E+02 0.  0.
         23    2    4    4    0    0 -0.17131018272E+03 -0.27433589869E+03  0.26806430207E+03  0.42974977812E+03  0.90658908744E+02 0.  0.
          1    1    3    3  502    0 -0.39334468729E+02 -0.27616754080E+02 -0.88832492643E+02  0.10100048161E+03  0.00000000000E+00 0. -1.
         -2    1    3    3    0  502 -0.18142641981E+03  0.23545325907E+01 -0.15282249196E+03  0.23722521720E+03  0.00000000000E+00 0.  1.
         11    1    5    5    0    0  0.48087175169E+01  0.22976170846E+02  0.35727358452E+02  0.42748945401E+02  0.00000000000E+00 0.  1.
        -11    1    5    5    0    0  0.38726235373E+03  0.27662194933E+03  0.12287419388E+04  0.13176868314E+04  0.00000000000E+00 0. -1.
          1    1    6    6  503    0 -0.15111518942E+03 -0.26870522534E+03  0.26844669971E+03  0.40878102840E+03  0.00000000000E+00 0. -1.
         -1    1    6    6    0  503 -0.20194993296E+02 -0.56306733504E+01 -0.38239763753E+00  0.20968749713E+02  0.00000000000E+00 0.  1.
<mgrwt>
<rscale>  0 0.16922668E+04</rscale>
<asrwt>0</asrwt>
<pdfrwt beam="1">  1        1 0.64425589E-01 0.16922668E+04</pdfrwt>
<pdfrwt beam="2">  1       -2 0.26302229E+00 0.16922668E+04</pdfrwt>
<totfact> 0.25137125E+00</totfact>
</mgrwt>
</event>
<event>
12    4  0.4486176E-008  0.1118850E+04  0.7818608E-02  0.9187012E-01
         -2   -1    0    0    0  501 -0.00000000000E+00  0.00000000000E+00  0.47051839506E+03  0.47051839506E+03  0.00000000000E+00 0.  1.
          1   -1    0    0  501    0  0.00000000000E+00 -0.00000000000E+00 -0.66513047710E+03  0.66513047710E+03  0.00000000000E+00 0. -1.
        -24    2    1    2    0    0  0.72098494315E+02 -0.15422134929E+03 -0.61237571517E+02  0.20792119563E+03  0.10246348601E+03 0.  0.
        254    2    1    2    0    0 -0.72098494315E+02  0.15422134929E+03 -0.13337451053E+03  0.92772767654E+03  0.90216820177E+03 0.  0.
         23    2    4    4    0    0 -0.28649667866E+03  0.29152449550E+03 -0.37618189895E+03  0.56330402427E+03  0.93443695899E+02 0.  0.
         23    2    4    4    0    0  0.21439818434E+03 -0.13730314620E+03  0.24280738842E+03  0.36442365227E+03  0.95028601242E+02 0.  0.
          1    1    3    3  502    0  0.30779533442E+02 -0.10977327908E+03 -0.85560335302E+02  0.14254165516E+03  0.00000000000E+00 0. -1.
         -2    1    3    3    0  502  0.41318960873E+02 -0.44448070212E+02  0.24322763785E+02  0.65379540464E+02  0.00000000000E+00 0.  1.
         11    1    5    5    0    0 -0.92517070363E+01  0.41130555128E+02 -0.18284272184E+02  0.45952489133E+02  0.00000000000E+00 0.  1.
        -11    1    5    5    0    0 -0.27724497162E+03  0.25039394037E+03 -0.35789762676E+03  0.51735153513E+03  0.00000000000E+00 0. -1.
          2    1    6    6  503    0  0.11125515314E+03 -0.15805344497E+02  0.99274297147E+02  0.14994300280E+03  0.00000000000E+00 0. -1.
         -2    1    6    6    0  503  0.10314303120E+03 -0.12149780171E+03  0.14353309127E+03  0.21448064947E+03  0.00000000000E+00 0.  1.
<mgrwt>
<rscale>  0 0.11188496E+04</rscale>
<asrwt>0</asrwt>
<pdfrwt beam="1">  1        1 0.10232777E+00 0.11188496E+04</pdfrwt>
<pdfrwt beam="2">  1       -2 0.72387446E-01 0.11188496E+04</pdfrwt>
<totfact> 0.44307250E+01</totfact>
</mgrwt>
</event>
<event>
12    4  0.4486176E-008  0.3342121E+04  0.7818608E-02  0.8152260E-01
         -2   -1    0    0    0  501 -0.00000000000E+00  0.00000000000E+00  0.11086937204E+04  0.11086937204E+04  0.00000000000E+00 0.  1.
          1   -1    0    0  501    0  0.00000000000E+00 -0.00000000000E+00 -0.25186783332E+04  0.25186783332E+04  0.00000000000E+00 0. -1.
        -24    2    1    2    0    0 -0.11108362535E+04 -0.71724122445E+03 -0.15162060964E+04  0.20132594584E+04  0.77075055848E+02 0.  0.
        254    2    1    2    0    0  0.11108362535E+04  0.71724122445E+03  0.10622148350E+03  0.16141125952E+04  0.91961095584E+03 0.  0.
         23    2    4    4    0    0  0.95044450672E+03  0.10547525297E+03 -0.31343191862E+02  0.96026548461E+03  0.81594214993E+02 0.  0.
         23    2    4    4    0    0  0.16039174679E+03  0.61176597148E+03  0.13756467536E+03  0.65384711054E+03  0.92784092136E+02 0.  0.
          1    1    3    3  502    0 -0.72174889848E+03 -0.45835887470E+03 -0.92446445487E+03  0.12592254996E+04  0.00000000000E+00 0. -1.
         -2    1    3    3    0  502 -0.38908735503E+03 -0.25888234975E+03 -0.59174164148E+03  0.75403395886E+03  0.00000000000E+00 0.  1.
         11    1    5    5    0    0  0.41623733748E+02  0.11430208760E+02  0.14246987179E+02  0.45455049523E+02  0.00000000000E+00 0.  1.
        -11    1    5    5    0    0  0.90882077297E+03  0.94045044209E+02 -0.45590179041E+02  0.91481043509E+03  0.00000000000E+00 0. -1.
          2    1    6    6  503    0  0.14410088769E+03  0.60005628973E+03  0.12351889254E+03  0.62935644391E+03  0.00000000000E+00 0. -1.
         -2    1    6    6    0  503  0.16290859098E+02  0.11709681750E+02  0.14045782820E+02  0.24490666627E+02  0.00000000000E+00 0.  1.
<mgrwt>
<rscale>  0 0.33421208E+04</rscale>
<asrwt>0</asrwt>
<pdfrwt beam="1">  1        1 0.38748897E+00 0.33421208E+04</pdfrwt>
<pdfrwt beam="2">  1       -2 0.17056826E+00 0.33421208E+04</pdfrwt>
<totfact> 0.20192721E-01</totfact>
</mgrwt>
</event>
<event>
12    4  0.4486176E-008  0.1555572E+04  0.7818608E-02  0.8848317E-01
          1   -1    0    0  501    0  0.00000000000E+00  0.00000000000E+00  0.24082245563E+04  0.24082245563E+04  0.00000000000E+00 0. -1.
         -2   -1    0    0    0  501 -0.00000000000E+00 -0.00000000000E+00 -0.25120200912E+03  0.25120200912E+03  0.00000000000E+00 0.  1.
        -24    2    1    2    0    0  0.41592467859E+03  0.29345697356E+03  0.80813523297E+03  0.95894161244E+03  0.85884385714E+02 0.  0.
        254    2    1    2    0    0 -0.41592467859E+03 -0.29345697356E+03  0.13488873142E+04  0.17004849529E+04  0.90168828054E+03 0.  0.
         23    2    4    4    0    0 -0.40618193894E+03 -0.59085098332E+03  0.96093894569E+03  0.12030845648E+04  0.99600003681E+02 0.  0.
         23    2    4    4    0    0 -0.97427396544E+01  0.29739400975E+03  0.38794836847E+03  0.49740038813E+03  0.91460874130E+02 0.  0.
          1    1    3    3  502    0  0.99961164192E+00  0.13915069528E+01 -0.22384803543E+01  0.28189198873E+01  0.00000000000E+00 0. -1.
         -2    1    3    3    0  502  0.41492506695E+03  0.29206546661E+03  0.81037371333E+03  0.95612269256E+03  0.00000000000E+00 0.  1.
         11    1    5    5    0    0 -0.17133068232E+03 -0.19939086379E+03  0.28829414759E+03  0.39015949918E+03  0.00000000000E+00 0. -1.
        -11    1    5    5    0    0 -0.23485125662E+03 -0.39146011953E+03  0.67264479810E+03  0.81292506563E+03  0.00000000000E+00 0.  1.
          1    1    6    6  503    0  0.31735665764E+02  0.13114808458E+03  0.21581922697E+03  0.25452880250E+03  0.00000000000E+00 0. -1.
         -1    1    6    6    0  503 -0.41478405418E+02  0.16624592517E+03  0.17212914150E+03  0.24287158563E+03  0.00000000000E+00 0.  1.
<mgrwt>
<rscale>  0 0.15555717E+04</rscale>
<asrwt>0</asrwt>
<pdfrwt beam="1">  1        1 0.37049607E+00 0.15555717E+04</pdfrwt>
<pdfrwt beam="2">  1       -2 0.38646464E-01 0.15555717E+04</pdfrwt>
<totfact> 0.84034022E+00</totfact>
</mgrwt>
</event>
<event>
12    4  0.4486176E-008  0.1934629E+04  0.7818608E-02  0.8637809E-01
          1   -1    0    0  501    0  0.00000000000E+00  0.00000000000E+00  0.12516887800E+04  0.12516887800E+04  0.00000000000E+00 0. -1.
         -2   -1    0    0    0  501 -0.00000000000E+00 -0.00000000000E+00 -0.74754780834E+03  0.74754780834E+03  0.00000000000E+00 0.  1.
        -24    2    1    2    0    0  0.20158152952E+03 -0.17177889548E+03  0.93858830476E+03  0.97825912533E+03  0.76810210824E+02 0.  0.
        254    2    1    2    0    0 -0.20158152952E+03  0.17177889548E+03 -0.43444733313E+03  0.10209774630E+04  0.88515952950E+03 0.  0.
         23    2    4    4    0    0 -0.34824629615E+03 -0.24746423703E+03 -0.76916927495E+02  0.44354831290E+03  0.91131008704E+02 0.  0.
         23    2    4    4    0    0  0.14666476663E+03  0.41924313251E+03 -0.35753040564E+03  0.57742915008E+03  0.91219923672E+02 0.  0.
          3    1    3    3  502    0  0.19668329340E+03 -0.14647677279E+03  0.78159438983E+03  0.81916393541E+03  0.00000000000E+00 0. -1.
         -4    1    3    3    0  502  0.48982361187E+01 -0.25302122686E+02  0.15699391493E+03  0.15909518992E+03  0.00000000000E+00 0.  1.
         11    1    5    5    0    0 -0.99069413535E+02 -0.12406052898E+03 -0.28931791557E+02  0.16137785509E+03  0.00000000000E+00 0.  1.
        -11    1    5    5    0    0 -0.24917688262E+03 -0.12340370805E+03 -0.47985135938E+02  0.28217045781E+03  0.00000000000E+00 0. -1.
          3    1    6    6  503    0  0.14347861850E+03  0.35726450193E+03 -0.27044945724E+03  0.47049649013E+03  0.00000000000E+00 0. -1.
         -3    1    6    6    0  503  0.31861481330E+01  0.61978630577E+02 -0.87080948403E+02  0.10693265994E+03  0.00000000000E+00 0.  1.
<mgrwt>
<rscale>  0 0.19346289E+04</rscale>
<asrwt>0</asrwt>
<pdfrwt beam="1">  1        1 0.19256750E+00 0.19346289E+04</pdfrwt>
<pdfrwt beam="2">  1       -2 0.11500736E+00 0.19346289E+04</pdfrwt>
<totfact> 0.47280474E+00</totfact>
</mgrwt>
</event>
<event>
12    4  0.4486176E-008  0.1454399E+04  0.7818608E-02  0.8915357E-01
         -2   -1    0    0    0  501 -0.00000000000E+00  0.00000000000E+00  0.34545640020E+03  0.34545640020E+03  0.00000000000E+00 0.  1.
          1   -1    0    0  501    0  0.00000000000E+00 -0.00000000000E+00 -0.15307833761E+04  0.15307833761E+04  0.00000000000E+00 0. -1.
        -24    2    1    2    0    0  0.18490145945E+03  0.27390305969E+03  0.15158189130E+02  0.34018888532E+03  0.79292314760E+02 0.  0.
        254    2    1    2    0    0 -0.18490145945E+03 -0.27390305969E+03 -0.12004851650E+04  0.15360508910E+04  0.89948667161E+03 0.  0.
         23    2    4    4    0    0 -0.42364024887E+03 -0.37351472641E+03 -0.42219568620E+03  0.71118347123E+03  0.92457671382E+02 0.  0.
         23    2    4    4    0    0  0.23873878942E+03  0.99611666717E+02 -0.77828947881E+03  0.82486741973E+03  0.88051425810E+02 0.  0.
          1    1    3    3  502    0  0.75129145258E+02  0.53166728837E+02  0.17323004445E+02  0.93654556779E+02  0.00000000000E+00 0. -1.
         -2    1    3    3    0  502  0.10977231419E+03  0.22073633086E+03 -0.21648153150E+01  0.24653432854E+03  0.00000000000E+00 0.  1.
         11    1    5    5    0    0 -0.20929415107E+03 -0.23234497020E+03 -0.26746724123E+03  0.41149356250E+03  0.00000000000E+00 0.  1.
        -11    1    5    5    0    0 -0.21434609780E+03 -0.14116975621E+03 -0.15472844497E+03  0.29968990873E+03  0.00000000000E+00 0. -1.
          2    1    6    6  503    0  0.57377953758E+02 -0.71561306561E+01 -0.24079133742E+03  0.24763664503E+03  0.00000000000E+00 0. -1.
         -2    1    6    6    0  503  0.18136083566E+03  0.10676779737E+03 -0.53749814139E+03  0.57723077470E+03  0.00000000000E+00 0.  1.
<mgrwt>
<rscale>  0 0.14543987E+04</rscale>
<asrwt>0</asrwt>
<pdfrwt beam="1">  1        1 0.23550513E+00 0.14543987E+04</pdfrwt>
<pdfrwt beam="2">  1       -2 0.53147140E-01 0.14543987E+04</pdfrwt>
<totfact> 0.17711999E+01</totfact>
</mgrwt>
</event>
<event>
12    4  0.4486176E-008  0.1694459E+04  0.7818608E-02  0.8764531E-01
          1   -1    0    0  501    0  0.00000000000E+00  0.00000000000E+00  0.32170085492E+04  0.32170085492E+04  0.00000000000E+00 0. -1.
         -2   -1    0    0    0  501 -0.00000000000E+00 -0.00000000000E+00 -0.22312580361E+03  0.22312580361E+03  0.00000000000E+00 0.  1.
        -24    2    1    2    0    0  0.26886154627E+02  0.18768019681E+03 -0.87758905672E+02  0.22326161635E+03  0.78723581117E+02 0.  0.
        254    2    1    2    0    0 -0.26886154627E+02 -0.18768019681E+03  0.30816416512E+04  0.32168727364E+04  0.90322102182E+03 0.  0.
         23    2    4    4    0    0  0.13732153512E+03 -0.49839537044E+03  0.13669053299E+04  0.14642012291E+04  0.90553348801E+02 0.  0.
         23    2    4    4    0    0 -0.16420768975E+03  0.31071517363E+03  0.17147363213E+04  0.17526715074E+04  0.89602882768E+02 0.  0.
          1    1    3    3  502    0 -0.12044481603E+02 -0.11869608059E+01 -0.22252872173E+01  0.12305702590E+02  0.00000000000E+00 0. -1.
         -4    1    3    3    0  502  0.38930636229E+02  0.18886715762E+03 -0.85533618455E+02  0.21095591376E+03  0.00000000000E+00 0.  1.
         11    1    5    5    0    0 -0.55957786203E+00 -0.80188522018E+02  0.15027958256E+03  0.17033632944E+03  0.00000000000E+00 0.  1.
        -11    1    5    5    0    0  0.13788111298E+03 -0.41820684842E+03  0.12166257474E+04  0.12938648996E+04  0.00000000000E+00 0. -1.
          1    1    6    6  503    0 -0.12701586076E+03  0.14632629392E+03  0.87731061473E+03  0.89845329756E+03  0.00000000000E+00 0. -1.
         -1    1    6    6    0  503 -0.37191828982E+02  0.16438887971E+03  0.83742570657E+03  0.85421820979E+03  0.00000000000E+00 0.  1.
<mgrwt>
<rscale>  0 0.16944588E+04</rscale>
<asrwt>0</asrwt>
<pdfrwt beam="1">  1        1 0.49492436E+00 0.16944588E+04</pdfrwt>
<pdfrwt beam="2">  1       -2 0.34327049E-01 0.16944588E+04</pdfrwt>
<totfact> 0.27594299E+00</totfact>
</mgrwt>
</event>
<event>
12    4  0.4486176E-008  0.1399440E+04  0.7818608E-02  0.8954224E-01
          1   -1    0    0  501    0  0.00000000000E+00  0.00000000000E+00  0.18587493024E+04  0.18587493024E+04  0.00000000000E+00 0. -1.
         -2   -1    0    0    0  501 -0.00000000000E+00 -0.00000000000E+00 -0.26340721186E+03  0.26340721186E+03  0.00000000000E+00 0.  1.
        -24    2    1    2    0    0 -0.10891828981E+03 -0.38873766739E+03  0.45970531706E+03  0.61715443936E+03  0.81058346788E+02 0.  0.
        254    2    1    2    0    0  0.10891828981E+03  0.38873766739E+03  0.11356367735E+04  0.15050020749E+04  0.90132136127E+03 0.  0.
         23    2    4    4    0    0  0.28353330836E+03 -0.79952279742E+02  0.88628246453E+03  0.93844701767E+03  0.91666210026E+02 0.  0.
         23    2    4    4    0    0 -0.17461501854E+03  0.46868994713E+03  0.24935430900E+03  0.56655505727E+03  0.92985968067E+02 0.  0.
          3    1    3    3  502    0 -0.10942588610E+03 -0.28060396963E+03  0.36663459712E+03  0.47448239179E+03  0.00000000000E+00 0. -1.
         -4    1    3    3    0  502  0.50759628267E+00 -0.10813369777E+03  0.93070719941E+02  0.14267204757E+03  0.00000000000E+00 0.  1.
         11    1    5    5    0    0  0.22805410198E+03 -0.53554385858E+02  0.57013964319E+03  0.61638945352E+03  0.00000000000E+00 0. -1.
        -11    1    5    5    0    0  0.55479206371E+02 -0.26397893883E+02  0.31614282134E+03  0.32205756415E+03  0.00000000000E+00 0.  1.
          3    1    6    6  503    0 -0.22681808557E+02  0.17229232476E+03  0.10890629817E+03  0.20508459569E+03  0.00000000000E+00 0.  1.
         -3    1    6    6    0  503 -0.15193320998E+03  0.29639762237E+03  0.14044801083E+03  0.36147046157E+03  0.00000000000E+00 0. -1.
<mgrwt>
<rscale>  0 0.13994398E+04</rscale>
<asrwt>0</asrwt>
<pdfrwt beam="1">  1        1 0.28596142E+00 0.13994398E+04</pdfrwt>
<pdfrwt beam="2">  1       -2 0.40524188E-01 0.13994398E+04</pdfrwt>
<totfact> 0.18346544E+01</totfact>
</mgrwt>
</event>
<event>
12    4  0.4486176E-008  0.1447210E+04  0.7818608E-02  0.8920337E-01
          1   -1    0    0  501    0  0.00000000000E+00  0.00000000000E+00  0.30480496629E+03  0.30480496629E+03  0.00000000000E+00 0. -1.
         -2   -1    0    0    0  501 -0.00000000000E+00 -0.00000000000E+00 -0.17178333528E+04  0.17178333528E+04  0.00000000000E+00 0.  1.
        -24    2    1    2    0    0 -0.40572124842E+03 -0.17760945248E+03 -0.33522661611E+03  0.56107500280E+03  0.79204959409E+02 0.  0.
        254    2    1    2    0    0  0.40572124842E+03  0.17760945248E+03 -0.10778017704E+04  0.14615633162E+04  0.88224476318E+03 0.  0.
         23    2    4    4    0    0  0.61506031842E+03 -0.54274325532E+02 -0.88636490081E+03  0.10840492126E+04  0.90967357807E+02 0.  0.
         23    2    4    4    0    0 -0.20933907001E+03  0.23188377801E+03 -0.19143686954E+03  0.37751410366E+03  0.90971922609E+02 0.  0.
          3    1    3    3  502    0 -0.37122345587E+03 -0.18191960734E+03 -0.32148055031E+03  0.52369012015E+03  0.00000000000E+00 0. -1.
         -4    1    3    3    0  502 -0.34497792550E+02  0.43101548571E+01 -0.13746065800E+02  0.37384882649E+02  0.00000000000E+00 0.  1.
         11    1    5    5    0    0  0.13186201657E+03 -0.49602945597E+02 -0.20282986945E+03  0.24695748534E+03  0.00000000000E+00 0.  1.
        -11    1    5    5    0    0  0.48319830185E+03 -0.46713799345E+01 -0.68353503137E+03  0.83709172724E+03  0.00000000000E+00 0. -1.
          2    1    6    6  503    0 -0.19755786503E+03  0.16819385276E+03 -0.14010257616E+03  0.29486779069E+03  0.00000000000E+00 0. -1.
         -2    1    6    6    0  503 -0.11781204976E+02  0.63689925259E+02 -0.51334293378E+02  0.82646312965E+02  0.00000000000E+00 0.  1.
<mgrwt>
<rscale>  0 0.14472099E+04</rscale>
<asrwt>0</asrwt>
<pdfrwt beam="1">  1        1 0.46893073E-01 0.14472099E+04</pdfrwt>
<pdfrwt beam="2">  1       -2 0.26428205E+00 0.14472099E+04</pdfrwt>
<totfact> 0.38330838E+00</totfact>
</mgrwt>
</event>
<event>
12    4  0.4486176E-008  0.1350740E+04  0.7818608E-02  0.8990268E-01
         -2   -1    0    0    0  501 -0.00000000000E+00  0.00000000000E+00  0.60530666613E+03  0.60530666613E+03  0.00000000000E+00 0.  1.
          1   -1    0    0  501    0  0.00000000000E+00 -0.00000000000E+00 -0.75354286780E+03  0.75354286780E+03  0.00000000000E+00 0. -1.
        -24    2    1    2    0    0  0.13936825169E+03 -0.69175176634E+02 -0.38188189708E+03  0.42006253960E+03  0.80062720498E+02 0.  0.
        254    2    1    2    0    0 -0.13936825169E+03  0.69175176634E+02  0.23364569541E+03  0.93878699434E+03  0.89583591975E+03 0.  0.
         23    2    4    4    0    0 -0.68625820617E+02 -0.35137382569E+03  0.32609385346E+03  0.49288800152E+03  0.91805839337E+02 0.  0.
         23    2    4    4    0    0 -0.70742431074E+02  0.42054900232E+03 -0.92448158051E+02  0.44589899282E+03  0.91724015195E+02 0.  0.
          1    1    3    3  502    0  0.14087394404E+03 -0.41856204179E+02 -0.33427058450E+03  0.36514960441E+03  0.00000000000E+00 0. -1.
         -2    1    3    3    0  502 -0.15056923487E+01 -0.27318972455E+02 -0.47611312580E+02  0.54912935188E+02  0.00000000000E+00 0.  1.
         11    1    5    5    0    0 -0.47232284793E+01 -0.22439537791E+03  0.22960351898E+03  0.32108156354E+03  0.00000000000E+00 0. -1.
        -11    1    5    5    0    0 -0.63902592137E+02 -0.12697844778E+03  0.96490334480E+02  0.17180643798E+03  0.00000000000E+00 0.  1.
          2    1    6    6  503    0 -0.74538812956E+02  0.29015140148E+03 -0.98374453689E+02  0.31531159756E+03  0.00000000000E+00 0. -1.
         -2    1    6    6    0  503  0.37963818821E+01  0.13039760085E+03  0.59262956384E+01  0.13058739526E+03  0.00000000000E+00 0.  1.
<mgrwt>
<rscale>  0 0.13507398E+04</rscale>
<asrwt>0</asrwt>
<pdfrwt beam="1">  1        1 0.11592967E+00 0.13507398E+04</pdfrwt>
<pdfrwt beam="2">  1       -2 0.93124103E-01 0.13507398E+04</pdfrwt>
<totfact> 0.20353567E+01</totfact>
</mgrwt>
</event>
<event>
12    4  0.4486176E-008  0.3200772E+04  0.7818608E-02  0.8188613E-01
          1   -1    0    0  501    0  0.00000000000E+00  0.00000000000E+00  0.23160222681E+04  0.23160222681E+04  0.00000000000E+00 0. -1.
         -2   -1    0    0    0  501 -0.00000000000E+00 -0.00000000000E+00 -0.11058770781E+04  0.11058770781E+04  0.00000000000E+00 0.  1.
        -24    2    1    2    0    0  0.10998804573E+04 -0.65311122284E+02 -0.49680280055E+03  0.12111889436E+04  0.78505231960E+02 0.  0.
        254    2    1    2    0    0 -0.10998804573E+04  0.65311122284E+02  0.17069479905E+04  0.22107104026E+04  0.87153111185E+03 0.  0.
         23    2    4    4    0    0 -0.63831672692E+03  0.74793931235E+02  0.15996701692E+04  0.17262347572E+04  0.88878628935E+02 0.  0.
         23    2    4    4    0    0 -0.46156373038E+03 -0.94828089512E+01  0.10727782128E+03  0.48447564542E+03  0.10038485539E+03 0.  0.
          1    1    3    3  502    0  0.40104216684E+03 -0.18027004659E+01 -0.21458257938E+03  0.45484475669E+03  0.00000000000E+00 0. -1.
         -2    1    3    3    0  502  0.69883829047E+03 -0.63508421818E+02 -0.28222022117E+03  0.75634418693E+03  0.00000000000E+00 0.  1.
         11    1    5    5    0    0 -0.54231484665E+02 -0.42493442846E+01  0.20581248579E+03  0.21287999005E+03  0.00000000000E+00 0.  1.
        -11    1    5    5    0    0 -0.58408524226E+03  0.79043275520E+02  0.13938576834E+04  0.15133547671E+04  0.00000000000E+00 0. -1.
          2    1    6    6  503    0 -0.29351269214E+03  0.37002258147E+02  0.44537992655E+02  0.29916968487E+03  0.00000000000E+00 0.  1.
         -2    1    6    6    0  503 -0.16805103824E+03 -0.46485067098E+02  0.62739828627E+02  0.18530596054E+03  0.00000000000E+00 0. -1.
<mgrwt>
<rscale>  0 0.32007724E+04</rscale>
<asrwt>0</asrwt>
<pdfrwt beam="1">  1        1 0.35631112E+00 0.32007724E+04</pdfrwt>
<pdfrwt beam="2">  1       -2 0.17013493E+00 0.32007724E+04</pdfrwt>
<totfact> 0.28396668E-01</totfact>
</mgrwt>
</event>
<event>
12    4  0.4486176E-008  0.2675795E+04  0.7818608E-02  0.8342902E-01
          1   -1    0    0  501    0  0.00000000000E+00  0.00000000000E+00  0.36629196660E+04  0.36629196660E+04  0.00000000000E+00 0. -1.
         -2   -1    0    0    0  501 -0.00000000000E+00 -0.00000000000E+00 -0.48867276852E+03  0.48867276852E+03  0.00000000000E+00 0.  1.
        -24    2    1    2    0    0  0.44889598658E+03  0.16872877208E+03 -0.27150241227E+03  0.55685124841E+03  0.79954660256E+02 0.  0.
        254    2    1    2    0    0 -0.44889598658E+03 -0.16872877208E+03  0.34457493097E+04  0.35947411861E+04  0.90498557123E+03 0.  0.
         23    2    4    4    0    0 -0.34282321923E+03  0.30367206469E+02  0.38279383489E+03  0.52218990321E+03  0.87756755327E+02 0.  0.
         23    2    4    4    0    0 -0.10607276735E+03 -0.19909597855E+03  0.30629554748E+04  0.30725512829E+04  0.89356054265E+02 0.  0.
          3    1    3    3  502    0  0.12812076335E+03  0.35489331550E+02 -0.11538130825E+03  0.17603201115E+03  0.00000000000E+00 0. -1.
         -4    1    3    3    0  502  0.32077522322E+03  0.13323944053E+03 -0.15612110402E+03  0.38081923726E+03  0.00000000000E+00 0.  1.
         11    1    5    5    0    0 -0.30714733454E+03  0.14805761878E+02  0.37025563154E+03  0.48129816994E+03  0.00000000000E+00 0.  1.
        -11    1    5    5    0    0 -0.35675884694E+02  0.15561444591E+02  0.12538203355E+02  0.40891733270E+02  0.00000000000E+00 0. -1.
          4    1    6    6  503    0 -0.31602758393E+02 -0.42025372737E+01  0.56458926542E+03  0.56548866858E+03  0.00000000000E+00 0. -1.
         -4    1    6    6    0  503 -0.74470008953E+02 -0.19489344128E+03  0.24983662094E+04  0.25070626143E+04  0.00000000000E+00 0.  1.
<mgrwt>
<rscale>  0 0.26757945E+04</rscale>
<asrwt>0</asrwt>
<pdfrwt beam="1">  1        1 0.56352608E+00 0.26757945E+04</pdfrwt>
<pdfrwt beam="2">  1       -2 0.75180428E-01 0.26757945E+04</pdfrwt>
<totfact> 0.22624544E-01</totfact>
</mgrwt>
</event>
<event>
12    4  0.4486176E-008  0.1672051E+04  0.7818608E-02  0.8777467E-01
          1   -1    0    0  501    0  0.00000000000E+00  0.00000000000E+00  0.11065674134E+04  0.11065674134E+04  0.00000000000E+00 0. -1.
         -2   -1    0    0    0  501 -0.00000000000E+00 -0.00000000000E+00 -0.63162782255E+03  0.63162782255E+03  0.00000000000E+00 0.  1.
        -24    2    1    2    0    0 -0.45124738008E+03 -0.19001828080E+03 -0.17006826686E+03  0.52451048108E+03  0.80354740345E+02 0.  0.
        254    2    1    2    0    0  0.45124738008E+03  0.19001828080E+03  0.64500785775E+03  0.12136847549E+04  0.90402677101E+03 0.  0.
         23    2    4    4    0    0  0.28697984752E+03 -0.29888613900E+03  0.61296899397E+02  0.42938563630E+03  0.94468819295E+02 0.  0.
         23    2    4    4    0    0  0.16426753256E+03  0.48890441980E+03  0.58371095835E+03  0.78429911862E+03  0.91625709370E+02 0.  0.
          1    1    3    3  502    0 -0.10193885032E+03 -0.47704378957E+02 -0.46486204589E+01  0.11264478083E+03  0.00000000000E+00 0. -1.
         -4    1    3    3    0  502 -0.34930852976E+03 -0.14231390184E+03 -0.16541964640E+03  0.41186570024E+03  0.00000000000E+00 0.  1.
         11    1    5    5    0    0  0.24036763166E+03 -0.28550766494E+03  0.71050741652E+02  0.37992029820E+03  0.00000000000E+00 0.  1.
        -11    1    5    5    0    0  0.46612215852E+02 -0.13378474052E+02 -0.97538422550E+01  0.49465338100E+02  0.00000000000E+00 0. -1.
          2    1    6    6  503    0  0.12492880880E+03  0.29575616689E+03  0.41605090687E+03  0.52552571262E+03  0.00000000000E+00 0. -1.
         -2    1    6    6    0  503  0.39338723766E+02  0.19314825291E+03  0.16766005148E+03  0.25877340600E+03  0.00000000000E+00 0.  1.
<mgrwt>
<rscale>  0 0.16720512E+04</rscale>
<asrwt>0</asrwt>
<pdfrwt beam="1">  1        1 0.17024114E+00 0.16720512E+04</pdfrwt>
<pdfrwt beam="2">  1       -2 0.97173511E-01 0.16720512E+04</pdfrwt>
<totfact> 0.92670237E+00</totfact>
</mgrwt>
</event>
<event>
12    4  0.4486176E-008  0.1459611E+04  0.7818608E-02  0.8911765E-01
          1   -1    0    0  501    0  0.00000000000E+00  0.00000000000E+00  0.18149473786E+04  0.18149473786E+04  0.00000000000E+00 0. -1.
         -2   -1    0    0    0  501 -0.00000000000E+00 -0.00000000000E+00 -0.29346074906E+03  0.29346074906E+03  0.00000000000E+00 0.  1.
        -24    2    1    2    0    0  0.43607523447E+03 -0.82214960692E+02  0.39960820638E+03  0.60267769692E+03  0.81318988429E+02 0.  0.
        254    2    1    2    0    0 -0.43607523447E+03  0.82214960692E+02  0.11218784231E+04  0.15057304307E+04  0.90093952283E+03 0.  0.
         23    2    4    4    0    0 -0.32427361390E+03  0.18823708812E+03  0.12368243336E+04  0.12958246677E+04  0.94024247976E+02 0.  0.
         23    2    4    4    0    0 -0.11180162057E+03 -0.10602212743E+03 -0.11494591047E+03  0.20990576302E+03  0.84306424102E+02 0.  0.
          1    1    3    3  502    0  0.26396131222E+03 -0.64582345356E+02  0.29220658678E+03  0.39903777145E+03  0.00000000000E+00 0. -1.
         -2    1    3    3    0  502  0.17211392225E+03 -0.17632615336E+02  0.10740161960E+03  0.20363992548E+03  0.00000000000E+00 0.  1.
         11    1    5    5    0    0 -0.18199484433E+03  0.62735662496E+02  0.71955518463E+03  0.74486075909E+03  0.00000000000E+00 0.  1.
        -11    1    5    5    0    0 -0.14227876957E+03  0.12550142563E+03  0.51726914896E+03  0.55096390859E+03  0.00000000000E+00 0. -1.
          4    1    6    6  503    0 -0.37994299380E+02 -0.62841391706E+02 -0.93478253779E+01  0.74026948716E+02  0.00000000000E+00 0. -1.
         -4    1    6    6    0  503 -0.73807321192E+02 -0.43180735725E+02 -0.10559808510E+03  0.13587881430E+03  0.00000000000E+00 0.  1.
<mgrwt>
<rscale>  0 0.14596107E+04</rscale>
<asrwt>0</asrwt>
<pdfrwt beam="1">  1        1 0.27922267E+00 0.14596107E+04</pdfrwt>
<pdfrwt beam="2">  1       -2 0.45147809E-01 0.14596107E+04</pdfrwt>
<totfact> 0.15777816E+01</totfact>
</mgrwt>
</event>
<event>
12    4  0.4486176E-008  0.1714605E+04  0.7818608E-02  0.8753078E-01
         -2   -1    0    0    0  501 -0.00000000000E+00  0.00000000000E+00  0.12350631794E+04  0.12350631794E+04  0.00000000000E+00 0.  1.
          1   -1    0    0  501    0  0.00000000000E+00 -0.00000000000E+00 -0.59508484374E+03  0.59508484374E+03  0.00000000000E+00 0. -1.
        -24    2    1    2    0    0  0.48309124960E+03 -0.41815049453E+03  0.10199937048E+03  0.65232027951E+03  0.83011348403E+02 0.  0.
        254    2    1    2    0    0 -0.48309124960E+03  0.41815049453E+03  0.53797896513E+03  0.11778277436E+04  0.83043954333E+03 0.  0.
         23    2    4    4    0    0  0.56180963925E+02 -0.45837758198E+01 -0.16164941132E+03  0.19422170675E+03  0.91729098357E+02 0.  0.
         23    2    4    4    0    0 -0.53927221352E+03  0.42273427035E+03  0.69962837645E+03  0.98360603683E+03  0.92098789094E+02 0.  0.
          3    1    3    3  502    0  0.45170155335E+03 -0.41002515054E+03  0.10746616040E+03  0.61943836901E+03  0.00000000000E+00 0. -1.
         -4    1    3    3    0  502  0.31389696249E+02 -0.81253439900E+01 -0.54667899285E+01  0.32881910493E+02  0.00000000000E+00 0.  1.
         11    1    5    5    0    0  0.12374838054E+02  0.25606586282E+01 -0.14691138481E+03  0.14745388627E+03  0.00000000000E+00 0.  1.
        -11    1    5    5    0    0  0.43806125871E+02 -0.71444344479E+01 -0.14738026513E+02  0.46767820485E+02  0.00000000000E+00 0. -1.
          1    1    6    6  503    0 -0.38782373832E+02  0.60513348545E+01  0.28998491006E+02  0.48801676756E+02  0.00000000000E+00 0. -1.
         -1    1    6    6    0  503 -0.50048983969E+03  0.41668293550E+03  0.67062988545E+03  0.93480436008E+03  0.00000000000E+00 0.  1.
<mgrwt>
<rscale>  0 0.17146048E+04</rscale>
<asrwt>0</asrwt>
<pdfrwt beam="1">  1        1 0.91551514E-01 0.17146048E+04</pdfrwt>
<pdfrwt beam="2">  1       -2 0.19000972E+00 0.17146048E+04</pdfrwt>
<totfact> 0.44645932E+00</totfact>
</mgrwt>
</event>
<event>
12    4  0.4486176E-008  0.2065694E+04  0.7818608E-02  0.8576508E-01
          1   -1    0    0  501    0  0.00000000000E+00  0.00000000000E+00  0.25683704991E+04  0.25683704991E+04  0.00000000000E+00 0. -1.
         -2   -1    0    0    0  501 -0.00000000000E+00 -0.00000000000E+00 -0.41534996117E+03  0.41534996117E+03  0.00000000000E+00 0.  1.
        -24    2    1    2    0    0 -0.14551558715E+03 -0.21243754931E+03 -0.27584800413E+03  0.38203285328E+03  0.59602694062E+02 0.  0.
        254    2    1    2    0    0  0.14551558715E+03  0.21243754931E+03  0.24288685420E+04  0.26016876070E+04  0.89614257307E+03 0.  0.
         23    2    4    4    0    0  0.40090515021E+03  0.35605753091E+03  0.98237461169E+03  0.11228809522E+04  0.91103514292E+02 0.  0.
         23    2    4    4    0    0 -0.25538956306E+03 -0.14361998159E+03  0.14464939304E+04  0.14788066548E+04  0.93133794281E+02 0.  0.
          1    1    3    3  502    0 -0.96813207970E+02 -0.89331133645E+02 -0.14471595252E+03  0.19569250264E+03  0.00000000000E+00 0. -1.
         -2    1    3    3    0  502 -0.48702379179E+02 -0.12310641567E+03 -0.13113205161E+03  0.18634035064E+03  0.00000000000E+00 0.  1.
         11    1    5    5    0    0  0.32844396853E+03  0.23943983006E+03  0.72381275750E+03  0.83012756888E+03  0.00000000000E+00 0. -1.
        -11    1    5    5    0    0  0.72461181677E+02  0.11661770084E+03  0.25856185419E+03  0.29275338331E+03  0.00000000000E+00 0.  1.
          3    1    6    6  503    0 -0.21985218411E+03 -0.10091621764E+03  0.12960449048E+04  0.13184276473E+04  0.00000000000E+00 0. -1.
         -3    1    6    6    0  503 -0.35537378946E+02 -0.42703763948E+02  0.15044902555E+03  0.16037900750E+03  0.00000000000E+00 0.  1.
<mgrwt>
<rscale>  0 0.20656937E+04</rscale>
<asrwt>0</asrwt>
<pdfrwt beam="1">  1        1 0.39513391E+00 0.20656937E+04</pdfrwt>
<pdfrwt beam="2">  1       -2 0.63899996E-01 0.20656937E+04</pdfrwt>
<totfact> 0.22292860E+00</totfact>
</mgrwt>
</event>
<event>
12    4  0.4486176E-008  0.1852392E+04  0.7818608E-02  0.8678924E-01
          1   -1    0    0  501    0  0.00000000000E+00  0.00000000000E+00  0.11201238067E+04  0.11201238067E+04  0.00000000000E+00 0. -1.
         -2   -1    0    0    0  501 -0.00000000000E+00 -0.00000000000E+00 -0.76584281836E+03  0.76584281836E+03  0.00000000000E+00 0.  1.
        -24    2    1    2    0    0  0.69857535458E+03 -0.63566859952E+02  0.15184854293E+03  0.72214780195E+03  0.79944957021E+02 0.  0.
        254    2    1    2    0    0 -0.69857535458E+03  0.63566859952E+02  0.20243244539E+03  0.11638188231E+04  0.90633718135E+03 0.  0.
         23    2    4    4    0    0 -0.41128690009E+03 -0.40523329935E+03  0.54743031745E+02  0.58705971432E+03  0.90947059128E+02 0.  0.
         23    2    4    4    0    0 -0.28728845449E+03  0.46880015930E+03  0.14768941365E+03  0.57675910877E+03  0.92361578592E+02 0.  0.
          3    1    3    3  502    0  0.21482713329E+03 -0.40430156321E+02  0.16147279244E+02  0.21919404501E+03  0.00000000000E+00 0. -1.
         -4    1    3    3    0  502  0.48374822129E+03 -0.23136703630E+02  0.13570126369E+03  0.50295375694E+03  0.00000000000E+00 0.  1.
         11    1    5    5    0    0 -0.18351370370E+03 -0.20387966405E+03 -0.16528024057E+02  0.27480424385E+03  0.00000000000E+00 0. -1.
        -11    1    5    5    0    0 -0.22777319640E+03 -0.20135363529E+03  0.71271055802E+02  0.31225547047E+03  0.00000000000E+00 0.  1.
          2    1    6    6  503    0 -0.45640497451E+02  0.13009202947E+03  0.89178985212E+01  0.13815397227E+03  0.00000000000E+00 0.  1.
         -2    1    6    6    0  503 -0.24164795704E+03  0.33870812983E+03  0.13877151513E+03  0.43860513650E+03  0.00000000000E+00 0. -1.
<mgrwt>
<rscale>  0 0.18523917E+04</rscale>
<asrwt>0</asrwt>
<pdfrwt beam="1">  1        1 0.17232674E+00 0.18523917E+04</pdfrwt>
<pdfrwt beam="2">  1       -2 0.11782197E+00 0.18523917E+04</pdfrwt>
<totfact> 0.56051560E+00</totfact>
</mgrwt>
</event>
<event>
12    4  0.4486176E-008  0.1242529E+04  0.7818608E-02  0.9076424E-01
          1   -1    0    0  501    0  0.00000000000E+00  0.00000000000E+00  0.17998387077E+04  0.17998387077E+04  0.00000000000E+00 0. -1.
         -2   -1    0    0    0  501 -0.00000000000E+00 -0.00000000000E+00 -0.21444685484E+03  0.21444685484E+03  0.00000000000E+00 0.  1.
        -24    2    1    2    0    0 -0.21158869298E+03 -0.14729645790E+03  0.14002603141E+03  0.30431058063E+03  0.80818429249E+02 0.  0.
        254    2    1    2    0    0  0.21158869298E+03  0.14729645790E+03  0.14453658215E+04  0.17099749819E+04  0.87662195924E+03 0.  0.
         23    2    4    4    0    0  0.34412635518E+03  0.41847336031E+03  0.63383283274E+03  0.83885608776E+03  0.91610995492E+02 0.  0.
         23    2    4    4    0    0 -0.13253766220E+03 -0.27117690241E+03  0.81153298874E+03  0.87111889417E+03  0.95703665889E+02 0.  0.
          1    1    3    3  502    0 -0.53106803333E+02 -0.41892204695E+02 -0.63164793561E+00  0.67643834557E+02  0.00000000000E+00 0. -1.
         -2    1    3    3    0  502 -0.15848188964E+03 -0.10540425321E+03  0.14065767934E+03  0.23666674607E+03  0.00000000000E+00 0.  1.
         11    1    5    5    0    0  0.27053582863E+03  0.35782064768E+03  0.47306732321E+03  0.65193400185E+03  0.00000000000E+00 0.  1.
        -11    1    5    5    0    0  0.73590526555E+02  0.60652712632E+02  0.16076550953E+03  0.18692208591E+03  0.00000000000E+00 0. -1.
          2    1    6    6  503    0  0.10550887121E+02 -0.24305119478E+02  0.35563458378E+02  0.44348840161E+02  0.00000000000E+00 0. -1.
         -2    1    6    6    0  503 -0.14308854932E+03 -0.24687178293E+03  0.77596953037E+03  0.82677005401E+03  0.00000000000E+00 0.  1.
<mgrwt>
<rscale>  0 0.12425293E+04</rscale>
<asrwt>0</asrwt>
<pdfrwt beam="1">  1        1 0.27689825E+00 0.12425293E+04</pdfrwt>
<pdfrwt beam="2">  1       -2 0.32991825E-01 0.12425293E+04</pdfrwt>
<totfact> 0.30280157E+01</totfact>
</mgrwt>
</event>
<event>
12    4  0.4486176E-008  0.1108196E+04  0.7818608E-02  0.9197240E-01
          1   -1    0    0  501    0  0.00000000000E+00  0.00000000000E+00  0.20302049989E+04  0.20302049989E+04  0.00000000000E+00 0. -1.
         -2   -1    0    0    0  501 -0.00000000000E+00 -0.00000000000E+00 -0.15122847263E+03  0.15122847263E+03  0.00000000000E+00 0.  1.
        -24    2    1    2    0    0  0.17397215966E+03  0.86953807473E+01  0.35951839132E+03  0.40742270809E+03  0.79986670061E+02 0.  0.
        254    2    1    2    0    0 -0.17397215966E+03 -0.86953807473E+01  0.15194581350E+04  0.17740107635E+04  0.89889890586E+03 0.  0.
         23    2    4    4    0    0 -0.10025786578E+03  0.14742734851E+03 -0.38397057733E+02  0.20392367024E+03  0.91236322290E+02 0.  0.
         23    2    4    4    0    0 -0.73714293884E+02 -0.15612272925E+03  0.15578551927E+04  0.15700870932E+04  0.91937887386E+02 0.  0.
          1    1    3    3  502    0  0.15636641212E+03  0.11711309201E+02  0.35629316934E+03  0.38927166879E+03  0.00000000000E+00 0. -1.
         -2    1    3    3    0  502  0.17605747539E+02 -0.30159284541E+01  0.32252219763E+01  0.18151039299E+02  0.00000000000E+00 0.  1.
         11    1    5    5    0    0 -0.76704605539E+02  0.33091180915E+02 -0.16338865842E+02  0.85120980388E+02  0.00000000000E+00 0.  1.
        -11    1    5    5    0    0 -0.23553260239E+02  0.11433616759E+03 -0.22058191891E+02  0.11880268985E+03  0.00000000000E+00 0. -1.
          3    1    6    6  503    0 -0.95320739664E+02 -0.12414697998E+03  0.12029613000E+04  0.12131011522E+04  0.00000000000E+00 0. -1.
         -3    1    6    6    0  503  0.21606445780E+02 -0.31975749270E+02  0.35489389268E+03  0.35698594105E+03  0.00000000000E+00 0.  1.
<mgrwt>
<rscale>  0 0.11081964E+04</rscale>
<asrwt>0</asrwt>
<pdfrwt beam="1">  1        1 0.31233921E+00 0.11081964E+04</pdfrwt>
<pdfrwt beam="2">  1       -2 0.23265920E-01 0.11081964E+04</pdfrwt>
<totfact> 0.40722417E+01</totfact>
</mgrwt>
</event>
<event>
12    4  0.4486176E-008  0.1240764E+04  0.7818608E-02  0.9077905E-01
         -2   -1    0    0    0  501 -0.00000000000E+00  0.00000000000E+00  0.58994757355E+03  0.58994757355E+03  0.00000000000E+00 0.  1.
          1   -1    0    0  501    0  0.00000000000E+00 -0.00000000000E+00 -0.65238700171E+03  0.65238700171E+03  0.00000000000E+00 0. -1.
        -24    2    1    2    0    0  0.61098061061E+02  0.25167714039E+03  0.74255567428E+02  0.28149920871E+03  0.81569351781E+02 0.  0.
        254    2    1    2    0    0 -0.61098061061E+02 -0.25167714039E+03 -0.13669499559E+03  0.96083536656E+03  0.91512005975E+03 0.  0.
         23    2    4    4    0    0  0.22497042479E+03  0.24699938085E+03  0.50480643412E+02  0.34979135952E+03  0.90472723328E+02 0.  0.
         23    2    4    4    0    0 -0.28606848585E+03 -0.49867652124E+03 -0.18717563900E+03  0.61104400704E+03  0.88468114429E+02 0.  0.
          1    1    3    3  502    0 -0.20339980928E+01  0.70091978164E+02 -0.11385270799E+02  0.71039756069E+02  0.00000000000E+00 0. -1.
         -2    1    3    3    0  502  0.63132059154E+02  0.18158516222E+03  0.85640838227E+02  0.21045945264E+03  0.00000000000E+00 0.  1.
         11    1    5    5    0    0  0.72446833038E+02  0.83780865739E+02 -0.25818380154E+02  0.11372935345E+03  0.00000000000E+00 0.  1.
        -11    1    5    5    0    0  0.15252359175E+03  0.16321851511E+03  0.76299023566E+02  0.23606200608E+03  0.00000000000E+00 0. -1.
          1    1    6    6  503    0 -0.22793574975E+03 -0.34678781124E+03 -0.16632327839E+03  0.44707932738E+03  0.00000000000E+00 0. -1.
         -1    1    6    6    0  503 -0.58132736102E+02 -0.15188871000E+03 -0.20852360611E+02  0.16396467966E+03  0.00000000000E+00 0.  1.
<mgrwt>
<rscale>  0 0.12407645E+04</rscale>
<asrwt>0</asrwt>
<pdfrwt beam="1">  1        1 0.10036723E+00 0.12407645E+04</pdfrwt>
<pdfrwt beam="2">  1       -2 0.90761166E-01 0.12407645E+04</pdfrwt>
<totfact> 0.27128020E+01</totfact>
</mgrwt>
</event>
<event>
12    4  0.4735119E-008  0.1722051E+04  0.7818608E-02  0.8748887E-01
          3   -1    0    0  501    0  0.00000000000E+00  0.00000000000E+00  0.69898329204E+03  0.69898329204E+03  0.00000000000E+00 0. -1.
         -4   -1    0    0    0  501 -0.00000000000E+00 -0.00000000000E+00 -0.10606337281E+04  0.10606337281E+04  0.00000000000E+00 0.  1.
        -24    2    1    2    0    0  0.25827416958E+03 -0.22451777432E+01 -0.70549820008E+03  0.75563068609E+03  0.80866779052E+02 0.  0.
        254    2    1    2    0    0 -0.25827416958E+03  0.22451777432E+01  0.34384776398E+03  0.10039863341E+04  0.90721920545E+03 0.  0.
         23    2    4    4    0    0  0.27341017632E+03 -0.18048684245E+03  0.26082889342E+03  0.42867776870E+03  0.91674930695E+02 0.  0.
         23    2    4    4    0    0 -0.53168434590E+03  0.18273202019E+03  0.83018870561E+02  0.57530856539E+03  0.89490656837E+02 0.  0.
          1    1    3    3  502    0 -0.19087799926E+01  0.99697488294E+01 -0.24496523787E+02  0.26516391354E+02  0.00000000000E+00 0. -1.
         -2    1    3    3    0  502  0.26018294957E+03 -0.12214926573E+02 -0.68100167629E+03  0.72911429474E+03  0.00000000000E+00 0.  1.
         11    1    5    5    0    0  0.22919599287E+03 -0.12853109286E+03  0.24358898666E+03  0.35831081396E+03  0.00000000000E+00 0. -1.
        -11    1    5    5    0    0  0.44214183450E+02 -0.51955749591E+02  0.17239906764E+02  0.70366954737E+02  0.00000000000E+00 0.  1.
          3    1    6    6  503    0 -0.25916320594E+03  0.60871420598E+02  0.29540426822E+01  0.26623227364E+03  0.00000000000E+00 0. -1.
         -3    1    6    6    0  503 -0.27252113997E+03  0.12186059959E+03  0.80064827879E+02  0.30907629175E+03  0.00000000000E+00 0.  1.
<mgrwt>
<rscale>  0 0.17220514E+04</rscale>
<asrwt>0</asrwt>
<pdfrwt beam="1">  1        3 0.10753589E+00 0.17220514E+04</pdfrwt>
<pdfrwt beam="2">  1       -4 0.16317442E+00 0.17220514E+04</pdfrwt>
<totfact> 0.37965428E-01</totfact>
</mgrwt>
</event>
<event>
12    4  0.4486176E-008  0.2436343E+04  0.7818608E-02  0.8426021E-01
          1   -1    0    0  501    0  0.00000000000E+00  0.00000000000E+00  0.13028563740E+04  0.13028563740E+04  0.00000000000E+00 0. -1.
         -2   -1    0    0    0  501 -0.00000000000E+00 -0.00000000000E+00 -0.11389912931E+04  0.11389912931E+04  0.00000000000E+00 0.  1.
        -24    2    1    2    0    0 -0.45075776154E+03 -0.69985514045E+03 -0.53922658883E+03  0.99529641453E+03  0.82884627508E+02 0.  0.
        254    2    1    2    0    0  0.45075776154E+03  0.69985514045E+03  0.70309166976E+03  0.14465512526E+04  0.95141623545E+03 0.  0.
         23    2    4    4    0    0 -0.20405643058E+03  0.61989425537E+02 -0.69815770772E+02  0.24649190750E+03  0.10199168042E+03 0.  0.
         23    2    4    4    0    0  0.65481419213E+03  0.63786571491E+03  0.77290744053E+03  0.12000593451E+04  0.84274691498E+02 0.  0.
          3    1    3    3  502    0 -0.25547646959E+03 -0.35438793492E+03 -0.32350694781E+03  0.54361363137E+03  0.00000000000E+00 0. -1.
         -4    1    3    3    0  502 -0.19528129195E+03 -0.34546720553E+03 -0.21571964102E+03  0.45168278316E+03  0.00000000000E+00 0.  1.
         11    1    5    5    0    0 -0.19927394378E+03  0.53016840140E+02 -0.33661779882E+02  0.20893540972E+03  0.00000000000E+00 0. -1.
        -11    1    5    5    0    0 -0.47824868027E+01  0.89725853972E+01 -0.36153990891E+02  0.37556497787E+02  0.00000000000E+00 0.  1.
          4    1    6    6  503    0  0.12219264853E+03  0.13231896130E+03  0.11194241756E+03  0.21206238639E+03  0.00000000000E+00 0. -1.
         -4    1    6    6    0  503  0.53262154360E+03  0.50554675362E+03  0.66096502297E+03  0.98799695869E+03  0.00000000000E+00 0.  1.
<mgrwt>
<rscale>  0 0.24363432E+04</rscale>
<asrwt>0</asrwt>
<pdfrwt beam="1">  1        1 0.20043944E+00 0.24363432E+04</pdfrwt>
<pdfrwt beam="2">  1       -2 0.17522943E+00 0.24363432E+04</pdfrwt>
<totfact> 0.13817297E+00</totfact>
</mgrwt>
</event>
<event>
12    4  0.4486176E-008  0.1403811E+04  0.7818608E-02  0.8951065E-01
          1   -1    0    0  501    0  0.00000000000E+00  0.00000000000E+00  0.19129126090E+04  0.19129126090E+04  0.00000000000E+00 0. -1.
         -4   -1    0    0    0  501 -0.00000000000E+00 -0.00000000000E+00 -0.25755032931E+03  0.25755032931E+03  0.00000000000E+00 0.  1.
        -24    2    1    2    0    0 -0.38216274907E+03  0.10484466282E+03  0.66863255866E+03  0.78132516491E+03  0.79741737654E+02 0.  0.
        254    2    1    2    0    0  0.38216274907E+03 -0.10484466282E+03  0.98672972102E+03  0.13891377734E+04  0.89388334867E+03 0.  0.
         23    2    4    4    0    0  0.20160399697E+03  0.19922719518E+03 -0.38802086008E+02  0.30051767436E+03  0.92030559235E+02 0.  0.
         23    2    4    4    0    0  0.18055875210E+03 -0.30407185800E+03  0.10255318070E+04  0.10886200990E+04  0.91197998928E+02 0.  0.
          3    1    3    3  502    0 -0.35819256097E+03  0.11762950057E+03  0.62061451199E+03  0.72615493019E+03  0.00000000000E+00 0. -1.
         -4    1    3    3    0  502 -0.23970188099E+02 -0.12784837748E+02  0.48018046668E+02  0.55170234724E+02  0.00000000000E+00 0.  1.
         11    1    5    5    0    0  0.18158111984E+03  0.12665096664E+03 -0.41218330865E+02  0.22519129919E+03  0.00000000000E+00 0. -1.
        -11    1    5    5    0    0  0.20022877130E+02  0.72576228531E+02  0.24162448566E+01  0.75326375165E+02  0.00000000000E+00 0.  1.
          2    1    6    6  503    0  0.12100256635E+03 -0.26733188931E+03  0.86756754570E+03  0.91585010043E+03  0.00000000000E+00 0. -1.
         -2    1    6    6    0  503  0.59556185757E+02 -0.36739968687E+02  0.15796426132E+03  0.17276999860E+03  0.00000000000E+00 0.  1.
<mgrwt>
<rscale>  0 0.14038109E+04</rscale>
<asrwt>0</asrwt>
<pdfrwt beam="1">  1        1 0.29429424E+00 0.14038109E+04</pdfrwt>
<pdfrwt beam="2">  1       -4 0.39623129E-01 0.14038109E+04</pdfrwt>
<totfact> 0.10241060E+01</totfact>
</mgrwt>
</event>
<event>
12    4  0.4486176E-008  0.2294502E+04  0.7818608E-02  0.8480092E-01
          1   -1    0    0  501    0  0.00000000000E+00  0.00000000000E+00  0.36855002013E+04  0.36855002013E+04  0.00000000000E+00 0. -1.
         -2   -1    0    0    0  501 -0.00000000000E+00 -0.00000000000E+00 -0.35712514409E+03  0.35712514409E+03  0.00000000000E+00 0.  1.
        -24    2    1    2    0    0  0.40349771824E+03 -0.44346465318E+03  0.55322382431E+02  0.60789861001E+03  0.83718855727E+02 0.  0.
        254    2    1    2    0    0 -0.40349771824E+03  0.44346465318E+03  0.32730526748E+04  0.34347267354E+04  0.85147086128E+03 0.  0.
         23    2    4    4    0    0 -0.36789665614E+02 -0.12644818788E+02 -0.15717562776E+02  0.93045162924E+02  0.83048116329E+02 0.  0.
         23    2    4    4    0    0 -0.36670805263E+03  0.45610947196E+03  0.32887702375E+04  0.33416815724E+04  0.91188869851E+02 0.  0.
          3    1    3    3  502    0  0.62682857887E+02 -0.30367523676E+02  0.15987585670E+01  0.69669815530E+02  0.00000000000E+00 0. -1.
         -4    1    3    3    0  502  0.34081486036E+03 -0.41309712950E+03  0.53723623864E+02  0.53822879448E+03  0.00000000000E+00 0.  1.
         11    1    5    5    0    0 -0.35275851463E+02  0.30700049164E+02 -0.16717353515E+02  0.49662346135E+02  0.00000000000E+00 0. -1.
        -11    1    5    5    0    0 -0.15138141512E+01 -0.43344867952E+02  0.99979073854E+00  0.43382816789E+02  0.00000000000E+00 0.  1.
          1    1    6    6  503    0 -0.34521840032E+03  0.38246884488E+03  0.28215046967E+04  0.28681608941E+04  0.00000000000E+00 0. -1.
         -1    1    6    6    0  503 -0.21489652305E+02  0.73640627081E+02  0.46726554086E+03  0.47352067831E+03  0.00000000000E+00 0.  1.
<mgrwt>
<rscale>  0 0.22945019E+04</rscale>
<asrwt>0</asrwt>
<pdfrwt beam="1">  1        1 0.56700001E+00 0.22945019E+04</pdfrwt>
<pdfrwt beam="2">  1       -2 0.54942332E-01 0.22945019E+04</pdfrwt>
<totfact> 0.44041763E-01</totfact>
</mgrwt>
</event>
<event>
12    4  0.4486176E-008  0.1138081E+04  0.7818608E-02  0.9168850E-01
          1   -1    0    0  501    0  0.00000000000E+00  0.00000000000E+00  0.23451960347E+04  0.23451960347E+04  0.00000000000E+00 0. -1.
         -2   -1    0    0    0  501 -0.00000000000E+00 -0.00000000000E+00 -0.13807247508E+03  0.13807247508E+03  0.00000000000E+00 0.  1.
        -24    2    1    2    0    0 -0.93942662092E+02 -0.15514485511E+03  0.64481707842E+03  0.67461536505E+03  0.80135362397E+02 0.  0.
        254    2    1    2    0    0  0.93942662092E+02  0.15514485511E+03  0.15623064812E+04  0.18086531448E+04  0.89304507555E+03 0.  0.
         23    2    4    4    0    0  0.23765278518E+03 -0.31880049496E+03  0.73025650586E+03  0.83639767916E+03  0.90409686752E+02 0.  0.
         23    2    4    4    0    0 -0.14371012309E+03  0.47394535007E+03  0.83204997536E+03  0.97225546560E+03  0.87731035354E+02 0.  0.
          1    1    3    3  502    0  0.14410768678E+02 -0.24862579751E+02  0.10110434290E+03  0.10510902092E+03  0.00000000000E+00 0. -1.
         -2    1    3    3    0  502 -0.10835343077E+03 -0.13028227536E+03  0.54371273553E+03  0.56950634413E+03  0.00000000000E+00 0.  1.
         11    1    5    5    0    0  0.20131817496E+03 -0.24569836162E+03  0.64133527235E+03  0.71568681979E+03  0.00000000000E+00 0. -1.
        -11    1    5    5    0    0  0.36334610219E+02 -0.73102133340E+02  0.88921233517E+02  0.12071085937E+03  0.00000000000E+00 0.  1.
          2    1    6    6  503    0 -0.12702788591E+03  0.42384631330E+03  0.67987181478E+03  0.81117659336E+03  0.00000000000E+00 0. -1.
         -2    1    6    6    0  503 -0.16682237176E+02  0.50099036776E+02  0.15217816058E+03  0.16107887224E+03  0.00000000000E+00 0.  1.
<mgrwt>
<rscale>  0 0.11380809E+04</rscale>
<asrwt>0</asrwt>
<pdfrwt beam="1">  1        1 0.36079936E+00 0.11380809E+04</pdfrwt>
<pdfrwt beam="2">  1       -2 0.21241921E-01 0.11380809E+04</pdfrwt>
<totfact> 0.29230299E+01</totfact>
</mgrwt>
</event>
<event>
12    4  0.4486176E-008  0.2104054E+04  0.7818608E-02  0.8559459E-01
          1   -1    0    0  501    0  0.00000000000E+00  0.00000000000E+00  0.17351499797E+04  0.17351499797E+04  0.00000000000E+00 0. -1.
         -4   -1    0    0    0  501 -0.00000000000E+00 -0.00000000000E+00 -0.63784763336E+03  0.63784763336E+03  0.00000000000E+00 0.  1.
        -24    2    1    2    0    0 -0.78203272240E+03 -0.32141654372E+03  0.30069661167E+03  0.90041961043E+03  0.73846117636E+02 0.  0.
        254    2    1    2    0    0  0.78203272240E+03  0.32141654372E+03  0.79660573466E+03  0.14725780026E+04  0.90499806843E+03 0.  0.
         23    2    4    4    0    0  0.78104684906E+03  0.63665680538E+02  0.88551943350E+03  0.11855637470E+04  0.85610932846E+02 0.  0.
         23    2    4    4    0    0  0.98587333750E+00  0.25775086318E+03 -0.88913698838E+02  0.28701425562E+03  0.89638483196E+02 0.  0.
          1    1    3    3  502    0 -0.68439570268E+03 -0.29815849552E+03  0.28374982719E+03  0.79863003370E+03  0.00000000000E+00 0. -1.
         -2    1    3    3    0  502 -0.97637019723E+02 -0.23258048198E+02  0.16946784482E+02  0.10178957673E+03  0.00000000000E+00 0.  1.
         11    1    5    5    0    0  0.31045209029E+03  0.67277939021E+02  0.35154089153E+03  0.47380145616E+03  0.00000000000E+00 0.  1.
        -11    1    5    5    0    0  0.47059475877E+03 -0.36122584838E+01  0.53397854197E+03  0.71176229085E+03  0.00000000000E+00 0. -1.
          4    1    6    6  503    0 -0.82399822216E+01  0.22845833856E+03 -0.44312029345E+02  0.23286190266E+03  0.00000000000E+00 0. -1.
         -4    1    6    6    0  503  0.92258555591E+01  0.29292524622E+02 -0.44601669493E+02  0.54152352960E+02  0.00000000000E+00 0.  1.
<mgrwt>
<rscale>  0 0.21040545E+04</rscale>
<asrwt>0</asrwt>
<pdfrwt beam="1">  1        1 0.26694615E+00 0.21040545E+04</pdfrwt>
<pdfrwt beam="2">  1       -4 0.98130406E-01 0.21040545E+04</pdfrwt>
<totfact> 0.17569557E+00</totfact>
</mgrwt>
</event>
<event>
12    4  0.4486176E-008  0.1105634E+04  0.7818608E-02  0.9199718E-01
         -2   -1    0    0    0  501 -0.00000000000E+00  0.00000000000E+00  0.10017043777E+04  0.10017043777E+04  0.00000000000E+00 0.  1.
          1   -1    0    0  501    0  0.00000000000E+00 -0.00000000000E+00 -0.30508653018E+03  0.30508653018E+03  0.00000000000E+00 0. -1.
        -24    2    1    2    0    0 -0.31796119093E+02  0.83689766232E+02 -0.24867882214E+02  0.12288113565E+03  0.80413877982E+02 0.  0.
        254    2    1    2    0    0  0.31796119093E+02 -0.83689766232E+02  0.72148572977E+03  0.11839097723E+04  0.93439056097E+03 0.  0.
         23    2    4    4    0    0  0.87772296289E+02 -0.11848873627E+03 -0.19430272779E+03  0.26219828673E+03  0.96181260764E+02 0.  0.
         23    2    4    4    0    0 -0.55976177196E+02  0.34798970038E+02  0.91578845756E+03  0.92171148553E+03  0.80865708556E+02 0.  0.
          1    1    3    3  502    0 -0.16210437404E+02 -0.12710918775E+02 -0.13360515767E+02  0.24552985939E+02  0.00000000000E+00 0. -1.
         -2    1    3    3    0  502 -0.15585681688E+02  0.96400685007E+02 -0.11507366448E+02  0.98328149714E+02  0.00000000000E+00 0.  1.
         11    1    5    5    0    0  0.39536877575E+02 -0.12120610687E+03 -0.13456021899E+03  0.18536595578E+03  0.00000000000E+00 0.  1.
        -11    1    5    5    0    0  0.48235418714E+02  0.27173705958E+01 -0.59742508800E+02  0.76832330950E+02  0.00000000000E+00 0. -1.
          1    1    6    6  503    0  0.16570592788E+02 -0.72822521636E+01  0.10014933018E+03  0.10177182359E+03  0.00000000000E+00 0. -1.
         -1    1    6    6    0  503 -0.72546769984E+02  0.42081222202E+02  0.81563912738E+03  0.81993966193E+03  0.00000000000E+00 0.  1.
<mgrwt>
<rscale>  0 0.11056338E+04</rscale>
<asrwt>0</asrwt>
<pdfrwt beam="1">  1        1 0.46936390E-01 0.11056338E+04</pdfrwt>
<pdfrwt beam="2">  1       -2 0.15410836E+00 0.11056338E+04</pdfrwt>
<totfact> 0.20763424E+01</totfact>
</mgrwt>
</event>
<event>
12    4  0.4486176E-008  0.1504283E+04  0.7818608E-02  0.8881610E-01
         -4   -1    0    0    0  501 -0.00000000000E+00  0.00000000000E+00  0.14966035053E+03  0.14966035053E+03  0.00000000000E+00 0.  1.
          1   -1    0    0  501    0  0.00000000000E+00 -0.00000000000E+00 -0.37800053517E+04  0.37800053517E+04  0.00000000000E+00 0. -1.
        -24    2    1    2    0    0 -0.43566060508E+03  0.18151519088E+02 -0.23471122858E+04  0.23885833851E+04  0.79150897863E+02 0.  0.
        254    2    1    2    0    0  0.43566060508E+03 -0.18151519088E+02 -0.12832327153E+04  0.15410823171E+04  0.73356585670E+03 0.  0.
         23    2    4    4    0    0 -0.14658031743E+03 -0.11697221491E+03 -0.59106570803E+03  0.62685978984E+03  0.91794533571E+02 0.  0.
         23    2    4    4    0    0  0.58224092251E+03  0.98820695826E+02 -0.69216700728E+03  0.91422252731E+03  0.89093443601E+02 0.  0.
          3    1    3    3  502    0 -0.38603440968E+03 -0.26897607296E+01 -0.19505571010E+04  0.19883920148E+04  0.00000000000E+00 0. -1.
         -4    1    3    3    0  502 -0.49626195403E+02  0.20841279818E+02 -0.39655518478E+03  0.40019137021E+03  0.00000000000E+00 0.  1.
         11    1    5    5    0    0 -0.55938709951E+02 -0.67543629617E+02 -0.14896161643E+03  0.17286076577E+03  0.00000000000E+00 0.  1.
        -11    1    5    5    0    0 -0.90641607477E+02 -0.49428585297E+02 -0.44210409160E+03  0.45399902407E+03  0.00000000000E+00 0. -1.
          4    1    6    6  503    0  0.56801210963E+03  0.85087932001E+02 -0.64842019307E+03  0.86621386483E+03  0.00000000000E+00 0. -1.
         -4    1    6    6    0  503  0.14228812888E+02  0.13732763825E+02 -0.43746814216E+02  0.48008662474E+02  0.00000000000E+00 0.  1.
<mgrwt>
<rscale>  0 0.15042831E+04</rscale>
<asrwt>0</asrwt>
<pdfrwt beam="1">  1        1 0.58153933E+00 0.15042831E+04</pdfrwt>
<pdfrwt beam="2">  1       -4 0.23024668E-01 0.15042831E+04</pdfrwt>
<totfact> 0.13027703E+00</totfact>
</mgrwt>
</event>
<event>
12    4  0.4486176E-008  0.1928657E+04  0.7818608E-02  0.8640722E-01
         -2   -1    0    0    0  501 -0.00000000000E+00  0.00000000000E+00  0.56976670019E+03  0.56976670019E+03  0.00000000000E+00 0.  1.
          1   -1    0    0  501    0  0.00000000000E+00 -0.00000000000E+00 -0.16321233184E+04  0.16321233184E+04  0.00000000000E+00 0. -1.
        -24    2    1    2    0    0  0.35325835210E+03  0.13009873979E+02  0.34207517304E+03  0.49829372239E+03  0.79501506965E+02 0.  0.
        254    2    1    2    0    0 -0.35325835210E+03 -0.13009873979E+02 -0.14044317913E+04  0.17035962962E+04  0.89713486391E+03 0.  0.
         23    2    4    4    0    0 -0.67157300359E+02  0.24837036532E+03 -0.37551339962E+02  0.27982189567E+03  0.10340333073E+03 0.  0.
         23    2    4    4    0    0 -0.28610105174E+03 -0.26138023930E+03 -0.13668804513E+04  0.14237744005E+04  0.92725046304E+02 0.  0.
          1    1    3    3  502    0  0.90566526796E+02 -0.17308153742E+02  0.52329889832E+02  0.10602021190E+03  0.00000000000E+00 0. -1.
         -2    1    3    3    0  502  0.26269182530E+03  0.30318027721E+02  0.28974528321E+03  0.39227351048E+03  0.00000000000E+00 0.  1.
         11    1    5    5    0    0 -0.44360640992E+02  0.12018016489E+03 -0.69519192488E+02  0.14575341035E+03  0.00000000000E+00 0.  1.
        -11    1    5    5    0    0 -0.22796659367E+02  0.12819020042E+03  0.31967852527E+02  0.13406848533E+03  0.00000000000E+00 0. -1.
          3    1    6    6  503    0 -0.80534225480E+02 -0.64361564134E+02 -0.52560118692E+03  0.53561626199E+03  0.00000000000E+00 0. -1.
         -3    1    6    6    0  503 -0.20556682626E+03 -0.19701867516E+03 -0.84127926438E+03  0.88815813856E+03  0.00000000000E+00 0.  1.
<mgrwt>
<rscale>  0 0.19286571E+04</rscale>
<asrwt>0</asrwt>
<pdfrwt beam="1">  1        1 0.25109589E+00 0.19286571E+04</pdfrwt>
<pdfrwt beam="2">  1       -2 0.87656416E-01 0.19286571E+04</pdfrwt>
<totfact> 0.48798952E+00</totfact>
</mgrwt>
</event>
<event>
12    4  0.4486176E-008  0.1505311E+04  0.7818608E-02  0.8880929E-01
         -2   -1    0    0    0  501 -0.00000000000E+00  0.00000000000E+00  0.26756471997E+03  0.26756471997E+03  0.00000000000E+00 0.  1.
          1   -1    0    0  501    0  0.00000000000E+00 -0.00000000000E+00 -0.21172084383E+04  0.21172084383E+04  0.00000000000E+00 0. -1.
        -24    2    1    2    0    0  0.18788325810E+03 -0.35891534974E+03 -0.99277725724E+03  0.10752010768E+04  0.79563346705E+02 0.  0.
        254    2    1    2    0    0 -0.18788325810E+03  0.35891534974E+03 -0.85686646108E+03  0.13095720815E+04  0.90368056161E+03 0.  0.
         23    2    4    4    0    0 -0.15975986105E+03 -0.11141546837E+03 -0.79745418099E+03  0.82576755736E+03  0.89567115706E+02 0.  0.
         23    2    4    4    0    0 -0.28123397054E+02  0.47033081811E+03 -0.59412280098E+02  0.48380452410E+03  0.92385034411E+02 0.  0.
          3    1    3    3  502    0  0.16194376438E+03 -0.32898670349E+03 -0.82511609171E+03  0.90292557760E+03  0.00000000000E+00 0. -1.
         -4    1    3    3    0  502  0.25939493717E+02 -0.29928646246E+02 -0.16766116554E+03  0.17227549922E+03  0.00000000000E+00 0.  1.
         11    1    5    5    0    0 -0.41144721246E+02 -0.82434188080E+02 -0.35800260734E+03  0.36966762141E+03  0.00000000000E+00 0. -1.
        -11    1    5    5    0    0 -0.11861513980E+03 -0.28981280291E+02 -0.43945157364E+03  0.45609993595E+03  0.00000000000E+00 0.  1.
          1    1    6    6  503    0 -0.63573127187E+01  0.27614115679E+02 -0.27370152079E+02  0.39396446979E+02  0.00000000000E+00 0. -1.
         -1    1    6    6    0  503 -0.21766084335E+02  0.44271670243E+03 -0.32042128019E+02  0.44440807712E+03  0.00000000000E+00 0.  1.
<mgrwt>
<rscale>  0 0.15053110E+04</rscale>
<asrwt>0</asrwt>
<pdfrwt beam="1">  1        1 0.32572436E+00 0.15053110E+04</pdfrwt>
<pdfrwt beam="2">  1       -2 0.41163804E-01 0.15053110E+04</pdfrwt>
<totfact> 0.11783462E+01</totfact>
</mgrwt>
</event>
<event>
12    4  0.4486176E-008  0.3762921E+04  0.7818608E-02  0.8054159E-01
          1   -1    0    0  501    0  0.00000000000E+00  0.00000000000E+00  0.15418139762E+04  0.15418139762E+04  0.00000000000E+00 0. -1.
         -2   -1    0    0    0  501 -0.00000000000E+00 -0.00000000000E+00 -0.22959273247E+04  0.22959273247E+04  0.00000000000E+00 0.  1.
        -24    2    1    2    0    0 -0.67465660862E+03  0.58816640043E+03  0.12090523280E+04  0.15063917272E+04  0.79418195319E+02 0.  0.
        254    2    1    2    0    0  0.67465660862E+03 -0.58816640043E+03 -0.19631656765E+04  0.23313495738E+04  0.88321577656E+03 0.  0.
         23    2    4    4    0    0  0.66218060603E+03 -0.36243129390E+03 -0.66591469064E+03  0.10109059136E+04  0.92998887772E+02 0.  0.
         23    2    4    4    0    0  0.12476002587E+02 -0.22573510654E+03 -0.12972509858E+04  0.13204436602E+04  0.97976276033E+02 0.  0.
          3    1    3    3  502    0 -0.37547011026E+03  0.33938209893E+03  0.74718017937E+03  0.90246120871E+03  0.00000000000E+00 0. -1.
         -2    1    3    3    0  502 -0.29918649836E+03  0.24878430150E+03  0.46187214860E+03  0.60393051846E+03  0.00000000000E+00 0.  1.
         11    1    5    5    0    0  0.33469297375E+03 -0.19792003397E+03 -0.28333213923E+03  0.48111207389E+03  0.00000000000E+00 0. -1.
        -11    1    5    5    0    0  0.32748763227E+03 -0.16451125993E+03 -0.38258255141E+03  0.52979383970E+03  0.00000000000E+00 0.  1.
          2    1    6    6  503    0 -0.37973161101E+02 -0.15424301578E+03 -0.84891067482E+03  0.86364472018E+03  0.00000000000E+00 0. -1.
         -2    1    6    6    0  503  0.50449163689E+02 -0.71492090758E+02 -0.44834031100E+03  0.45679894004E+03  0.00000000000E+00 0.  1.
<mgrwt>
<rscale>  0 0.37629206E+04</rscale>
<asrwt>0</asrwt>
<pdfrwt beam="1">  1        1 0.23720215E+00 0.37629206E+04</pdfrwt>
<pdfrwt beam="2">  1       -2 0.35321959E+00 0.37629206E+04</pdfrwt>
<totfact> 0.63662779E-02</totfact>
</mgrwt>
</event>
<event>
12    4  0.4486176E-008  0.1894730E+04  0.7818608E-02  0.8657484E-01
         -2   -1    0    0    0  501 -0.00000000000E+00  0.00000000000E+00  0.48364861465E+03  0.48364861465E+03  0.00000000000E+00 0.  1.
          1   -1    0    0  501    0  0.00000000000E+00 -0.00000000000E+00 -0.18556872610E+04  0.18556872610E+04  0.00000000000E+00 0. -1.
        -24    2    1    2    0    0  0.17253589752E+03 -0.35510432449E+03 -0.13213886172E+04  0.13814194686E+04  0.79900896894E+02 0.  0.
        254    2    1    2    0    0 -0.17253589752E+03  0.35510432449E+03 -0.50650029094E+02  0.95791640701E+03  0.87130402281E+03 0.  0.
         23    2    4    4    0    0 -0.55268650433E+02  0.13922784921E+03  0.40054759337E+03  0.43616956906E+03  0.85828321107E+02 0.  0.
         23    2    4    4    0    0 -0.11726724709E+03  0.21587647529E+03 -0.45119762246E+03  0.52174683795E+03  0.91028614047E+02 0.  0.
          3    1    3    3  502    0  0.13310203233E+03 -0.27121376227E+03 -0.88040611334E+03  0.93079964561E+03  0.00000000000E+00 0. -1.
         -4    1    3    3    0  502  0.39433865186E+02 -0.83890562225E+02 -0.44098250387E+03  0.45061982299E+03  0.00000000000E+00 0.  1.
         11    1    5    5    0    0 -0.72727676372E+02  0.11103036893E+03  0.36058477458E+03  0.38423747526E+03  0.00000000000E+00 0.  1.
        -11    1    5    5    0    0  0.17459025939E+02  0.28197480280E+02  0.39962818789E+02  0.51932093800E+02  0.00000000000E+00 0. -1.
          4    1    6    6  503    0 -0.65164379740E+02  0.35826899068E+02 -0.11928008248E+03  0.14056209005E+03  0.00000000000E+00 0. -1.
         -4    1    6    6    0  503 -0.52102867346E+02  0.18004957622E+03 -0.33191753998E+03  0.38118474790E+03  0.00000000000E+00 0.  1.
<mgrwt>
<rscale>  0 0.18947301E+04</rscale>
<asrwt>0</asrwt>
<pdfrwt beam="1">  1        1 0.28549035E+00 0.18947301E+04</pdfrwt>
<pdfrwt beam="2">  1       -2 0.74407479E-01 0.18947301E+04</pdfrwt>
<totfact> 0.49872073E+00</totfact>
</mgrwt>
</event>
<event>
12    4  0.4486176E-008  0.1594037E+04  0.7818608E-02  0.8824220E-01
         -2   -1    0    0    0  501 -0.00000000000E+00  0.00000000000E+00  0.58149864082E+03  0.58149864082E+03  0.00000000000E+00 0.  1.
          1   -1    0    0  501    0  0.00000000000E+00 -0.00000000000E+00 -0.10924155099E+04  0.10924155099E+04  0.00000000000E+00 0. -1.
        -24    2    1    2    0    0 -0.53512374784E+03 -0.82016674561E+02 -0.25107373837E+03  0.60198171059E+03  0.79118881309E+02 0.  0.
        254    2    1    2    0    0  0.53512374784E+03  0.82016674561E+02 -0.25984313077E+03  0.10719324402E+04  0.88793949303E+03 0.  0.
         23    2    4    4    0    0  0.29641818845E+03  0.47321404512E+03 -0.20809045107E+03  0.60283861487E+03  0.91200245683E+02 0.  0.
         23    2    4    4    0    0  0.23870555940E+03 -0.39119737055E+03 -0.51752679694E+02  0.46909382530E+03  0.85761006677E+02 0.  0.
          3    1    3    3  502    0 -0.49180591795E+03 -0.52963112315E+02 -0.23301354043E+03  0.54678465800E+03  0.00000000000E+00 0. -1.
         -4    1    3    3    0  502 -0.43317829899E+02 -0.29053562246E+02 -0.18060197931E+02  0.55197052599E+02  0.00000000000E+00 0.  1.
         11    1    5    5    0    0  0.25052257817E+03  0.35260054420E+03 -0.19036905013E+03  0.47257706376E+03  0.00000000000E+00 0. -1.
        -11    1    5    5    0    0  0.45895610275E+02  0.12061350092E+03 -0.17721400939E+02  0.13026155111E+03  0.00000000000E+00 0.  1.
          1    1    6    6  503    0  0.20053452757E+03 -0.37371013358E+03 -0.43913281284E+02  0.42638214897E+03  0.00000000000E+00 0. -1.
         -1    1    6    6    0  503  0.38171031827E+02 -0.17487236976E+02 -0.78393984095E+01  0.42711676334E+02  0.00000000000E+00 0.  1.
<mgrwt>
<rscale>  0 0.15940366E+04</rscale>
<asrwt>0</asrwt>
<pdfrwt beam="1">  1        1 0.16806392E+00 0.15940366E+04</pdfrwt>
<pdfrwt beam="2">  1       -2 0.89461330E-01 0.15940366E+04</pdfrwt>
<totfact> 0.11588695E+01</totfact>
</mgrwt>
</event>
<event>
12    4  0.4486176E-008  0.2584174E+04  0.7818608E-02  0.8373597E-01
         -2   -1    0    0    0  501 -0.00000000000E+00  0.00000000000E+00  0.69812888979E+03  0.69812888979E+03  0.00000000000E+00 0.  1.
          1   -1    0    0  501    0  0.00000000000E+00 -0.00000000000E+00 -0.23913764797E+04  0.23913764797E+04  0.00000000000E+00 0. -1.
        -24    2    1    2    0    0 -0.40674702622E+03  0.95847405696E+03 -0.12815013157E+04  0.16530943620E+04  0.79747641377E+02 0.  0.
        254    2    1    2    0    0  0.40674702622E+03 -0.95847405696E+03 -0.41174627424E+03  0.14364110075E+04  0.89979215767E+03 0.  0.
         23    2    4    4    0    0  0.27074621486E+03 -0.97339024955E+03 -0.60556414177E+03  0.11809270846E+04  0.84194765613E+02 0.  0.
         23    2    4    4    0    0  0.13600081136E+03  0.14916192596E+02  0.19381786754E+03  0.25548392293E+03  0.94804829032E+02 0.  0.
          3    1    3    3  502    0 -0.33890142138E+03  0.75628389495E+03 -0.10613332781E+04  0.13465689104E+04  0.00000000000E+00 0. -1.
         -4    1    3    3    0  502 -0.67845604838E+02  0.20219016201E+03 -0.22016803757E+03  0.30652545160E+03  0.00000000000E+00 0.  1.
         11    1    5    5    0    0  0.26659479735E+03 -0.96406164715E+03 -0.60785927324E+03  0.11704616788E+04  0.00000000000E+00 0.  1.
        -11    1    5    5    0    0  0.41514175054E+01 -0.93286024013E+01  0.22951314651E+01  0.10465405798E+02  0.00000000000E+00 0. -1.
          1    1    6    6  503    0  0.14680188308E+03  0.76823217163E+01  0.15101065857E+03  0.21074636401E+03  0.00000000000E+00 0. -1.
         -1    1    6    6    0  503 -0.10801071722E+02  0.72338708794E+01  0.42807208970E+02  0.44737558919E+02  0.00000000000E+00 0.  1.
<mgrwt>
<rscale>  0 0.25841741E+04</rscale>
<asrwt>0</asrwt>
<pdfrwt beam="1">  1        1 0.36790407E+00 0.25841741E+04</pdfrwt>
<pdfrwt beam="2">  1       -2 0.10740444E+00 0.25841741E+04</pdfrwt>
<totfact> 0.86909470E-01</totfact>
</mgrwt>
</event>
<event>
12    4  0.4486176E-008  0.1819123E+04  0.7818608E-02  0.8696196E-01
         -2   -1    0    0    0  501 -0.00000000000E+00  0.00000000000E+00  0.58475352171E+03  0.58475352171E+03  0.00000000000E+00 0.  1.
          1   -1    0    0  501    0  0.00000000000E+00 -0.00000000000E+00 -0.14147870979E+04  0.14147870979E+04  0.00000000000E+00 0. -1.
        -24    2    1    2    0    0  0.19074826068E+03  0.26872505563E+03 -0.92817863414E+03  0.98803477817E+03  0.78096680594E+02 0.  0.
        254    2    1    2    0    0 -0.19074826068E+03 -0.26872505563E+03  0.98145057970E+02  0.10115058414E+04  0.95126944676E+03 0.  0.
         23    2    4    4    0    0 -0.13562209580E+03 -0.36675082256E+03  0.46652326841E+03  0.61528103803E+03  0.89595072831E+02 0.  0.
         23    2    4    4    0    0 -0.55126164877E+02  0.98025766929E+02 -0.36837821044E+03  0.39622480338E+03  0.92971199041E+02 0.  0.
          1    1    3    3  502    0  0.17511145220E+03  0.27096559139E+03 -0.89225279281E+03  0.94878944908E+03  0.00000000000E+00 0. -1.
         -2    1    3    3    0  502  0.15636808481E+02 -0.22405357589E+01 -0.35925841329E+02  0.39245329087E+02  0.00000000000E+00 0.  1.
         11    1    5    5    0    0 -0.17305012681E+02 -0.74671359769E+01  0.45734442895E+02  0.49465754321E+02  0.00000000000E+00 0. -1.
        -11    1    5    5    0    0 -0.11831708312E+03 -0.35928368658E+03  0.42078882552E+03  0.56581528371E+03  0.00000000000E+00 0.  1.
          1    1    6    6  503    0  0.48758870544E+01 -0.16162709302E+02 -0.45716933346E+02  0.48734437937E+02  0.00000000000E+00 0. -1.
         -1    1    6    6    0  503 -0.60002051932E+02  0.11418847623E+03 -0.32266127710E+03  0.34749036544E+03  0.00000000000E+00 0.  1.
<mgrwt>
<rscale>  0 0.18191226E+04</rscale>
<asrwt>0</asrwt>
<pdfrwt beam="1">  1        1 0.21765955E+00 0.18191226E+04</pdfrwt>
<pdfrwt beam="2">  1       -2 0.89962081E-01 0.18191226E+04</pdfrwt>
<totfact> 0.65596675E+00</totfact>
</mgrwt>
</event>
<event>
12    4  0.4486176E-008  0.1121723E+04  0.7818608E-02  0.9184274E-01
         -2   -1    0    0    0  501 -0.00000000000E+00  0.00000000000E+00  0.76187237702E+02  0.76187237702E+02  0.00000000000E+00 0.  1.
          1   -1    0    0  501    0  0.00000000000E+00 -0.00000000000E+00 -0.41288515782E+04  0.41288515782E+04  0.00000000000E+00 0. -1.
        -24    2    1    2    0    0  0.17035103267E+03  0.16023364356E+00 -0.86128903604E+03  0.88153225719E+03  0.79125323774E+02 0.  0.
        254    2    1    2    0    0 -0.17035103267E+03 -0.16023364356E+00 -0.31913753044E+04  0.33235065587E+04  0.91203070774E+03 0.  0.
         23    2    4    4    0    0 -0.31257097943E+03 -0.37919507878E+03 -0.20060622954E+04  0.20674102339E+04  0.91703965208E+02 0.  0.
         23    2    4    4    0    0  0.14221994676E+03  0.37903484514E+03 -0.11853130090E+04  0.12560963247E+04  0.94430507107E+02 0.  0.
          1    1    3    3  502    0  0.10659732683E+03  0.20603178921E+02 -0.36677756529E+03  0.38250916783E+03  0.00000000000E+00 0. -1.
         -2    1    3    3    0  502  0.63753705836E+02 -0.20442945278E+02 -0.49451147074E+03  0.49902308936E+03  0.00000000000E+00 0.  1.
         11    1    5    5    0    0 -0.13129105748E+02  0.29229007253E+01 -0.79105678467E+02  0.80241043937E+02  0.00000000000E+00 0. -1.
        -11    1    5    5    0    0 -0.29944187369E+03 -0.38211797951E+03 -0.19269566170E+04  0.19871691900E+04  0.00000000000E+00 0.  1.
          4    1    6    6  503    0  0.27806511665E+02  0.24011649042E+02 -0.57815470516E+02  0.68501021975E+02  0.00000000000E+00 0. -1.
         -4    1    6    6    0  503  0.11441343510E+03  0.35502319610E+03 -0.11274975385E+04  0.11875953028E+04  0.00000000000E+00 0.  1.
<mgrwt>
<rscale>  0 0.11217233E+04</rscale>
<asrwt>0</asrwt>
<pdfrwt beam="1">  1        1 0.63520795E+00 0.11217233E+04</pdfrwt>
<pdfrwt beam="2">  1       -2 0.11721113E-01 0.11217233E+04</pdfrwt>
<totfact> 0.35621919E+00</totfact>
</mgrwt>
</event>
<event>
12    4  0.4486176E-008  0.2088985E+04  0.7818608E-02  0.8566111E-01
         -2   -1    0    0    0  501 -0.00000000000E+00  0.00000000000E+00  0.86200980291E+03  0.86200980291E+03  0.00000000000E+00 0.  1.
          1   -1    0    0  501    0  0.00000000000E+00 -0.00000000000E+00 -0.12656062780E+04  0.12656062780E+04  0.00000000000E+00 0. -1.
        -24    2    1    2    0    0  0.50822666362E+03 -0.64680865603E+03 -0.38898319810E+03  0.91327923464E+03  0.78200082411E+02 0.  0.
        254    2    1    2    0    0 -0.50822666362E+03  0.64680865603E+03 -0.14613277035E+02  0.12143368463E+04  0.89316552180E+03 0.  0.
         23    2    4    4    0    0 -0.71519530047E+03  0.46072435966E+03 -0.18457758702E+03  0.87532981182E+03  0.91444739788E+02 0.  0.
         23    2    4    4    0    0  0.20696863685E+03  0.18608429636E+03  0.16996430998E+03  0.33900703450E+03  0.92598708312E+02 0.  0.
          1    1    3    3  502    0  0.50749298255E+03 -0.64878781863E+03 -0.38944055222E+03  0.91111947880E+03  0.00000000000E+00 0. -1.
         -2    1    3    3    0  502  0.73368107240E+00  0.19791625989E+01  0.45735411350E+00  0.21597558413E+01  0.00000000000E+00 0.  1.
         11    1    5    5    0    0 -0.62168232101E+03  0.42695375244E+03 -0.14324778269E+03  0.76765769860E+03  0.00000000000E+00 0.  1.
        -11    1    5    5    0    0 -0.93512979458E+02  0.33770607227E+02 -0.41329804326E+02  0.10767211322E+03  0.00000000000E+00 0. -1.
          1    1    6    6  503    0 -0.89978844911E+01  0.39388155747E+01  0.11333168397E+02  0.14997229723E+02  0.00000000000E+00 0. -1.
         -1    1    6    6    0  503  0.21596652134E+03  0.18214548079E+03  0.15863114158E+03  0.32400980478E+03  0.00000000000E+00 0.  1.
<mgrwt>
<rscale>  0 0.20889854E+04</rscale>
<asrwt>0</asrwt>
<pdfrwt beam="1">  1        1 0.19470866E+00 0.20889854E+04</pdfrwt>
<pdfrwt beam="2">  1       -2 0.13261689E+00 0.20889854E+04</pdfrwt>
<totfact> 0.31929522E+00</totfact>
</mgrwt>
</event>
<event>
12    4  0.4486176E-008  0.1300598E+04  0.7818608E-02  0.9029091E-01
          1   -1    0    0  501    0  0.00000000000E+00  0.00000000000E+00  0.23065430531E+04  0.23065430531E+04  0.00000000000E+00 0. -1.
         -2   -1    0    0    0  501 -0.00000000000E+00 -0.00000000000E+00 -0.18334308532E+03  0.18334308532E+03  0.00000000000E+00 0.  1.
        -24    2    1    2    0    0 -0.24471926359E+03  0.79540513178E+02  0.15142108311E+03  0.30896674091E+03  0.79485164469E+02 0.  0.
        254    2    1    2    0    0  0.24471926359E+03 -0.79540513178E+02  0.19717788847E+04  0.21809193975E+04  0.89570265000E+03 0.  0.
         23    2    4    4    0    0  0.52920894790E+03  0.38219193744E+02  0.16068114508E+04  0.16945910146E+04  0.90955213277E+02 0.  0.
         23    2    4    4    0    0 -0.28448968432E+03 -0.11775970692E+03  0.36496743384E+03  0.48632838295E+03  0.92262339204E+02 0.  0.
          3    1    3    3  502    0 -0.14074163286E+03  0.68260985116E+01  0.63210156820E+02  0.15443551006E+03  0.00000000000E+00 0. -1.
         -4    1    3    3    0  502 -0.10397763072E+03  0.72714414666E+02  0.88210926287E+02  0.15453123085E+03  0.00000000000E+00 0.  1.
         11    1    5    5    0    0  0.95214475473E+02  0.33594370829E+02  0.23539727137E+03  0.25613717703E+03  0.00000000000E+00 0. -1.
        -11    1    5    5    0    0  0.43399447243E+03  0.46248229152E+01  0.13714141795E+04  0.14384538376E+04  0.00000000000E+00 0.  1.
          2    1    6    6  503    0 -0.11272817696E+02 -0.13142343971E+02 -0.15275083750E+01  0.17381913177E+02  0.00000000000E+00 0. -1.
         -2    1    6    6    0  503 -0.27321686662E+03 -0.10461736295E+03  0.36649494222E+03  0.46894646977E+03  0.00000000000E+00 0.  1.
<mgrwt>
<rscale>  0 0.13005979E+04</rscale>
<asrwt>0</asrwt>
<pdfrwt beam="1">  1        1 0.35485276E+00 0.13005979E+04</pdfrwt>
<pdfrwt beam="2">  1       -2 0.28206630E-01 0.13005979E+04</pdfrwt>
<totfact> 0.18328630E+01</totfact>
</mgrwt>
</event>
<event>
12    4  0.4486176E-008  0.1747972E+04  0.7818608E-02  0.8734467E-01
         -2   -1    0    0    0  501 -0.00000000000E+00  0.00000000000E+00  0.50883281030E+03  0.50883281030E+03  0.00000000000E+00 0.  1.
          1   -1    0    0  501    0  0.00000000000E+00 -0.00000000000E+00 -0.15011837808E+04  0.15011837808E+04  0.00000000000E+00 0. -1.
        -24    2    1    2    0    0  0.45505205351E+03 -0.44800529794E+03 -0.34718653750E+03  0.73090111840E+03  0.76790850190E+02 0.  0.
        254    2    1    2    0    0 -0.45505205351E+03  0.44800529794E+03 -0.64516443295E+03  0.12791154727E+04  0.90117596975E+03 0.  0.
         23    2    4    4    0    0 -0.36032985350E+03  0.11785957519E+03 -0.80097851290E+03  0.89090831816E+03  0.91774563250E+02 0.  0.
         23    2    4    4    0    0 -0.94722200006E+02  0.33014572276E+03  0.15581407995E+03  0.38820715449E+03  0.91968874416E+02 0.  0.
          3    1    3    3  502    0  0.16067749079E+02 -0.42457205606E+02 -0.20670587213E+02  0.49880457537E+02  0.00000000000E+00 0. -1.
         -4    1    3    3    0  502  0.43898430443E+03 -0.40554809234E+03 -0.32651595029E+03  0.68102066087E+03  0.00000000000E+00 0.  1.
         11    1    5    5    0    0 -0.23679021633E+02 -0.10820103096E+02 -0.91576750722E+02  0.95205419853E+02  0.00000000000E+00 0.  1.
        -11    1    5    5    0    0 -0.33665083187E+03  0.12867967828E+03 -0.70940176218E+03  0.79570289831E+03  0.00000000000E+00 0. -1.
          2    1    6    6  503    0 -0.38259353152E+02  0.20005993560E+03  0.13624583214E+03  0.24505240809E+03  0.00000000000E+00 0. -1.
         -2    1    6    6    0  503 -0.56462846855E+02  0.13008578716E+03  0.19568247806E+02  0.14315474640E+03  0.00000000000E+00 0.  1.
<mgrwt>
<rscale>  0 0.17479720E+04</rscale>
<asrwt>0</asrwt>
<pdfrwt beam="1">  1        1 0.23095134E+00 0.17479720E+04</pdfrwt>
<pdfrwt beam="2">  1       -2 0.78281974E-01 0.17479720E+04</pdfrwt>
<totfact> 0.78816346E+00</totfact>
</mgrwt>
</event>
<event>
12    4  0.4486176E-008  0.1638106E+04  0.7818608E-02  0.8797474E-01
         -2   -1    0    0    0  501 -0.00000000000E+00  0.00000000000E+00  0.63712498281E+03  0.63712498281E+03  0.00000000000E+00 0.  1.
          1   -1    0    0  501    0  0.00000000000E+00 -0.00000000000E+00 -0.10529300513E+04  0.10529300513E+04  0.00000000000E+00 0. -1.
        -24    2    1    2    0    0  0.11134675873E+03  0.13911566970E+01  0.43956605947E+03  0.46051681196E+03  0.80357808954E+02 0.  0.
        254    2    1    2    0    0 -0.11134675873E+03 -0.13911566970E+01 -0.85537112793E+03  0.12295382221E+04  0.87618744407E+03 0.  0.
         23    2    4    4    0    0 -0.13807366948E+03 -0.30646989056E+03 -0.36430445661E+02  0.35112526251E+03  0.94729301586E+02 0.  0.
         23    2    4    4    0    0  0.26726910743E+02  0.30507873386E+03 -0.81894068227E+03  0.87841295961E+03  0.84605702625E+02 0.  0.
          1    1    3    3  502    0  0.26564041595E+02 -0.23132390714E+02  0.50534510340E+02  0.61599452443E+02  0.00000000000E+00 0. -1.
         -2    1    3    3    0  502  0.84782717138E+02  0.24523547411E+02  0.38903154913E+03  0.39891735952E+03  0.00000000000E+00 0.  1.
         11    1    5    5    0    0 -0.10111533685E+03 -0.13618483920E+03 -0.48620170664E+02  0.17644983074E+03  0.00000000000E+00 0. -1.
        -11    1    5    5    0    0 -0.36958332628E+02 -0.17028505136E+03  0.12189725002E+02  0.17467543176E+03  0.00000000000E+00 0.  1.
          2    1    6    6  503    0  0.22944399963E+02  0.29199656600E+03 -0.81182924267E+03  0.86304991704E+03  0.00000000000E+00 0. -1.
         -2    1    6    6    0  503  0.37825107803E+01  0.13082167863E+02 -0.71114395991E+01  0.15363042569E+02  0.00000000000E+00 0.  1.
<mgrwt>
<rscale>  0 0.16381063E+04</rscale>
<asrwt>0</asrwt>
<pdfrwt beam="1">  1        1 0.16198924E+00 0.16381063E+04</pdfrwt>
<pdfrwt beam="2">  1       -2 0.98019229E-01 0.16381063E+04</pdfrwt>
<totfact> 0.99994509E+00</totfact>
</mgrwt>
</event>
<event>
12    4  0.4486176E-008  0.2033162E+04  0.7818608E-02  0.8591272E-01
          1   -1    0    0  501    0  0.00000000000E+00  0.00000000000E+00  0.29189516008E+04  0.29189516008E+04  0.00000000000E+00 0. -1.
         -2   -1    0    0    0  501 -0.00000000000E+00 -0.00000000000E+00 -0.35404376323E+03  0.35404376323E+03  0.00000000000E+00 0.  1.
        -24    2    1    2    0    0 -0.30411616419E+03 -0.65969918865E+03  0.16329648044E+04  0.17889416839E+04  0.77772970666E+02 0.  0.
        254    2    1    2    0    0  0.30411616419E+03  0.65969918865E+03  0.93194303313E+03  0.14840536802E+04  0.89789077718E+03 0.  0.
         23    2    4    4    0    0  0.35537672854E+03  0.34224046378E+03  0.10209530123E+04  0.11378418257E+04  0.94434171774E+02 0.  0.
         23    2    4    4    0    0 -0.51260564350E+02  0.31745872488E+03 -0.89009979168E+02  0.34621185443E+03  0.92369823548E+02 0.  0.
          3    1    3    3  502    0 -0.21762122966E+03 -0.38593306223E+03  0.10198688794E+04  0.11119513745E+04  0.00000000000E+00 0. -1.
         -4    1    3    3    0  502 -0.86494934529E+02 -0.27376612642E+03  0.61309592501E+03  0.67699030934E+03  0.00000000000E+00 0.  1.
         11    1    5    5    0    0  0.34629137720E+03  0.31154743875E+03  0.98571712813E+03  0.10902374884E+04  0.00000000000E+00 0.  1.
        -11    1    5    5    0    0  0.90853513395E+01  0.30693025030E+02  0.35235884166E+02  0.47604337275E+02  0.00000000000E+00 0. -1.
          2    1    6    6  503    0 -0.36402502168E+02  0.88351419226E+02  0.10210106311E+02  0.96100789353E+02  0.00000000000E+00 0. -1.
         -2    1    6    6    0  503 -0.14858062182E+02  0.22910730565E+03 -0.99220085479E+02  0.25011106508E+03  0.00000000000E+00 0.  1.
<mgrwt>
<rscale>  0 0.20331617E+04</rscale>
<asrwt>0</asrwt>
<pdfrwt beam="1">  1        1 0.44906946E+00 0.20331617E+04</pdfrwt>
<pdfrwt beam="2">  1       -2 0.54468273E-01 0.20331617E+04</pdfrwt>
<totfact> 0.17675316E+00</totfact>
</mgrwt>
</event>
<event>
12    4  0.4486176E-008  0.2935240E+04  0.7818608E-02  0.8262469E-01
         -2   -1    0    0    0  501 -0.00000000000E+00  0.00000000000E+00  0.10006142655E+04  0.10006142655E+04  0.00000000000E+00 0.  1.
          1   -1    0    0  501    0  0.00000000000E+00 -0.00000000000E+00 -0.21525867629E+04  0.21525867629E+04  0.00000000000E+00 0. -1.
        -24    2    1    2    0    0  0.23137138258E+02 -0.59811149571E+03  0.75028721389E+03  0.96357511894E+03  0.85284336427E+02 0.  0.
        254    2    1    2    0    0 -0.23137138258E+02  0.59811149571E+03 -0.19022597113E+04  0.21896259094E+04  0.90421066421E+03 0.  0.
         23    2    4    4    0    0  0.36199526970E+03  0.51730200299E+03 -0.14452018645E+04  0.15797857191E+04  0.92046463485E+02 0.  0.
         23    2    4    4    0    0 -0.38513240796E+03  0.80809492723E+02 -0.45705784683E+03  0.60984019033E+03  0.90255396595E+02 0.  0.
          1    1    3    3  502    0  0.14130019013E+02 -0.19915618426E+02  0.47967620999E+02  0.53825476857E+02  0.00000000000E+00 0. -1.
         -2    1    3    3    0  502  0.90071192446E+01 -0.57819587728E+03  0.70231959290E+03  0.90974964208E+03  0.00000000000E+00 0.  1.
         11    1    5    5    0    0  0.28458253293E+03  0.38016487776E+03 -0.98750160986E+03  0.10957517884E+04  0.00000000000E+00 0. -1.
        -11    1    5    5    0    0  0.77412736767E+02  0.13713712522E+03 -0.45770025463E+03  0.48403393065E+03  0.00000000000E+00 0.  1.
          3    1    6    6  503    0 -0.12960105287E+02  0.26925656483E+01 -0.54419336624E+02  0.56006057149E+02  0.00000000000E+00 0. -1.
         -3    1    6    6    0  503 -0.37217230267E+03  0.78116927075E+02 -0.40263851021E+03  0.55383413318E+03  0.00000000000E+00 0.  1.
<mgrwt>
<rscale>  0 0.29352404E+04</rscale>
<asrwt>0</asrwt>
<pdfrwt beam="1">  1        1 0.33116719E+00 0.29352404E+04</pdfrwt>
<pdfrwt beam="2">  1       -2 0.15394066E+00 0.29352404E+04</pdfrwt>
<totfact> 0.49376367E-01</totfact>
</mgrwt>
</event>
<event>
12    4  0.4486176E-008  0.1511494E+04  0.7818608E-02  0.8876845E-01
         -2   -1    0    0    0  501 -0.00000000000E+00  0.00000000000E+00  0.85437252774E+03  0.85437252774E+03  0.00000000000E+00 0.  1.
          1   -1    0    0  501    0  0.00000000000E+00 -0.00000000000E+00 -0.66850679515E+03  0.66850679515E+03  0.00000000000E+00 0. -1.
        -24    2    1    2    0    0  0.18111141093E+03  0.19933492256E+03  0.46407525845E+03  0.54257948624E+03  0.80566114839E+02 0.  0.
        254    2    1    2    0    0 -0.18111141093E+03 -0.19933492256E+03 -0.27820952587E+03  0.98029983665E+03  0.90058396329E+03 0.  0.
         23    2    4    4    0    0 -0.23675649786E+03 -0.51485922511E+03 -0.49966849017E+02  0.57627665788E+03  0.92002388323E+02 0.  0.
         23    2    4    4    0    0  0.55645086926E+02  0.31552430255E+03 -0.22824267685E+03  0.40402317877E+03  0.92130604284E+02 0.  0.
          1    1    3    3  502    0 -0.64940646776E+01  0.20028141723E+02  0.26616293187E+02  0.33937094748E+02  0.00000000000E+00 0. -1.
         -2    1    3    3    0  502  0.18760547561E+03  0.17930678084E+03  0.43745896526E+03  0.50864239149E+03  0.00000000000E+00 0.  1.
         11    1    5    5    0    0 -0.74558767639E+02 -0.77321059143E+02 -0.12570663133E+02  0.10814609374E+03  0.00000000000E+00 0.  1.
        -11    1    5    5    0    0 -0.16219773022E+03 -0.43753816597E+03 -0.37396185883E+02  0.46813056414E+03  0.00000000000E+00 0. -1.
          2    1    6    6  503    0  0.67800685909E+01  0.23358085668E+03 -0.13145035280E+03  0.26811411972E+03  0.00000000000E+00 0. -1.
         -2    1    6    6    0  503  0.48865018335E+02  0.81943445868E+02 -0.96792324049E+02  0.13590905905E+03  0.00000000000E+00 0.  1.
<mgrwt>
<rscale>  0 0.15114944E+04</rscale>
<asrwt>0</asrwt>
<pdfrwt beam="1">  1        1 0.10284720E+00 0.15114944E+04</pdfrwt>
<pdfrwt beam="2">  1       -2 0.13144193E+00 0.15114944E+04</pdfrwt>
<totfact> 0.10432018E+01</totfact>
</mgrwt>
</event>
<event>
12    4  0.4486176E-008  0.1903766E+04  0.7818608E-02  0.8652984E-01
          1   -1    0    0  501    0  0.00000000000E+00  0.00000000000E+00  0.47628038101E+03  0.47628038101E+03  0.00000000000E+00 0. -1.
         -2   -1    0    0    0  501 -0.00000000000E+00 -0.00000000000E+00 -0.19024123195E+04  0.19024123195E+04  0.00000000000E+00 0.  1.
        -24    2    1    2    0    0  0.51733592329E+02  0.19579147705E+03 -0.14511722665E+04  0.14675501598E+04  0.82412725816E+02 0.  0.
        254    2    1    2    0    0 -0.51733592329E+02 -0.19579147705E+03  0.25040327961E+02  0.91114254076E+03  0.88799946199E+03 0.  0.
         23    2    4    4    0    0 -0.64852837162E+02 -0.37795061987E+03 -0.32095230398E+03  0.50950167767E+03  0.97616681794E+02 0.  0.
         23    2    4    4    0    0  0.13119244833E+02  0.18215914282E+03  0.34599263194E+03  0.40164086309E+03  0.90831787653E+02 0.  0.
          3    1    3    3  502    0  0.34897340746E+02  0.28308341937E+02 -0.19266382895E+03  0.19783462184E+03  0.00000000000E+00 0. -1.
         -4    1    3    3    0  502  0.16836251583E+02  0.16748313511E+03 -0.12585084375E+04  0.12697155379E+04  0.00000000000E+00 0.  1.
         11    1    5    5    0    0 -0.34139602854E+02 -0.79353409431E+02 -0.12160205685E+03  0.14916278457E+03  0.00000000000E+00 0.  1.
        -11    1    5    5    0    0 -0.30713234308E+02 -0.29859721044E+03 -0.19935024713E+03  0.36033889309E+03  0.00000000000E+00 0. -1.
          2    1    6    6  503    0  0.78584631952E+01  0.17464780220E+03  0.24916181698E+03  0.30437677523E+03  0.00000000000E+00 0. -1.
         -2    1    6    6    0  503  0.52607816379E+01  0.75113406169E+01  0.96830814962E+02  0.97264087862E+02  0.00000000000E+00 0.  1.
<mgrwt>
<rscale>  0 0.19037664E+04</rscale>
<asrwt>0</asrwt>
<pdfrwt beam="1">  1        1 0.73273904E-01 0.19037664E+04</pdfrwt>
<pdfrwt beam="2">  1       -2 0.29267882E+00 0.19037664E+04</pdfrwt>
<totfact> 0.13682661E+00</totfact>
</mgrwt>
</event>
<event>
12    4  0.4486176E-008  0.1422957E+04  0.7818608E-02  0.8937367E-01
         -2   -1    0    0    0  501 -0.00000000000E+00  0.00000000000E+00  0.33269952054E+03  0.33269952054E+03  0.00000000000E+00 0.  1.
          1   -1    0    0  501    0  0.00000000000E+00 -0.00000000000E+00 -0.15214971634E+04  0.15214971634E+04  0.00000000000E+00 0. -1.
        -24    2    1    2    0    0  0.17935233662E+02  0.26808601743E+03  0.64059079471E+02  0.28740542806E+03  0.79413657946E+02 0.  0.
        254    2    1    2    0    0 -0.17935233662E+02 -0.26808601743E+03 -0.12528567224E+04  0.15667912559E+04  0.90166129311E+03 0.  0.
         23    2    4    4    0    0  0.25552629683E+03 -0.49580347111E+03 -0.86578240940E+03  0.10336994014E+04  0.88546607457E+02 0.  0.
         23    2    4    4    0    0 -0.27346153049E+03  0.22771745369E+03 -0.38707431298E+03  0.53309185452E+03  0.87886029718E+02 0.  0.
          1    1    3    3  502    0 -0.13385051719E+02  0.39284095907E+01  0.76219730983E+00  0.13970431495E+02  0.00000000000E+00 0. -1.
         -2    1    3    3    0  502  0.31320285380E+02  0.26415760783E+03  0.63296882162E+02  0.27343499656E+03  0.00000000000E+00 0.  1.
         11    1    5    5    0    0  0.77731787503E+02 -0.18672702284E+03 -0.38774960452E+03  0.43733164492E+03  0.00000000000E+00 0. -1.
        -11    1    5    5    0    0  0.17779450933E+03 -0.30907644828E+03 -0.47803280488E+03  0.59636775648E+03  0.00000000000E+00 0.  1.
          2    1    6    6  503    0 -0.13412694206E+03  0.11758197783E+03 -0.13036046533E+03  0.22092851563E+03  0.00000000000E+00 0. -1.
         -2    1    6    6    0  503 -0.13933458843E+03  0.11013547586E+03 -0.25671384764E+03  0.31216333889E+03  0.00000000000E+00 0.  1.
<mgrwt>
<rscale>  0 0.14229566E+04</rscale>
<asrwt>0</asrwt>
<pdfrwt beam="1">  1        1 0.23407649E+00 0.14229566E+04</pdfrwt>
<pdfrwt beam="2">  1       -2 0.51184542E-01 0.14229566E+04</pdfrwt>
<totfact> 0.19472763E+01</totfact>
</mgrwt>
</event>
<event>
12    4  0.4486176E-008  0.1956413E+04  0.7818608E-02  0.8627274E-01
          1   -1    0    0  501    0  0.00000000000E+00  0.00000000000E+00  0.77617683436E+03  0.77617683436E+03  0.00000000000E+00 0. -1.
         -2   -1    0    0    0  501 -0.00000000000E+00 -0.00000000000E+00 -0.12328222270E+04  0.12328222270E+04  0.00000000000E+00 0.  1.
        -24    2    1    2    0    0 -0.58998202923E+03  0.37777898573E+03 -0.51570704482E+03  0.87357519261E+03  0.79900589393E+02 0.  0.
        254    2    1    2    0    0  0.58998202923E+03 -0.37777898573E+03  0.59061652219E+02  0.11354238687E+04  0.89157351128E+03 0.  0.
         23    2    4    4    0    0  0.13359914473E+03 -0.59384774882E+03 -0.21765496718E+02  0.61596338845E+03  0.91832885244E+02 0.  0.
         23    2    4    4    0    0  0.45638288451E+03  0.21606876309E+03  0.80827148937E+02  0.51946048027E+03  0.91296850451E+02 0.  0.
          1    1    3    3  502    0 -0.40482832173E+03  0.29054511159E+03 -0.33401942719E+03  0.59989283183E+03  0.00000000000E+00 0. -1.
         -2    1    3    3    0  502 -0.18515370750E+03  0.87233874140E+02 -0.18168761763E+03  0.27368236077E+03  0.00000000000E+00 0.  1.
         11    1    5    5    0    0  0.89702426511E+02 -0.36158127103E+03  0.30793286684E+02  0.37381247623E+03  0.00000000000E+00 0. -1.
        -11    1    5    5    0    0  0.43896718214E+02 -0.23226647779E+03 -0.52558783402E+02  0.24215091221E+03  0.00000000000E+00 0.  1.
          2    1    6    6  503    0  0.44823067332E+03  0.22327744276E+03  0.73000385386E+02  0.50605593487E+03  0.00000000000E+00 0. -1.
         -2    1    6    6    0  503  0.81522111880E+01 -0.72086796653E+01  0.78267635508E+01  0.13404545403E+02  0.00000000000E+00 0.  1.
<mgrwt>
<rscale>  0 0.19564131E+04</rscale>
<asrwt>0</asrwt>
<pdfrwt beam="1">  1        1 0.11941182E+00 0.19564131E+04</pdfrwt>
<pdfrwt beam="2">  1       -2 0.18966496E+00 0.19564131E+04</pdfrwt>
<totfact> 0.29476358E+00</totfact>
</mgrwt>
</event>
<event>
12    4  0.4486176E-008  0.1924451E+04  0.7818608E-02  0.8642780E-01
          1   -1    0    0  501    0  0.00000000000E+00  0.00000000000E+00  0.39873083650E+03  0.39873083650E+03  0.00000000000E+00 0. -1.
         -2   -1    0    0    0  501 -0.00000000000E+00 -0.00000000000E+00 -0.23220622558E+04  0.23220622558E+04  0.00000000000E+00 0.  1.
        -24    2    1    2    0    0 -0.17406201846E+03  0.28891830544E+03 -0.17549499153E+04  0.17889965047E+04  0.82993463773E+02 0.  0.
        254    2    1    2    0    0  0.17406201846E+03 -0.28891830544E+03 -0.16838150401E+03  0.93179658764E+03  0.85212744139E+03 0.  0.
         23    2    4    4    0    0 -0.17894553120E+03 -0.44239329934E+03  0.36160273404E+02  0.48740656834E+03  0.92326935680E+02 0.  0.
         23    2    4    4    0    0  0.35300754966E+03  0.15347499390E+03 -0.20454177742E+03  0.44439001930E+03  0.86465291735E+02 0.  0.
          1    1    3    3  502    0  0.68810855849E+01  0.53645944240E+00 -0.32937274475E+02  0.33652654834E+02  0.00000000000E+00 0. -1.
         -2    1    3    3    0  502 -0.18094310404E+03  0.28838184600E+03 -0.17220126409E+04  0.17553438499E+04  0.00000000000E+00 0.  1.
         11    1    5    5    0    0 -0.17275394109E+03 -0.44641821064E+03  0.35607993250E+02  0.48000111681E+03  0.00000000000E+00 0. -1.
        -11    1    5    5    0    0 -0.61915901136E+01  0.40249112981E+01  0.55228015343E+00  0.74054515366E+01  0.00000000000E+00 0.  1.
          4    1    6    6  503    0  0.29895364720E+03  0.13024604343E+03 -0.13404821547E+03  0.35257089936E+03  0.00000000000E+00 0. -1.
         -4    1    6    6    0  503  0.54053902455E+02  0.23228950475E+02 -0.70493561943E+02  0.91819119938E+02  0.00000000000E+00 0.  1.
<mgrwt>
<rscale>  0 0.19244509E+04</rscale>
<asrwt>0</asrwt>
<pdfrwt beam="1">  1        1 0.61343206E-01 0.19244509E+04</pdfrwt>
<pdfrwt beam="2">  1       -2 0.35724035E+00 0.19244509E+04</pdfrwt>
<totfact> 0.69111880E-01</totfact>
</mgrwt>
</event>
<event>
12    4  0.4486176E-008  0.3242730E+04  0.7818608E-02  0.8177623E-01
          1   -1    0    0  501    0  0.00000000000E+00  0.00000000000E+00  0.27870602044E+04  0.27870602044E+04  0.00000000000E+00 0. -1.
         -2   -1    0    0    0  501 -0.00000000000E+00 -0.00000000000E+00 -0.94322461680E+03  0.94322461680E+03  0.00000000000E+00 0.  1.
        -24    2    1    2    0    0 -0.70133267319E+03 -0.35252209730E+03  0.23160593355E+04  0.24467262162E+04  0.78733626030E+02 0.  0.
        254    2    1    2    0    0  0.70133267319E+03  0.35252209730E+03 -0.47222374787E+03  0.12835586050E+04  0.89910404122E+03 0.  0.
         23    2    4    4    0    0  0.63064771943E+02 -0.25077333005E+03 -0.25548259597E+03  0.37445044216E+03  0.89874068921E+02 0.  0.
         23    2    4    4    0    0  0.63826790124E+03  0.60329542735E+03 -0.21674115190E+03  0.90910816287E+03  0.90275347990E+02 0.  0.
          3    1    3    3  502    0 -0.24527233899E+03 -0.89773465663E+02  0.83721958781E+03  0.87701450024E+03  0.00000000000E+00 0. -1.
         -4    1    3    3    0  502 -0.45606033420E+03 -0.26274863164E+03  0.14788397477E+04  0.15697117160E+04  0.00000000000E+00 0.  1.
         11    1    5    5    0    0  0.44087829913E+02 -0.49064436262E+02 -0.33742663921E+02  0.74091990260E+02  0.00000000000E+00 0.  1.
        -11    1    5    5    0    0  0.18976942031E+02 -0.20170889379E+03 -0.22173993205E+03  0.30035845190E+03  0.00000000000E+00 0. -1.
          2    1    6    6  503    0  0.15770801141E+03  0.11123700167E+03 -0.21772824669E+02  0.19421519842E+03  0.00000000000E+00 0. -1.
         -2    1    6    6    0  503  0.48055988983E+03  0.49205842568E+03 -0.19496832724E+03  0.71489296445E+03  0.00000000000E+00 0.  1.
<mgrwt>
<rscale>  0 0.32427296E+04</rscale>
<asrwt>0</asrwt>
<pdfrwt beam="1">  1        1 0.42877849E+00 0.32427296E+04</pdfrwt>
<pdfrwt beam="2">  1       -2 0.14511148E+00 0.32427296E+04</pdfrwt>
<totfact> 0.20415235E-01</totfact>
</mgrwt>
</event>
<event>
12    4  0.4486176E-008  0.3131387E+04  0.7818608E-02  0.8207176E-01
         -2   -1    0    0    0  501 -0.00000000000E+00  0.00000000000E+00  0.93539926087E+03  0.93539926087E+03  0.00000000000E+00 0.  1.
          1   -1    0    0  501    0  0.00000000000E+00 -0.00000000000E+00 -0.26206954842E+04  0.26206954842E+04  0.00000000000E+00 0. -1.
        -24    2    1    2    0    0 -0.34896891634E+03  0.88128452561E+03 -0.19935767841E+04  0.22088455435E+04  0.78794170188E+02 0.  0.
        254    2    1    2    0    0  0.34896891634E+03 -0.88128452561E+03  0.30828056078E+03  0.13472492016E+04  0.90642252143E+03 0.  0.
         23    2    4    4    0    0  0.58307224720E+03 -0.48718925304E+03 -0.37123426477E+02  0.76594154872E+03  0.89228322456E+02 0.  0.
         23    2    4    4    0    0 -0.23410333087E+03 -0.39409527258E+03  0.34540398725E+03  0.58130765286E+03  0.92191211506E+02 0.  0.
          3    1    3    3  502    0 -0.29540184014E+03  0.74758751825E+03 -0.17517754116E+04  0.19273988786E+04  0.00000000000E+00 0. -1.
         -4    1    3    3    0  502 -0.53567076198E+02  0.13369700736E+03 -0.24180137256E+03  0.28144666493E+03  0.00000000000E+00 0.  1.
         11    1    5    5    0    0  0.25877149832E+03 -0.23762668047E+03 -0.58555548023E+02  0.35617113839E+03  0.00000000000E+00 0.  1.
        -11    1    5    5    0    0  0.32430074888E+03 -0.24956257257E+03  0.21432121546E+02  0.40977041033E+03  0.00000000000E+00 0. -1.
          1    1    6    6  503    0 -0.14949313269E+03 -0.27613148131E+03  0.18282368107E+03  0.36334734078E+03  0.00000000000E+00 0. -1.
         -1    1    6    6    0  503 -0.84610198178E+02 -0.11796379127E+03  0.16258030618E+03  0.21796031209E+03  0.00000000000E+00 0.  1.
<mgrwt>
<rscale>  0 0.31313873E+04</rscale>
<asrwt>0</asrwt>
<pdfrwt beam="1">  1        1 0.40318393E+00 0.31313873E+04</pdfrwt>
<pdfrwt beam="2">  1       -2 0.14390758E+00 0.31313873E+04</pdfrwt>
<totfact> 0.27611777E-01</totfact>
</mgrwt>
</event>
<event>
12    4  0.4486176E-008  0.1881044E+04  0.7818608E-02  0.8664350E-01
         -2   -1    0    0    0  501 -0.00000000000E+00  0.00000000000E+00  0.40160601998E+03  0.40160601998E+03  0.00000000000E+00 0.  1.
          1   -1    0    0  501    0  0.00000000000E+00 -0.00000000000E+00 -0.22026109092E+04  0.22026109092E+04  0.00000000000E+00 0. -1.
        -24    2    1    2    0    0 -0.65237058997E+03  0.31003083478E+03 -0.68543561386E+03  0.10001315017E+04  0.93458733126E+02 0.  0.
        254    2    1    2    0    0  0.65237058997E+03 -0.31003083478E+03 -0.11155692754E+04  0.16040854275E+04  0.89826986221E+03 0.  0.
         23    2    4    4    0    0  0.78337657416E+02  0.94378561360E+02  0.11032829297E+03  0.18826831065E+03  0.90711207409E+02 0.  0.
         23    2    4    4    0    0  0.57403293255E+03 -0.40440939614E+03 -0.12258975683E+04  0.14158171168E+04  0.93018777295E+02 0.  0.
          3    1    3    3  502    0 -0.27998537368E+03  0.16977527931E+03 -0.35446338627E+03  0.48255543428E+03  0.00000000000E+00 0. -1.
         -2    1    3    3    0  502 -0.37238521628E+03  0.14025555547E+03 -0.33097222759E+03  0.51757606743E+03  0.00000000000E+00 0.  1.
         11    1    5    5    0    0  0.39346827208E+02  0.29641705445E+02 -0.59176125704E+01  0.49616747692E+02  0.00000000000E+00 0.  1.
        -11    1    5    5    0    0  0.38990830209E+02  0.64736855915E+02  0.11624590554E+03  0.13865156295E+03  0.00000000000E+00 0. -1.
          3    1    6    6  503    0  0.46791787531E+03 -0.28627851940E+03 -0.98081184876E+03  0.11237857498E+04  0.00000000000E+00 0. -1.
         -3    1    6    6    0  503  0.10611505724E+03 -0.11813087674E+03 -0.24508571958E+03  0.29203136707E+03  0.00000000000E+00 0.  1.
<mgrwt>
<rscale>  0 0.18810442E+04</rscale>
<asrwt>0</asrwt>
<pdfrwt beam="1">  1        1 0.33886322E+00 0.18810442E+04</pdfrwt>
<pdfrwt beam="2">  1       -2 0.61785540E-01 0.18810442E+04</pdfrwt>
<totfact> 0.43465974E+00</totfact>
</mgrwt>
</event>
<event>
12    4  0.4486176E-008  0.1824898E+04  0.7818608E-02  0.8693170E-01
          1   -1    0    0  501    0  0.00000000000E+00  0.00000000000E+00  0.10274817617E+04  0.10274817617E+04  0.00000000000E+00 0. -1.
         -2   -1    0    0    0  501 -0.00000000000E+00 -0.00000000000E+00 -0.81029459204E+03  0.81029459204E+03  0.00000000000E+00 0.  1.
        -24    2    1    2    0    0  0.32600894745E+03  0.54110467077E+03 -0.19073780695E+03  0.66475703524E+03  0.80280174117E+02 0.  0.
        254    2    1    2    0    0 -0.32600894745E+03 -0.54110467077E+03  0.40792497663E+03  0.11730193185E+04  0.90027520043E+03 0.  0.
         23    2    4    4    0    0 -0.44860577609E+03 -0.28755723218E+03 -0.13371341762E+03  0.55667592412E+03  0.89847105281E+02 0.  0.
         23    2    4    4    0    0  0.12259682864E+03 -0.25354743859E+03  0.54163839425E+03  0.61634339439E+03  0.84798252820E+02 0.  0.
          3    1    3    3  502    0  0.91095544452E+01  0.44613149240E+00  0.15106975513E+01  0.92447402662E+01  0.00000000000E+00 0. -1.
         -4    1    3    3    0  502  0.31689939300E+03  0.54065853928E+03 -0.19224850450E+03  0.65551229498E+03  0.00000000000E+00 0.  1.
         11    1    5    5    0    0 -0.53612975185E+02 -0.30240510743E+02 -0.46781861621E+02  0.77313531642E+02  0.00000000000E+00 0. -1.
        -11    1    5    5    0    0 -0.39499280090E+03 -0.25731672144E+03 -0.86931555995E+02  0.47936239248E+03  0.00000000000E+00 0.  1.
          3    1    6    6  503    0  0.19814826152E+02 -0.13790659254E+03  0.26392674081E+03  0.29844292606E+03  0.00000000000E+00 0. -1.
         -3    1    6    6    0  503  0.10278200249E+03 -0.11564084605E+03  0.27771165343E+03  0.31790046833E+03  0.00000000000E+00 0.  1.
<mgrwt>
<rscale>  0 0.18248977E+04</rscale>
<asrwt>0</asrwt>
<pdfrwt beam="1">  1        1 0.15807412E+00 0.18248977E+04</pdfrwt>
<pdfrwt beam="2">  1       -2 0.12466071E+00 0.18248977E+04</pdfrwt>
<totfact> 0.57401338E+00</totfact>
</mgrwt>
</event>
<event>
12    4  0.4486176E-008  0.1353719E+04  0.7818608E-02  0.8988018E-01
          1   -1    0    0  501    0  0.00000000000E+00  0.00000000000E+00  0.19951483633E+04  0.19951483633E+04  0.00000000000E+00 0. -1.
         -2   -1    0    0    0  501 -0.00000000000E+00 -0.00000000000E+00 -0.22962637398E+03  0.22962637398E+03  0.00000000000E+00 0.  1.
        -24    2    1    2    0    0  0.28018590426E+03  0.55623917273E+02  0.12025989471E+03  0.32010045563E+03  0.80023111025E+02 0.  0.
        254    2    1    2    0    0 -0.28018590426E+03 -0.55623917273E+02  0.16452620946E+04  0.19046742816E+04  0.91613241296E+03 0.  0.
         23    2    4    4    0    0 -0.23794827275E+03  0.33244078102E+03  0.34210472505E+03  0.54130978439E+03  0.94044597859E+02 0.  0.
         23    2    4    4    0    0 -0.42237631516E+02 -0.38806469829E+03  0.13031573696E+04  0.13633644973E+04  0.90362574993E+02 0.  0.
          1    1    3    3  502    0  0.13493868423E+03  0.86707576544E+01  0.95299025895E+02  0.16542531511E+03  0.00000000000E+00 0. -1.
         -2    1    3    3    0  502  0.14524722003E+03  0.46953159619E+02  0.24960868816E+02  0.15467514053E+03  0.00000000000E+00 0.  1.
         11    1    5    5    0    0  0.65146004375E+01  0.26173401716E+02  0.29978742024E+02  0.40326318324E+02  0.00000000000E+00 0. -1.
        -11    1    5    5    0    0 -0.24446287319E+03  0.30626737930E+03  0.31212598303E+03  0.50098346606E+03  0.00000000000E+00 0.  1.
          1    1    6    6  503    0  0.51808723148E+01 -0.21764159603E+03  0.59925486740E+03  0.63757438928E+03  0.00000000000E+00 0. -1.
         -1    1    6    6    0  503 -0.47418503830E+02 -0.17042310226E+03  0.70390250216E+03  0.72579010797E+03  0.00000000000E+00 0.  1.
<mgrwt>
<rscale>  0 0.13537189E+04</rscale>
<asrwt>0</asrwt>
<pdfrwt beam="1">  1        1 0.30694589E+00 0.13537189E+04</pdfrwt>
<pdfrwt beam="2">  1       -2 0.35327136E-01 0.13537189E+04</pdfrwt>
<totfact> 0.19431542E+01</totfact>
</mgrwt>
</event>
<event>
12    4  0.4486176E-008  0.1674325E+04  0.7818608E-02  0.8776145E-01
         -2   -1    0    0    0  501 -0.00000000000E+00  0.00000000000E+00  0.23575869935E+03  0.23575869935E+03  0.00000000000E+00 0.  1.
          1   -1    0    0  501    0  0.00000000000E+00 -0.00000000000E+00 -0.29727040853E+04  0.29727040853E+04  0.00000000000E+00 0. -1.
        -24    2    1    2    0    0 -0.58952382784E+03  0.37589542738E+02 -0.93686049461E+03  0.11102615793E+04  0.77600713513E+02 0.  0.
        254    2    1    2    0    0  0.58952382784E+03 -0.37589542738E+02 -0.18000848914E+04  0.20982012054E+04  0.90177123758E+03 0.  0.
         23    2    4    4    0    0  0.20448931703E+03  0.34290640238E+03 -0.12674334140E+04  0.13319501827E+04  0.91121615152E+02 0.  0.
         23    2    4    4    0    0  0.38503451080E+03 -0.38049594512E+03 -0.53265147739E+03  0.76625102270E+03  0.10195241376E+03 0.  0.
          3    1    3    3  502    0 -0.15249463385E+03 -0.12305539654E+02 -0.19573513830E+03  0.24843164860E+03  0.00000000000E+00 0. -1.
         -4    1    3    3    0  502 -0.43702919399E+03  0.49895082392E+02 -0.74112535631E+03  0.86182993068E+03  0.00000000000E+00 0.  1.
         11    1    5    5    0    0  0.16494037608E+03  0.32079374708E+03 -0.11729885426E+04  0.12271984668E+04  0.00000000000E+00 0. -1.
        -11    1    5    5    0    0  0.39548940958E+02  0.22112655303E+02 -0.94444871338E+02  0.10475171587E+03  0.00000000000E+00 0.  1.
          3    1    6    6  503    0  0.25744467534E+03 -0.25138147672E+03 -0.41807188147E+03  0.55159269917E+03  0.00000000000E+00 0. -1.
         -3    1    6    6    0  503  0.12758983546E+03 -0.12911446839E+03 -0.11457959591E+03  0.21465832353E+03  0.00000000000E+00 0.  1.
<mgrwt>
<rscale>  0 0.16743248E+04</rscale>
<asrwt>0</asrwt>
<pdfrwt beam="1">  1        1 0.45733907E+00 0.16743248E+04</pdfrwt>
<pdfrwt beam="2">  1       -2 0.36270571E-01 0.16743248E+04</pdfrwt>
<totfact> 0.37645561E+00</totfact>
</mgrwt>
</event>
<event>
12    4  0.4486176E-008  0.1946088E+04  0.7818608E-02  0.8632250E-01
          1   -1    0    0  501    0  0.00000000000E+00  0.00000000000E+00  0.12480989956E+04  0.12480989956E+04  0.00000000000E+00 0. -1.
         -2   -1    0    0    0  501 -0.00000000000E+00 -0.00000000000E+00 -0.75860504558E+03  0.75860504558E+03  0.00000000000E+00 0.  1.
        -24    2    1    2    0    0  0.74076781516E+03  0.57082057791E+02  0.11206588172E+02  0.74738821962E+03  0.80425405860E+02 0.  0.
        254    2    1    2    0    0 -0.74076781516E+03 -0.57082057791E+02  0.47828736182E+03  0.12593158215E+04  0.89728603053E+03 0.  0.
         23    2    4    4    0    0 -0.68023824077E+03  0.14281339290E+03  0.66365921599E+03  0.96509759526E+03  0.88600699866E+02 0.  0.
         23    2    4    4    0    0 -0.60529574389E+02 -0.19989545069E+03 -0.18537185416E+03  0.29421822627E+03  0.92626236940E+02 0.  0.
          1    1    3    3  502    0  0.74126445182E+02  0.28280620229E+02 -0.88038038168E+01  0.79824998074E+02  0.00000000000E+00 0. -1.
         -2    1    3    3    0  502  0.66664136998E+03  0.28801437562E+02  0.20010391988E+02  0.66756322154E+03  0.00000000000E+00 0.  1.
         11    1    5    5    0    0 -0.38038304939E+03  0.67784830595E+02  0.42657230444E+03  0.57554320293E+03  0.00000000000E+00 0. -1.
        -11    1    5    5    0    0 -0.29985519137E+03  0.75028562306E+02  0.23708691155E+03  0.38955439233E+03  0.00000000000E+00 0.  1.
          4    1    6    6  503    0  0.51714125648E+01 -0.21771641770E+02  0.74812149247E+01  0.23594839902E+02  0.00000000000E+00 0.  1.
         -4    1    6    6    0  503 -0.65700986954E+02 -0.17812380892E+03 -0.19285306909E+03  0.27062338637E+03  0.00000000000E+00 0. -1.
<mgrwt>
<rscale>  0 0.19460876E+04</rscale>
<asrwt>0</asrwt>
<pdfrwt beam="1">  1        1 0.19201523E+00 0.19460876E+04</pdfrwt>
<pdfrwt beam="2">  1       -2 0.11670847E+00 0.19460876E+04</pdfrwt>
<totfact> 0.45840040E+00</totfact>
</mgrwt>
</event>
<event>
12    4  0.4486176E-008  0.1285852E+04  0.7818608E-02  0.9040861E-01
          1   -1    0    0  501    0  0.00000000000E+00  0.00000000000E+00  0.13289258258E+04  0.13289258258E+04  0.00000000000E+00 0. -1.
         -2   -1    0    0    0  501 -0.00000000000E+00 -0.00000000000E+00 -0.31104339417E+03  0.31104339417E+03  0.00000000000E+00 0.  1.
        -24    2    1    2    0    0  0.19974532159E+03 -0.11297048747E+02 -0.51100303202E+02  0.22091055595E+03  0.78513794558E+02 0.  0.
        254    2    1    2    0    0 -0.19974532159E+03  0.11297048747E+02  0.10689827349E+04  0.14190586640E+04  0.91157972102E+03 0.  0.
         23    2    4    4    0    0 -0.47763702750E+03 -0.37650030292E+01  0.10101472530E+04  0.11210746181E+04  0.90881907857E+02 0.  0.
         23    2    4    4    0    0  0.27789170591E+03  0.15062051776E+02  0.58835481822E+02  0.29798404598E+03  0.88781823135E+02 0.  0.
          3    1    3    3  502    0  0.22680692503E+01  0.87559267190E+01 -0.17353845337E+02  0.19569525769E+02  0.00000000000E+00 0. -1.
         -4    1    3    3    0  502  0.19747725234E+03 -0.20052975466E+02 -0.33746457866E+02  0.20134103018E+03  0.00000000000E+00 0.  1.
         11    1    5    5    0    0 -0.73415926798E+00  0.87234488980E+01  0.25119071549E+02  0.26600851603E+02  0.00000000000E+00 0.  1.
        -11    1    5    5    0    0 -0.47690286823E+03 -0.12488451927E+02  0.98502818148E+03  0.10944737665E+04  0.00000000000E+00 0. -1.
          3    1    6    6  503    0  0.25833441448E+03  0.20891421913E+02  0.77303529105E+02  0.27046063822E+03  0.00000000000E+00 0. -1.
         -3    1    6    6    0  503  0.19557291436E+02 -0.58293701365E+01 -0.18468047283E+02  0.27523407764E+02  0.00000000000E+00 0.  1.
<mgrwt>
<rscale>  0 0.12858516E+04</rscale>
<asrwt>0</asrwt>
<pdfrwt beam="1">  1        1 0.20445012E+00 0.12858516E+04</pdfrwt>
<pdfrwt beam="2">  1       -2 0.47852831E-01 0.12858516E+04</pdfrwt>
<totfact> 0.30790703E+01</totfact>
</mgrwt>
</event>
<event>
12    4  0.4486176E-008  0.1558679E+04  0.7818608E-02  0.8846343E-01
         -2   -1    0    0    0  501 -0.00000000000E+00  0.00000000000E+00  0.10046504346E+04  0.10046504346E+04  0.00000000000E+00 0.  1.
          1   -1    0    0  501    0  0.00000000000E+00 -0.00000000000E+00 -0.60455843328E+03  0.60455843328E+03  0.00000000000E+00 0. -1.
        -24    2    1    2    0    0  0.51491132508E+03  0.35767200057E+02  0.23023807297E+03  0.57003522603E+03  0.74280706690E+02 0.  0.
        254    2    1    2    0    0 -0.51491132508E+03 -0.35767200057E+02  0.16985392839E+03  0.10391736419E+04  0.88578695842E+03 0.  0.
         23    2    4    4    0    0  0.14102460237E+03  0.24992960222E+03  0.34658905516E+02  0.30541600938E+03  0.98615183985E+02 0.  0.
         23    2    4    4    0    0 -0.65593592744E+03 -0.28569680228E+03  0.13519502287E+03  0.73375763251E+03  0.90818309345E+02 0.  0.
          3    1    3    3  502    0  0.28105618345E+03  0.33226206019E+02  0.88318479200E+02  0.29647379782E+03  0.00000000000E+00 0. -1.
         -2    1    3    3    0  502  0.23385514162E+03  0.25409940380E+01  0.14191959377E+03  0.27356142822E+03  0.00000000000E+00 0.  1.
         11    1    5    5    0    0  0.39295207835E+02  0.99215716943E+02  0.59036022934E+02  0.12195541747E+03  0.00000000000E+00 0. -1.
        -11    1    5    5    0    0  0.10172939453E+03  0.15071388528E+03 -0.24377117418E+02  0.18346059190E+03  0.00000000000E+00 0.  1.
          1    1    6    6  503    0 -0.51601118531E+02 -0.98040180285E+00 -0.24951340761E+01  0.51670710421E+02  0.00000000000E+00 0. -1.
         -1    1    6    6    0  503 -0.60433480891E+03 -0.28471640047E+03  0.13769015695E+03  0.68208692209E+03  0.00000000000E+00 0.  1.
<mgrwt>
<rscale>  0 0.15586788E+04</rscale>
<asrwt>0</asrwt>
<pdfrwt beam="1">  1        1 0.93008990E-01 0.15586788E+04</pdfrwt>
<pdfrwt beam="2">  1       -2 0.15456161E+00 0.15586788E+04</pdfrwt>
<totfact> 0.78895531E+00</totfact>
</mgrwt>
</event>
<event>
12    4  0.4486176E-008  0.1878863E+04  0.7818608E-02  0.8665450E-01
          1   -1    0    0  501    0  0.00000000000E+00  0.00000000000E+00  0.54553675179E+03  0.54553675179E+03  0.00000000000E+00 0. -1.
         -2   -1    0    0    0  501 -0.00000000000E+00 -0.00000000000E+00 -0.16177313244E+04  0.16177313244E+04  0.00000000000E+00 0.  1.
        -24    2    1    2    0    0 -0.98763303300E+02 -0.59727667243E+03 -0.91117845574E+03  0.10960780382E+04  0.68170918156E+02 0.  0.
        254    2    1    2    0    0  0.98763303300E+02  0.59727667243E+03 -0.16101611684E+03  0.10671900380E+04  0.86398771620E+03 0.  0.
         23    2    4    4    0    0  0.40109950998E+03  0.58444843980E+03 -0.21829578082E+03  0.74716261224E+03  0.90211559825E+02 0.  0.
         23    2    4    4    0    0 -0.30233620668E+03  0.12828232635E+02  0.57279663987E+02  0.32002742572E+03  0.86976134025E+02 0.  0.
          1    1    3    3  502    0 -0.18645891216E+02 -0.27403824135E+02 -0.39419908771E+02  0.51503087713E+02  0.00000000000E+00 0. -1.
         -2    1    3    3    0  502 -0.80117412084E+02 -0.56987284830E+03 -0.87175854697E+03  0.10445749505E+04  0.00000000000E+00 0.  1.
         11    1    5    5    0    0  0.12529445884E+03  0.13714742075E+03 -0.25935620552E+02  0.18756538286E+03  0.00000000000E+00 0. -1.
        -11    1    5    5    0    0  0.27580505113E+03  0.44730101905E+03 -0.19236016027E+03  0.55959722938E+03  0.00000000000E+00 0.  1.
          1    1    6    6  503    0 -0.34939504731E+02  0.25528973912E+02  0.26063450422E+02  0.50515353584E+02  0.00000000000E+00 0. -1.
         -1    1    6    6    0  503 -0.26739670194E+03 -0.12700741277E+02  0.31216213565E+02  0.26951207214E+03  0.00000000000E+00 0.  1.
<mgrwt>
<rscale>  0 0.18788634E+04</rscale>
<asrwt>0</asrwt>
<pdfrwt beam="1">  1        1 0.83928732E-01 0.18788634E+04</pdfrwt>
<pdfrwt beam="2">  1       -2 0.24888174E+00 0.18788634E+04</pdfrwt>
<totfact> 0.21016674E+00</totfact>
</mgrwt>
</event>
<event>
12    4  0.4486176E-008  0.1032757E+04  0.7818608E-02  0.9273329E-01
         -4   -1    0    0    0  501 -0.00000000000E+00  0.00000000000E+00  0.24419120613E+03  0.24419120613E+03  0.00000000000E+00 0.  1.
          1   -1    0    0  501    0  0.00000000000E+00 -0.00000000000E+00 -0.10919596985E+04  0.10919596985E+04  0.00000000000E+00 0. -1.
        -24    2    1    2    0    0  0.53063121753E+02  0.52197690008E+00  0.14825777527E+02  0.97522667099E+02  0.80466760645E+02 0.  0.
        254    2    1    2    0    0 -0.53063121753E+02 -0.52197690008E+00 -0.86259426985E+03  0.12386282375E+04  0.88730776451E+03 0.  0.
         23    2    4    4    0    0 -0.36794319269E+03  0.10877092435E+03 -0.10707066426E+03  0.40835640343E+03  0.89875013452E+02 0.  0.
         23    2    4    4    0    0  0.31488007094E+03 -0.10929290125E+03 -0.75552360559E+03  0.83027183405E+03  0.86261245565E+02 0.  0.
          1    1    3    3  502    0 -0.59739658217E+01  0.16427058053E+02 -0.20475245997E+02  0.26921593611E+02  0.00000000000E+00 0. -1.
         -2    1    3    3    0  502  0.59037087575E+02 -0.15905081152E+02  0.35301023524E+02  0.70601073488E+02  0.00000000000E+00 0.  1.
         11    1    5    5    0    0 -0.24957023739E+03  0.41768702067E+02 -0.38246268327E+02  0.25591542530E+03  0.00000000000E+00 0. -1.
        -11    1    5    5    0    0 -0.11837295530E+03  0.67002222285E+02 -0.68824395938E+02  0.15244097813E+03  0.00000000000E+00 0.  1.
          4    1    6    6  503    0  0.30712990726E+03 -0.12107833812E+03 -0.72726938050E+03  0.79869236613E+03  0.00000000000E+00 0. -1.
         -4    1    6    6    0  503  0.77501636726E+01  0.11785436871E+02 -0.28254225083E+02  0.31579467921E+02  0.00000000000E+00 0.  1.
<mgrwt>
<rscale>  0 0.10327574E+04</rscale>
<asrwt>0</asrwt>
<pdfrwt beam="1">  1        1 0.16799380E+00 0.10327574E+04</pdfrwt>
<pdfrwt beam="2">  1       -4 0.37567878E-01 0.10327574E+04</pdfrwt>
<totfact> 0.43541998E+01</totfact>
</mgrwt>
</event>
<event>
12    4  0.4486176E-008  0.2165654E+04  0.7818608E-02  0.8532861E-01
          1   -1    0    0  501    0  0.00000000000E+00  0.00000000000E+00  0.24996277997E+03  0.24996277997E+03  0.00000000000E+00 0. -1.
         -2   -1    0    0    0  501 -0.00000000000E+00 -0.00000000000E+00 -0.46907566999E+04  0.46907566999E+04  0.00000000000E+00 0.  1.
        -24    2    1    2    0    0 -0.81704101965E+03  0.10222776843E+03 -0.10472734470E+04  0.13345522695E+04  0.79003436126E+02 0.  0.
        254    2    1    2    0    0  0.81704101965E+03 -0.10222776843E+03 -0.33935204730E+04  0.36061672104E+04  0.90025230033E+03 0.  0.
         23    2    4    4    0    0 -0.44658179365E+02  0.26015283733E+03 -0.85574440051E+03  0.90018481692E+03  0.91435080001E+02 0.  0.
         23    2    4    4    0    0  0.86169919902E+03 -0.36238060576E+03 -0.25377760725E+04  0.27059823934E+04  0.90488157721E+02 0.  0.
          3    1    3    3  502    0 -0.81643859610E+03  0.99833325779E+02 -0.10349858222E+04  0.13220190340E+04  0.00000000000E+00 0. -1.
         -4    1    3    3    0  502 -0.60242354809E+00  0.23944426547E+01 -0.12287624763E+02  0.12533235499E+02  0.00000000000E+00 0.  1.
         11    1    5    5    0    0 -0.16043680773E+02  0.35845357835E+02 -0.26036654418E+03  0.26331165318E+03  0.00000000000E+00 0. -1.
        -11    1    5    5    0    0 -0.28614498592E+02  0.22430747950E+03 -0.59537785633E+03  0.63687316374E+03  0.00000000000E+00 0.  1.
          3    1    6    6  503    0  0.28114102451E+03 -0.15826189102E+03 -0.81035363860E+03  0.87221563928E+03  0.00000000000E+00 0. -1.
         -3    1    6    6    0  503  0.58055817451E+03 -0.20411871474E+03 -0.17274224338E+04  0.18337667542E+04  0.00000000000E+00 0.  1.
<mgrwt>
<rscale>  0 0.21656543E+04</rscale>
<asrwt>0</asrwt>
<pdfrwt beam="1">  1        1 0.38455813E-01 0.21656543E+04</pdfrwt>
<pdfrwt beam="2">  1       -2 0.72165487E+00 0.21656543E+04</pdfrwt>
<totfact> 0.16731983E-02</totfact>
</mgrwt>
</event>
<event>
12    4  0.4486176E-008  0.2419802E+04  0.7818608E-02  0.8432127E-01
          1   -1    0    0  501    0  0.00000000000E+00  0.00000000000E+00  0.15725158451E+04  0.15725158451E+04  0.00000000000E+00 0. -1.
         -2   -1    0    0    0  501 -0.00000000000E+00 -0.00000000000E+00 -0.93090349104E+03  0.93090349104E+03  0.00000000000E+00 0.  1.
        -24    2    1    2    0    0  0.83071272202E+03  0.44015523590E+03  0.73263875231E+03  0.11945399430E+04  0.79661006364E+02 0.  0.
        254    2    1    2    0    0 -0.83071272202E+03 -0.44015523590E+03 -0.91026398252E+02  0.13088793931E+04  0.90612317167E+03 0.  0.
         23    2    4    4    0    0 -0.34086091799E+03 -0.76915306309E+02 -0.46398572623E+03  0.58821478223E+03  0.92799494222E+02 0.  0.
         23    2    4    4    0    0 -0.48985180403E+03 -0.36323992959E+03  0.37295932798E+03  0.72066461085E+03  0.91437326306E+02 0.  0.
          3    1    3    3  502    0  0.47642919666E+03  0.26587158202E+03  0.47212232030E+03  0.72150673100E+03  0.00000000000E+00 0. -1.
         -4    1    3    3    0  502  0.35428352536E+03  0.17428365388E+03  0.26051643201E+03  0.47303321204E+03  0.00000000000E+00 0.  1.
         11    1    5    5    0    0 -0.17963732794E+03 -0.73303210792E+02 -0.19836944557E+03  0.27747678684E+03  0.00000000000E+00 0. -1.
        -11    1    5    5    0    0 -0.16122359005E+03 -0.36120955164E+01 -0.26561628067E+03  0.31073799539E+03  0.00000000000E+00 0.  1.
          1    1    6    6  503    0 -0.24953007738E+03 -0.17563895342E+03  0.23925817800E+03  0.38776123738E+03  0.00000000000E+00 0. -1.
         -1    1    6    6    0  503 -0.24032172665E+03 -0.18760097617E+03  0.13370114998E+03  0.33290337347E+03  0.00000000000E+00 0.  1.
<mgrwt>
<rscale>  0 0.24198020E+04</rscale>
<asrwt>0</asrwt>
<pdfrwt beam="1">  1        1 0.24192552E+00 0.24198020E+04</pdfrwt>
<pdfrwt beam="2">  1       -2 0.14321592E+00 0.24198020E+04</pdfrwt>
<totfact> 0.15499406E+00</totfact>
</mgrwt>
</event>
<event>
12    4  0.4486176E-008  0.1428129E+04  0.7818608E-02  0.8933705E-01
          1   -1    0    0  501    0  0.00000000000E+00  0.00000000000E+00  0.14298511283E+04  0.14298511283E+04  0.00000000000E+00 0. -1.
         -2   -1    0    0    0  501 -0.00000000000E+00 -0.00000000000E+00 -0.35660242481E+03  0.35660242481E+03  0.00000000000E+00 0.  1.
        -24    2    1    2    0    0  0.17282711293E+03 -0.17476828424E+03 -0.97105936769E+02  0.27580502491E+03  0.78903007982E+02 0.  0.
        254    2    1    2    0    0 -0.17282711293E+03  0.17476828424E+03  0.11703546402E+04  0.15106485282E+04  0.92299286435E+03 0.  0.
         23    2    4    4    0    0 -0.36505096936E+03  0.27471904409E+03  0.11873529901E+04  0.12760684689E+04  0.99049739078E+02 0.  0.
         23    2    4    4    0    0  0.19222385644E+03 -0.99950759851E+02 -0.16998349909E+02  0.23458005924E+03  0.88310219755E+02 0.  0.
          3    1    3    3  502    0  0.15243772857E+02  0.76331286300E+01 -0.50588573690E+01  0.17782837273E+02  0.00000000000E+00 0. -1.
         -4    1    3    3    0  502  0.15758334007E+03 -0.18240141287E+03 -0.92047079400E+02  0.25802218763E+03  0.00000000000E+00 0.  1.
         11    1    5    5    0    0 -0.70523352926E+02  0.99468409609E+02  0.37678038728E+03  0.39601889861E+03  0.00000000000E+00 0. -1.
        -11    1    5    5    0    0 -0.29452761644E+03  0.17525063448E+03  0.81057260286E+03  0.88004957033E+03  0.00000000000E+00 0.  1.
          3    1    6    6  503    0  0.18210922378E+03 -0.11172423071E+03 -0.28110520319E+02  0.21549077583E+03  0.00000000000E+00 0. -1.
         -3    1    6    6    0  503  0.10114632661E+02  0.11773470860E+02  0.11112170411E+02  0.19089283412E+02  0.00000000000E+00 0.  1.
<mgrwt>
<rscale>  0 0.14281294E+04</rscale>
<asrwt>0</asrwt>
<pdfrwt beam="1">  1        1 0.21997709E+00 0.14281294E+04</pdfrwt>
<pdfrwt beam="2">  1       -2 0.54861913E-01 0.14281294E+04</pdfrwt>
<totfact> 0.19530316E+01</totfact>
</mgrwt>
</event>
<event>
12    4  0.4486176E-008  0.2161282E+04  0.7818608E-02  0.8534718E-01
          1   -1    0    0  501    0  0.00000000000E+00  0.00000000000E+00  0.77326019209E+03  0.77326019209E+03  0.00000000000E+00 0. -1.
         -2   -1    0    0    0  501 -0.00000000000E+00 -0.00000000000E+00 -0.15102102644E+04  0.15102102644E+04  0.00000000000E+00 0.  1.
        -24    2    1    2    0    0 -0.16319801456E+03  0.47026751365E+02 -0.12165009758E+04  0.12309900038E+04  0.81342841735E+02 0.  0.
        254    2    1    2    0    0  0.16319801456E+03 -0.47026751365E+02  0.47955090357E+03  0.10524804527E+04  0.92135819682E+03 0.  0.
         23    2    4    4    0    0 -0.37044311256E+03 -0.30634864710E+02  0.27436705976E+03  0.47345877974E+03  0.10353423610E+03 0.  0.
         23    2    4    4    0    0  0.53364112713E+03 -0.16391886655E+02  0.20518384380E+03  0.57902167294E+03  0.90134019469E+02 0.  0.
          1    1    3    3  502    0 -0.76953173516E+01 -0.14004850116E+02 -0.22040284529E+03  0.22098137466E+03  0.00000000000E+00 0. -1.
         -2    1    3    3    0  502 -0.15550269721E+03  0.61031601481E+02 -0.99609813055E+03  0.10100086291E+04  0.00000000000E+00 0.  1.
         11    1    5    5    0    0 -0.30536909564E+03 -0.59374130809E+02  0.19631319416E+03  0.36785111415E+03  0.00000000000E+00 0.  1.
        -11    1    5    5    0    0 -0.65074016921E+02  0.28739266099E+02  0.78053865607E+02  0.10560766559E+03  0.00000000000E+00 0. -1.
          1    1    6    6  503    0  0.18851546692E+03 -0.30614176803E+02  0.35814949572E+02  0.19431422928E+03  0.00000000000E+00 0. -1.
         -1    1    6    6    0  503  0.34512566021E+03  0.14222290148E+02  0.16936889423E+03  0.38470744366E+03  0.00000000000E+00 0.  1.
<mgrwt>
<rscale>  0 0.21612825E+04</rscale>
<asrwt>0</asrwt>
<pdfrwt beam="1">  1        1 0.11896311E+00 0.21612825E+04</pdfrwt>
<pdfrwt beam="2">  1       -2 0.23234004E+00 0.21612825E+04</pdfrwt>
<totfact> 0.15464228E+00</totfact>
</mgrwt>
</event>
<event>
12    4  0.4486176E-008  0.1667241E+04  0.7818608E-02  0.8780272E-01
          1   -1    0    0  501    0  0.00000000000E+00  0.00000000000E+00  0.17493064206E+04  0.17493064206E+04  0.00000000000E+00 0. -1.
         -2   -1    0    0    0  501 -0.00000000000E+00 -0.00000000000E+00 -0.39725639867E+03  0.39725639867E+03  0.00000000000E+00 0.  1.
        -24    2    1    2    0    0  0.47322044618E+03 -0.34137243544E+03  0.38843423816E+03  0.70543092057E+03  0.79239484865E+02 0.  0.
        254    2    1    2    0    0 -0.47322044618E+03  0.34137243544E+03  0.96361578381E+03  0.14411318987E+04  0.89879532730E+03 0.  0.
         23    2    4    4    0    0 -0.29944755542E+03  0.53808749396E+03  0.24181565306E+03  0.66781524927E+03  0.91079127618E+02 0.  0.
         23    2    4    4    0    0 -0.17377289076E+03 -0.19671505852E+03  0.72180013075E+03  0.77331664946E+03  0.90163073251E+02 0.  0.
          3    1    3    3  502    0  0.43077193500E+03 -0.27898394578E+03  0.33281306615E+03  0.61168704334E+03  0.00000000000E+00 0. -1.
         -4    1    3    3    0  502  0.42448511184E+02 -0.62388489655E+02  0.55621172004E+02  0.93743877231E+02  0.00000000000E+00 0.  1.
         11    1    5    5    0    0 -0.15042427104E+03  0.18767371759E+03  0.73582513509E+02  0.25152191134E+03  0.00000000000E+00 0.  1.
        -11    1    5    5    0    0 -0.14902328438E+03  0.35041377637E+03  0.16823313955E+03  0.41629333793E+03  0.00000000000E+00 0. -1.
          2    1    6    6  503    0 -0.74425311384E+02 -0.14835618002E+03  0.39969134137E+03  0.43278383922E+03  0.00000000000E+00 0. -1.
         -2    1    6    6    0  503 -0.99347579374E+02 -0.48358878503E+02  0.32210878938E+03  0.34053281024E+03  0.00000000000E+00 0.  1.
<mgrwt>
<rscale>  0 0.16672410E+04</rscale>
<asrwt>0</asrwt>
<pdfrwt beam="1">  1        1 0.26912406E+00 0.16672410E+04</pdfrwt>
<pdfrwt beam="2">  1       -2 0.61116370E-01 0.16672410E+04</pdfrwt>
<totfact> 0.92020790E+00</totfact>
</mgrwt>
</event>
<event>
12    4  0.4486176E-008  0.1987056E+04  0.7818608E-02  0.8612696E-01
          1   -1    0    0  501    0  0.00000000000E+00  0.00000000000E+00  0.12113530011E+04  0.12113530011E+04  0.00000000000E+00 0. -1.
         -2   -1    0    0    0  501 -0.00000000000E+00 -0.00000000000E+00 -0.81487237748E+03  0.81487237748E+03  0.00000000000E+00 0.  1.
        -24    2    1    2    0    0  0.63894852649E+03  0.62120841543E+02  0.62290299305E+03  0.89777662504E+03  0.76684491630E+02 0.  0.
        254    2    1    2    0    0 -0.63894852649E+03 -0.62120841543E+02 -0.22642236939E+03  0.11284487536E+04  0.90000848977E+03 0.  0.
         23    2    4    4    0    0 -0.36497656902E+03  0.40035911165E+03 -0.33136407208E+02  0.55068745260E+03  0.93077036662E+02 0.  0.
         23    2    4    4    0    0 -0.27397195747E+03 -0.46247995320E+03 -0.19328596218E+03  0.57776130099E+03  0.86604371444E+02 0.  0.
          3    1    3    3  502    0  0.50589842640E+03  0.41976367923E+02  0.53228890285E+03  0.73554517835E+03  0.00000000000E+00 0. -1.
         -4    1    3    3    0  502  0.13305010009E+03  0.20144473621E+02  0.90614090199E+02  0.16223144669E+03  0.00000000000E+00 0.  1.
         11    1    5    5    0    0 -0.30030944707E+03  0.33375810439E+03  0.82414896954E+01  0.44905251185E+03  0.00000000000E+00 0.  1.
        -11    1    5    5    0    0 -0.64667121950E+02  0.66601007260E+02 -0.41377896903E+02  0.10163494075E+03  0.00000000000E+00 0. -1.
          1    1    6    6  503    0  0.48842827462E+01 -0.25842018468E+02 -0.71736350878E+01  0.27260359073E+02  0.00000000000E+00 0. -1.
         -1    1    6    6    0  503 -0.27885624022E+03 -0.43663793473E+03 -0.18611232710E+03  0.55050094191E+03  0.00000000000E+00 0.  1.
<mgrwt>
<rscale>  0 0.19870562E+04</rscale>
<asrwt>0</asrwt>
<pdfrwt beam="1">  1        1 0.18636200E+00 0.19870562E+04</pdfrwt>
<pdfrwt beam="2">  1       -2 0.12536498E+00 0.19870562E+04</pdfrwt>
<totfact> 0.40650700E+00</totfact>
</mgrwt>
</event>
<event>
12    4  0.4486176E-008  0.1584784E+04  0.7818608E-02  0.8829950E-01
         -2   -1    0    0    0  501 -0.00000000000E+00  0.00000000000E+00  0.61029198386E+03  0.61029198386E+03  0.00000000000E+00 0.  1.
          1   -1    0    0  501    0  0.00000000000E+00 -0.00000000000E+00 -0.10288278686E+04  0.10288278686E+04  0.00000000000E+00 0. -1.
        -24    2    1    2    0    0 -0.20516393678E+03  0.44247952228E+03  0.19413155261E+03  0.53122140545E+03  0.81417156055E+02 0.  0.
        254    2    1    2    0    0  0.20516393678E+03 -0.44247952228E+03 -0.61266743733E+03  0.11078984470E+04  0.78370735067E+03 0.  0.
         23    2    4    4    0    0 -0.80330686224E+02 -0.11190559957E+03  0.15104055183E+03  0.22355193159E+03  0.90478370108E+02 0.  0.
         23    2    4    4    0    0  0.28549462300E+03 -0.33057392271E+03 -0.76370798916E+03  0.88434651540E+03  0.89624597382E+02 0.  0.
          3    1    3    3  502    0 -0.15382996949E+03  0.27997949762E+03  0.91558829082E+02  0.33231791674E+03  0.00000000000E+00 0. -1.
         -4    1    3    3    0  502 -0.51333967294E+02  0.16250002466E+03  0.10257272352E+03  0.19890348871E+03  0.00000000000E+00 0.  1.
         11    1    5    5    0    0  0.11614524257E+02 -0.46970848615E+01  0.45623725183E+02  0.47312620721E+02  0.00000000000E+00 0. -1.
        -11    1    5    5    0    0 -0.91945210481E+02 -0.10720851470E+03  0.10541682665E+03  0.17623931087E+03  0.00000000000E+00 0.  1.
          2    1    6    6  503    0  0.10061236589E+03 -0.18490124783E+03 -0.35727314723E+03  0.41467507925E+03  0.00000000000E+00 0. -1.
         -2    1    6    6    0  503  0.18488225711E+03 -0.14567267488E+03 -0.40643484193E+03  0.46967143616E+03  0.00000000000E+00 0.  1.
<mgrwt>
<rscale>  0 0.15847844E+04</rscale>
<asrwt>0</asrwt>
<pdfrwt beam="1">  1        1 0.15828121E+00 0.15847844E+04</pdfrwt>
<pdfrwt beam="2">  1       -2 0.93891075E-01 0.15847844E+04</pdfrwt>
<totfact> 0.11594047E+01</totfact>
</mgrwt>
</event>
<event>
12    4  0.4486176E-008  0.1146185E+04  0.7818608E-02  0.9161311E-01
         -2   -1    0    0    0  501 -0.00000000000E+00  0.00000000000E+00  0.43713460637E+03  0.43713460637E+03  0.00000000000E+00 0.  1.
          1   -1    0    0  501    0  0.00000000000E+00 -0.00000000000E+00 -0.75133555378E+03  0.75133555378E+03  0.00000000000E+00 0. -1.
        -24    2    1    2    0    0 -0.20711218986E+03  0.93921440422E+01 -0.12294402205E+03  0.25358842221E+03  0.78792028541E+02 0.  0.
        254    2    1    2    0    0  0.20711218986E+03 -0.93921440422E+01 -0.19125692536E+03  0.93488173794E+03  0.89131418752E+03 0.  0.
         23    2    4    4    0    0  0.24592334192E+03 -0.41689819987E+03 -0.14316143265E+03  0.51299008753E+03  0.91549084872E+02 0.  0.
         23    2    4    4    0    0 -0.38811152063E+02  0.40750605583E+03 -0.48095492704E+02  0.42189165041E+03  0.90066071316E+02 0.  0.
          3    1    3    3  502    0 -0.67700080473E+02  0.22077762910E+02 -0.80132032567E+02  0.10720014531E+03  0.00000000000E+00 0. -1.
         -4    1    3    3    0  502 -0.13941210939E+03 -0.12685618868E+02 -0.42811989486E+02  0.14638827690E+03  0.00000000000E+00 0.  1.
         11    1    5    5    0    0  0.13805864312E+02 -0.44177407596E+02  0.11090506874E+02  0.47594585554E+02  0.00000000000E+00 0. -1.
        -11    1    5    5    0    0  0.23211747761E+03 -0.37272079228E+03 -0.15425193953E+03  0.46539550197E+03  0.00000000000E+00 0.  1.
          1    1    6    6  503    0 -0.24170431022E+02  0.17534520918E+03 -0.65228277534E+02  0.18863955128E+03  0.00000000000E+00 0. -1.
         -1    1    6    6    0  503 -0.14640721041E+02  0.23216084665E+03  0.17132784829E+02  0.23325209913E+03  0.00000000000E+00 0.  1.
<mgrwt>
<rscale>  0 0.11461846E+04</rscale>
<asrwt>0</asrwt>
<pdfrwt beam="1">  1        1 0.11559008E+00 0.11461846E+04</pdfrwt>
<pdfrwt beam="2">  1       -2 0.67251479E-01 0.11461846E+04</pdfrwt>
<totfact> 0.43122690E+01</totfact>
</mgrwt>
</event>
<event>
12    4  0.4486176E-008  0.1828936E+04  0.7818608E-02  0.8691061E-01
          1   -1    0    0  501    0  0.00000000000E+00  0.00000000000E+00  0.21273088937E+04  0.21273088937E+04  0.00000000000E+00 0. -1.
         -2   -1    0    0    0  501 -0.00000000000E+00 -0.00000000000E+00 -0.39310305865E+03  0.39310305865E+03  0.00000000000E+00 0.  1.
        -24    2    1    2    0    0 -0.29648266790E+03  0.23740703341E+03  0.14520059532E+04  0.15031078809E+04  0.82145854971E+02 0.  0.
        254    2    1    2    0    0  0.29648266790E+03 -0.23740703341E+03  0.28219988177E+03  0.10173040714E+04  0.90055911998E+03 0.  0.
         23    2    4    4    0    0  0.74844098598E+02  0.33347497950E+03  0.15309003014E+03  0.38442411298E+03  0.86822464066E+02 0.  0.
         23    2    4    4    0    0  0.22163856930E+03 -0.57088201291E+03  0.12910985163E+03  0.63287995844E+03  0.94009360911E+02 0.  0.
          1    1    3    3  502    0 -0.24183893941E+03  0.15055223468E+03  0.11158028700E+04  0.11515937186E+04  0.00000000000E+00 0. -1.
         -2    1    3    3    0  502 -0.54643728487E+02  0.86854798728E+02  0.33620308324E+03  0.35151416232E+03  0.00000000000E+00 0.  1.
         11    1    5    5    0    0  0.89815476432E+02  0.29872133427E+03  0.15091431172E+03  0.34652039599E+03  0.00000000000E+00 0. -1.
        -11    1    5    5    0    0 -0.14971377833E+02  0.34753645235E+02  0.21757184117E+01  0.37903716994E+02  0.00000000000E+00 0.  1.
          3    1    6    6  503    0  0.23638946706E+01 -0.60215600974E+02 -0.70987114185E+01  0.60678647830E+02  0.00000000000E+00 0. -1.
         -3    1    6    6    0  503  0.21927467463E+03 -0.51066641194E+03  0.13620856305E+03  0.57220131061E+03  0.00000000000E+00 0.  1.
<mgrwt>
<rscale>  0 0.18289359E+04</rscale>
<asrwt>0</asrwt>
<pdfrwt beam="1">  1        1 0.32727829E+00 0.18289359E+04</pdfrwt>
<pdfrwt beam="2">  1       -2 0.60477395E-01 0.18289359E+04</pdfrwt>
<totfact> 0.51414723E+00</totfact>
</mgrwt>
</event>
<event>
12    4  0.4486176E-008  0.1303181E+04  0.7818608E-02  0.9027046E-01
         -2   -1    0    0    0  501 -0.00000000000E+00  0.00000000000E+00  0.63627202937E+03  0.63627202937E+03  0.00000000000E+00 0.  1.
          1   -1    0    0  501    0  0.00000000000E+00 -0.00000000000E+00 -0.66727765054E+03  0.66727765054E+03  0.00000000000E+00 0. -1.
        -24    2    1    2    0    0 -0.21147881127E+03  0.24336842934E+03  0.67498106230E+02  0.33873216874E+03  0.78943066707E+02 0.  0.
        254    2    1    2    0    0  0.21147881127E+03 -0.24336842934E+03 -0.98503727394E+02  0.96481751117E+03  0.90400130837E+03 0.  0.
         23    2    4    4    0    0 -0.40829989432E+02 -0.33510780142E+03 -0.41287638107E+03  0.54105394929E+03  0.91149017468E+02 0.  0.
         23    2    4    4    0    0  0.25230880070E+03  0.91739372081E+02  0.31437265368E+03  0.42376356188E+03  0.93110405935E+02 0.  0.
          1    1    3    3  502    0 -0.10156178099E+03  0.12043859536E+03  0.73220910318E+02  0.17372838662E+03  0.00000000000E+00 0. -1.
         -2    1    3    3    0  502 -0.10991703028E+03  0.12292983398E+03 -0.57228040887E+01  0.16500378212E+03  0.00000000000E+00 0.  1.
         11    1    5    5    0    0  0.15049215895E+02 -0.63253044076E+02 -0.40401227701E+02  0.76548583812E+02  0.00000000000E+00 0. -1.
        -11    1    5    5    0    0 -0.55879205327E+02 -0.27185475734E+03 -0.37247515337E+03  0.46450536548E+03  0.00000000000E+00 0.  1.
          2    1    6    6  503    0  0.13907598193E+03  0.10261718335E+02  0.19752273469E+03  0.24179053401E+03  0.00000000000E+00 0. -1.
         -2    1    6    6    0  503  0.11323281877E+03  0.81477653746E+02  0.11684991899E+03  0.18197302787E+03  0.00000000000E+00 0.  1.
<mgrwt>
<rscale>  0 0.13031809E+04</rscale>
<asrwt>0</asrwt>
<pdfrwt beam="1">  1        1 0.10265810E+00 0.13031809E+04</pdfrwt>
<pdfrwt beam="2">  1       -2 0.97888005E-01 0.13031809E+04</pdfrwt>
<totfact> 0.21883266E+01</totfact>
</mgrwt>
</event>
<event>
12    4  0.4486176E-008  0.1275240E+04  0.7818608E-02  0.9049434E-01
         -2   -1    0    0    0  501 -0.00000000000E+00  0.00000000000E+00  0.37659249142E+03  0.37659249142E+03  0.00000000000E+00 0.  1.
          1   -1    0    0  501    0  0.00000000000E+00 -0.00000000000E+00 -0.10795726480E+04  0.10795726480E+04  0.00000000000E+00 0. -1.
        -24    2    1    2    0    0 -0.12314259790E+02  0.29154902862E+03 -0.25269405292E+03  0.39544639087E+03  0.85855032384E+02 0.  0.
        254    2    1    2    0    0  0.12314259790E+02 -0.29154902862E+03 -0.45028610362E+03  0.10607187485E+04  0.91499410450E+03 0.  0.
         23    2    4    4    0    0 -0.33784910562E+03 -0.35015488352E+03 -0.48363740486E+03  0.69203656825E+03  0.90879105418E+02 0.  0.
         23    2    4    4    0    0  0.35016336541E+03  0.58605854901E+02  0.33351301232E+02  0.36868218027E+03  0.93622711191E+02 0.  0.
          1    1    3    3  502    0  0.18430911362E+02  0.25645814416E+03 -0.22099741650E+03  0.33904326612E+03  0.00000000000E+00 0. -1.
         -2    1    3    3    0  502 -0.30745171151E+02  0.35090884460E+02 -0.31696636422E+02  0.56403124752E+02  0.00000000000E+00 0.  1.
         11    1    5    5    0    0 -0.64430784408E+02 -0.12097993493E+03 -0.11356633591E+03  0.17800220023E+03  0.00000000000E+00 0.  1.
        -11    1    5    5    0    0 -0.27341832121E+03 -0.22917494858E+03 -0.37007106894E+03  0.51403436802E+03  0.00000000000E+00 0. -1.
          1    1    6    6  503    0  0.35483962484E+03  0.52696528690E+02  0.36357513722E+02  0.36056892864E+03  0.00000000000E+00 0. -1.
         -1    1    6    6    0  503 -0.46762594315E+01  0.59093262109E+01 -0.30062124905E+01  0.81132516339E+01  0.00000000000E+00 0.  1.
<mgrwt>
<rscale>  0 0.12752395E+04</rscale>
<asrwt>0</asrwt>
<pdfrwt beam="1">  1        1 0.16608810E+00 0.12752395E+04</pdfrwt>
<pdfrwt beam="2">  1       -2 0.57937308E-01 0.12752395E+04</pdfrwt>
<totfact> 0.31617868E+01</totfact>
</mgrwt>
</event>
<event>
12    4  0.4486176E-008  0.1754843E+04  0.7818608E-02  0.8730689E-01
          1   -1    0    0  501    0  0.00000000000E+00  0.00000000000E+00  0.24145061590E+04  0.24145061590E+04  0.00000000000E+00 0. -1.
         -2   -1    0    0    0  501 -0.00000000000E+00 -0.00000000000E+00 -0.31885149250E+03  0.31885149250E+03  0.00000000000E+00 0.  1.
        -24    2    1    2    0    0 -0.20274566946E+03  0.27514592118E+03  0.16237297415E+04  0.16613370503E+04  0.82045333562E+02 0.  0.
        254    2    1    2    0    0  0.20274566946E+03 -0.27514592118E+03  0.47192492500E+03  0.10720206012E+04  0.89983551285E+03 0.  0.
         23    2    4    4    0    0 -0.33449059546E+03 -0.20393581369E+03  0.12056439212E+03  0.41981501976E+03  0.90747471672E+02 0.  0.
         23    2    4    4    0    0  0.53723626492E+03 -0.71210107494E+02  0.35136053288E+03  0.65220558146E+03  0.90687444935E+02 0.  0.
          3    1    3    3  502    0 -0.17633913943E+03  0.21936064328E+03  0.14475884980E+04  0.14746955765E+04  0.00000000000E+00 0. -1.
         -4    1    3    3    0  502 -0.26406530030E+02  0.55785277901E+02  0.17614124358E+03  0.18664147381E+03  0.00000000000E+00 0.  1.
         11    1    5    5    0    0 -0.10777799921E+03 -0.27131490615E+02  0.58859304714E+02  0.12576419462E+03  0.00000000000E+00 0.  1.
        -11    1    5    5    0    0 -0.22671259625E+03 -0.17680432307E+03  0.61705087409E+02  0.29405082514E+03  0.00000000000E+00 0. -1.
          3    1    6    6  503    0  0.53105145040E+03 -0.67920500973E+02  0.32810662075E+03  0.62791941521E+03  0.00000000000E+00 0. -1.
         -3    1    6    6    0  503  0.61848145271E+01 -0.32896065216E+01  0.23253912133E+02  0.24286166253E+02  0.00000000000E+00 0.  1.
<mgrwt>
<rscale>  0 0.17548435E+04</rscale>
<asrwt>0</asrwt>
<pdfrwt beam="1">  1        1 0.37146247E+00 0.17548435E+04</pdfrwt>
<pdfrwt beam="2">  1       -2 0.49054077E-01 0.17548435E+04</pdfrwt>
<totfact> 0.50866387E+00</totfact>
</mgrwt>
</event>
<event>
12    4  0.4486176E-008  0.1772448E+04  0.7818608E-02  0.8721090E-01
         -2   -1    0    0    0  501 -0.00000000000E+00  0.00000000000E+00  0.10792478636E+04  0.10792478636E+04  0.00000000000E+00 0.  1.
          1   -1    0    0  501    0  0.00000000000E+00 -0.00000000000E+00 -0.72772283357E+03  0.72772283357E+03  0.00000000000E+00 0. -1.
        -24    2    1    2    0    0  0.36575019288E+03 -0.69112901462E+02  0.67840325164E+03  0.77789125315E+03  0.79586639264E+02 0.  0.
        254    2    1    2    0    0 -0.36575019288E+03  0.69112901462E+02 -0.32687822165E+03  0.10290794440E+04  0.90200073919E+03 0.  0.
         23    2    4    4    0    0 -0.26039460999E+03 -0.99251976041E+02 -0.60757633064E+03  0.67452608974E+03  0.90444129263E+02 0.  0.
         23    2    4    4    0    0 -0.10535558289E+03  0.16836487750E+03  0.28069810899E+03  0.35455335425E+03  0.86429866347E+02 0.  0.
          3    1    3    3  502    0  0.22732684517E+02 -0.23776838319E+02  0.40331469432E+02  0.52045560928E+02  0.00000000000E+00 0. -1.
         -2    1    3    3    0  502  0.34301750836E+03 -0.45336063143E+02  0.63807178221E+03  0.72584569222E+03  0.00000000000E+00 0.  1.
         11    1    5    5    0    0 -0.26573805776E+03 -0.87181281895E+02 -0.58373798903E+03  0.64727685815E+03  0.00000000000E+00 0.  1.
        -11    1    5    5    0    0  0.53434477756E+01 -0.12070694146E+02 -0.23838341611E+02  0.27249231586E+02  0.00000000000E+00 0. -1.
          4    1    6    6  503    0 -0.41592670186E+02  0.10030311453E+02  0.82886372186E+02  0.93277586028E+02  0.00000000000E+00 0. -1.
         -4    1    6    6    0  503 -0.63762912706E+02  0.15833456605E+03  0.19781173681E+03  0.26127576822E+03  0.00000000000E+00 0.  1.
<mgrwt>
<rscale>  0 0.17724484E+04</rscale>
<asrwt>0</asrwt>
<pdfrwt beam="1">  1        1 0.11195736E+00 0.17724484E+04</pdfrwt>
<pdfrwt beam="2">  1       -2 0.16603813E+00 0.17724484E+04</pdfrwt>
<totfact> 0.48352275E+00</totfact>
</mgrwt>
</event>
<event>
12    4  0.4486176E-008  0.1841161E+04  0.7818608E-02  0.8684712E-01
         -2   -1    0    0    0  501 -0.00000000000E+00  0.00000000000E+00  0.69147017463E+03  0.69147017463E+03  0.00000000000E+00 0.  1.
          1   -1    0    0  501    0  0.00000000000E+00 -0.00000000000E+00 -0.12256032018E+04  0.12256032018E+04  0.00000000000E+00 0. -1.
        -24    2    1    2    0    0  0.72391891679E+02 -0.66220605800E+03 -0.40950172203E+03  0.78545712720E+03  0.74120099138E+02 0.  0.
        254    2    1    2    0    0 -0.72391891679E+02  0.66220605800E+03 -0.12463130513E+03  0.11316162492E+04  0.90623668212E+03 0.  0.
         23    2    4    4    0    0 -0.71297420620E+02  0.87996236612E+03 -0.81309206329E+02  0.89137096775E+03  0.92270944144E+02 0.  0.
         23    2    4    4    0    0 -0.10944710586E+01 -0.21775630812E+03 -0.43322098805E+02  0.24024528146E+03  0.91771364947E+02 0.  0.
          3    1    3    3  502    0 -0.26955807030E+01 -0.13071779851E+03 -0.10950724808E+03  0.17054690376E+03  0.00000000000E+00 0. -1.
         -4    1    3    3    0  502  0.75087472382E+02 -0.53148825950E+03 -0.29999447395E+03  0.61491022344E+03  0.00000000000E+00 0.  1.
         11    1    5    5    0    0 -0.40022964954E+02  0.11905474946E+03 -0.10818357667E+01  0.12560669354E+03  0.00000000000E+00 0.  1.
        -11    1    5    5    0    0 -0.31274455666E+02  0.76090761666E+03 -0.80227370562E+02  0.76576427421E+03  0.00000000000E+00 0. -1.
          2    1    6    6  503    0  0.11343873559E+02 -0.21167315857E+03 -0.58299962833E+02  0.21984789103E+03  0.00000000000E+00 0. -1.
         -2    1    6    6    0  503 -0.12438344618E+02 -0.60831495541E+01  0.14977864028E+02  0.20397390425E+02  0.00000000000E+00 0.  1.
<mgrwt>
<rscale>  0 0.18411606E+04</rscale>
<asrwt>0</asrwt>
<pdfrwt beam="1">  1        1 0.18855434E+00 0.18411606E+04</pdfrwt>
<pdfrwt beam="2">  1       -2 0.10638003E+00 0.18411606E+04</pdfrwt>
<totfact> 0.60142371E+00</totfact>
</mgrwt>
</event>
<event>
12    4  0.4486176E-008  0.2268631E+04  0.7818608E-02  0.8490393E-01
         -2   -1    0    0    0  501 -0.00000000000E+00  0.00000000000E+00  0.56894816483E+03  0.56894816483E+03  0.00000000000E+00 0.  1.
          1   -1    0    0  501    0  0.00000000000E+00 -0.00000000000E+00 -0.22614920265E+04  0.22614920265E+04  0.00000000000E+00 0. -1.
        -24    2    1    2    0    0 -0.65601377372E+03 -0.35968898957E+03  0.25962855045E+02  0.75261644459E+03  0.77635058379E+02 0.  0.
        254    2    1    2    0    0  0.65601377372E+03  0.35968898957E+03 -0.17185067167E+04  0.20778237467E+04  0.89685893350E+03 0.  0.
         23    2    4    4    0    0  0.18509807268E+03  0.19864332271E+03 -0.14990171023E+04  0.15259555995E+04  0.88134853881E+02 0.  0.
         23    2    4    4    0    0  0.47091570104E+03  0.16104566686E+03 -0.21948961440E+03  0.55186814724E+03  0.93195798212E+02 0.  0.
          1    1    3    3  502    0 -0.23501747591E+03 -0.10808265879E+03 -0.23138230136E+02  0.25971225002E+03  0.00000000000E+00 0. -1.
         -4    1    3    3    0  502 -0.42099629781E+03 -0.25160633078E+03  0.49101085181E+02  0.49290419457E+03  0.00000000000E+00 0.  1.
         11    1    5    5    0    0  0.17827966000E+03  0.16050648208E+03 -0.13827367415E+04  0.14033912014E+04  0.00000000000E+00 0. -1.
        -11    1    5    5    0    0  0.68184126804E+01  0.38136840633E+02 -0.11628036084E+03  0.12256439810E+03  0.00000000000E+00 0.  1.
          4    1    6    6  503    0  0.33458992511E+03  0.15328355931E+03 -0.18021864351E+03  0.40978656275E+03  0.00000000000E+00 0. -1.
         -4    1    6    6    0  503  0.13632577593E+03  0.77621075539E+01 -0.39270970890E+02  0.14208158449E+03  0.00000000000E+00 0.  1.
<mgrwt>
<rscale>  0 0.22686311E+04</rscale>
<asrwt>0</asrwt>
<pdfrwt beam="1">  1        1 0.34792185E+00 0.22686311E+04</pdfrwt>
<pdfrwt beam="2">  1       -2 0.87530486E-01 0.22686311E+04</pdfrwt>
<totfact> 0.17744066E+00</totfact>
</mgrwt>
</event>
<event>
12    4  0.4486176E-008  0.2159720E+04  0.7818608E-02  0.8535383E-01
          1   -1    0    0  501    0  0.00000000000E+00  0.00000000000E+00  0.21095827818E+04  0.21095827818E+04  0.00000000000E+00 0. -1.
         -2   -1    0    0    0  501 -0.00000000000E+00 -0.00000000000E+00 -0.55276235055E+03  0.55276235055E+03  0.00000000000E+00 0.  1.
        -24    2    1    2    0    0  0.24530585604E+03  0.81241003983E+03  0.95988385322E+03  0.12837360596E+04  0.80101330302E+02 0.  0.
        254    2    1    2    0    0 -0.24530585604E+03 -0.81241003983E+03  0.59693657798E+03  0.13786090727E+04  0.90776905735E+03 0.  0.
         23    2    4    4    0    0  0.32160202677E+02 -0.48248932931E+02  0.54934393970E+03  0.55971046173E+03  0.90193119041E+02 0.  0.
         23    2    4    4    0    0 -0.27746605872E+03 -0.76416110690E+03  0.47592638286E+02  0.81889861101E+03  0.86024792117E+02 0.  0.
          3    1    3    3  502    0  0.22577977226E+03  0.79432744499E+03  0.92922221347E+03  0.12431357599E+04  0.00000000000E+00 0. -1.
         -4    1    3    3    0  502  0.19526083777E+02  0.18082594840E+02  0.30661639750E+02  0.40600299703E+02  0.00000000000E+00 0.  1.
         11    1    5    5    0    0  0.94736484069E+01 -0.68671798854E+02  0.46231765381E+03  0.46748602011E+03  0.00000000000E+00 0.  1.
        -11    1    5    5    0    0  0.22686554270E+02  0.20422865923E+02  0.87026285888E+02  0.92224441623E+02  0.00000000000E+00 0. -1.
          1    1    6    6  503    0 -0.29075521496E+02 -0.28327092640E+02 -0.24005925809E+01  0.40664148490E+02  0.00000000000E+00 0. -1.
         -1    1    6    6    0  503 -0.24839053722E+03 -0.73583401426E+03  0.49993230867E+02  0.77823446252E+03  0.00000000000E+00 0.  1.
<mgrwt>
<rscale>  0 0.21597203E+04</rscale>
<asrwt>0</asrwt>
<pdfrwt beam="1">  1        1 0.32455119E+00 0.21597203E+04</pdfrwt>
<pdfrwt beam="2">  1       -2 0.85040363E-01 0.21597203E+04</pdfrwt>
<totfact> 0.24284538E+00</totfact>
</mgrwt>
</event>
<event>
12    4  0.4486176E-008  0.1971475E+04  0.7818608E-02  0.8620074E-01
          1   -1    0    0  501    0  0.00000000000E+00  0.00000000000E+00  0.11266464431E+04  0.11266464431E+04  0.00000000000E+00 0. -1.
         -2   -1    0    0    0  501 -0.00000000000E+00 -0.00000000000E+00 -0.86245169736E+03  0.86245169736E+03  0.00000000000E+00 0.  1.
        -24    2    1    2    0    0  0.33493761150E+03 -0.77718202875E+02  0.81128624456E+03  0.88453298427E+03  0.77394489454E+02 0.  0.
        254    2    1    2    0    0 -0.33493761150E+03  0.77718202875E+02 -0.54709149887E+03  0.11045651561E+04  0.89584136618E+03 0.  0.
         23    2    4    4    0    0 -0.20074126622E+02  0.11657959156E+03 -0.71795866709E+03  0.73307606597E+03  0.89118455499E+02 0.  0.
         23    2    4    4    0    0 -0.31486348488E+03 -0.38861388685E+02  0.17086716822E+03  0.37148909017E+03  0.90329028011E+02 0.  0.
          1    1    3    3  502    0  0.23338907516E+03 -0.48013117319E+02  0.64322410975E+03  0.68593948363E+03  0.00000000000E+00 0. -1.
         -2    1    3    3    0  502  0.10154853634E+03 -0.29705085556E+02  0.16806213481E+03  0.19859350064E+03  0.00000000000E+00 0.  1.
         11    1    5    5    0    0 -0.20224474178E+02 -0.57336082371E+01 -0.54042633834E+02  0.57987152809E+02  0.00000000000E+00 0.  1.
        -11    1    5    5    0    0  0.15034755676E+00  0.12231319980E+03 -0.66391603326E+03  0.67508891316E+03  0.00000000000E+00 0. -1.
          2    1    6    6  503    0  0.57474536927E+01  0.13058821766E+00 -0.67152092433E+00  0.57880236337E+01  0.00000000000E+00 0.  1.
         -2    1    6    6    0  503 -0.32061093857E+03 -0.38991976903E+02  0.17153868915E+03  0.36570106654E+03  0.00000000000E+00 0. -1.
<mgrwt>
<rscale>  0 0.19714747E+04</rscale>
<asrwt>0</asrwt>
<pdfrwt beam="1">  1        1 0.17333022E+00 0.19714747E+04</pdfrwt>
<pdfrwt beam="2">  1       -2 0.13268488E+00 0.19714747E+04</pdfrwt>
<totfact> 0.40714258E+00</totfact>
</mgrwt>
</event>
<event>
12    4  0.4486176E-008  0.1529478E+04  0.7818608E-02  0.8865083E-01
         -2   -1    0    0    0  501 -0.00000000000E+00  0.00000000000E+00  0.51373441771E+03  0.51373441771E+03  0.00000000000E+00 0.  1.
          1   -1    0    0  501    0  0.00000000000E+00 -0.00000000000E+00 -0.11383817657E+04  0.11383817657E+04  0.00000000000E+00 0. -1.
        -24    2    1    2    0    0  0.30716866769E+03 -0.29670449132E+03  0.97129967133E+02  0.44472075642E+03  0.77176259933E+02 0.  0.
        254    2    1    2    0    0 -0.30716866769E+03  0.29670449132E+03 -0.72177731509E+03  0.12073954270E+04  0.86859373639E+03 0.  0.
         23    2    4    4    0    0 -0.35002042572E+03  0.34574240073E+03 -0.88156870582E+03  0.10132653593E+04  0.86551713504E+02 0.  0.
         23    2    4    4    0    0  0.42851758031E+02 -0.49037909406E+02  0.15979139072E+03  0.19413006771E+03  0.88950575687E+02 0.  0.
          1    1    3    3  502    0  0.69668630015E+02 -0.27318569181E+02  0.18364589999E+02  0.77053750045E+02  0.00000000000E+00 0. -1.
         -2    1    3    3    0  502  0.23750003767E+03 -0.26938592214E+03  0.78765377134E+02  0.36766700638E+03  0.00000000000E+00 0.  1.
         11    1    5    5    0    0 -0.24920953318E+03  0.21536847879E+03 -0.51453583231E+03  0.61093051635E+03  0.00000000000E+00 0.  1.
        -11    1    5    5    0    0 -0.10081089254E+03  0.13037392194E+03 -0.36703287351E+03  0.40233484290E+03  0.00000000000E+00 0. -1.
          1    1    6    6  503    0  0.67894853444E+01  0.11773488267E+02 -0.52603787268E+01  0.14573390874E+02  0.00000000000E+00 0. -1.
         -1    1    6    6    0  503  0.36062272686E+02 -0.60811397673E+02  0.16505176945E+03  0.17955667684E+03  0.00000000000E+00 0.  1.
<mgrwt>
<rscale>  0 0.15294782E+04</rscale>
<asrwt>0</asrwt>
<pdfrwt beam="1">  1        1 0.17513565E+00 0.15294782E+04</pdfrwt>
<pdfrwt beam="2">  1       -2 0.79036065E-01 0.15294782E+04</pdfrwt>
<totfact> 0.14265284E+01</totfact>
</mgrwt>
</event>
<event>
12    4  0.4486176E-008  0.3713878E+04  0.7818608E-02  0.8064893E-01
          1   -1    0    0  501    0  0.00000000000E+00  0.00000000000E+00  0.18481546516E+04  0.18481546516E+04  0.00000000000E+00 0. -1.
         -2   -1    0    0    0  501 -0.00000000000E+00 -0.00000000000E+00 -0.18657652035E+04  0.18657652035E+04  0.00000000000E+00 0.  1.
        -24    2    1    2    0    0  0.13978647374E+04  0.69800482316E+03  0.77221721581E+03  0.17445254999E+04  0.76244569235E+02 0.  0.
        254    2    1    2    0    0 -0.13978647374E+04 -0.69800482316E+03 -0.78982776767E+03  0.19693943552E+04  0.90191444523E+03 0.  0.
         23    2    4    4    0    0 -0.13487064453E+04 -0.85585583775E+03 -0.78300571849E+03  0.17811929337E+04  0.89733055258E+02 0.  0.
         23    2    4    4    0    0 -0.49158292034E+02  0.15785101459E+03 -0.68220491769E+01  0.18820142147E+03  0.89664676468E+02 0.  0.
          3    1    3    3  502    0  0.84345233668E+03  0.41615588941E+03  0.42332999510E+03  0.10314096438E+04  0.00000000000E+00 0. -1.
         -4    1    3    3    0  502  0.55441240070E+03  0.28184893375E+03  0.34888722071E+03  0.71311585614E+03  0.00000000000E+00 0.  1.
         11    1    5    5    0    0 -0.33316905463E+01 -0.35667916177E+01  0.24032570276E+01  0.54403868136E+01  0.00000000000E+00 0.  1.
        -11    1    5    5    0    0 -0.13453747548E+04 -0.85228904613E+03 -0.78540897552E+03  0.17757525469E+04  0.00000000000E+00 0. -1.
          3    1    6    6  503    0  0.15660864032E+02  0.92485099207E+02  0.10974166310E+02  0.94441455748E+02  0.00000000000E+00 0. -1.
         -3    1    6    6    0  503 -0.64819156065E+02  0.65365915385E+02 -0.17796215486E+02  0.93759965725E+02  0.00000000000E+00 0.  1.
<mgrwt>
<rscale>  0 0.37138781E+04</rscale>
<asrwt>0</asrwt>
<pdfrwt beam="1">  1        1 0.28433148E+00 0.37138781E+04</pdfrwt>
<pdfrwt beam="2">  1       -2 0.28704080E+00 0.37138781E+04</pdfrwt>
<totfact> 0.10150693E-01</totfact>
</mgrwt>
</event>
<event>
12    4  0.4486176E-008  0.1362370E+04  0.7818608E-02  0.8981517E-01
          1   -1    0    0  501    0  0.00000000000E+00  0.00000000000E+00  0.77161292092E+03  0.77161292092E+03  0.00000000000E+00 0. -1.
         -2   -1    0    0    0  501 -0.00000000000E+00 -0.00000000000E+00 -0.60135434320E+03  0.60135434320E+03  0.00000000000E+00 0.  1.
        -24    2    1    2    0    0 -0.28510018346E+02 -0.65554441715E+02  0.41394955169E+03  0.43215545723E+03  0.10145886796E+03 0.  0.
        254    2    1    2    0    0  0.28510018346E+02  0.65554441715E+02 -0.24369097398E+03  0.94081180689E+03  0.90588705654E+03 0.  0.
         23    2    4    4    0    0  0.15009093134E+03  0.21536704326E+03  0.26858171528E+03  0.38589997940E+03  0.88726576222E+02 0.  0.
         23    2    4    4    0    0 -0.12158091299E+03 -0.14981260154E+03 -0.51227268926E+03  0.55491182749E+03  0.90984032356E+02 0.  0.
          3    1    3    3  502    0 -0.19435068237E+02 -0.87388556763E+02  0.38233903039E+03  0.39268004264E+03  0.00000000000E+00 0. -1.
         -4    1    3    3    0  502 -0.90749501098E+01  0.21834115049E+02  0.31610521306E+02  0.39475414586E+02  0.00000000000E+00 0.  1.
         11    1    5    5    0    0  0.11269928538E+03  0.91252577320E+02  0.11606058108E+03  0.18573696529E+03  0.00000000000E+00 0. -1.
        -11    1    5    5    0    0  0.37391645955E+02  0.12411446594E+03  0.15252113420E+03  0.20016301411E+03  0.00000000000E+00 0.  1.
          4    1    6    6  503    0 -0.71651530159E+02 -0.47359874067E+02 -0.12840503620E+03  0.15448220858E+03  0.00000000000E+00 0. -1.
         -4    1    6    6    0  503 -0.49929382831E+02 -0.10245272748E+03 -0.38386765306E+03  0.40042961891E+03  0.00000000000E+00 0.  1.
<mgrwt>
<rscale>  0 0.13623697E+04</rscale>
<asrwt>0</asrwt>
<pdfrwt beam="1">  1        1 0.11870968E+00 0.13623697E+04</pdfrwt>
<pdfrwt beam="2">  1       -2 0.92516052E-01 0.13623697E+04</pdfrwt>
<totfact> 0.19893017E+01</totfact>
</mgrwt>
</event>
<event>
12    4  0.4486176E-008  0.1987543E+04  0.7818608E-02  0.8612467E-01
         -2   -1    0    0    0  501 -0.00000000000E+00  0.00000000000E+00  0.16404729351E+04  0.16404729351E+04  0.00000000000E+00 0.  1.
          1   -1    0    0  501    0  0.00000000000E+00 -0.00000000000E+00 -0.60201058985E+03  0.60201058985E+03  0.00000000000E+00 0. -1.
        -24    2    1    2    0    0 -0.38265613257E+03 -0.39271267520E+03  0.10563069193E+04  0.11927288699E+04  0.78542269577E+02 0.  0.
        254    2    1    2    0    0  0.38265613257E+03  0.39271267520E+03 -0.17844574126E+02  0.10497546551E+04  0.89499577984E+03 0.  0.
         23    2    4    4    0    0 -0.27128461963E+02 -0.12398808531E+03  0.28026269827E+03  0.32049322190E+03  0.89775979516E+02 0.  0.
         23    2    4    4    0    0  0.40978459453E+03  0.51670076051E+03 -0.29810727239E+03  0.72926143315E+03  0.89728491587E+02 0.  0.
          1    1    3    3  502    0 -0.11788011354E+03 -0.74747010871E+02  0.29020598810E+03  0.32202849615E+03  0.00000000000E+00 0. -1.
         -2    1    3    3    0  502 -0.26477601902E+03 -0.31796566432E+03  0.76610093123E+03  0.87070037371E+03  0.00000000000E+00 0.  1.
         11    1    5    5    0    0 -0.41289141829E+02 -0.28981313031E+02  0.50127400028E+02  0.71115863009E+02  0.00000000000E+00 0.  1.
        -11    1    5    5    0    0  0.14160679865E+02 -0.95006772282E+02  0.23013529824E+03  0.24937735890E+03  0.00000000000E+00 0. -1.
          3    1    6    6  503    0  0.20695541060E+03  0.33087561320E+03 -0.16610576340E+03  0.42414659968E+03  0.00000000000E+00 0. -1.
         -3    1    6    6    0  503  0.20282918393E+03  0.18582514731E+03 -0.13200150899E+03  0.30511483347E+03  0.00000000000E+00 0.  1.
<mgrwt>
<rscale>  0 0.19875433E+04</rscale>
<asrwt>0</asrwt>
<pdfrwt beam="1">  1        1 0.92617014E-01 0.19875433E+04</pdfrwt>
<pdfrwt beam="2">  1       -2 0.25238045E+00 0.19875433E+04</pdfrwt>
<totfact> 0.17217902E+00</totfact>
</mgrwt>
</event>
<event>
12    4  0.4486176E-008  0.1245643E+04  0.7818608E-02  0.9073818E-01
          1   -1    0    0  501    0  0.00000000000E+00  0.00000000000E+00  0.10658321874E+04  0.10658321874E+04  0.00000000000E+00 0. -1.
         -2   -1    0    0    0  501 -0.00000000000E+00 -0.00000000000E+00 -0.36394700733E+03  0.36394700733E+03  0.00000000000E+00 0.  1.
        -24    2    1    2    0    0 -0.12839350473E+03 -0.16009323531E+03  0.40136747054E+03  0.45767732888E+03  0.79107236817E+02 0.  0.
        254    2    1    2    0    0  0.12839350473E+03  0.16009323531E+03  0.30051770954E+03  0.97210186585E+03  0.90141910774E+03 0.  0.
         23    2    4    4    0    0  0.12286339916E+03 -0.35154002670E+03  0.23127045820E+03  0.44787481262E+03  0.91815127926E+02 0.  0.
         23    2    4    4    0    0  0.55301055699E+01  0.51163326201E+03  0.69247251341E+02  0.52422705324E+03  0.90662255986E+02 0.  0.
          3    1    3    3  502    0  0.55796321608E+00 -0.20475217432E+02  0.94711118508E+02  0.96900680188E+02  0.00000000000E+00 0. -1.
         -4    1    3    3    0  502 -0.12895146795E+03 -0.13961801788E+03  0.30665635203E+03  0.36077664870E+03  0.00000000000E+00 0.  1.
         11    1    5    5    0    0 -0.43506215456E+01 -0.84260695879E+01 -0.64797394438E+01  0.11485363721E+02  0.00000000000E+00 0. -1.
        -11    1    5    5    0    0  0.12721402071E+03 -0.34311395711E+03  0.23775019764E+03  0.43638944890E+03  0.00000000000E+00 0.  1.
          2    1    6    6  503    0 -0.23094013978E+02  0.30485792147E+03  0.77202821608E+02  0.31532833909E+03  0.00000000000E+00 0. -1.
         -2    1    6    6    0  503  0.28624119547E+02  0.20677534054E+03 -0.79555702667E+01  0.20889871415E+03  0.00000000000E+00 0.  1.
<mgrwt>
<rscale>  0 0.12456427E+04</rscale>
<asrwt>0</asrwt>
<pdfrwt beam="1">  1        1 0.16397418E+00 0.12456427E+04</pdfrwt>
<pdfrwt beam="2">  1       -2 0.55991848E-01 0.12456427E+04</pdfrwt>
<totfact> 0.34866210E+01</totfact>
</mgrwt>
</event>
<event>
12    4  0.4486176E-008  0.1544760E+04  0.7818608E-02  0.8855222E-01
         -2   -1    0    0    0  501 -0.00000000000E+00  0.00000000000E+00  0.98033654034E+03  0.98033654034E+03  0.00000000000E+00 0.  1.
          1   -1    0    0  501    0  0.00000000000E+00 -0.00000000000E+00 -0.60853671985E+03  0.60853671985E+03  0.00000000000E+00 0. -1.
        -24    2    1    2    0    0 -0.45946901609E+03 -0.19671585346E+03  0.20536145733E+03  0.54611257952E+03  0.79099415934E+02 0.  0.
        254    2    1    2    0    0  0.45946901609E+03  0.19671585346E+03  0.16643836316E+03  0.10427606807E+04  0.89991066483E+03 0.  0.
         23    2    4    4    0    0  0.18373540422E+03  0.37638036173E+03  0.43324730616E+03  0.60939184745E+03  0.90743153917E+02 0.  0.
         23    2    4    4    0    0  0.27573361187E+03 -0.17966450827E+03 -0.26680894300E+03  0.43336883323E+03  0.91176605024E+02 0.  0.
          3    1    3    3  502    0 -0.55122031968E+02 -0.20794767340E+02  0.53946603381E+02  0.79881767466E+02  0.00000000000E+00 0. -1.
         -2    1    3    3    0  502 -0.40434698412E+03 -0.17592108612E+03  0.15141485395E+03  0.46623081205E+03  0.00000000000E+00 0.  1.
         11    1    5    5    0    0  0.97525112079E+02  0.11125322242E+03  0.12411534259E+03  0.19311407316E+03  0.00000000000E+00 0.  1.
        -11    1    5    5    0    0  0.86210292142E+02  0.26512713931E+03  0.30913196357E+03  0.41627777429E+03  0.00000000000E+00 0. -1.
          1    1    6    6  503    0  0.25661469029E+03 -0.13854779549E+03 -0.20397766000E+03  0.35588407760E+03  0.00000000000E+00 0. -1.
         -1    1    6    6    0  503  0.19118921575E+02 -0.41116712777E+02 -0.62831282991E+02  0.77484755624E+02  0.00000000000E+00 0.  1.
<mgrwt>
<rscale>  0 0.15447599E+04</rscale>
<asrwt>0</asrwt>
<pdfrwt beam="1">  1        1 0.93621034E-01 0.15447599E+04</pdfrwt>
<pdfrwt beam="2">  1       -2 0.15082101E+00 0.15447599E+04</pdfrwt>
<totfact> 0.83525965E+00</totfact>
</mgrwt>
</event>
<event>
12    4  0.4486176E-008  0.1965947E+04  0.7818608E-02  0.8622709E-01
          1   -1    0    0  501    0  0.00000000000E+00  0.00000000000E+00  0.11480045728E+04  0.11480045728E+04  0.00000000000E+00 0. -1.
         -2   -1    0    0    0  501 -0.00000000000E+00 -0.00000000000E+00 -0.84166621913E+03  0.84166621913E+03  0.00000000000E+00 0.  1.
        -24    2    1    2    0    0  0.39449169361E+03 -0.51077632925E+03  0.53420672782E+03  0.84179526135E+03  0.82013895983E+02 0.  0.
        254    2    1    2    0    0 -0.39449169361E+03  0.51077632925E+03 -0.22786837411E+03  0.11478755306E+04  0.92150859087E+03 0.  0.
         23    2    4    4    0    0  0.15696972275E+03 -0.14801880514E+03 -0.15416800686E+03  0.28068014580E+03  0.92002768285E+02 0.  0.
         23    2    4    4    0    0 -0.55146141637E+03  0.65879513438E+03 -0.73700367250E+02  0.86719538483E+03  0.92061764619E+02 0.  0.
          3    1    3    3  502    0  0.34238319183E+03 -0.47497127633E+03  0.46209800272E+03  0.74589444796E+03  0.00000000000E+00 0. -1.
         -4    1    3    3    0  502  0.52108501782E+02 -0.35805052916E+02  0.72108725099E+02  0.95900813384E+02  0.00000000000E+00 0.  1.
         11    1    5    5    0    0  0.16549097643E+03 -0.12470497442E+03 -0.12350880394E+03  0.24123229173E+03  0.00000000000E+00 0. -1.
        -11    1    5    5    0    0 -0.85212536754E+01 -0.23313830719E+02 -0.30659202915E+02  0.39447854065E+02  0.00000000000E+00 0.  1.
          2    1    6    6  503    0 -0.29668801690E+03  0.30268183959E+03 -0.68225498996E+02  0.42929569541E+03  0.00000000000E+00 0. -1.
         -2    1    6    6    0  503 -0.25477339947E+03  0.35611329479E+03 -0.54748682542E+01  0.43789968941E+03  0.00000000000E+00 0.  1.
<mgrwt>
<rscale>  0 0.19659468E+04</rscale>
<asrwt>0</asrwt>
<pdfrwt beam="1">  1        1 0.17661609E+00 0.19659468E+04</pdfrwt>
<pdfrwt beam="2">  1       -2 0.12948711E+00 0.19659468E+04</pdfrwt>
<totfact> 0.41780060E+00</totfact>
</mgrwt>
</event>
<event>
12    4  0.4486176E-008  0.2031105E+04  0.7818608E-02  0.8592215E-01
         -2   -1    0    0    0  501 -0.00000000000E+00  0.00000000000E+00  0.44640199023E+03  0.44640199023E+03  0.00000000000E+00 0.  1.
          1   -1    0    0  501    0  0.00000000000E+00 -0.00000000000E+00 -0.23103544697E+04  0.23103544697E+04  0.00000000000E+00 0. -1.
        -24    2    1    2    0    0  0.23374807659E+03 -0.75045646444E+03 -0.45718369209E+03  0.91273293405E+03  0.79002609119E+02 0.  0.
        254    2    1    2    0    0 -0.23374807659E+03  0.75045646444E+03 -0.14067687873E+04  0.18440235258E+04  0.89643810413E+03 0.  0.
         23    2    4    4    0    0  0.15780542147E+03  0.27276004017E+03 -0.26923032319E+02  0.32954114824E+03  0.92584707985E+02 0.  0.
         23    2    4    4    0    0 -0.39155349806E+03  0.47769642427E+03 -0.13798457550E+04  0.15144823776E+04  0.90413211779E+02 0.  0.
          3    1    3    3  502    0  0.17015528639E+03 -0.51617490791E+03 -0.27429256078E+03  0.60879041217E+03  0.00000000000E+00 0. -1.
         -4    1    3    3    0  502  0.63592790201E+02 -0.23428155652E+03 -0.18289113131E+03  0.30394252188E+03  0.00000000000E+00 0.  1.
         11    1    5    5    0    0  0.74367679009E+02  0.70012146178E+02  0.22972130282E+02  0.10468988042E+03  0.00000000000E+00 0. -1.
        -11    1    5    5    0    0  0.83437742458E+02  0.20274789399E+03 -0.49895162601E+02  0.22485126781E+03  0.00000000000E+00 0.  1.
          2    1    6    6  503    0 -0.36863930608E+03  0.47361996528E+03 -0.13121042183E+04  0.14428542162E+04  0.00000000000E+00 0. -1.
         -2    1    6    6    0  503 -0.22914191974E+02  0.40764589823E+01 -0.67741536712E+02  0.71628161415E+02  0.00000000000E+00 0.  1.
<mgrwt>
<rscale>  0 0.20311050E+04</rscale>
<asrwt>0</asrwt>
<pdfrwt beam="1">  1        1 0.35543915E+00 0.20311050E+04</pdfrwt>
<pdfrwt beam="2">  1       -2 0.68677229E-01 0.20311050E+04</pdfrwt>
<totfact> 0.28841995E+00</totfact>
</mgrwt>
</event>
<event>
12    4  0.4486176E-008  0.2623008E+04  0.7818608E-02  0.8360428E-01
          1   -1    0    0  501    0  0.00000000000E+00  0.00000000000E+00  0.14039038833E+04  0.14039038833E+04  0.00000000000E+00 0. -1.
         -2   -1    0    0    0  501 -0.00000000000E+00 -0.00000000000E+00 -0.12251853229E+04  0.12251853229E+04  0.00000000000E+00 0.  1.
        -24    2    1    2    0    0 -0.90617106096E+03 -0.52675009488E+03 -0.41237884862E+03  0.11291669187E+04  0.79686644820E+02 0.  0.
        254    2    1    2    0    0  0.90617106096E+03  0.52675009488E+03  0.59109740901E+03  0.14999222874E+04  0.89540999946E+03 0.  0.
         23    2    4    4    0    0  0.53170358834E+03  0.16675752183E+03 -0.15579295826E+03  0.58551715026E+03  0.89677814790E+02 0.  0.
         23    2    4    4    0    0  0.37446747262E+03  0.35999257305E+03  0.74689036727E+03  0.91440513715E+03  0.92037999856E+02 0.  0.
          1    1    3    3  502    0 -0.40204514209E+03 -0.19137422795E+03 -0.19037918280E+03  0.48426090555E+03  0.00000000000E+00 0. -1.
         -2    1    3    3    0  502 -0.50412591887E+03 -0.33537586693E+03 -0.22199966582E+03  0.64490601317E+03  0.00000000000E+00 0.  1.
         11    1    5    5    0    0  0.21742589352E+03  0.11470621877E+03 -0.70479510380E+02  0.25573208086E+03  0.00000000000E+00 0. -1.
        -11    1    5    5    0    0  0.31427769482E+03  0.52051303067E+02 -0.85313447878E+02  0.32978506940E+03  0.00000000000E+00 0.  1.
          2    1    6    6  503    0  0.31091654880E+03  0.25677260707E+03  0.61361735823E+03  0.73425304520E+03  0.00000000000E+00 0. -1.
         -2    1    6    6    0  503  0.63550923822E+02  0.10321996598E+03  0.13327300904E+03  0.18015209195E+03  0.00000000000E+00 0.  1.
<mgrwt>
<rscale>  0 0.26230078E+04</rscale>
<asrwt>0</asrwt>
<pdfrwt beam="1">  1        1 0.21598521E+00 0.26230078E+04</pdfrwt>
<pdfrwt beam="2">  1       -2 0.18849005E+00 0.26230078E+04</pdfrwt>
<totfact> 0.93484355E-01</totfact>
</mgrwt>
</event>
<event>
12    4  0.4486176E-008  0.3337336E+04  0.7818608E-02  0.8153460E-01
         -4   -1    0    0    0  501 -0.00000000000E+00  0.00000000000E+00  0.15783734445E+04  0.15783734445E+04  0.00000000000E+00 0.  1.
          3   -1    0    0  501    0  0.00000000000E+00 -0.00000000000E+00 -0.17641278502E+04  0.17641278502E+04  0.00000000000E+00 0. -1.
        -24    2    1    2    0    0 -0.78751202371E+03  0.12486951135E+04  0.37188853267E+03  0.15248015580E+04  0.85463655566E+02 0.  0.
        254    2    1    2    0    0  0.78751202371E+03 -0.12486951135E+04 -0.55764293837E+03  0.18176997367E+04  0.90202661393E+03 0.  0.
         23    2    4    4    0    0  0.40198931721E+03 -0.30750517065E+02 -0.30265455827E+03  0.51178086738E+03  0.88197897472E+02 0.  0.
         23    2    4    4    0    0  0.38552270650E+03 -0.12179445965E+04 -0.25498838010E+03  0.13059188694E+04  0.91587237778E+02 0.  0.
          3    1    3    3  502    0 -0.27511094510E+03  0.43801270164E+03  0.17252218849E+03  0.54525687931E+03  0.00000000000E+00 0. -1.
         -4    1    3    3    0  502 -0.51240107861E+03  0.81068241188E+03  0.19936634418E+03  0.97954467865E+03  0.00000000000E+00 0.  1.
         11    1    5    5    0    0  0.14046766253E+02  0.16212945519E+02 -0.21518512859E+02  0.30384496708E+02  0.00000000000E+00 0.  1.
        -11    1    5    5    0    0  0.38794255096E+03 -0.46963462584E+02 -0.28113604541E+03  0.48139637067E+03  0.00000000000E+00 0. -1.
          2    1    6    6  503    0  0.12439284232E+03 -0.46175296920E+03 -0.55592876447E+02  0.48143530375E+03  0.00000000000E+00 0.  1.
         -2    1    6    6    0  503  0.26112986417E+03 -0.75619162726E+03 -0.19939550365E+03  0.82448356562E+03  0.00000000000E+00 0. -1.
<mgrwt>
<rscale>  0 0.33373358E+04</rscale>
<asrwt>0</asrwt>
<pdfrwt beam="1">  1        3 0.27140428E+00 0.33373358E+04</pdfrwt>
<pdfrwt beam="2">  1       -4 0.24282668E+00 0.33373358E+04</pdfrwt>
<totfact> 0.73633678E-03</totfact>
</mgrwt>
</event>
<event>
12    4  0.4486176E-008  0.9720710E+03  0.7818608E-02  0.9339719E-01
         -2   -1    0    0    0  501 -0.00000000000E+00  0.00000000000E+00  0.60215169007E+03  0.60215169007E+03  0.00000000000E+00 0.  1.
          1   -1    0    0  501    0  0.00000000000E+00 -0.00000000000E+00 -0.39231064633E+03  0.39231064633E+03  0.00000000000E+00 0. -1.
        -24    2    1    2    0    0  0.11323609698E+03  0.12946521066E+03  0.44857857774E+02  0.19546674570E+03  0.81310312016E+02 0.  0.
        254    2    1    2    0    0 -0.11323609698E+03 -0.12946521066E+03  0.16498318596E+03  0.79899559069E+03  0.76262103818E+03 0.  0.
         23    2    4    4    0    0  0.23655755990E+03 -0.10324077635E+03  0.30583806503E+03  0.41037637880E+03  0.90849948852E+02 0.  0.
         23    2    4    4    0    0 -0.34979365689E+03 -0.26224434306E+02 -0.14085487907E+03  0.38861921190E+03  0.90230103322E+02 0.  0.
          3    1    3    3  502    0  0.23848821517E+02  0.21984240197E+01  0.31220279974E+02  0.39348509979E+02  0.00000000000E+00 0. -1.
         -4    1    3    3    0  502  0.89387275467E+02  0.12726678664E+03  0.13637577800E+02  0.15611823572E+03  0.00000000000E+00 0.  1.
         11    1    5    5    0    0  0.15985195475E+03 -0.10782468476E+03  0.24832338711E+03  0.31439356652E+03  0.00000000000E+00 0. -1.
        -11    1    5    5    0    0  0.76705605147E+02  0.45839084057E+01  0.57514677923E+02  0.95982812284E+02  0.00000000000E+00 0.  1.
          1    1    6    6  503    0 -0.33226232798E+03 -0.41791979209E+02 -0.11587779329E+03  0.35436208474E+03  0.00000000000E+00 0. -1.
         -1    1    6    6    0  503 -0.17531328908E+02  0.15567544903E+02 -0.24977085772E+02  0.34257127160E+02  0.00000000000E+00 0.  1.
<mgrwt>
<rscale>  0 0.97207102E+03</rscale>
<asrwt>0</asrwt>
<pdfrwt beam="1">  1        1 0.60355484E-01 0.97207102E+03</pdfrwt>
<pdfrwt beam="2">  1       -2 0.92638722E-01 0.97207102E+03</pdfrwt>
<totfact> 0.53408805E+01</totfact>
</mgrwt>
</event>
<event>
12    4  0.4486176E-008  0.1643494E+04  0.7818608E-02  0.8794265E-01
          1   -1    0    0  501    0  0.00000000000E+00  0.00000000000E+00  0.10653776362E+04  0.10653776362E+04  0.00000000000E+00 0. -1.
         -2   -1    0    0    0  501 -0.00000000000E+00 -0.00000000000E+00 -0.63382980314E+03  0.63382980314E+03  0.00000000000E+00 0.  1.
        -24    2    1    2    0    0 -0.23759110860E+03 -0.29596768482E+03 -0.29361401728E+03  0.48610466169E+03  0.77731239713E+02 0.  0.
        254    2    1    2    0    0  0.23759110860E+03  0.29596768482E+03  0.72516185030E+03  0.12131027776E+04  0.89538384763E+03 0.  0.
         23    2    4    4    0    0 -0.95125024851E+02  0.18474975051E+03 -0.14587665668E+03  0.26959931446E+03  0.90678281445E+02 0.  0.
         23    2    4    4    0    0  0.33271613345E+03  0.11121793431E+03  0.87103850698E+03  0.94350346316E+03  0.91767368872E+02 0.  0.
          1    1    3    3  502    0 -0.20689785877E+03 -0.28097062032E+03 -0.28586282320E+03  0.45107512361E+03  0.00000000000E+00 0. -1.
         -2    1    3    3    0  502 -0.30693249828E+02 -0.14997064500E+02 -0.77511940809E+01  0.35029538083E+02  0.00000000000E+00 0.  1.
         11    1    5    5    0    0 -0.67426296045E+02  0.89639165811E+02 -0.27970175680E+02  0.11560197305E+03  0.00000000000E+00 0.  1.
        -11    1    5    5    0    0 -0.27698728807E+02  0.95110584703E+02 -0.11790648100E+03  0.15399734141E+03  0.00000000000E+00 0. -1.
          3    1    6    6  503    0  0.13785974400E+03  0.86920539233E+02  0.45878863436E+03  0.48687524087E+03  0.00000000000E+00 0. -1.
         -3    1    6    6    0  503  0.19485638946E+03  0.24297395077E+02  0.41224987261E+03  0.45662822229E+03  0.00000000000E+00 0.  1.
<mgrwt>
<rscale>  0 0.16434940E+04</rscale>
<asrwt>0</asrwt>
<pdfrwt beam="1">  1        1 0.16390425E+00 0.16434940E+04</pdfrwt>
<pdfrwt beam="2">  1       -2 0.97512278E-01 0.16434940E+04</pdfrwt>
<totfact> 0.98987254E+00</totfact>
</mgrwt>
</event>
<event>
12    4  0.4486176E-008  0.1532498E+04  0.7818608E-02  0.8863125E-01
          1   -1    0    0  501    0  0.00000000000E+00  0.00000000000E+00  0.72107974715E+03  0.72107974715E+03  0.00000000000E+00 0. -1.
         -2   -1    0    0    0  501 -0.00000000000E+00 -0.00000000000E+00 -0.81424815953E+03  0.81424815953E+03  0.00000000000E+00 0.  1.
        -24    2    1    2    0    0 -0.98493886981E+02  0.40697030527E+03 -0.29546103886E+03  0.51904567477E+03  0.82373004493E+02 0.  0.
        254    2    1    2    0    0  0.98493886981E+02 -0.40697030527E+03  0.20229262648E+03  0.10162822319E+04  0.90364893241E+03 0.  0.
         23    2    4    4    0    0  0.20092783160E+03  0.23996644628E+03  0.76234302802E+01  0.32636800222E+03  0.92206655592E+02 0.  0.
         23    2    4    4    0    0 -0.10243394462E+03 -0.64693675155E+03  0.19466919620E+03  0.68991422970E+03  0.95213837675E+02 0.  0.
          3    1    3    3  502    0 -0.27932819919E+02  0.86044228277E+02 -0.10747769176E+03  0.14048240415E+03  0.00000000000E+00 0. -1.
         -4    1    3    3    0  502 -0.70561067062E+02  0.32092607699E+03 -0.18798334710E+03  0.37856327062E+03  0.00000000000E+00 0.  1.
         11    1    5    5    0    0  0.45899689650E+02  0.93039416315E+02 -0.33163729638E+02  0.10891715871E+03  0.00000000000E+00 0.  1.
        -11    1    5    5    0    0  0.15502814195E+03  0.14692702996E+03  0.40787159918E+02  0.21745084351E+03  0.00000000000E+00 0. -1.
          3    1    6    6  503    0 -0.61456874081E+02 -0.26402913232E+03  0.36218108281E+02  0.27349603553E+03  0.00000000000E+00 0. -1.
         -3    1    6    6    0  503 -0.40977070535E+02 -0.38290761923E+03  0.15845108792E+03  0.41641819417E+03  0.00000000000E+00 0.  1.
<mgrwt>
<rscale>  0 0.15324984E+04</rscale>
<asrwt>0</asrwt>
<pdfrwt beam="1">  1        1 0.11093535E+00 0.15324984E+04</pdfrwt>
<pdfrwt beam="2">  1       -2 0.12526895E+00 0.15324984E+04</pdfrwt>
<totfact> 0.10486796E+01</totfact>
</mgrwt>
</event>
<event>
12    4  0.4486176E-008  0.1588161E+04  0.7818608E-02  0.8827854E-01
          1   -1    0    0  501    0  0.00000000000E+00  0.00000000000E+00  0.20487088964E+04  0.20487088964E+04  0.00000000000E+00 0. -1.
         -2   -1    0    0    0  501 -0.00000000000E+00 -0.00000000000E+00 -0.30778585890E+03  0.30778585890E+03  0.00000000000E+00 0.  1.
        -24    2    1    2    0    0  0.53095837652E+03 -0.55247154498E+02  0.52702790376E+03  0.75431125457E+03  0.79107596045E+02 0.  0.
        254    2    1    2    0    0 -0.53095837652E+03  0.55247154498E+02  0.12138951337E+04  0.16021835007E+04  0.89915600905E+03 0.  0.
         23    2    4    4    0    0 -0.11014615754E+03  0.25720949864E+03 -0.46004349613E+01  0.29428013910E+03  0.91053468124E+02 0.  0.
         23    2    4    4    0    0 -0.42081221898E+03 -0.20196234414E+03  0.12184955687E+04  0.13079033616E+04  0.89487654568E+02 0.  0.
          1    1    3    3  502    0  0.48850421783E+03 -0.34464832465E+02  0.49994097722E+03  0.69983224863E+03  0.00000000000E+00 0. -1.
         -2    1    3    3    0  502  0.42454158692E+02 -0.20782322033E+02  0.27086926542E+02  0.54479005946E+02  0.00000000000E+00 0.  1.
         11    1    5    5    0    0 -0.10312625476E+03  0.14829938189E+03  0.21951729424E+02  0.18196046140E+03  0.00000000000E+00 0.  1.
        -11    1    5    5    0    0 -0.70199027874E+01  0.10891011675E+03 -0.26552164385E+02  0.11231967770E+03  0.00000000000E+00 0. -1.
          3    1    6    6  503    0 -0.30433154915E+02 -0.92691895020E+01  0.37239695239E+02  0.48978461527E+02  0.00000000000E+00 0. -1.
         -3    1    6    6    0  503 -0.39037906407E+03 -0.19269315464E+03  0.11812558734E+04  0.12589249001E+04  0.00000000000E+00 0.  1.
<mgrwt>
<rscale>  0 0.15881607E+04</rscale>
<asrwt>0</asrwt>
<pdfrwt beam="1">  1        1 0.31518598E+00 0.15881607E+04</pdfrwt>
<pdfrwt beam="2">  1       -2 0.47351672E-01 0.15881607E+04</pdfrwt>
<totfact> 0.98481035E+00</totfact>
</mgrwt>
</event>
<event>
12    4  0.4486176E-008  0.1770816E+04  0.7818608E-02  0.8721975E-01
         -2   -1    0    0    0  501 -0.00000000000E+00  0.00000000000E+00  0.10113441070E+04  0.10113441070E+04  0.00000000000E+00 0.  1.
          1   -1    0    0  501    0  0.00000000000E+00 -0.00000000000E+00 -0.77515391810E+03  0.77515391810E+03  0.00000000000E+00 0. -1.
        -24    2    1    2    0    0  0.29980156003E+03  0.20428185405E+03  0.60830845682E+03  0.71689290596E+03  0.11083414944E+03 0.  0.
        254    2    1    2    0    0 -0.29980156003E+03 -0.20428185405E+03 -0.37211826791E+03  0.10696051192E+04  0.93486419030E+03 0.  0.
         23    2    4    4    0    0 -0.10981949349E+03 -0.37867929182E+03 -0.59370955504E+03  0.71840270535E+03  0.90294430137E+02 0.  0.
         23    2    4    4    0    0 -0.18998206654E+03  0.17439743776E+03  0.22159128713E+03  0.35120241380E+03  0.87936255438E+02 0.  0.
          1    1    3    3  502    0  0.74770414410E+02  0.11338922066E+03  0.19604794499E+03  0.23850058064E+03  0.00000000000E+00 0. -1.
         -2    1    3    3    0  502  0.22503114562E+03  0.90892633393E+02  0.41226051184E+03  0.47839232532E+03  0.00000000000E+00 0.  1.
         11    1    5    5    0    0 -0.42191381114E+02 -0.21514461285E+03 -0.25533528138E+03  0.33654631627E+03  0.00000000000E+00 0. -1.
        -11    1    5    5    0    0 -0.67628112374E+02 -0.16353467897E+03 -0.33837427366E+03  0.38185638909E+03  0.00000000000E+00 0.  1.
          3    1    6    6  503    0 -0.14146571420E+03  0.83855580463E+02  0.10184450792E+03  0.19343373662E+03  0.00000000000E+00 0. -1.
         -3    1    6    6    0  503 -0.48516352338E+02  0.90541857299E+02  0.11974677921E+03  0.15776867718E+03  0.00000000000E+00 0.  1.
<mgrwt>
<rscale>  0 0.17708160E+04</rscale>
<asrwt>0</asrwt>
<pdfrwt beam="1">  1        1 0.11925445E+00 0.17708160E+04</pdfrwt>
<pdfrwt beam="2">  1       -2 0.15559140E+00 0.17708160E+04</pdfrwt>
<totfact> 0.52329454E+00</totfact>
</mgrwt>
</event>
<event>
12    4  0.4486176E-008  0.1334484E+04  0.7818608E-02  0.9002658E-01
         -2   -1    0    0    0  501 -0.00000000000E+00  0.00000000000E+00  0.20088228492E+03  0.20088228492E+03  0.00000000000E+00 0.  1.
          1   -1    0    0  501    0  0.00000000000E+00 -0.00000000000E+00 -0.22162816193E+04  0.22162816193E+04  0.00000000000E+00 0. -1.
        -24    2    1    2    0    0  0.18409488977E+02 -0.35063142732E+03 -0.42227019998E+03  0.55452313817E+03  0.76827611368E+02 0.  0.
        254    2    1    2    0    0 -0.18409488977E+02  0.35063142732E+03 -0.15931291344E+04  0.18626407661E+04  0.89893763822E+03 0.  0.
         23    2    4    4    0    0 -0.28592691289E+03  0.41981837004E+03 -0.14466340038E+04  0.15360983830E+04  0.94056568069E+02 0.  0.
         23    2    4    4    0    0  0.26751742392E+03 -0.69186942721E+02 -0.14649513062E+03  0.32654238306E+03  0.93897281642E+02 0.  0.
          3    1    3    3  502    0  0.42088125136E+01 -0.12928913533E+02 -0.49489393069E+02  0.51323200741E+02  0.00000000000E+00 0. -1.
         -4    1    3    3    0  502  0.14200676463E+02 -0.33770251379E+03 -0.37278080691E+03  0.50319993743E+03  0.00000000000E+00 0.  1.
         11    1    5    5    0    0 -0.59729837279E+02  0.10418452480E+03 -0.46992381832E+03  0.48502625052E+03  0.00000000000E+00 0. -1.
        -11    1    5    5    0    0 -0.22619707561E+03  0.31563384524E+03 -0.97671018551E+03  0.10510721325E+04  0.00000000000E+00 0.  1.
          2    1    6    6  503    0  0.37863334144E+02  0.18671660104E+02 -0.41366377076E+01  0.42419037413E+02  0.00000000000E+00 0. -1.
         -2    1    6    6    0  503  0.22965408977E+03 -0.87858602825E+02 -0.14235849291E+03  0.28412334565E+03  0.00000000000E+00 0.  1.
<mgrwt>
<rscale>  0 0.13344837E+04</rscale>
<asrwt>0</asrwt>
<pdfrwt beam="1">  1        1 0.34096640E+00 0.13344837E+04</pdfrwt>
<pdfrwt beam="2">  1       -2 0.30904967E-01 0.13344837E+04</pdfrwt>
<totfact> 0.17760601E+01</totfact>
</mgrwt>
</event>
<event>
12    4  0.4486176E-008  0.1135916E+04  0.7818608E-02  0.9170876E-01
          1   -1    0    0  501    0  0.00000000000E+00  0.00000000000E+00  0.11716387860E+04  0.11716387860E+04  0.00000000000E+00 0. -1.
         -2   -1    0    0    0  501 -0.00000000000E+00 -0.00000000000E+00 -0.27532061709E+03  0.27532061709E+03  0.00000000000E+00 0.  1.
        -24    2    1    2    0    0 -0.15318546556E+03 -0.41918644745E+02  0.25104101532E+02  0.17944736911E+03  0.79675483871E+02 0.  0.
        254    2    1    2    0    0  0.15318546556E+03  0.41918644745E+02  0.87121406742E+03  0.12675120340E+04  0.90683507073E+03 0.  0.
         23    2    4    4    0    0  0.51197224588E+03 -0.21970776013E+02  0.64743980026E+03  0.83083029051E+03  0.92208357054E+02 0.  0.
         23    2    4    4    0    0 -0.35878678032E+03  0.63889420758E+02  0.22377426716E+03  0.43668174352E+03  0.88352762639E+02 0.  0.
          1    1    3    3  502    0 -0.13630507135E+03 -0.57784147541E+02  0.38118402924E+02  0.15287607015E+03  0.00000000000E+00 0. -1.
         -2    1    3    3    0  502 -0.16880394211E+02  0.15865502796E+02 -0.13014301392E+02  0.26571298960E+02  0.00000000000E+00 0.  1.
         11    1    5    5    0    0  0.87494951492E+02 -0.37368969452E+02  0.10154411778E+03  0.13915104840E+03  0.00000000000E+00 0. -1.
        -11    1    5    5    0    0  0.42447729439E+03  0.15398193439E+02  0.54589568248E+03  0.69167924211E+03  0.00000000000E+00 0.  1.
          1    1    6    6  503    0 -0.18502512423E+03  0.61190987256E+02  0.15794397419E+03  0.25084842535E+03  0.00000000000E+00 0. -1.
         -1    1    6    6    0  503 -0.17376165609E+03  0.26984335024E+01  0.65830292968E+02  0.18583331817E+03  0.00000000000E+00 0.  1.
<mgrwt>
<rscale>  0 0.11359160E+04</rscale>
<asrwt>0</asrwt>
<pdfrwt beam="1">  1        1 0.18025212E+00 0.11359160E+04</pdfrwt>
<pdfrwt beam="2">  1       -2 0.42357019E-01 0.11359160E+04</pdfrwt>
<totfact> 0.51622962E+01</totfact>
</mgrwt>
</event>
<event>
12    4  0.4486176E-008  0.1934831E+04  0.7818608E-02  0.8637711E-01
         -2   -1    0    0    0  501 -0.00000000000E+00  0.00000000000E+00  0.58400463520E+03  0.58400463520E+03  0.00000000000E+00 0.  1.
          1   -1    0    0  501    0  0.00000000000E+00 -0.00000000000E+00 -0.16025429818E+04  0.16025429818E+04  0.00000000000E+00 0. -1.
        -24    2    1    2    0    0 -0.41679008577E+02  0.74824608479E+03 -0.31814472085E+03  0.81804755514E+03  0.79852338169E+02 0.  0.
        254    2    1    2    0    0  0.41679008577E+02 -0.74824608479E+03 -0.70039362576E+03  0.13685000619E+04  0.90588732478E+03 0.  0.
         23    2    4    4    0    0 -0.24668499437E+03 -0.74269869905E+02 -0.54918501680E+03  0.61341346363E+03  0.91117477202E+02 0.  0.
         23    2    4    4    0    0  0.28836400295E+03 -0.67397621488E+03 -0.15120860895E+03  0.75508659825E+03  0.99468542824E+02 0.  0.
          3    1    3    3  502    0  0.74197116220E-01  0.58802352602E+03 -0.25218139259E+03  0.63981804244E+03  0.00000000000E+00 0. -1.
         -4    1    3    3    0  502 -0.41753205693E+02  0.16022255876E+03 -0.65963328257E+02  0.17822951270E+03  0.00000000000E+00 0.  1.
         11    1    5    5    0    0 -0.33455201976E+02 -0.37998527819E+02 -0.16422590436E+03  0.17185251328E+03  0.00000000000E+00 0. -1.
        -11    1    5    5    0    0 -0.21322979240E+03 -0.36271342085E+02 -0.38495911244E+03  0.44156095035E+03  0.00000000000E+00 0.  1.
          3    1    6    6  503    0  0.57046775432E+02 -0.17034182786E+03  0.35273635921E+01  0.17967502665E+03  0.00000000000E+00 0. -1.
         -3    1    6    6    0  503  0.23131722752E+03 -0.50363438702E+03 -0.15473597255E+03  0.57541157160E+03  0.00000000000E+00 0.  1.
<mgrwt>
<rscale>  0 0.19348308E+04</rscale>
<asrwt>0</asrwt>
<pdfrwt beam="1">  1        1 0.24654507E+00 0.19348308E+04</pdfrwt>
<pdfrwt beam="2">  1       -2 0.89846867E-01 0.19348308E+04</pdfrwt>
<totfact> 0.48283304E+00</totfact>
</mgrwt>
</event>
<event>
12    4  0.5671550E-008  0.2323016E+04  0.7818608E-02  0.8468901E-01
          1   -1    0    0  501    0  0.00000000000E+00  0.00000000000E+00  0.15858658446E+04  0.15858658446E+04  0.00000000000E+00 0. -1.
         -2   -1    0    0    0  501 -0.00000000000E+00 -0.00000000000E+00 -0.85070269723E+03  0.85070269723E+03  0.00000000000E+00 0.  1.
        -24    2    1    2    0    0 -0.51646223138E+03  0.37083306469E+03  0.11048932230E+04  0.12772866474E+04  0.80135804142E+02 0.  0.
        254    2    1    2    0    0  0.51646223138E+03 -0.37083306469E+03 -0.36973007561E+03  0.11592818944E+04  0.89609362438E+03 0.  0.
         23    2    4    4    0    0 -0.93585165832E+02 -0.13150333769E+03 -0.45608308040E+03  0.49199305041E+03  0.89409587504E+02 0.  0.
         23    2    4    4    0    0  0.61004739721E+03 -0.23932972701E+03  0.86353004794E+02  0.66728884403E+03  0.91547882869E+02 0.  0.
          3    1    3    3  502    0 -0.42857129125E+03  0.27673631740E+03  0.84050492002E+03  0.98321150402E+03  0.00000000000E+00 0. -1.
         -4    1    3    3    0  502 -0.87890940125E+02  0.94096747289E+02  0.26438830300E+03  0.29407514341E+03  0.00000000000E+00 0.  1.
         11    1    5    5    0    0 -0.64239823568E+02 -0.25569117475E+02 -0.23700004653E+03  0.24687964023E+03  0.00000000000E+00 0. -1.
        -11    1    5    5    0    0 -0.29345342264E+02 -0.10593422021E+03 -0.21908303387E+03  0.24511341019E+03  0.00000000000E+00 0.  1.
          2    1    6    6  503    0  0.20779843090E+03 -0.11036969816E+03 -0.39720426847E+01  0.23532410688E+03  0.00000000000E+00 0. -1.
         -2    1    6    6    0  503  0.40224896631E+03 -0.12896002885E+03  0.90325047479E+02  0.43196473715E+03  0.00000000000E+00 0.  1.
<mgrwt>
<rscale>  0 0.23230156E+04</rscale>
<asrwt>0</asrwt>
<pdfrwt beam="1">  1        1 0.24397936E+00 0.23230156E+04</pdfrwt>
<pdfrwt beam="2">  1       -2 0.13087734E+00 0.23230156E+04</pdfrwt>
<totfact> 0.19300091E+00</totfact>
</mgrwt>
</event>
<event>
12    4  0.4486176E-008  0.1587463E+04  0.7818608E-02  0.8828287E-01
          1   -1    0    0  501    0  0.00000000000E+00  0.00000000000E+00  0.19310864578E+04  0.19310864578E+04  0.00000000000E+00 0. -1.
         -2   -1    0    0    0  501 -0.00000000000E+00 -0.00000000000E+00 -0.32624615123E+03  0.32624615123E+03  0.00000000000E+00 0.  1.
        -24    2    1    2    0    0 -0.35037276072E+03  0.27172058445E+03  0.96372388787E+03  0.10634784338E+04  0.75029991460E+02 0.  0.
        254    2    1    2    0    0  0.35037276072E+03 -0.27172058445E+03  0.64111641873E+03  0.11938541753E+04  0.90424796487E+03 0.  0.
         23    2    4    4    0    0 -0.23776848915E+03 -0.27929772304E+03  0.10307016950E+03  0.39161190639E+03  0.90528188171E+02 0.  0.
         23    2    4    4    0    0  0.58814124987E+03  0.75771385930E+01  0.53804624922E+03  0.80224226888E+03  0.90173992038E+02 0.  0.
          1    1    3    3  502    0 -0.20379843740E+03  0.19097543382E+03  0.66092375919E+03  0.71751350849E+03  0.00000000000E+00 0. -1.
         -2    1    3    3    0  502 -0.14657432332E+03  0.80745150630E+02  0.30280012868E+03  0.34596492530E+03  0.00000000000E+00 0.  1.
         11    1    5    5    0    0 -0.18779130674E+03 -0.19206939026E+03  0.36619133492E+02  0.27110364530E+03  0.00000000000E+00 0. -1.
        -11    1    5    5    0    0 -0.49977182417E+02 -0.87228332788E+02  0.66451036010E+02  0.12050826109E+03  0.00000000000E+00 0.  1.
          2    1    6    6  503    0  0.24886362440E+03  0.41337190129E+02  0.26018540630E+03  0.36240628097E+03  0.00000000000E+00 0. -1.
         -2    1    6    6    0  503  0.33927762547E+03 -0.33760051536E+02  0.27786084292E+03  0.43983598790E+03  0.00000000000E+00 0.  1.
<mgrwt>
<rscale>  0 0.15874628E+04</rscale>
<asrwt>0</asrwt>
<pdfrwt beam="1">  1        1 0.29709022E+00 0.15874628E+04</pdfrwt>
<pdfrwt beam="2">  1       -2 0.50191717E-01 0.15874628E+04</pdfrwt>
<totfact> 0.10511328E+01</totfact>
</mgrwt>
</event>
<event>
12    4  0.4486176E-008  0.1737743E+04  0.7818608E-02  0.8740126E-01
          1   -1    0    0  501    0  0.00000000000E+00  0.00000000000E+00  0.13093559137E+04  0.13093559137E+04  0.00000000000E+00 0. -1.
         -2   -1    0    0    0  501 -0.00000000000E+00 -0.00000000000E+00 -0.57657168824E+03  0.57657168824E+03  0.00000000000E+00 0.  1.
        -24    2    1    2    0    0 -0.80936157917E+02  0.47683981191E+03 -0.17591713708E+03  0.52075052608E+03  0.79419162758E+02 0.  0.
        254    2    1    2    0    0  0.80936157917E+02 -0.47683981191E+03  0.90870136248E+03  0.13651770758E+04  0.89668467940E+03 0.  0.
         23    2    4    4    0    0  0.58733515230E+02 -0.41974041215E+03  0.10785581858E+04  0.11623728342E+04  0.90505282314E+02 0.  0.
         23    2    4    4    0    0  0.22202642687E+02 -0.57099399762E+02 -0.16985682336E+03  0.20280424158E+03  0.92330499638E+02 0.  0.
          3    1    3    3  502    0 -0.53154841731E+01 -0.14447714280E+01  0.14512070151E+00  0.55102446853E+01  0.00000000000E+00 0. -1.
         -4    1    3    3    0  502 -0.75620673744E+02  0.47828458334E+03 -0.17606225778E+03  0.51524028139E+03  0.00000000000E+00 0.  1.
         11    1    5    5    0    0 -0.29733283220E+01 -0.59617160210E+02  0.85861476349E+02  0.10457169595E+03  0.00000000000E+00 0.  1.
        -11    1    5    5    0    0  0.61706843552E+02 -0.36012325194E+03  0.99269670950E+03  0.10578011383E+04  0.00000000000E+00 0. -1.
          3    1    6    6  503    0  0.28748683008E+02 -0.47492000603E+02 -0.17938120606E+03  0.18777538173E+03  0.00000000000E+00 0. -1.
         -3    1    6    6    0  503 -0.65460403207E+01 -0.96073991598E+01  0.95243826992E+01  0.15028859847E+02  0.00000000000E+00 0.  1.
<mgrwt>
<rscale>  0 0.17377428E+04</rscale>
<asrwt>0</asrwt>
<pdfrwt beam="1">  1        1 0.20143937E+00 0.17377428E+04</pdfrwt>
<pdfrwt beam="2">  1       -2 0.88703337E-01 0.17377428E+04</pdfrwt>
<totfact> 0.81004641E+00</totfact>
</mgrwt>
</event>
<event>
12    4  0.4486176E-008  0.2990958E+04  0.7818608E-02  0.8246318E-01
          1   -1    0    0  501    0  0.00000000000E+00  0.00000000000E+00  0.21073342855E+04  0.21073342855E+04  0.00000000000E+00 0. -1.
         -2   -1    0    0    0  501 -0.00000000000E+00 -0.00000000000E+00 -0.10612730202E+04  0.10612730202E+04  0.00000000000E+00 0.  1.
        -24    2    1    2    0    0  0.13488135418E+03  0.93803963785E+03  0.15044492117E+04  0.17798368695E+04  0.79627316174E+02 0.  0.
        254    2    1    2    0    0 -0.13488135418E+03 -0.93803963785E+03 -0.45838794636E+03  0.13887704362E+04  0.90578831591E+03 0.  0.
         23    2    4    4    0    0  0.17075516023E+03  0.67122239394E+02  0.60651406959E+02  0.21359909564E+03  0.91012420705E+02 0.  0.
         23    2    4    4    0    0 -0.30563651441E+03 -0.10051618772E+04 -0.51903935332E+03  0.11751713406E+04  0.88666515673E+02 0.  0.
          3    1    3    3  502    0  0.93715387289E+02  0.75242492916E+03  0.12536953815E+04  0.14651545849E+04  0.00000000000E+00 0. -1.
         -4    1    3    3    0  502  0.41165966886E+02  0.18561470870E+03  0.25075383014E+03  0.31468228460E+03  0.00000000000E+00 0.  1.
         11    1    5    5    0    0  0.76310967207E+02  0.60143679023E+02 -0.66940023532E+01  0.97393200532E+02  0.00000000000E+00 0.  1.
        -11    1    5    5    0    0  0.94444193027E+02  0.69785603717E+01  0.67345409312E+02  0.11620589510E+03  0.00000000000E+00 0. -1.
          1    1    6    6  503    0 -0.13392706938E+03 -0.47159910988E+03 -0.29054189436E+03  0.56987434820E+03  0.00000000000E+00 0. -1.
         -1    1    6    6    0  503 -0.17170944503E+03 -0.53356276737E+03 -0.22849745896E+03  0.60529699238E+03  0.00000000000E+00 0.  1.
<mgrwt>
<rscale>  0 0.29909577E+04</rscale>
<asrwt>0</asrwt>
<pdfrwt beam="1">  1        1 0.32420527E+00 0.29909577E+04</pdfrwt>
<pdfrwt beam="2">  1       -2 0.16327277E+00 0.29909577E+04</pdfrwt>
<totfact> 0.44962835E-01</totfact>
</mgrwt>
</event>
<event>
12    4  0.4486176E-008  0.1159957E+04  0.7818608E-02  0.9148646E-01
         -2   -1    0    0    0  501 -0.00000000000E+00  0.00000000000E+00  0.26083958723E+03  0.26083958723E+03  0.00000000000E+00 0.  1.
          1   -1    0    0  501    0  0.00000000000E+00 -0.00000000000E+00 -0.12895867983E+04  0.12895867983E+04  0.00000000000E+00 0. -1.
        -24    2    1    2    0    0  0.37176382141E+02 -0.86290984705E+02  0.65549537803E+02  0.13985651295E+03  0.80217734185E+02 0.  0.
        254    2    1    2    0    0 -0.37176382141E+02  0.86290984705E+02 -0.10942967489E+04  0.14105698726E+04  0.88509534706E+03 0.  0.
         23    2    4    4    0    0 -0.76955182188E+02 -0.37218369530E+03 -0.31907830457E+03  0.50412083242E+03  0.88792151229E+02 0.  0.
         23    2    4    4    0    0  0.39778800047E+02  0.45847468000E+03 -0.77521844432E+03  0.90644904017E+03  0.94365464405E+02 0.  0.
          3    1    3    3  502    0  0.23028036886E+01  0.10230645669E+02 -0.83377987931E+01  0.13397309594E+02  0.00000000000E+00 0. -1.
         -4    1    3    3    0  502  0.34873578453E+02 -0.96521630374E+02  0.73887336596E+02  0.12645920336E+03  0.00000000000E+00 0.  1.
         11    1    5    5    0    0 -0.93721461265E+02 -0.32067266693E+03 -0.25546462886E+03  0.42056729332E+03  0.00000000000E+00 0. -1.
        -11    1    5    5    0    0  0.16766279077E+02 -0.51511028373E+02 -0.63613675708E+02  0.83553539094E+02  0.00000000000E+00 0.  1.
          2    1    6    6  503    0  0.70714491390E+02  0.33614112478E+03 -0.57471630059E+03  0.66954478657E+03  0.00000000000E+00 0. -1.
         -2    1    6    6    0  503 -0.30935691343E+02  0.12233355522E+03 -0.20050214372E+03  0.23690425359E+03  0.00000000000E+00 0.  1.
<mgrwt>
<rscale>  0 0.11599574E+04</rscale>
<asrwt>0</asrwt>
<pdfrwt beam="1">  1        1 0.19839797E+00 0.11599574E+04</pdfrwt>
<pdfrwt beam="2">  1       -2 0.40129168E-01 0.11599574E+04</pdfrwt>
<totfact> 0.47069121E+01</totfact>
</mgrwt>
</event>
<event>
12    4  0.4486176E-008  0.3082388E+04  0.7818608E-02  0.8220588E-01
          1   -1    0    0  501    0  0.00000000000E+00  0.00000000000E+00  0.18484179706E+04  0.18484179706E+04  0.00000000000E+00 0. -1.
         -2   -1    0    0    0  501 -0.00000000000E+00 -0.00000000000E+00 -0.12850335224E+04  0.12850335224E+04  0.00000000000E+00 0.  1.
        -24    2    1    2    0    0  0.17235093273E+03 -0.28298509014E+03 -0.11347741153E+04  0.11843377304E+04  0.71820342852E+02 0.  0.
        254    2    1    2    0    0 -0.17235093273E+03  0.28298509014E+03  0.16981585634E+04  0.19491137626E+04  0.89750573696E+03 0.  0.
         23    2    4    4    0    0 -0.12005013971E+03  0.10769343964E+03 -0.47741948961E+02  0.19129068997E+03  0.91120367601E+02 0.  0.
         23    2    4    4    0    0 -0.52300793022E+02  0.17529165050E+03  0.17459005124E+04  0.17578230727E+04  0.91163698581E+02 0.  0.
          3    1    3    3  502    0  0.70014418495E+02 -0.10573604892E+03 -0.31906021602E+03  0.34333883014E+03  0.00000000000E+00 0. -1.
         -4    1    3    3    0  502  0.10233651424E+03 -0.17724904123E+03 -0.81571389923E+03  0.84099890022E+03  0.00000000000E+00 0.  1.
         11    1    5    5    0    0 -0.12370017058E+03  0.67642545642E+02 -0.19917259699E+02  0.14238659844E+03  0.00000000000E+00 0.  1.
        -11    1    5    5    0    0  0.36500308680E+01  0.40050893999E+02 -0.27824689262E+02  0.48904091526E+02  0.00000000000E+00 0. -1.
          3    1    6    6  503    0 -0.55610941102E+02  0.18478737327E+03  0.16039503424E+04  0.16155171466E+04  0.00000000000E+00 0. -1.
         -3    1    6    6    0  503  0.33101480797E+01 -0.94957227675E+01  0.14195017002E+03  0.14230592608E+03  0.00000000000E+00 0.  1.
<mgrwt>
<rscale>  0 0.30823881E+04</rscale>
<asrwt>0</asrwt>
<pdfrwt beam="1">  1        1 0.28437200E+00 0.30823881E+04</pdfrwt>
<pdfrwt beam="2">  1       -2 0.19769746E+00 0.30823881E+04</pdfrwt>
<totfact> 0.38638502E-01</totfact>
</mgrwt>
</event>
<event>
12    4  0.4486176E-008  0.1715366E+04  0.7818608E-02  0.8752649E-01
         -2   -1    0    0    0  501 -0.00000000000E+00  0.00000000000E+00  0.20545520608E+04  0.20545520608E+04  0.00000000000E+00 0.  1.
          1   -1    0    0  501    0  0.00000000000E+00 -0.00000000000E+00 -0.35804418453E+03  0.35804418453E+03  0.00000000000E+00 0. -1.
        -24    2    1    2    0    0 -0.41895417948E+03  0.43168768364E+03  0.87705477294E+03  0.10664811404E+04  0.79247002440E+02 0.  0.
        254    2    1    2    0    0  0.41895417948E+03 -0.43168768364E+03  0.81945310336E+03  0.13461151050E+04  0.88240899049E+03 0.  0.
         23    2    4    4    0    0  0.40104795156E+03  0.16909713262E+03  0.46071283924E+03  0.64010942973E+03  0.89724367274E+02 0.  0.
         23    2    4    4    0    0  0.17906227919E+02 -0.60078481625E+03  0.35874026412E+03  0.70600567523E+03  0.92121701676E+02 0.  0.
          3    1    3    3  502    0 -0.33653540796E+03  0.31570533003E+03  0.62272478367E+03  0.77505618662E+03  0.00000000000E+00 0. -1.
         -4    1    3    3    0  502 -0.82418771520E+02  0.11598235361E+03  0.25432998927E+03  0.29142495378E+03  0.00000000000E+00 0.  1.
         11    1    5    5    0    0  0.17679970474E+03  0.68137760100E+02  0.13815619689E+03  0.23449525515E+03  0.00000000000E+00 0.  1.
        -11    1    5    5    0    0  0.22424824682E+03  0.10095937252E+03  0.32255664235E+03  0.40561417458E+03  0.00000000000E+00 0. -1.
          2    1    6    6  503    0  0.39447676169E+02 -0.56438772820E+03  0.33267139758E+03  0.65632300407E+03  0.00000000000E+00 0. -1.
         -2    1    6    6    0  503 -0.21541448250E+02 -0.36397088050E+02  0.26068866542E+02  0.49682671164E+02  0.00000000000E+00 0.  1.
<mgrwt>
<rscale>  0 0.17153663E+04</rscale>
<asrwt>0</asrwt>
<pdfrwt beam="1">  1        1 0.55083722E-01 0.17153663E+04</pdfrwt>
<pdfrwt beam="2">  1       -2 0.31608492E+00 0.17153663E+04</pdfrwt>
<totfact> 0.14660616E+00</totfact>
</mgrwt>
</event>
<event>
12    4  0.4486176E-008  0.1230168E+04  0.7818608E-02  0.9086853E-01
          1   -1    0    0  501    0  0.00000000000E+00  0.00000000000E+00  0.27348411156E+03  0.27348411156E+03  0.00000000000E+00 0. -1.
         -2   -1    0    0    0  501 -0.00000000000E+00 -0.00000000000E+00 -0.13833653604E+04  0.13833653604E+04  0.00000000000E+00 0.  1.
        -24    2    1    2    0    0  0.45150275034E+02  0.10978017432E+03 -0.55712445250E+03  0.57502461976E+03  0.78583864422E+02 0.  0.
        254    2    1    2    0    0 -0.45150275034E+02 -0.10978017432E+03 -0.55275679638E+03  0.10818248522E+04  0.92234196530E+03 0.  0.
         23    2    4    4    0    0 -0.95489534128E+02 -0.31240018910E+02  0.24142773823E+03  0.27676972511E+03  0.90663873955E+02 0.  0.
         23    2    4    4    0    0  0.50339259094E+02 -0.78540155414E+02 -0.79418453461E+03  0.80505512712E+03  0.93177710166E+02 0.  0.
          1    1    3    3  502    0  0.48600070690E+02  0.31884103022E+02 -0.15793736816E+03  0.16829371693E+03  0.00000000000E+00 0. -1.
         -2    1    3    3    0  502 -0.34497956559E+01  0.77896071302E+02 -0.39918708434E+03  0.40673090283E+03  0.00000000000E+00 0.  1.
         11    1    5    5    0    0 -0.28867098991E+01  0.43686108884E+01 -0.73006223238E+01  0.89842607626E+01  0.00000000000E+00 0.  1.
        -11    1    5    5    0    0 -0.92602824229E+02 -0.35608629798E+02  0.24872836056E+03  0.26778546435E+03  0.00000000000E+00 0. -1.
          3    1    6    6  503    0  0.42157114555E+02 -0.20015749943E+02 -0.60637551335E+03  0.60816865732E+03  0.00000000000E+00 0. -1.
         -3    1    6    6    0  503  0.81821445387E+01 -0.58524405471E+02 -0.18780902126E+03  0.19688646980E+03  0.00000000000E+00 0.  1.
<mgrwt>
<rscale>  0 0.12301682E+04</rscale>
<asrwt>0</asrwt>
<pdfrwt beam="1">  1        1 0.42074478E-01 0.12301682E+04</pdfrwt>
<pdfrwt beam="2">  1       -2 0.21282544E+00 0.12301682E+04</pdfrwt>
<totfact> 0.93603089E+00</totfact>
</mgrwt>
</event>
<event>
12    4  0.4486176E-008  0.1113538E+04  0.7818608E-02  0.9192096E-01
         -2   -1    0    0    0  501 -0.00000000000E+00  0.00000000000E+00  0.26795951629E+03  0.26795951629E+03  0.00000000000E+00 0.  1.
          1   -1    0    0  501    0  0.00000000000E+00 -0.00000000000E+00 -0.11568609281E+04  0.11568609281E+04  0.00000000000E+00 0. -1.
        -24    2    1    2    0    0 -0.14027160516E+03  0.96919761355E+02 -0.20990981815E+03  0.28230370726E+03  0.81016591028E+02 0.  0.
        254    2    1    2    0    0  0.14027160516E+03 -0.96919761355E+02 -0.67899159369E+03  0.11425167372E+04  0.90290937919E+03 0.  0.
         23    2    4    4    0    0  0.35484989046E+03  0.12816656097E+03 -0.71817966514E+03  0.81631530147E+03  0.90793875820E+02 0.  0.
         23    2    4    4    0    0 -0.21457828531E+03 -0.22508632232E+03  0.39188071450E+02  0.32620143569E+03  0.90354738000E+02 0.  0.
          1    1    3    3  502    0 -0.57112544828E+02  0.32873554644E+01 -0.10221699396E+03  0.11713651582E+03  0.00000000000E+00 0. -1.
         -2    1    3    3    0  502 -0.83159060330E+02  0.93632405891E+02 -0.10769282419E+03  0.16516719144E+03  0.00000000000E+00 0.  1.
         11    1    5    5    0    0  0.14506862366E+03  0.12097102504E+02 -0.31948223880E+03  0.35108424397E+03  0.00000000000E+00 0. -1.
        -11    1    5    5    0    0  0.20978126680E+03  0.11606945847E+03 -0.39869742634E+03  0.46523105750E+03  0.00000000000E+00 0.  1.
          3    1    6    6  503    0 -0.83918182367E+02 -0.30260153206E+02  0.13319971775E+02  0.90196229699E+02  0.00000000000E+00 0. -1.
         -3    1    6    6    0  503 -0.13066010294E+03 -0.19482616912E+03  0.25868099675E+02  0.23600520599E+03  0.00000000000E+00 0.  1.
<mgrwt>
<rscale>  0 0.11135383E+04</rscale>
<asrwt>0</asrwt>
<pdfrwt beam="1">  1        1 0.17797861E+00 0.11135383E+04</pdfrwt>
<pdfrwt beam="2">  1       -2 0.41224541E-01 0.11135383E+04</pdfrwt>
<totfact> 0.55929612E+01</totfact>
</mgrwt>
</event>
<event>
12    4  0.4486176E-008  0.2032402E+04  0.7818608E-02  0.8591620E-01
          1   -1    0    0  501    0  0.00000000000E+00  0.00000000000E+00  0.90097147278E+03  0.90097147278E+03  0.00000000000E+00 0. -1.
         -2   -1    0    0    0  501 -0.00000000000E+00 -0.00000000000E+00 -0.11461672305E+04  0.11461672305E+04  0.00000000000E+00 0.  1.
        -24    2    1    2    0    0  0.71276289822E+02  0.73190264550E+03 -0.47315872522E+03  0.87845975672E+03  0.83967689869E+02 0.  0.
        254    2    1    2    0    0 -0.71276289822E+02 -0.73190264550E+03  0.22796296749E+03  0.11686789466E+04  0.87925057501E+03 0.  0.
         23    2    4    4    0    0  0.31158239215E+03 -0.48053270466E+03 -0.11225805286E+03  0.59089418938E+03  0.92513811232E+02 0.  0.
         23    2    4    4    0    0 -0.38285868197E+03 -0.25136994083E+03  0.34022102035E+03  0.57778475719E+03  0.91199043029E+02 0.  0.
          1    1    3    3  502    0  0.29134985217E+01  0.13058419996E+02  0.27349312942E+01  0.13656158157E+02  0.00000000000E+00 0. -1.
         -2    1    3    3    0  502  0.68362791300E+02  0.71884422550E+03 -0.47589365652E+03  0.86480359856E+03  0.00000000000E+00 0.  1.
         11    1    5    5    0    0  0.30692310133E+03 -0.45351359752E+03 -0.12332886303E+03  0.56132555770E+03  0.00000000000E+00 0.  1.
        -11    1    5    5    0    0  0.46592908138E+01 -0.27019107142E+02  0.11070810179E+02  0.29568631684E+02  0.00000000000E+00 0. -1.
          4    1    6    6  503    0 -0.31700595898E+03 -0.20556525095E+03  0.31983276158E+03  0.49501802574E+03  0.00000000000E+00 0. -1.
         -4    1    6    6    0  503 -0.65852722991E+02 -0.45804689882E+02  0.20388258764E+02  0.82766731457E+02  0.00000000000E+00 0.  1.
<mgrwt>
<rscale>  0 0.20324015E+04</rscale>
<asrwt>0</asrwt>
<pdfrwt beam="1">  1        1 0.13861100E+00 0.20324015E+04</pdfrwt>
<pdfrwt beam="2">  1       -2 0.17633342E+00 0.20324015E+04</pdfrwt>
<totfact> 0.28309154E+00</totfact>
</mgrwt>
</event>
<event>
12    4  0.4486176E-008  0.1590614E+04  0.7818608E-02  0.8826335E-01
          1   -1    0    0  501    0  0.00000000000E+00  0.00000000000E+00  0.20252892331E+04  0.20252892331E+04  0.00000000000E+00 0. -1.
         -2   -1    0    0    0  501 -0.00000000000E+00 -0.00000000000E+00 -0.31230741451E+03  0.31230741451E+03  0.00000000000E+00 0.  1.
        -24    2    1    2    0    0  0.49209467840E+03 -0.38976629702E+02  0.27372280840E+03  0.57086426684E+03  0.85355053397E+02 0.  0.
        254    2    1    2    0    0 -0.49209467840E+03  0.38976629702E+02  0.14392590102E+04  0.17667323807E+04  0.89788666135E+03 0.  0.
         23    2    4    4    0    0 -0.62455934560E+03  0.31052066159E+03  0.90709342481E+03  0.11480040777E+04  0.92722292421E+02 0.  0.
         23    2    4    4    0    0  0.13246466720E+03 -0.27154403189E+03  0.53216558535E+03  0.61872830308E+03  0.91331558040E+02 0.  0.
          1    1    3    3  502    0  0.12679650852E+02 -0.13211502975E+02  0.22472695216E+02  0.28988607881E+02  0.00000000000E+00 0. -1.
         -2    1    3    3    0  502  0.47941502755E+03 -0.25765126727E+02  0.25125011318E+03  0.54187565896E+03  0.00000000000E+00 0.  1.
         11    1    5    5    0    0 -0.10177707115E+03  0.61290124766E+02  0.21421162775E+03  0.24495238939E+03  0.00000000000E+00 0. -1.
        -11    1    5    5    0    0 -0.52278227445E+03  0.24923053683E+03  0.69288179706E+03  0.90305168826E+03  0.00000000000E+00 0.  1.
          2    1    6    6  503    0  0.12604595923E+03 -0.23341629433E+03  0.39196557863E+03  0.47329458599E+03  0.00000000000E+00 0. -1.
         -2    1    6    6    0  503  0.64187079691E+01 -0.38127737566E+02  0.14020000672E+03  0.14543371710E+03  0.00000000000E+00 0.  1.
<mgrwt>
<rscale>  0 0.15906135E+04</rscale>
<asrwt>0</asrwt>
<pdfrwt beam="1">  1        1 0.31158295E+00 0.15906135E+04</pdfrwt>
<pdfrwt beam="2">  1       -2 0.48047296E-01 0.15906135E+04</pdfrwt>
<totfact> 0.99155609E+00</totfact>
</mgrwt>
</event>
<event>
12    4  0.4486176E-008  0.1946336E+04  0.7818608E-02  0.8632130E-01
         -2   -1    0    0    0  501 -0.00000000000E+00  0.00000000000E+00  0.35278828150E+03  0.35278828150E+03  0.00000000000E+00 0.  1.
          1   -1    0    0  501    0  0.00000000000E+00 -0.00000000000E+00 -0.26844878811E+04  0.26844878811E+04  0.00000000000E+00 0. -1.
        -24    2    1    2    0    0  0.51941817220E+03 -0.38622257181E+03 -0.29045227009E+03  0.71386473166E+03  0.79228917167E+02 0.  0.
        254    2    1    2    0    0 -0.51941817220E+03  0.38622257181E+03 -0.20412473296E+04  0.23234114310E+04  0.90143602360E+03 0.  0.
         23    2    4    4    0    0 -0.18417028342E+03 -0.11609785772E+02  0.78756203795E+01  0.20730647634E+03  0.94130065942E+02 0.  0.
         23    2    4    4    0    0 -0.33524788877E+03  0.39783235759E+03 -0.20491229499E+04  0.21161049547E+04  0.91288462924E+02 0.  0.
          1    1    3    3  502    0  0.19315852843E+03 -0.14670868278E+03 -0.15129059384E+03  0.28587147198E+03  0.00000000000E+00 0. -1.
         -2    1    3    3    0  502  0.32625964377E+03 -0.23951388903E+03 -0.13916167625E+03  0.42799325968E+03  0.00000000000E+00 0.  1.
         11    1    5    5    0    0 -0.19182729500E+03 -0.18420203588E+02  0.17168401911E+02  0.19347291549E+03  0.00000000000E+00 0. -1.
        -11    1    5    5    0    0  0.76570115732E+01  0.68104178159E+01 -0.92927815319E+01  0.13833560845E+02  0.00000000000E+00 0.  1.
          1    1    6    6  503    0 -0.30858718419E+03  0.38715343763E+03 -0.18577565543E+04  0.19225954462E+04  0.00000000000E+00 0. -1.
         -1    1    6    6    0  503 -0.26660704585E+02  0.10678919952E+02 -0.19136639560E+03  0.19350950846E+03  0.00000000000E+00 0.  1.
<mgrwt>
<rscale>  0 0.19463359E+04</rscale>
<asrwt>0</asrwt>
<pdfrwt beam="1">  1        1 0.41299812E+00 0.19463359E+04</pdfrwt>
<pdfrwt beam="2">  1       -2 0.54275122E-01 0.19463359E+04</pdfrwt>
<totfact> 0.26360882E+00</totfact>
</mgrwt>
</event>
<event>
12    4  0.4486176E-008  0.1673587E+04  0.7818608E-02  0.8776574E-01
          1   -1    0    0  501    0  0.00000000000E+00  0.00000000000E+00  0.12903679942E+04  0.12903679942E+04  0.00000000000E+00 0. -1.
         -2   -1    0    0    0  501 -0.00000000000E+00 -0.00000000000E+00 -0.54265398360E+03  0.54265398360E+03  0.00000000000E+00 0.  1.
        -24    2    1    2    0    0 -0.43483913017E+03 -0.35244710559E+03  0.46288713463E+03  0.73048495613E+03  0.77715766535E+02 0.  0.
        254    2    1    2    0    0  0.43483913017E+03  0.35244710559E+03  0.28482687598E+03  0.11025370217E+04  0.90617741284E+03 0.  0.
         23    2    4    4    0    0 -0.10501682235E+03  0.33920692718E+03 -0.15854868775E+03  0.39835597558E+03  0.86370854256E+02 0.  0.
         23    2    4    4    0    0  0.53985595252E+03  0.13240178407E+02  0.44337556374E+03  0.70418104611E+03  0.87574558966E+02 0.  0.
          1    1    3    3  502    0 -0.41355858991E+03 -0.32151967743E+03  0.40796695521E+03  0.66395982319E+03  0.00000000000E+00 0. -1.
         -2    1    3    3    0  502 -0.21280540258E+02 -0.30927428160E+02  0.54920179414E+02  0.66525132944E+02  0.00000000000E+00 0.  1.
         11    1    5    5    0    0 -0.73999113004E+02  0.10545375476E+03 -0.68838001334E+02  0.14606516883E+03  0.00000000000E+00 0. -1.
        -11    1    5    5    0    0 -0.31017709348E+02  0.23375317242E+03 -0.89710686421E+02  0.25229080674E+03  0.00000000000E+00 0.  1.
          3    1    6    6  503    0  0.81447471915E+02 -0.24135980783E+02  0.47402846768E+02  0.97279320163E+02  0.00000000000E+00 0. -1.
         -3    1    6    6    0  503  0.45840848061E+03  0.37376159191E+02  0.39597271697E+03  0.60690172594E+03  0.00000000000E+00 0.  1.
<mgrwt>
<rscale>  0 0.16735870E+04</rscale>
<asrwt>0</asrwt>
<pdfrwt beam="1">  1        1 0.19851815E+00 0.16735870E+04</pdfrwt>
<pdfrwt beam="2">  1       -2 0.83485229E-01 0.16735870E+04</pdfrwt>
<totfact> 0.96515466E+00</totfact>
</mgrwt>
</event>
<event>
12    4  0.4486176E-008  0.1606101E+04  0.7818608E-02  0.8816809E-01
          1   -1    0    0  501    0  0.00000000000E+00  0.00000000000E+00  0.18413276127E+04  0.18413276127E+04  0.00000000000E+00 0. -1.
         -2   -1    0    0    0  501 -0.00000000000E+00 -0.00000000000E+00 -0.35023089258E+03  0.35023089258E+03  0.00000000000E+00 0.  1.
        -24    2    1    2    0    0  0.34019646126E+03 -0.35216929580E+03  0.17816003162E+03  0.52804130655E+03  0.85614130793E+02 0.  0.
        254    2    1    2    0    0 -0.34019646126E+03  0.35216929580E+03  0.13129366885E+04  0.16635171987E+04  0.89650983112E+03 0.  0.
         23    2    4    4    0    0 -0.40396827791E+03 -0.55664445194E+02  0.17974484837E+03  0.45409970682E+03  0.87232065203E+02 0.  0.
         23    2    4    4    0    0  0.63771816653E+02  0.40783374100E+03  0.11331918401E+04  0.12094174919E+04  0.90397556977E+02 0.  0.
          3    1    3    3  502    0  0.67630462135E+02 -0.31868327325E+02  0.43172083111E+02  0.86332487832E+02  0.00000000000E+00 0. -1.
         -4    1    3    3    0  502  0.27256599912E+03 -0.32030096848E+03  0.13498794851E+03  0.44170881871E+03  0.00000000000E+00 0.  1.
         11    1    5    5    0    0 -0.75757194465E+02 -0.18125258387E+02  0.73464682655E+02  0.10707351261E+03  0.00000000000E+00 0.  1.
        -11    1    5    5    0    0 -0.32821108345E+03 -0.37539186807E+02  0.10628016572E+03  0.34702619421E+03  0.00000000000E+00 0. -1.
          2    1    6    6  503    0  0.78538296070E+02  0.30315581785E+03  0.91182074343E+03  0.96409998548E+03  0.00000000000E+00 0. -1.
         -2    1    6    6    0  503 -0.14766479417E+02  0.10467792315E+03  0.22137109669E+03  0.24531750642E+03  0.00000000000E+00 0.  1.
<mgrwt>
<rscale>  0 0.16061006E+04</rscale>
<asrwt>0</asrwt>
<pdfrwt beam="1">  1        1 0.28328116E+00 0.16061006E+04</pdfrwt>
<pdfrwt beam="2">  1       -2 0.53881677E-01 0.16061006E+04</pdfrwt>
<totfact> 0.10433050E+01</totfact>
</mgrwt>
</event>
<event>
12    4  0.4486176E-008  0.1634485E+04  0.7818608E-02  0.8799638E-01
          1   -1    0    0  501    0  0.00000000000E+00  0.00000000000E+00  0.82653990996E+03  0.82653990996E+03  0.00000000000E+00 0. -1.
         -2   -1    0    0    0  501 -0.00000000000E+00 -0.00000000000E+00 -0.80805007927E+03  0.80805007927E+03  0.00000000000E+00 0.  1.
        -24    2    1    2    0    0  0.39452416117E+03 -0.33783441544E+03  0.23813809261E+03  0.57677584233E+03  0.78607984001E+02 0.  0.
        254    2    1    2    0    0 -0.39452416117E+03  0.33783441544E+03 -0.21964826191E+03  0.10578141469E+04  0.89495474992E+03 0.  0.
         23    2    4    4    0    0  0.17177075991E+03  0.26349466261E+02  0.20139764237E+03  0.28098520014E+03  0.90510684526E+02 0.  0.
         23    2    4    4    0    0 -0.56629492108E+03  0.31148494918E+03 -0.42104590428E+03  0.77682894675E+03  0.92036665490E+02 0.  0.
          1    1    3    3  502    0  0.31671086610E+03 -0.23273713926E+03  0.15933654033E+03  0.42409961304E+03  0.00000000000E+00 0. -1.
         -2    1    3    3    0  502  0.77813295068E+02 -0.10509727618E+03  0.78801552280E+02  0.15267622930E+03  0.00000000000E+00 0.  1.
         11    1    5    5    0    0  0.88888343642E+02 -0.17718340146E+02  0.51855106737E+02  0.10442236019E+03  0.00000000000E+00 0.  1.
        -11    1    5    5    0    0  0.82882416271E+02  0.44067806407E+02  0.14954253563E+03  0.17656283995E+03  0.00000000000E+00 0. -1.
          3    1    6    6  503    0 -0.18308380245E+03  0.13409470278E+03 -0.18680982217E+03  0.29393703015E+03  0.00000000000E+00 0. -1.
         -3    1    6    6    0  503 -0.38321111863E+03  0.17739024640E+03 -0.23423608211E+03  0.48289191660E+03  0.00000000000E+00 0.  1.
<mgrwt>
<rscale>  0 0.16344854E+04</rscale>
<asrwt>0</asrwt>
<pdfrwt beam="1">  1        1 0.12715999E+00 0.16344854E+04</pdfrwt>
<pdfrwt beam="2">  1       -2 0.12431540E+00 0.16344854E+04</pdfrwt>
<totfact> 0.85441445E+00</totfact>
</mgrwt>
</event>
<event>
12    4  0.4486176E-008  0.1246105E+04  0.7818608E-02  0.9073431E-01
         -2   -1    0    0    0  501 -0.00000000000E+00  0.00000000000E+00  0.11386602392E+03  0.11386602392E+03  0.00000000000E+00 0.  1.
          1   -1    0    0  501    0  0.00000000000E+00 -0.00000000000E+00 -0.34092226412E+04  0.34092226412E+04  0.00000000000E+00 0. -1.
        -24    2    1    2    0    0  0.16384421642E+02  0.31254730666E+02 -0.53706524149E+01  0.88922615630E+02  0.81443724138E+02 0.  0.
        254    2    1    2    0    0 -0.16384421642E+02 -0.31254730666E+02 -0.32899859649E+04  0.34341660495E+04  0.98399364786E+03 0.  0.
         23    2    4    4    0    0  0.34646357314E+03  0.30932273800E+03 -0.17580423409E+04  0.18206985876E+04  0.92265434777E+02 0.  0.
         23    2    4    4    0    0 -0.36284799478E+03 -0.34057746866E+03 -0.15319436239E+04  0.16134674619E+04  0.93671256815E+02 0.  0.
          3    1    3    3  502    0  0.36906580447E+02  0.41322813784E+02 -0.23066739512E+02  0.60014540664E+02  0.00000000000E+00 0. -1.
         -4    1    3    3    0  502 -0.20522158805E+02 -0.10068083118E+02  0.17696087097E+02  0.28908074966E+02  0.00000000000E+00 0.  1.
         11    1    5    5    0    0  0.22095015050E+02  0.51817251326E+02 -0.28655527419E+03  0.29203962470E+03  0.00000000000E+00 0. -1.
        -11    1    5    5    0    0  0.32436855809E+03  0.25750548667E+03 -0.14714870668E+04  0.15286589629E+04  0.00000000000E+00 0.  1.
          3    1    6    6  503    0 -0.17691463537E+03 -0.11365965093E+03 -0.55828164408E+03  0.59656994441E+03  0.00000000000E+00 0. -1.
         -3    1    6    6    0  503 -0.18593335941E+03 -0.22691781773E+03 -0.97366197986E+03  0.10168975175E+04  0.00000000000E+00 0.  1.
<mgrwt>
<rscale>  0 0.12461053E+04</rscale>
<asrwt>0</asrwt>
<pdfrwt beam="1">  1        1 0.52449575E+00 0.12461053E+04</pdfrwt>
<pdfrwt beam="2">  1       -2 0.17517851E-01 0.12461053E+04</pdfrwt>
<totfact> 0.69918879E+00</totfact>
</mgrwt>
</event>
<event>
12    4  0.4486176E-008  0.2506273E+04  0.7818608E-02  0.8400754E-01
          1   -1    0    0  501    0  0.00000000000E+00  0.00000000000E+00  0.24415771064E+04  0.24415771064E+04  0.00000000000E+00 0. -1.
         -2   -1    0    0    0  501 -0.00000000000E+00 -0.00000000000E+00 -0.64317061918E+03  0.64317061918E+03  0.00000000000E+00 0.  1.
        -24    2    1    2    0    0  0.85690176012E+03  0.54058826955E+03  0.12821671241E+04  0.16362338681E+04  0.82416221275E+02 0.  0.
        254    2    1    2    0    0 -0.85690176012E+03 -0.54058826955E+03  0.51623936312E+03  0.14485138574E+04  0.89731433256E+03 0.  0.
         23    2    4    4    0    0  0.14554191286E+03  0.60061301213E+02  0.51286584121E+02  0.18778139719E+03  0.88553549436E+02 0.  0.
         23    2    4    4    0    0 -0.10024436730E+04 -0.60064957076E+03  0.46495277900E+03  0.12607324602E+04  0.87132228249E+02 0.  0.
          1    1    3    3  502    0  0.60075652708E+03  0.41507855263E+03  0.88764845089E+03  0.11493991396E+04  0.00000000000E+00 0. -1.
         -2    1    3    3    0  502  0.25614523304E+03  0.12550971691E+03  0.39451867319E+03  0.48683472857E+03  0.00000000000E+00 0.  1.
         11    1    5    5    0    0  0.25712769879E+02  0.47160082701E+02  0.39521061696E+02  0.66686837178E+02  0.00000000000E+00 0. -1.
        -11    1    5    5    0    0  0.11982914298E+03  0.12901218512E+02  0.11765522425E+02  0.12109456001E+03  0.00000000000E+00 0.  1.
          3    1    6    6  503    0 -0.47827088169E+03 -0.33689850509E+03  0.22581381623E+03  0.62708493732E+03  0.00000000000E+00 0. -1.
         -3    1    6    6    0  503 -0.52417279129E+03 -0.26375106567E+03  0.23913896276E+03  0.63364752290E+03  0.00000000000E+00 0.  1.
<mgrwt>
<rscale>  0 0.25062727E+04</rscale>
<asrwt>0</asrwt>
<pdfrwt beam="1">  1        1 0.37562724E+00 0.25062727E+04</pdfrwt>
<pdfrwt beam="2">  1       -2 0.98949327E-01 0.25062727E+04</pdfrwt>
<totfact> 0.98288195E-01</totfact>
</mgrwt>
</event>
<event>
12    4  0.4486176E-008  0.2194696E+04  0.7818608E-02  0.8520639E-01
          1   -1    0    0  501    0  0.00000000000E+00  0.00000000000E+00  0.10051334745E+04  0.10051334745E+04  0.00000000000E+00 0. -1.
         -2   -1    0    0    0  501 -0.00000000000E+00 -0.00000000000E+00 -0.11980230469E+04  0.11980230469E+04  0.00000000000E+00 0.  1.
        -24    2    1    2    0    0  0.81586192722E+03 -0.40293948148E+03 -0.42847225843E+02  0.91439463388E+03  0.79314259035E+02 0.  0.
        254    2    1    2    0    0 -0.81586192722E+03  0.40293948148E+03 -0.15004234661E+03  0.12887618875E+04  0.90022418697E+03 0.  0.
         23    2    4    4    0    0 -0.95812937804E+03  0.31777825819E+03 -0.28636419458E+03  0.10538572358E+04  0.98059650428E+02 0.  0.
         23    2    4    4    0    0  0.14226745082E+03  0.85161223296E+02  0.13632184797E+03  0.23490465169E+03  0.95415342777E+02 0.  0.
          3    1    3    3  502    0  0.49058305181E+03 -0.22770434693E+03  0.11301878977E+02  0.54097017737E+03  0.00000000000E+00 0. -1.
         -4    1    3    3    0  502  0.32527887541E+03 -0.17523513456E+03 -0.54149104821E+02  0.37342445652E+03  0.00000000000E+00 0.  1.
         11    1    5    5    0    0 -0.84892733841E+03  0.29597538768E+03 -0.22524762528E+03  0.92683091700E+03  0.00000000000E+00 0.  1.
        -11    1    5    5    0    0 -0.10920203963E+03  0.21802870503E+02 -0.61116569294E+02  0.12702631879E+03  0.00000000000E+00 0. -1.
          3    1    6    6  503    0  0.19720296035E+02  0.63902681208E+02  0.45154940234E+02  0.80693316754E+02  0.00000000000E+00 0. -1.
         -3    1    6    6    0  503  0.12254715478E+03  0.21258542088E+02  0.91166907734E+02  0.15421133494E+03  0.00000000000E+00 0.  1.
<mgrwt>
<rscale>  0 0.21946964E+04</rscale>
<asrwt>0</asrwt>
<pdfrwt beam="1">  1        1 0.15463592E+00 0.21946964E+04</pdfrwt>
<pdfrwt beam="2">  1       -2 0.18431124E+00 0.21946964E+04</pdfrwt>
<totfact> 0.20304843E+00</totfact>
</mgrwt>
</event>
<event>
12    4  0.4486176E-008  0.2195013E+04  0.7818608E-02  0.8520507E-01
         -2   -1    0    0    0  501 -0.00000000000E+00  0.00000000000E+00  0.10360399477E+04  0.10360399477E+04  0.00000000000E+00 0.  1.
          1   -1    0    0  501    0  0.00000000000E+00 -0.00000000000E+00 -0.11626198945E+04  0.11626198945E+04  0.00000000000E+00 0. -1.
        -24    2    1    2    0    0 -0.24084239006E+03  0.35567176372E+03 -0.86051914529E+03  0.96509427358E+03  0.80039347365E+02 0.  0.
        254    2    1    2    0    0  0.24084239006E+03 -0.35567176372E+03  0.73393919857E+03  0.12335655686E+04  0.89359375814E+03 0.  0.
         23    2    4    4    0    0  0.26412391983E+03 -0.29354259313E+03 -0.78586675627E+02  0.41307108468E+03  0.92320942397E+02 0.  0.
         23    2    4    4    0    0 -0.23281529771E+02 -0.62129170589E+02  0.81252587419E+03  0.82049448396E+03  0.92794603848E+02 0.  0.
          1    1    3    3  502    0 -0.24649684668E+03  0.34922624730E+03 -0.83305406680E+03  0.93632192404E+03  0.00000000000E+00 0. -1.
         -2    1    3    3    0  502  0.56544566158E+01  0.64455164161E+01 -0.27465078490E+02  0.28772349538E+02  0.00000000000E+00 0.  1.
         11    1    5    5    0    0  0.13556881162E+03 -0.13156935425E+03 -0.82738466704E+02  0.20624027622E+03  0.00000000000E+00 0.  1.
        -11    1    5    5    0    0  0.12855510821E+03 -0.16197323888E+03  0.41517910765E+01  0.20683080846E+03  0.00000000000E+00 0. -1.
          4    1    6    6  503    0  0.28510808944E+01 -0.27387408080E+02  0.53004844683E+02  0.59730330181E+02  0.00000000000E+00 0. -1.
         -4    1    6    6    0  503 -0.26132610665E+02 -0.34741762509E+02  0.75952102951E+03  0.76076415378E+03  0.00000000000E+00 0.  1.
<mgrwt>
<rscale>  0 0.21950131E+04</rscale>
<asrwt>0</asrwt>
<pdfrwt beam="1">  1        1 0.17886460E+00 0.21950131E+04</pdfrwt>
<pdfrwt beam="2">  1       -2 0.15939076E+00 0.21950131E+04</pdfrwt>
<totfact> 0.23183450E+00</totfact>
</mgrwt>
</event>
<event>
12    4  0.4486176E-008  0.2556301E+04  0.7818608E-02  0.8383198E-01
         -2   -1    0    0    0  501 -0.00000000000E+00  0.00000000000E+00  0.93868753066E+03  0.93868753066E+03  0.00000000000E+00 0.  1.
          1   -1    0    0  501    0  0.00000000000E+00 -0.00000000000E+00 -0.17403759364E+04  0.17403759364E+04  0.00000000000E+00 0. -1.
        -24    2    1    2    0    0 -0.11052927199E+04 -0.15600919283E+03 -0.41548356842E+03  0.11934484027E+04  0.75376582959E+02 0.  0.
        254    2    1    2    0    0  0.11052927199E+04  0.15600919283E+03 -0.38620483729E+03  0.14856150644E+04  0.90104776687E+03 0.  0.
         23    2    4    4    0    0  0.35484682527E+03 -0.24721918309E+03 -0.44465370906E+03  0.62665952480E+03  0.89171997557E+02 0.  0.
         23    2    4    4    0    0  0.75044589465E+03  0.40322837592E+03  0.58448871772E+02  0.85895553956E+03  0.92877254486E+02 0.  0.
          3    1    3    3  502    0 -0.99175911585E+03 -0.16288519561E+03 -0.37406010313E+03  0.10723985694E+04  0.00000000000E+00 0. -1.
         -4    1    3    3    0  502 -0.11353360407E+03  0.68760027794E+01 -0.41423465289E+02  0.12104983330E+03  0.00000000000E+00 0.  1.
         11    1    5    5    0    0  0.69522486843E+02 -0.42307194543E+02 -0.39621688803E+02  0.90516037864E+02  0.00000000000E+00 0. -1.
        -11    1    5    5    0    0  0.28532433842E+03 -0.20491198854E+03 -0.40503202026E+03  0.53614348693E+03  0.00000000000E+00 0.  1.
          1    1    6    6  503    0  0.45263707950E+03  0.26901961816E+03  0.75114321805E+02  0.53187784503E+03  0.00000000000E+00 0.  1.
         -1    1    6    6    0  503  0.29780881514E+03  0.13420875776E+03 -0.16665450033E+02  0.32707769453E+03  0.00000000000E+00 0. -1.
<mgrwt>
<rscale>  0 0.25563014E+04</rscale>
<asrwt>0</asrwt>
<pdfrwt beam="1">  1        1 0.26775014E+00 0.25563014E+04</pdfrwt>
<pdfrwt beam="2">  1       -2 0.14441347E+00 0.25563014E+04</pdfrwt>
<totfact> 0.11506151E+00</totfact>
</mgrwt>
</event>
<event>
12    4  0.4486176E-008  0.1973625E+04  0.7818608E-02  0.8619052E-01
         -2   -1    0    0    0  501 -0.00000000000E+00  0.00000000000E+00  0.61691023752E+03  0.61691023752E+03  0.00000000000E+00 0.  1.
          1   -1    0    0  501    0  0.00000000000E+00 -0.00000000000E+00 -0.15785091331E+04  0.15785091331E+04  0.00000000000E+00 0. -1.
        -24    2    1    2    0    0 -0.65178187797E+03  0.41056993839E+02  0.82662144995E+02  0.66276328056E+03  0.76921015654E+02 0.  0.
        254    2    1    2    0    0  0.65178187797E+03 -0.41056993839E+02 -0.10442610406E+04  0.15326560900E+04  0.91216680290E+03 0.  0.
         23    2    4    4    0    0  0.75593008089E+03  0.12208871590E+03 -0.10690066912E+04  0.13180798629E+04  0.90682288245E+02 0.  0.
         23    2    4    4    0    0 -0.10414820292E+03 -0.16314570974E+03  0.24745650633E+02  0.21457622715E+03  0.89259393075E+02 0.  0.
          3    1    3    3  502    0 -0.52243680136E+03  0.34742564170E+01  0.55838465916E+02  0.52542384429E+03  0.00000000000E+00 0. -1.
         -4    1    3    3    0  502 -0.12934507661E+03  0.37582737422E+02  0.26823679079E+02  0.13733943627E+03  0.00000000000E+00 0.  1.
         11    1    5    5    0    0  0.13560969333E+01 -0.56087508366E+01 -0.83415933835E+01  0.10142941635E+02  0.00000000000E+00 0. -1.
        -11    1    5    5    0    0  0.75457398396E+03  0.12769746674E+03 -0.10606650978E+04  0.13079369213E+04  0.00000000000E+00 0.  1.
          2    1    6    6  503    0 -0.42865078191E+02 -0.59245092625E+01  0.14043771682E+02  0.45494420112E+02  0.00000000000E+00 0. -1.
         -2    1    6    6    0  503 -0.61283124734E+02 -0.15722120048E+03  0.10701878950E+02  0.16908180703E+03  0.00000000000E+00 0.  1.
<mgrwt>
<rscale>  0 0.19736245E+04</rscale>
<asrwt>0</asrwt>
<pdfrwt beam="1">  1        1 0.24284756E+00 0.19736245E+04</pdfrwt>
<pdfrwt beam="2">  1       -2 0.94909268E-01 0.19736245E+04</pdfrwt>
<totfact> 0.44012819E+00</totfact>
</mgrwt>
</event>
<event>
12    4  0.4486176E-008  0.1337472E+04  0.7818608E-02  0.9000366E-01
         -4   -1    0    0    0  501 -0.00000000000E+00  0.00000000000E+00  0.21936964157E+03  0.21936964157E+03  0.00000000000E+00 0.  1.
          3   -1    0    0  501    0  0.00000000000E+00 -0.00000000000E+00 -0.20386030666E+04  0.20386030666E+04  0.00000000000E+00 0. -1.
        -24    2    1    2    0    0  0.84573813131E+02  0.26668409594E+03 -0.87713940179E+03  0.92411230295E+03  0.79604531297E+02 0.  0.
        254    2    1    2    0    0 -0.84573813131E+02 -0.26668409594E+03 -0.94209402322E+03  0.13338604052E+04  0.90186988809E+03 0.  0.
         23    2    4    4    0    0  0.30614748314E+03  0.16067936529E+03 -0.37887410331E+03  0.52073681174E+03  0.89872693737E+02 0.  0.
         23    2    4    4    0    0 -0.39072129628E+03 -0.42736346122E+03 -0.56321991991E+03  0.81312359345E+03  0.93008820474E+02 0.  0.
          1    1    3    3  502    0  0.56932092175E+02  0.92922954888E+02 -0.24914488973E+03  0.27193586513E+03  0.00000000000E+00 0. -1.
         -2    1    3    3    0  502  0.27641720956E+02  0.17376114105E+03 -0.62799451206E+03  0.65217643782E+03  0.00000000000E+00 0.  1.
         11    1    5    5    0    0  0.30063282316E+03  0.14170058269E+03 -0.37408992415E+03  0.50040225903E+03  0.00000000000E+00 0. -1.
        -11    1    5    5    0    0  0.55146599827E+01  0.18978782600E+02 -0.47841791657E+01  0.20334552712E+02  0.00000000000E+00 0.  1.
          3    1    6    6  503    0 -0.24806957970E+03 -0.20780545051E+03 -0.33525973040E+03  0.46596213200E+03  0.00000000000E+00 0. -1.
         -3    1    6    6    0  503 -0.14265171658E+03 -0.21955801071E+03 -0.22796018951E+03  0.34716146144E+03  0.00000000000E+00 0.  1.
<mgrwt>
<rscale>  0 0.13374717E+04</rscale>
<asrwt>0</asrwt>
<pdfrwt beam="1">  1        3 0.31363124E+00 0.13374717E+04</pdfrwt>
<pdfrwt beam="2">  1       -4 0.33749176E-01 0.13374717E+04</pdfrwt>
<totfact> 0.62906913E-01</totfact>
</mgrwt>
</event>
<event>
12    4  0.4486176E-008  0.1376131E+04  0.7818608E-02  0.8971280E-01
         -2   -1    0    0    0  501 -0.00000000000E+00  0.00000000000E+00  0.38143482121E+03  0.38143482121E+03  0.00000000000E+00 0.  1.
          1   -1    0    0  501    0  0.00000000000E+00 -0.00000000000E+00 -0.12411925546E+04  0.12411925546E+04  0.00000000000E+00 0. -1.
        -24    2    1    2    0    0  0.33604170570E+03 -0.18681823855E+03 -0.35243721541E+03  0.52736379360E+03  0.77945479467E+02 0.  0.
        254    2    1    2    0    0 -0.33604170570E+03  0.18681823855E+03 -0.50732051801E+03  0.10952635822E+04  0.89129295091E+03 0.  0.
         23    2    4    4    0    0 -0.45494612194E+03  0.11017671779E+03 -0.69541341142E+03  0.84330123047E+03  0.91881823648E+02 0.  0.
         23    2    4    4    0    0  0.11890441624E+03  0.76641520766E+02  0.18809289341E+03  0.25196235176E+03  0.89966145014E+02 0.  0.
          3    1    3    3  502    0  0.13911648912E+02 -0.14552427422E+01  0.15902398868E+01  0.14077662086E+02  0.00000000000E+00 0. -1.
         -4    1    3    3    0  502  0.32213005679E+03 -0.18536299581E+03 -0.35402745530E+03  0.51328613151E+03  0.00000000000E+00 0.  1.
         11    1    5    5    0    0 -0.39392598407E+03  0.11354833397E+03 -0.64409946915E+03  0.76350182137E+03  0.00000000000E+00 0. -1.
        -11    1    5    5    0    0 -0.61020137872E+02 -0.33716161868E+01 -0.51313942269E+02  0.79799409100E+02  0.00000000000E+00 0.  1.
          4    1    6    6  503    0  0.82771966660E+02  0.84410872525E+02  0.17794333049E+03  0.21363572438E+03  0.00000000000E+00 0. -1.
         -4    1    6    6    0  503  0.36132449578E+02 -0.77693517594E+01  0.10149562922E+02  0.38326627386E+02  0.00000000000E+00 0.  1.
<mgrwt>
<rscale>  0 0.13761309E+04</rscale>
<asrwt>0</asrwt>
<pdfrwt beam="1">  1        1 0.19095270E+00 0.13761309E+04</pdfrwt>
<pdfrwt beam="2">  1       -2 0.58682281E-01 0.13761309E+04</pdfrwt>
<totfact> 0.23191553E+01</totfact>
</mgrwt>
</event>
<event>
12    4  0.4486176E-008  0.1815460E+04  0.7818608E-02  0.8698121E-01
         -2   -1    0    0    0  501 -0.00000000000E+00  0.00000000000E+00  0.34476669606E+03  0.34476669606E+03  0.00000000000E+00 0.  1.
          1   -1    0    0  501    0  0.00000000000E+00 -0.00000000000E+00 -0.23899462302E+04  0.23899462302E+04  0.00000000000E+00 0. -1.
        -24    2    1    2    0    0 -0.11902293628E+03 -0.14304986037E+03 -0.17702211736E+04  0.17817372649E+04  0.79214618494E+02 0.  0.
        254    2    1    2    0    0  0.11902293628E+03  0.14304986037E+03 -0.27495836054E+03  0.95297566135E+03  0.89326971804E+03 0.  0.
         23    2    4    4    0    0  0.47664117519E+03  0.28007406096E+02 -0.28954619793E+03  0.56606515531E+03  0.92852219333E+02 0.  0.
         23    2    4    4    0    0 -0.35761823891E+03  0.11504245428E+03  0.14587837392E+02  0.38691050604E+03  0.91440492119E+02 0.  0.
          1    1    3    3  502    0 -0.10100873264E+03 -0.11148319589E+03 -0.16283566916E+04  0.16352910390E+04  0.00000000000E+00 0. -1.
         -2    1    3    3    0  502 -0.18014203642E+02 -0.31566664484E+02 -0.14186448193E+03  0.14644622587E+03  0.00000000000E+00 0.  1.
         11    1    5    5    0    0  0.38454046126E+03 -0.14841123796E+02 -0.22955918260E+03  0.44809490470E+03  0.00000000000E+00 0. -1.
        -11    1    5    5    0    0  0.92100713926E+02  0.42848529892E+02 -0.59987015325E+02  0.11797025060E+03  0.00000000000E+00 0.  1.
          3    1    6    6  503    0 -0.11546598568E+03  0.82543231482E+02 -0.28630798249E+01  0.14196470033E+03  0.00000000000E+00 0. -1.
         -3    1    6    6    0  503 -0.24215225322E+03  0.32499222795E+02  0.17450917217E+02  0.24494580571E+03  0.00000000000E+00 0.  1.
<mgrwt>
<rscale>  0 0.18154601E+04</rscale>
<asrwt>0</asrwt>
<pdfrwt beam="1">  1        1 0.36768402E+00 0.18154601E+04</pdfrwt>
<pdfrwt beam="2">  1       -2 0.53041032E-01 0.18154601E+04</pdfrwt>
<totfact> 0.44814987E+00</totfact>
</mgrwt>
</event>
<event>
12    4  0.4486176E-008  0.1508355E+04  0.7818608E-02  0.8878916E-01
          1   -1    0    0  501    0  0.00000000000E+00  0.00000000000E+00  0.13660135046E+04  0.13660135046E+04  0.00000000000E+00 0. -1.
         -2   -1    0    0    0  501 -0.00000000000E+00 -0.00000000000E+00 -0.41638218571E+03  0.41638218571E+03  0.00000000000E+00 0.  1.
        -24    2    1    2    0    0 -0.18236642249E+03  0.38532965958E+03  0.56680293195E+03  0.71368577802E+03  0.79657814943E+02 0.  0.
        254    2    1    2    0    0  0.18236642249E+03 -0.38532965958E+03  0.38282838699E+03  0.10687099123E+04  0.90213460428E+03 0.  0.
         23    2    4    4    0    0 -0.33367764406E+03 -0.12266192794E+03 -0.15053062188E+01  0.36740173042E+03  0.92709475539E+02 0.  0.
         23    2    4    4    0    0  0.51604406655E+03 -0.26266773163E+03  0.38433369321E+03  0.70130818192E+03  0.93941271211E+02 0.  0.
          3    1    3    3  502    0 -0.99450813663E+02  0.15778739276E+03  0.30098384804E+03  0.35408841047E+03  0.00000000000E+00 0. -1.
         -4    1    3    3    0  502 -0.82915608828E+02  0.22754226682E+03  0.26581908391E+03  0.35959736755E+03  0.00000000000E+00 0.  1.
         11    1    5    5    0    0 -0.29166695456E+03 -0.87810530576E+02  0.27052636067E+02  0.30579755849E+03  0.00000000000E+00 0. -1.
        -11    1    5    5    0    0 -0.42010689497E+02 -0.34851397368E+02 -0.28557942286E+02  0.61604171922E+02  0.00000000000E+00 0.  1.
          1    1    6    6  503    0  0.50367010767E+03 -0.26391788385E+03  0.35733751657E+03  0.67158493694E+03  0.00000000000E+00 0. -1.
         -1    1    6    6    0  503  0.12373958873E+02  0.12501522225E+01  0.26996176645E+02  0.29723244981E+02  0.00000000000E+00 0.  1.
<mgrwt>
<rscale>  0 0.15083550E+04</rscale>
<asrwt>0</asrwt>
<pdfrwt beam="1">  1        1 0.21015592E+00 0.15083550E+04</pdfrwt>
<pdfrwt beam="2">  1       -2 0.64058798E-01 0.15083550E+04</pdfrwt>
<totfact> 0.15510052E+01</totfact>
</mgrwt>
</event>
<event>
12    4  0.4486176E-008  0.1903470E+04  0.7818608E-02  0.8653131E-01
         -2   -1    0    0    0  501 -0.00000000000E+00  0.00000000000E+00  0.52570732390E+03  0.52570732390E+03  0.00000000000E+00 0.  1.
          1   -1    0    0  501    0  0.00000000000E+00 -0.00000000000E+00 -0.17230110962E+04  0.17230110962E+04  0.00000000000E+00 0. -1.
        -24    2    1    2    0    0  0.11882168735E+03  0.53721609953E+03  0.45976798150E+02  0.56046383583E+03  0.96364486854E+02 0.  0.
        254    2    1    2    0    0 -0.11882168735E+03 -0.53721609953E+03 -0.12432805704E+04  0.16882545842E+04  0.10008682398E+04 0.  0.
         23    2    4    4    0    0  0.24109907491E+02 -0.66490557085E+03 -0.32513039879E+03  0.74608211371E+03  0.90818711698E+02 0.  0.
         23    2    4    4    0    0 -0.14293159484E+03  0.12768947132E+03 -0.91815017161E+03  0.94217247051E+03  0.89191841949E+02 0.  0.
          1    1    3    3  502    0  0.85050385602E+02  0.18466514547E+03 -0.13671221340E+00  0.20330962282E+03  0.00000000000E+00 0. -1.
         -2    1    3    3    0  502  0.33771301750E+02  0.35255095407E+03  0.46113510363E+02  0.35715421301E+03  0.00000000000E+00 0.  1.
         11    1    5    5    0    0  0.58544465414E+02 -0.43006804015E+03 -0.20317890278E+03  0.47923651793E+03  0.00000000000E+00 0.  1.
        -11    1    5    5    0    0 -0.34434557924E+02 -0.23483753071E+03 -0.12195149602E+03  0.26684559578E+03  0.00000000000E+00 0. -1.
          3    1    6    6  503    0 -0.30514395259E+02  0.86245716325E+02 -0.41196616535E+03  0.42200186409E+03  0.00000000000E+00 0. -1.
         -3    1    6    6    0  503 -0.11241719958E+03  0.41443754995E+02 -0.50618400626E+03  0.52017060642E+03  0.00000000000E+00 0.  1.
<mgrwt>
<rscale>  0 0.19034700E+04</rscale>
<asrwt>0</asrwt>
<pdfrwt beam="1">  1        1 0.26507863E+00 0.19034700E+04</pdfrwt>
<pdfrwt beam="2">  1       -2 0.80878049E-01 0.19034700E+04</pdfrwt>
<totfact> 0.50905896E+00</totfact>
</mgrwt>
</event>
<event>
12    4  0.4486176E-008  0.1837759E+04  0.7818608E-02  0.8686473E-01
         -2   -1    0    0    0  501 -0.00000000000E+00  0.00000000000E+00  0.59907723158E+03  0.59907723158E+03  0.00000000000E+00 0.  1.
          1   -1    0    0  501    0  0.00000000000E+00 -0.00000000000E+00 -0.14094006434E+04  0.14094006434E+04  0.00000000000E+00 0. -1.
        -24    2    1    2    0    0 -0.26403054847E+03  0.64170133140E+03 -0.38209433408E+03  0.79626315632E+03  0.80908619630E+02 0.  0.
        254    2    1    2    0    0  0.26403054847E+03 -0.64170133140E+03 -0.42822907774E+03  0.12122147187E+04  0.89699032985E+03 0.  0.
         23    2    4    4    0    0  0.77697711115E+02 -0.79595643247E+03 -0.49635395120E+03  0.94530702642E+03  0.87490300246E+02 0.  0.
         23    2    4    4    0    0  0.18633283736E+03  0.15425510106E+03  0.68124873457E+02  0.26690769223E+03  0.89911930833E+02 0.  0.
          3    1    3    3  502    0 -0.25054449912E+03  0.54873571697E+03 -0.31260036294E+03  0.67941329103E+03  0.00000000000E+00 0. -1.
         -4    1    3    3    0  502 -0.13486049348E+02  0.92965614434E+02 -0.69493971137E+02  0.11684986529E+03  0.00000000000E+00 0.  1.
         11    1    5    5    0    0  0.77963826740E+02 -0.61219594813E+03 -0.34358473452E+03  0.70633753049E+03  0.00000000000E+00 0. -1.
        -11    1    5    5    0    0 -0.26611562543E+00 -0.18376048434E+03 -0.15276921668E+03  0.23896949593E+03  0.00000000000E+00 0.  1.
          1    1    6    6  503    0  0.14976951791E+03  0.10296012534E+03  0.11341678276E+02  0.18209977917E+03  0.00000000000E+00 0. -1.
         -1    1    6    6    0  503  0.36563319442E+02  0.51294975723E+02  0.56783195181E+02  0.84807913062E+02  0.00000000000E+00 0.  1.
<mgrwt>
<rscale>  0 0.18377593E+04</rscale>
<asrwt>0</asrwt>
<pdfrwt beam="1">  1        1 0.21683087E+00 0.18377593E+04</pdfrwt>
<pdfrwt beam="2">  1       -2 0.92165728E-01 0.18377593E+04</pdfrwt>
<totfact> 0.62464644E+00</totfact>
</mgrwt>
</event>
<event>
12    4  0.4486176E-008  0.1940471E+04  0.7818608E-02  0.8634970E-01
         -2   -1    0    0    0  501 -0.00000000000E+00  0.00000000000E+00  0.48714877186E+03  0.48714877186E+03  0.00000000000E+00 0.  1.
          1   -1    0    0  501    0  0.00000000000E+00 -0.00000000000E+00 -0.19323808329E+04  0.19323808329E+04  0.00000000000E+00 0. -1.
        -24    2    1    2    0    0  0.42265151413E+03  0.62606999205E+03 -0.47652617735E+03  0.89681414501E+03  0.81243311409E+02 0.  0.
        254    2    1    2    0    0 -0.42265151413E+03 -0.62606999205E+03 -0.96870588371E+03  0.15227154598E+04  0.89981850666E+03 0.  0.
         23    2    4    4    0    0 -0.24047733069E+03  0.15137338892E+03 -0.52632808021E+03  0.60536821954E+03  0.93306933132E+02 0.  0.
         23    2    4    4    0    0 -0.18217418344E+03 -0.77744338097E+03 -0.44237780351E+03  0.91734724022E+03  0.90676316491E+02 0.  0.
          1    1    3    3  502    0  0.18704831368E+03  0.28215797318E+03 -0.26140924299E+03  0.42770899663E+03  0.00000000000E+00 0. -1.
         -2    1    3    3    0  502  0.23560320045E+03  0.34391201887E+03 -0.21511693436E+03  0.46910514838E+03  0.00000000000E+00 0.  1.
         11    1    5    5    0    0 -0.21642700991E+03  0.12066437978E+03 -0.37785720599E+03  0.45185906131E+03  0.00000000000E+00 0. -1.
        -11    1    5    5    0    0 -0.24050320777E+02  0.30709009147E+02 -0.14847087421E+03  0.15350915823E+03  0.00000000000E+00 0.  1.
          1    1    6    6  503    0 -0.13016754830E+03 -0.64212962327E+03 -0.39395733662E+03  0.76451057991E+03  0.00000000000E+00 0. -1.
         -1    1    6    6    0  503 -0.52006635141E+02 -0.13531375770E+03 -0.48420466886E+02  0.15283666031E+03  0.00000000000E+00 0.  1.
<mgrwt>
<rscale>  0 0.19404710E+04</rscale>
<asrwt>0</asrwt>
<pdfrwt beam="1">  1        1 0.29728935E+00 0.19404710E+04</pdfrwt>
<pdfrwt beam="2">  1       -2 0.74945967E-01 0.19404710E+04</pdfrwt>
<totfact> 0.43371736E+00</totfact>
</mgrwt>
</event>
<event>
12    4  0.4486176E-008  0.1632810E+04  0.7818608E-02  0.8800641E-01
         -2   -1    0    0    0  501 -0.00000000000E+00  0.00000000000E+00  0.40851846332E+03  0.40851846332E+03  0.00000000000E+00 0.  1.
          1   -1    0    0  501    0  0.00000000000E+00 -0.00000000000E+00 -0.16315479130E+04  0.16315479130E+04  0.00000000000E+00 0. -1.
        -24    2    1    2    0    0  0.55202673199E+03  0.74128612303E+01 -0.27496394215E+03  0.62191906792E+03  0.79935562912E+02 0.  0.
        254    2    1    2    0    0 -0.55202673199E+03 -0.74128612303E+01 -0.94806550756E+03  0.14181473084E+04  0.89862401395E+03 0.  0.
         23    2    4    4    0    0  0.14290879856E+03  0.25376041663E+03 -0.24071585320E+03  0.38870251305E+03  0.91259234711E+02 0.  0.
         23    2    4    4    0    0 -0.69493553054E+03 -0.26117327786E+03 -0.70734965436E+03  0.10294447954E+04  0.90918537857E+02 0.  0.
          1    1    3    3  502    0  0.16683290004E+02  0.74255007141E+01  0.33290497358E+01  0.18562133453E+02  0.00000000000E+00 0. -1.
         -2    1    3    3    0  502  0.53534344198E+03 -0.12639483790E-01 -0.27829299188E+03  0.60335693446E+03  0.00000000000E+00 0.  1.
         11    1    5    5    0    0  0.15356142323E+03  0.22965582940E+03 -0.23255024544E+03  0.36111290110E+03  0.00000000000E+00 0. -1.
        -11    1    5    5    0    0 -0.10652624677E+02  0.24104587227E+02 -0.81656077600E+01  0.27589611957E+02  0.00000000000E+00 0.  1.
          4    1    6    6  503    0 -0.41828730018E+03 -0.16769994869E+03 -0.36853133360E+03  0.58215365852E+03  0.00000000000E+00 0. -1.
         -4    1    6    6    0  503 -0.27664823037E+03 -0.93473329171E+02 -0.33881832076E+03  0.44729113686E+03  0.00000000000E+00 0.  1.
<mgrwt>
<rscale>  0 0.16328104E+04</rscale>
<asrwt>0</asrwt>
<pdfrwt beam="1">  1        1 0.25100738E+00 0.16328104E+04</pdfrwt>
<pdfrwt beam="2">  1       -2 0.62848993E-01 0.16328104E+04</pdfrwt>
<totfact> 0.10462274E+01</totfact>
</mgrwt>
</event>
<event>
12    4  0.4486176E-008  0.1386471E+04  0.7818608E-02  0.8963670E-01
         -2   -1    0    0    0  501 -0.00000000000E+00  0.00000000000E+00  0.21532896892E+03  0.21532896892E+03  0.00000000000E+00 0.  1.
          1   -1    0    0  501    0  0.00000000000E+00 -0.00000000000E+00 -0.22318205357E+04  0.22318205357E+04  0.00000000000E+00 0. -1.
        -24    2    1    2    0    0 -0.13469862951E+03 -0.72801916194E+02 -0.12528612624E+04  0.12645188175E+04  0.76828753232E+02 0.  0.
        254    2    1    2    0    0  0.13469862951E+03  0.72801916194E+02 -0.76363030443E+03  0.11826306871E+04  0.88996643782E+03 0.  0.
         23    2    4    4    0    0  0.46183325072E+03  0.20204139403E+02 -0.68152811414E+03  0.82858086865E+03  0.91474186625E+02 0.  0.
         23    2    4    4    0    0 -0.32713462121E+03  0.52597776790E+02 -0.82102190288E+02  0.35404981845E+03  0.93951677914E+02 0.  0.
          1    1    3    3  502    0 -0.13341151908E+03 -0.85393954026E+02 -0.11406564753E+04  0.11516023425E+04  0.00000000000E+00 0. -1.
         -2    1    3    3    0  502 -0.12871104282E+01  0.12592037832E+02 -0.11220478709E+03  0.11291647496E+03  0.00000000000E+00 0.  1.
         11    1    5    5    0    0  0.40863140028E+03  0.45904933886E+02 -0.57737923388E+03  0.70883966026E+03  0.00000000000E+00 0.  1.
        -11    1    5    5    0    0  0.53201850442E+02 -0.25700794482E+02 -0.10414888026E+03  0.11974120839E+03  0.00000000000E+00 0. -1.
          2    1    6    6  503    0 -0.42663403351E+02  0.30739776248E-01  0.20203254112E+02  0.47205279441E+02  0.00000000000E+00 0. -1.
         -2    1    6    6    0  503 -0.28447121785E+03  0.52567037014E+02 -0.10230544440E+03  0.30684453901E+03  0.00000000000E+00 0.  1.
<mgrwt>
<rscale>  0 0.13864712E+04</rscale>
<asrwt>0</asrwt>
<pdfrwt beam="1">  1        1 0.34335699E+00 0.13864712E+04</pdfrwt>
<pdfrwt beam="2">  1       -2 0.33127535E-01 0.13864712E+04</pdfrwt>
<totfact> 0.15138426E+01</totfact>
</mgrwt>
</event>
<event>
12    4  0.4486176E-008  0.1208402E+04  0.7818608E-02  0.9105534E-01
          1   -1    0    0  501    0  0.00000000000E+00  0.00000000000E+00  0.32589365842E+03  0.32589365842E+03  0.00000000000E+00 0. -1.
         -2   -1    0    0    0  501 -0.00000000000E+00 -0.00000000000E+00 -0.11201771821E+04  0.11201771821E+04  0.00000000000E+00 0.  1.
        -24    2    1    2    0    0 -0.14070930057E+03 -0.11156057195E+03 -0.44896760890E+03  0.49176686794E+03  0.89542560135E+02 0.  0.
        254    2    1    2    0    0  0.14070930057E+03  0.11156057195E+03 -0.34531591474E+03  0.95430397255E+03  0.87132549748E+03 0.  0.
         23    2    4    4    0    0 -0.26298624512E+03  0.31190228782E+03 -0.84590055892E+02  0.42647301868E+03  0.90988767664E+02 0.  0.
         23    2    4    4    0    0  0.40369554569E+03 -0.20034171586E+03 -0.26072585885E+03  0.52783095387E+03  0.86721656252E+02 0.  0.
          1    1    3    3  502    0 -0.82047566056E+01  0.13160342599E+02 -0.65545084285E+02  0.67354812168E+02  0.00000000000E+00 0. -1.
         -2    1    3    3    0  502 -0.13250454396E+03 -0.12472091455E+03 -0.38342252462E+03  0.42441205577E+03  0.00000000000E+00 0.  1.
         11    1    5    5    0    0 -0.74795530455E+02  0.13417987086E+03 -0.65263622214E+02  0.16690700856E+03  0.00000000000E+00 0. -1.
        -11    1    5    5    0    0 -0.18819071466E+03  0.17772241695E+03 -0.19326433677E+02  0.25956601012E+03  0.00000000000E+00 0.  1.
          3    1    6    6  503    0  0.24805843286E+03 -0.16487936047E+03 -0.14944687277E+03  0.33324549120E+03  0.00000000000E+00 0. -1.
         -3    1    6    6    0  503  0.15563711283E+03 -0.35462355395E+02 -0.11127898608E+03  0.19458546267E+03  0.00000000000E+00 0.  1.
<mgrwt>
<rscale>  0 0.12084017E+04</rscale>
<asrwt>0</asrwt>
<pdfrwt beam="1">  1        1 0.50137486E-01 0.12084017E+04</pdfrwt>
<pdfrwt beam="2">  1       -2 0.17233495E+00 0.12084017E+04</pdfrwt>
<totfact> 0.13920515E+01</totfact>
</mgrwt>
</event>
<event>
12    4  0.4486176E-008  0.3151180E+04  0.7818608E-02  0.8201831E-01
          1   -1    0    0  501    0  0.00000000000E+00  0.00000000000E+00  0.10723525084E+04  0.10723525084E+04  0.00000000000E+00 0. -1.
         -2   -1    0    0    0  501 -0.00000000000E+00 -0.00000000000E+00 -0.23149888716E+04  0.23149888716E+04  0.00000000000E+00 0.  1.
        -24    2    1    2    0    0  0.60867388799E+03 -0.44077368164E+03 -0.18878896979E+04  0.20335337559E+04  0.79791506107E+02 0.  0.
        254    2    1    2    0    0 -0.60867388799E+03  0.44077368164E+03  0.64525333479E+03  0.13538076241E+04  0.92286395344E+03 0.  0.
         23    2    4    4    0    0 -0.52497534374E+03  0.68581993104E+03  0.64073921130E+03  0.10794607416E+04  0.93491531316E+02 0.  0.
         23    2    4    4    0    0 -0.83698544252E+02 -0.24504624940E+03  0.45141234941E+01  0.27434688246E+03  0.90513667181E+02 0.  0.
          1    1    3    3  502    0  0.19832866774E+03 -0.18845163883E+03 -0.71722515232E+03  0.76763285478E+03  0.00000000000E+00 0. -1.
         -2    1    3    3    0  502  0.41034522026E+03 -0.25232204281E+03 -0.11706645456E+04  0.12659009011E+04  0.00000000000E+00 0.  1.
         11    1    5    5    0    0 -0.80511874412E+02  0.56980442773E+02  0.69634873688E+02  0.12073917514E+03  0.00000000000E+00 0.  1.
        -11    1    5    5    0    0 -0.44446346933E+03  0.62883948827E+03  0.57110433761E+03  0.95872156647E+03  0.00000000000E+00 0. -1.
          1    1    6    6  503    0 -0.45012022601E+02 -0.13122133514E+03 -0.42758648766E+02  0.14516687989E+03  0.00000000000E+00 0. -1.
         -1    1    6    6    0  503 -0.38686521651E+02 -0.11382491426E+03  0.47272772260E+02  0.12918000256E+03  0.00000000000E+00 0.  1.
<mgrwt>
<rscale>  0 0.31511802E+04</rscale>
<asrwt>0</asrwt>
<pdfrwt beam="1">  1        1 0.16497731E+00 0.31511802E+04</pdfrwt>
<pdfrwt beam="2">  1       -2 0.35615213E+00 0.31511802E+04</pdfrwt>
<totfact> 0.13950018E-01</totfact>
</mgrwt>
</event>
<event>
12    4  0.4486176E-008  0.2268032E+04  0.7818608E-02  0.8490633E-01
          1   -1    0    0  501    0  0.00000000000E+00  0.00000000000E+00  0.95416311869E+03  0.95416311869E+03  0.00000000000E+00 0. -1.
         -2   -1    0    0    0  501 -0.00000000000E+00 -0.00000000000E+00 -0.13477696162E+04  0.13477696162E+04  0.00000000000E+00 0.  1.
        -24    2    1    2    0    0  0.54465143980E+03 -0.67751630348E+03  0.25017685947E+03  0.90809842750E+03  0.79879663596E+02 0.  0.
        254    2    1    2    0    0 -0.54465143980E+03  0.67751630348E+03 -0.64378335694E+03  0.13938343073E+04  0.87900144101E+03 0.  0.
         23    2    4    4    0    0  0.17707682772E+03 -0.27558765502E+02 -0.21505300678E+03  0.29365118570E+03  0.88699124414E+02 0.  0.
         23    2    4    4    0    0 -0.72172826752E+03  0.70507506899E+03 -0.42873035017E+03  0.11001831216E+04  0.92577767025E+02 0.  0.
          3    1    3    3  502    0  0.85428426713E+02 -0.83795024550E+02  0.59617088328E+02  0.13369300449E+03  0.00000000000E+00 0. -1.
         -4    1    3    3    0  502  0.45922301308E+03 -0.59372127893E+03  0.19055977114E+03  0.77440542301E+03  0.00000000000E+00 0.  1.
         11    1    5    5    0    0  0.38542295096E+02  0.30076989543E+02 -0.66205866375E+02  0.82300367883E+02  0.00000000000E+00 0.  1.
        -11    1    5    5    0    0  0.13853453262E+03 -0.57635755045E+02 -0.14884714040E+03  0.21135081782E+03  0.00000000000E+00 0. -1.
          1    1    6    6  503    0 -0.60764641831E+03  0.62946879396E+03 -0.39037539233E+03  0.95804910062E+03  0.00000000000E+00 0. -1.
         -1    1    6    6    0  503 -0.11408184920E+03  0.75606275027E+02 -0.38354957834E+02  0.14213402102E+03  0.00000000000E+00 0.  1.
<mgrwt>
<rscale>  0 0.22680318E+04</rscale>
<asrwt>0</asrwt>
<pdfrwt beam="1">  1        1 0.14679433E+00 0.22680318E+04</pdfrwt>
<pdfrwt beam="2">  1       -2 0.20734917E+00 0.22680318E+04</pdfrwt>
<totfact> 0.15565448E+00</totfact>
</mgrwt>
</event>
<event>
12    4  0.4486176E-008  0.2488731E+04  0.7818608E-02  0.8407011E-01
          1   -1    0    0  501    0  0.00000000000E+00  0.00000000000E+00  0.15052069052E+04  0.15052069052E+04  0.00000000000E+00 0. -1.
         -2   -1    0    0    0  501 -0.00000000000E+00 -0.00000000000E+00 -0.10287256636E+04  0.10287256636E+04  0.00000000000E+00 0.  1.
        -24    2    1    2    0    0 -0.40011388154E+03  0.27046349935E+03 -0.77729310625E+03  0.91860786128E+03  0.80088745112E+02 0.  0.
        254    2    1    2    0    0  0.40011388154E+03 -0.27046349935E+03  0.12537743479E+04  0.16153247075E+04  0.89670629107E+03 0.  0.
         23    2    4    4    0    0  0.83311612148E+02 -0.14341070919E+03  0.12463843182E+04  0.12605845837E+04  0.89956476299E+02 0.  0.
         23    2    4    4    0    0  0.31680226939E+03 -0.12705279016E+03  0.73900296934E+01  0.35474012382E+03  0.96331996423E+02 0.  0.
          3    1    3    3  502    0 -0.16230127515E+02  0.15688112395E+02 -0.12628325669E+02  0.25865198992E+02  0.00000000000E+00 0. -1.
         -4    1    3    3    0  502 -0.38388375402E+03  0.25477538695E+03 -0.76466478059E+03  0.89274266229E+03  0.00000000000E+00 0.  1.
         11    1    5    5    0    0  0.10273226119E+03 -0.12195449377E+03  0.10784569710E+04  0.10901817529E+04  0.00000000000E+00 0. -1.
        -11    1    5    5    0    0 -0.19420649045E+02 -0.21456215418E+02  0.16792734724E+03  0.17040283079E+03  0.00000000000E+00 0.  1.
          1    1    6    6  503    0  0.10772889901E+03 -0.81700416687E+02 -0.27512065238E+02  0.13797603960E+03  0.00000000000E+00 0. -1.
         -1    1    6    6    0  503  0.20907337038E+03 -0.45352373469E+02  0.34902094932E+02  0.21676408423E+03  0.00000000000E+00 0.  1.
<mgrwt>
<rscale>  0 0.24887306E+04</rscale>
<asrwt>0</asrwt>
<pdfrwt beam="1">  1        1 0.23157029E+00 0.24887306E+04</pdfrwt>
<pdfrwt beam="2">  1       -2 0.15826549E+00 0.24887306E+04</pdfrwt>
<totfact> 0.13144796E+00</totfact>
</mgrwt>
</event>
<event>
12    4  0.4486176E-008  0.1409287E+04  0.7818608E-02  0.8947123E-01
          3   -1    0    0  501    0  0.00000000000E+00  0.00000000000E+00  0.14534186922E+04  0.14534186922E+04  0.00000000000E+00 0. -1.
         -4   -1    0    0    0  501 -0.00000000000E+00 -0.00000000000E+00 -0.34162387225E+03  0.34162387225E+03  0.00000000000E+00 0.  1.
        -24    2    1    2    0    0  0.58491514082E+02  0.39494770754E+03  0.41103100488E+03  0.57826869297E+03  0.77738313477E+02 0.  0.
        254    2    1    2    0    0 -0.58491514082E+02 -0.39494770754E+03  0.70076381503E+03  0.12167738714E+04  0.91107836153E+03 0.  0.
         23    2    4    4    0    0  0.11684198249E+03 -0.55118239233E+02  0.79765708437E+03  0.81291633201E+03  0.88803543992E+02 0.  0.
         23    2    4    4    0    0 -0.17533349657E+03 -0.33982946831E+03 -0.96893269343E+02  0.40385753943E+03  0.86525741599E+02 0.  0.
          3    1    3    3  502    0  0.30957516578E+02  0.32822867125E+03  0.36866217520E+03  0.49457479503E+03  0.00000000000E+00 0. -1.
         -4    1    3    3    0  502  0.27533997503E+02  0.66719036298E+02  0.42368829680E+02  0.83693897934E+02  0.00000000000E+00 0.  1.
         11    1    5    5    0    0  0.14715300762E+02 -0.44441097401E+02  0.14897226225E+03  0.15615468656E+03  0.00000000000E+00 0. -1.
        -11    1    5    5    0    0  0.10212668172E+03 -0.10677141832E+02  0.64868482212E+03  0.65676164544E+03  0.00000000000E+00 0.  1.
          3    1    6    6  503    0  0.61553670174E+01 -0.24497670068E+02 -0.19441861208E+02  0.31874917241E+02  0.00000000000E+00 0. -1.
         -3    1    6    6    0  503 -0.18148886358E+03 -0.31533179824E+03 -0.77451408135E+02  0.37198262219E+03  0.00000000000E+00 0.  1.
<mgrwt>
<rscale>  0 0.14092871E+04</rscale>
<asrwt>0</asrwt>
<pdfrwt beam="1">  1        3 0.22360287E+00 0.14092871E+04</pdfrwt>
<pdfrwt beam="2">  1       -4 0.52557520E-01 0.14092871E+04</pdfrwt>
<totfact> 0.81874552E-01</totfact>
</mgrwt>
</event>
<event>
12    4  0.4486176E-008  0.1454674E+04  0.7818608E-02  0.8915167E-01
         -2   -1    0    0    0  501 -0.00000000000E+00  0.00000000000E+00  0.19608542221E+03  0.19608542221E+03  0.00000000000E+00 0.  1.
          1   -1    0    0  501    0  0.00000000000E+00 -0.00000000000E+00 -0.26978999274E+04  0.26978999274E+04  0.00000000000E+00 0. -1.
        -24    2    1    2    0    0 -0.12453211989E+03 -0.41551350214E+03 -0.98736185785E+03  0.10814229627E+04  0.80202658896E+02 0.  0.
        254    2    1    2    0    0  0.12453211989E+03  0.41551350214E+03 -0.15144526474E+04  0.18125623870E+04  0.89646855281E+03 0.  0.
         23    2    4    4    0    0  0.13346873140E+03  0.50861002804E+03 -0.15788558055E+04  0.16666694442E+04  0.92213442141E+02 0.  0.
         23    2    4    4    0    0 -0.89366115149E+01 -0.93096525899E+02  0.64403158111E+02  0.14589294275E+03  0.91597804605E+02 0.  0.
          3    1    3    3  502    0 -0.96466715121E+02 -0.32624687843E+03 -0.84655466910E+03  0.91235829617E+03  0.00000000000E+00 0. -1.
         -4    1    3    3    0  502 -0.28065404767E+02 -0.89266623710E+02 -0.14080718874E+03  0.16906466649E+03  0.00000000000E+00 0.  1.
         11    1    5    5    0    0  0.29716806550E+02  0.53622542218E+02 -0.11633747523E+03  0.13150237172E+03  0.00000000000E+00 0. -1.
        -11    1    5    5    0    0  0.10375192485E+03  0.45498748582E+03 -0.14625183302E+04  0.15351670725E+04  0.00000000000E+00 0.  1.
          4    1    6    6  503    0  0.38708051464E+02 -0.20842341687E+02  0.16390380498E+02  0.46918663962E+02  0.00000000000E+00 0. -1.
         -4    1    6    6    0  503 -0.47644662979E+02 -0.72254184212E+02  0.48012777614E+02  0.98974278783E+02  0.00000000000E+00 0.  1.
<mgrwt>
<rscale>  0 0.14546736E+04</rscale>
<asrwt>0</asrwt>
<pdfrwt beam="1">  1        1 0.41506149E+00 0.14546736E+04</pdfrwt>
<pdfrwt beam="2">  1       -2 0.30166990E-01 0.14546736E+04</pdfrwt>
<totfact> 0.85570464E+00</totfact>
</mgrwt>
</event>
<event>
12    4  0.4486176E-008  0.1659470E+04  0.7818608E-02  0.8784824E-01
          1   -1    0    0  501    0  0.00000000000E+00  0.00000000000E+00  0.16860197335E+04  0.16860197335E+04  0.00000000000E+00 0. -1.
         -2   -1    0    0    0  501 -0.00000000000E+00 -0.00000000000E+00 -0.40833476698E+03  0.40833476698E+03  0.00000000000E+00 0.  1.
        -24    2    1    2    0    0  0.41753923039E+03  0.19592594930E+03  0.20285296836E+02  0.46830717861E+03  0.78575656187E+02 0.  0.
        254    2    1    2    0    0 -0.41753923039E+03 -0.19592594930E+03  0.12573996696E+04  0.16260473218E+04  0.92209000487E+03 0.  0.
         23    2    4    4    0    0 -0.65065965679E+03  0.74744292603E+02  0.77245647350E+03  0.10168496125E+04  0.91375229893E+02 0.  0.
         23    2    4    4    0    0  0.23312042640E+03 -0.27067024190E+03  0.48494319614E+03  0.60919770938E+03  0.91347865712E+02 0.  0.
          1    1    3    3  502    0  0.11648554816E+02  0.95467218869E+01 -0.13726010409E+02  0.20377244412E+02  0.00000000000E+00 0. -1.
         -2    1    3    3    0  502  0.40589067557E+03  0.18637922742E+03  0.34011307245E+02  0.44792993419E+03  0.00000000000E+00 0.  1.
         11    1    5    5    0    0 -0.46806380583E+03  0.56391915113E+02  0.61590813990E+03  0.77563303901E+03  0.00000000000E+00 0.  1.
        -11    1    5    5    0    0 -0.18259585096E+03  0.18352377490E+02  0.15654833361E+03  0.24121657344E+03  0.00000000000E+00 0. -1.
          1    1    6    6  503    0  0.36119277879E+02 -0.76580020127E+02  0.66676510030E+02  0.10777225388E+03  0.00000000000E+00 0. -1.
         -1    1    6    6    0  503  0.19700114852E+03 -0.19409022178E+03  0.41826668611E+03  0.50142545550E+03  0.00000000000E+00 0.  1.
<mgrwt>
<rscale>  0 0.16594704E+04</rscale>
<asrwt>0</asrwt>
<pdfrwt beam="1">  1        1 0.25938765E+00 0.16594704E+04</pdfrwt>
<pdfrwt beam="2">  1       -2 0.62820734E-01 0.16594704E+04</pdfrwt>
<totfact> 0.95904684E+00</totfact>
</mgrwt>
</event>
<event>
12    4  0.4486176E-008  0.1615953E+04  0.7818608E-02  0.8810807E-01
          1   -1    0    0  501    0  0.00000000000E+00  0.00000000000E+00  0.67905744528E+03  0.67905744528E+03  0.00000000000E+00 0. -1.
         -2   -1    0    0    0  501 -0.00000000000E+00 -0.00000000000E+00 -0.96137049065E+03  0.96137049065E+03  0.00000000000E+00 0.  1.
        -24    2    1    2    0    0 -0.22383909432E+03 -0.41672428922E+03  0.21108719450E+03  0.52397011796E+03  0.78891111428E+02 0.  0.
        254    2    1    2    0    0  0.22383909432E+03  0.41672428922E+03 -0.49340023987E+03  0.11164578180E+04  0.88276338235E+03 0.  0.
         23    2    4    4    0    0  0.89551057938E+01 -0.11536477528E+03  0.17706974626E+03  0.22913199028E+03  0.88082623906E+02 0.  0.
         23    2    4    4    0    0  0.21488398853E+03  0.53208906450E+03 -0.67046998614E+03  0.88732582769E+03  0.92321292700E+02 0.  0.
          1    1    3    3  502    0 -0.15947858064E+03 -0.35798089508E+03  0.16299995844E+03  0.42444401913E+03  0.00000000000E+00 0. -1.
         -4    1    3    3    0  502 -0.64360513688E+02 -0.58743394144E+02  0.48087236054E+02  0.99526098834E+02  0.00000000000E+00 0.  1.
         11    1    5    5    0    0 -0.97833761498E+01 -0.84429144113E+01  0.87353978563E+02  0.88304670450E+02  0.00000000000E+00 0. -1.
        -11    1    5    5    0    0  0.18738481944E+02 -0.10692186087E+03  0.89715767700E+02  0.14082731983E+03  0.00000000000E+00 0.  1.
          3    1    6    6  503    0  0.42254274562E+02  0.13592522910E+03 -0.22840604503E+03  0.26912898958E+03  0.00000000000E+00 0. -1.
         -3    1    6    6    0  503  0.17262971397E+03  0.39616383540E+03 -0.44206394110E+03  0.61819683811E+03  0.00000000000E+00 0.  1.
<mgrwt>
<rscale>  0 0.16159527E+04</rscale>
<asrwt>0</asrwt>
<pdfrwt beam="1">  1        1 0.10447038E+00 0.16159527E+04</pdfrwt>
<pdfrwt beam="2">  1       -2 0.14790315E+00 0.16159527E+04</pdfrwt>
<totfact> 0.74394305E+00</totfact>
</mgrwt>
</event>
<event>
12    4  0.4486176E-008  0.1368439E+04  0.7818608E-02  0.8976986E-01
          1   -1    0    0  501    0  0.00000000000E+00  0.00000000000E+00  0.29565365633E+04  0.29565365633E+04  0.00000000000E+00 0. -1.
         -2   -1    0    0    0  501 -0.00000000000E+00 -0.00000000000E+00 -0.15834626313E+03  0.15834626313E+03  0.00000000000E+00 0.  1.
        -24    2    1    2    0    0  0.79591595020E+02  0.48381101791E+01 -0.54178170726E+02  0.12577995523E+03  0.80790430407E+02 0.  0.
        254    2    1    2    0    0 -0.79591595020E+02 -0.48381101791E+01  0.28523684709E+04  0.29891028712E+04  0.89015271250E+03 0.  0.
         23    2    4    4    0    0 -0.45999124543E+03  0.10383582019E+03  0.13868975583E+04  0.14683771250E+04  0.10135443040E+03 0.  0.
         23    2    4    4    0    0  0.38039965041E+03 -0.10867393037E+03  0.14654709126E+04  0.15207257462E+04  0.92129703932E+02 0.  0.
          1    1    3    3  502    0  0.29915754217E+02  0.15608396171E+02 -0.65521472074E+02  0.73699645075E+02  0.00000000000E+00 0. -1.
         -2    1    3    3    0  502  0.49675840803E+02 -0.10770285992E+02  0.11343301349E+02  0.52080310150E+02  0.00000000000E+00 0.  1.
         11    1    5    5    0    0 -0.30696054217E+03  0.31900638941E+02  0.98921257180E+03  0.10362354643E+04  0.00000000000E+00 0. -1.
        -11    1    5    5    0    0 -0.15303070326E+03  0.71935181252E+02  0.39768498648E+03  0.43214166070E+03  0.00000000000E+00 0.  1.
          2    1    6    6  503    0  0.53762870160E+02 -0.18722432555E+02  0.36095968552E+03  0.36542149671E+03  0.00000000000E+00 0.  1.
         -2    1    6    6    0  503  0.32663678025E+03 -0.89951497817E+02  0.11045112271E+04  0.11553042495E+04  0.00000000000E+00 0. -1.
<mgrwt>
<rscale>  0 0.13684393E+04</rscale>
<asrwt>0</asrwt>
<pdfrwt beam="1">  1        1 0.45485174E+00 0.13684393E+04</pdfrwt>
<pdfrwt beam="2">  1       -2 0.24360966E-01 0.13684393E+04</pdfrwt>
<totfact> 0.83639538E+00</totfact>
</mgrwt>
</event>
<event>
12    4  0.4486176E-008  0.1358896E+04  0.7818608E-02  0.8984121E-01
          1   -1    0    0  501    0  0.00000000000E+00  0.00000000000E+00  0.73097925357E+03  0.73097925357E+03  0.00000000000E+00 0. -1.
         -2   -1    0    0    0  501 -0.00000000000E+00 -0.00000000000E+00 -0.63154953059E+03  0.63154953059E+03  0.00000000000E+00 0.  1.
        -24    2    1    2    0    0 -0.28834386496E+03 -0.23316583442E+03  0.93711307371E+02  0.39045802776E+03  0.78531340955E+02 0.  0.
        254    2    1    2    0    0  0.28834386496E+03  0.23316583442E+03  0.57184156074E+01  0.97207075641E+03  0.89854346828E+03 0.  0.
         23    2    4    4    0    0 -0.30461752206E+03  0.18387857095E+02 -0.81636767580E+02  0.32886204916E+03  0.91409723373E+02 0.  0.
         23    2    4    4    0    0  0.59296138701E+03  0.21477797733E+03  0.87355183187E+02  0.64320870724E+03  0.91398725430E+02 0.  0.
          1    1    3    3  502    0 -0.22830213958E+03 -0.21553399987E+03  0.94477870721E+02  0.32787625729E+03  0.00000000000E+00 0. -1.
         -2    1    3    3    0  502 -0.60041725380E+02 -0.17631834552E+02 -0.76656334994E+00  0.62581770474E+02  0.00000000000E+00 0.  1.
         11    1    5    5    0    0 -0.23253915305E+03  0.41529752324E+02 -0.32092783684E+02  0.23838860039E+03  0.00000000000E+00 0.  1.
        -11    1    5    5    0    0 -0.72078369003E+02 -0.23141895229E+02 -0.49543983896E+02  0.90473448775E+02  0.00000000000E+00 0. -1.
          3    1    6    6  503    0  0.37731494791E+01 -0.17060490943E+01 -0.73182830612E+01  0.84085984247E+01  0.00000000000E+00 0. -1.
         -3    1    6    6    0  503  0.58918823753E+03  0.21648402642E+03  0.94673466248E+02  0.63480010882E+03  0.00000000000E+00 0.  1.
<mgrwt>
<rscale>  0 0.13588960E+04</rscale>
<asrwt>0</asrwt>
<pdfrwt beam="1">  1        1 0.11245835E+00 0.13588960E+04</pdfrwt>
<pdfrwt beam="2">  1       -2 0.97161467E-01 0.13588960E+04</pdfrwt>
<totfact> 0.19307986E+01</totfact>
</mgrwt>
</event>
<event>
12    4  0.4554837E-008  0.1029079E+04  0.7818608E-02  0.9277214E-01
          1   -1    0    0  501    0  0.00000000000E+00  0.00000000000E+00  0.12413655444E+04  0.12413655444E+04  0.00000000000E+00 0. -1.
         -2   -1    0    0    0  501 -0.00000000000E+00 -0.00000000000E+00 -0.21327395529E+03  0.21327395529E+03  0.00000000000E+00 0.  1.
        -24    2    1    2    0    0  0.42023222469E+02  0.17244120630E+02  0.44888230559E+03  0.45909209972E+03  0.84893585349E+02 0.  0.
        254    2    1    2    0    0 -0.42023222469E+02 -0.17244120630E+02  0.57920928355E+03  0.99554740000E+03  0.80843547707E+03 0.  0.
         23    2    4    4    0    0 -0.40337049154E+03  0.86595313293E+02  0.29711522633E+03  0.51663313219E+03  0.91792340783E+02 0.  0.
         23    2    4    4    0    0  0.36134726907E+03 -0.10383943392E+03  0.28209405722E+03  0.47891426782E+03  0.91800555010E+02 0.  0.
          1    1    3    3  502    0  0.21014934415E+02  0.11735030206E+02  0.42891462177E+03  0.42958944491E+03  0.00000000000E+00 0. -1.
         -2    1    3    3    0  502  0.21008288054E+02  0.55090904243E+01  0.19967683813E+02  0.29502654815E+02  0.00000000000E+00 0.  1.
         11    1    5    5    0    0  0.48181707960E+01  0.29293723526E+01  0.18009120018E+01  0.59193983004E+01  0.00000000000E+00 0. -1.
        -11    1    5    5    0    0 -0.40818866233E+03  0.83665940940E+02  0.29531431433E+03  0.51071373389E+03  0.00000000000E+00 0.  1.
          4    1    6    6  503    0  0.32612827426E+02  0.71108641692E+01  0.54712158158E+02  0.64090413887E+02  0.00000000000E+00 0. -1.
         -4    1    6    6    0  503  0.32873444164E+03 -0.11095029809E+03  0.22738189906E+03  0.41482385393E+03  0.00000000000E+00 0.  1.
<mgrwt>
<rscale>  0 0.10290791E+04</rscale>
<asrwt>0</asrwt>
<pdfrwt beam="1">  1        1 0.19097931E+00 0.10290791E+04</pdfrwt>
<pdfrwt beam="2">  1       -2 0.32811379E-01 0.10290791E+04</pdfrwt>
<totfact> 0.75783066E+01</totfact>
</mgrwt>
</event>
<event>
12    4  0.4486176E-008  0.3073675E+04  0.7818608E-02  0.8223000E-01
          1   -1    0    0  501    0  0.00000000000E+00  0.00000000000E+00  0.29030264375E+04  0.29030264375E+04  0.00000000000E+00 0. -1.
         -2   -1    0    0    0  501 -0.00000000000E+00 -0.00000000000E+00 -0.81358847068E+03  0.81358847068E+03  0.00000000000E+00 0.  1.
        -24    2    1    2    0    0  0.64372473554E+03  0.96024941503E+02  0.24543183447E+04  0.25404241497E+04  0.80461164676E+02 0.  0.
        254    2    1    2    0    0 -0.64372473554E+03 -0.96024941503E+02 -0.36488037784E+03  0.11761907585E+04  0.90922202217E+03 0.  0.
         23    2    4    4    0    0 -0.42039315984E+03  0.18468231222E+03 -0.58217158874E+03  0.74692471272E+03  0.90193139732E+02 0.  0.
         23    2    4    4    0    0 -0.22333157571E+03 -0.28070725372E+03  0.21729121090E+03  0.42926604573E+03  0.91544047785E+02 0.  0.
          3    1    3    3  502    0  0.43899105798E+03  0.95171826092E+02  0.15941543128E+04  0.16562302976E+04  0.00000000000E+00 0. -1.
         -4    1    3    3    0  502  0.20473367757E+03  0.85311541055E+00  0.86016403185E+03  0.88419385217E+03  0.00000000000E+00 0.  1.
         11    1    5    5    0    0 -0.22888137933E+03  0.51333362499E+02 -0.29473470491E+03  0.37668335003E+03  0.00000000000E+00 0. -1.
        -11    1    5    5    0    0 -0.19151178051E+03  0.13334894972E+03 -0.28743688383E+03  0.37024136269E+03  0.00000000000E+00 0.  1.
          2    1    6    6  503    0 -0.14467717060E+03 -0.21243773418E+03  0.10949460405E+03  0.27937491461E+03  0.00000000000E+00 0.  1.
         -2    1    6    6    0  503 -0.78654405104E+02 -0.68269519537E+02  0.10779660685E+03  0.14989113112E+03  0.00000000000E+00 0. -1.
<mgrwt>
<rscale>  0 0.30736746E+04</rscale>
<asrwt>0</asrwt>
<pdfrwt beam="1">  1        1 0.44661945E+00 0.30736746E+04</pdfrwt>
<pdfrwt beam="2">  1       -2 0.12516746E+00 0.30736746E+04</pdfrwt>
<totfact> 0.24987260E-01</totfact>
</mgrwt>
</event>
<event>
12    4  0.4486176E-008  0.3175353E+04  0.7818608E-02  0.8195357E-01
         -2   -1    0    0    0  501 -0.00000000000E+00  0.00000000000E+00  0.42443684716E+04  0.42443684716E+04  0.00000000000E+00 0.  1.
          1   -1    0    0  501    0  0.00000000000E+00 -0.00000000000E+00 -0.59389670318E+03  0.59389670318E+03  0.00000000000E+00 0. -1.
        -24    2    1    2    0    0 -0.98510627546E+03 -0.58305165504E+03  0.30548884235E+04  0.32633188676E+04  0.80765989688E+02 0.  0.
        254    2    1    2    0    0  0.98510627546E+03  0.58305165504E+03  0.59558334497E+03  0.15749463073E+04  0.90296884971E+03 0.  0.
         23    2    4    4    0    0 -0.96075837732E+02  0.29876829714E+03  0.59329024990E+02  0.33188512184E+03  0.90192787534E+02 0.  0.
         23    2    4    4    0    0  0.10811821132E+04  0.28428335790E+03  0.53625431998E+03  0.12430611854E+04  0.88660168730E+02 0.  0.
          1    1    3    3  502    0 -0.51869488076E+03 -0.26363406384E+03  0.15056037890E+04  0.16141220735E+04  0.00000000000E+00 0. -1.
         -2    1    3    3    0  502 -0.46641139470E+03 -0.31941759120E+03  0.15492846345E+04  0.16491967940E+04  0.00000000000E+00 0.  1.
         11    1    5    5    0    0 -0.48023821755E+02  0.22335013341E+03  0.76110942527E+01  0.22858149161E+03  0.00000000000E+00 0. -1.
        -11    1    5    5    0    0 -0.48052015977E+02  0.75418163726E+02  0.51717930738E+02  0.10330363023E+03  0.00000000000E+00 0.  1.
          3    1    6    6  503    0  0.10607042804E+04  0.27391616161E+03  0.53712316087E+03  0.12200921785E+04  0.00000000000E+00 0. -1.
         -3    1    6    6    0  503  0.20477832755E+02  0.10367196297E+02 -0.86884089580E+00  0.22969006898E+02  0.00000000000E+00 0.  1.
<mgrwt>
<rscale>  0 0.31753529E+04</rscale>
<asrwt>0</asrwt>
<pdfrwt beam="1">  1        1 0.91368726E-01 0.31753529E+04</pdfrwt>
<pdfrwt beam="2">  1       -2 0.65297975E+00 0.31753529E+04</pdfrwt>
<totfact> 0.83084552E-03</totfact>
</mgrwt>
</event>
<event>
12    4  0.4486176E-008  0.2571720E+04  0.7818608E-02  0.8377871E-01
          1   -1    0    0  501    0  0.00000000000E+00  0.00000000000E+00  0.16574972107E+04  0.16574972107E+04  0.00000000000E+00 0. -1.
         -2   -1    0    0    0  501 -0.00000000000E+00 -0.00000000000E+00 -0.99754990827E+03  0.99754990827E+03  0.00000000000E+00 0.  1.
        -24    2    1    2    0    0  0.57511145721E+03  0.14742537018E+03  0.12808396966E+04  0.14139861659E+04  0.79492899050E+02 0.  0.
        254    2    1    2    0    0 -0.57511145721E+03 -0.14742537018E+03 -0.62089239412E+03  0.12410609531E+04  0.89567711611E+03 0.  0.
         23    2    4    4    0    0  0.18032853298E+03 -0.21880806479E+03 -0.92519259862E+02  0.31193522896E+03  0.91369713774E+02 0.  0.
         23    2    4    4    0    0 -0.75543999019E+03  0.71382694616E+02 -0.52837313425E+03  0.92912572416E+03  0.91166739700E+02 0.  0.
          3    1    3    3  502    0  0.27951372300E+03  0.54837473278E+02  0.69947187455E+03  0.75524563759E+03  0.00000000000E+00 0. -1.
         -4    1    3    3    0  502  0.29559773421E+03  0.92587896900E+02  0.58136782204E+03  0.65874052830E+03  0.00000000000E+00 0.  1.
         11    1    5    5    0    0  0.57561959296E+02 -0.24323754762E+02  0.37644116576E+01  0.62603474336E+02  0.00000000000E+00 0. -1.
        -11    1    5    5    0    0  0.12276657369E+03 -0.19448431003E+03 -0.96283671520E+02  0.24933175463E+03  0.00000000000E+00 0.  1.
          4    1    6    6  503    0 -0.30637612125E+03  0.17719651080E+01 -0.16996258001E+03  0.35036658821E+03  0.00000000000E+00 0.  1.
         -4    1    6    6    0  503 -0.44906386894E+03  0.69610729508E+02 -0.35841055424E+03  0.57875913595E+03  0.00000000000E+00 0. -1.
<mgrwt>
<rscale>  0 0.25717202E+04</rscale>
<asrwt>0</asrwt>
<pdfrwt beam="1">  1        1 0.25499957E+00 0.25717202E+04</pdfrwt>
<pdfrwt beam="2">  1       -2 0.15346922E+00 0.25717202E+04</pdfrwt>
<totfact> 0.11141637E+00</totfact>
</mgrwt>
</event>
<event>
12    4  0.4486176E-008  0.1904094E+04  0.7818608E-02  0.8652821E-01
         -2   -1    0    0    0  501 -0.00000000000E+00  0.00000000000E+00  0.82249957211E+03  0.82249957211E+03  0.00000000000E+00 0.  1.
          1   -1    0    0  501    0  0.00000000000E+00 -0.00000000000E+00 -0.11019987333E+04  0.11019987333E+04  0.00000000000E+00 0. -1.
        -24    2    1    2    0    0  0.17987671725E+03  0.53244312608E+02  0.61159058431E+03  0.64467401830E+03  0.79818273681E+02 0.  0.
        254    2    1    2    0    0 -0.17987671725E+03 -0.53244312608E+02 -0.89108974553E+03  0.12798242871E+04  0.89928787446E+03 0.  0.
         23    2    4    4    0    0 -0.46285794144E+03 -0.24582769682E+03 -0.36063947491E+03  0.64281433029E+03  0.92090726375E+02 0.  0.
         23    2    4    4    0    0  0.28298122419E+03  0.19258338422E+03 -0.53045027062E+03  0.63700995686E+03  0.85073276699E+02 0.  0.
          1    1    3    3  502    0  0.68716565644E+02  0.27291526027E+02  0.37204771537E+03  0.37932347186E+03  0.00000000000E+00 0. -1.
         -2    1    3    3    0  502  0.11116015161E+03  0.25952786581E+02  0.23954286894E+03  0.26535054644E+03  0.00000000000E+00 0.  1.
         11    1    5    5    0    0 -0.42255854389E+03 -0.21969947455E+03 -0.29069275354E+03  0.55796582252E+03  0.00000000000E+00 0.  1.
        -11    1    5    5    0    0 -0.40299397552E+02 -0.26128222270E+02 -0.69946721363E+02  0.84848507774E+02  0.00000000000E+00 0. -1.
          1    1    6    6  503    0  0.83543983709E+02  0.56197336671E+02 -0.23279978976E+03  0.25364045414E+03  0.00000000000E+00 0. -1.
         -1    1    6    6    0  503  0.19943724048E+03  0.13638604755E+03 -0.29765048086E+03  0.38336950272E+03  0.00000000000E+00 0.  1.
<mgrwt>
<rscale>  0 0.19040940E+04</rscale>
<asrwt>0</asrwt>
<pdfrwt beam="1">  1        1 0.16953827E+00 0.19040940E+04</pdfrwt>
<pdfrwt beam="2">  1       -2 0.12653840E+00 0.19040940E+04</pdfrwt>
<totfact> 0.48181750E+00</totfact>
</mgrwt>
</event>
<event>
12    4  0.4486176E-008  0.1587230E+04  0.7818608E-02  0.8828432E-01
          1   -1    0    0  501    0  0.00000000000E+00  0.00000000000E+00  0.18785366932E+04  0.18785366932E+04  0.00000000000E+00 0. -1.
         -2   -1    0    0    0  501 -0.00000000000E+00 -0.00000000000E+00 -0.33527397133E+03  0.33527397133E+03  0.00000000000E+00 0.  1.
        -24    2    1    2    0    0  0.30591513923E+03  0.64168836917E+02 -0.70467218462E+02  0.33062219506E+03  0.81508864230E+02 0.  0.
        254    2    1    2    0    0 -0.30591513923E+03 -0.64168836917E+02  0.16137299403E+04  0.18831884695E+04  0.91900640868E+03 0.  0.
         23    2    4    4    0    0 -0.33593794538E+03  0.23347512505E+03  0.26032661878E+03  0.49395310123E+03  0.94099843861E+02 0.  0.
         23    2    4    4    0    0  0.30022806146E+02 -0.29764396196E+03  0.13534033215E+04  0.13892353682E+04  0.93707313496E+02 0.  0.
          1    1    3    3  502    0  0.79799934576E+01 -0.32878541497E+01 -0.18962647566E+02  0.20834401436E+02  0.00000000000E+00 0. -1.
         -2    1    3    3    0  502  0.29793514577E+03  0.67456691067E+02 -0.51504570896E+02  0.30978779363E+03  0.00000000000E+00 0.  1.
         11    1    5    5    0    0 -0.19037321411E+03  0.17974767777E+03  0.13547640093E+03  0.29479661382E+03  0.00000000000E+00 0.  1.
        -11    1    5    5    0    0 -0.14556473127E+03  0.53727447276E+02  0.12485021785E+03  0.19915648741E+03  0.00000000000E+00 0. -1.
          2    1    6    6  503    0  0.25069060058E+02 -0.30689825166E+02  0.29612085266E+03  0.29876057725E+03  0.00000000000E+00 0. -1.
         -2    1    6    6    0  503  0.49537460881E+01 -0.26695413680E+03  0.10572824689E+04  0.10904747910E+04  0.00000000000E+00 0.  1.
<mgrwt>
<rscale>  0 0.15872296E+04</rscale>
<asrwt>0</asrwt>
<pdfrwt beam="1">  1        1 0.28900564E+00 0.15872296E+04</pdfrwt>
<pdfrwt beam="2">  1       -2 0.51580612E-01 0.15872296E+04</pdfrwt>
<totfact> 0.10788979E+01</totfact>
</mgrwt>
</event>
<event>
12    4  0.4486176E-008  0.2343397E+04  0.7818608E-02  0.8461004E-01
          1   -1    0    0  501    0  0.00000000000E+00  0.00000000000E+00  0.15001136002E+04  0.15001136002E+04  0.00000000000E+00 0. -1.
         -2   -1    0    0    0  501 -0.00000000000E+00 -0.00000000000E+00 -0.91518241553E+03  0.91518241553E+03  0.00000000000E+00 0.  1.
        -24    2    1    2    0    0  0.19963751342E+03  0.78207208781E+03  0.85093091151E+03  0.11756270528E+04  0.80769200687E+02 0.  0.
        254    2    1    2    0    0 -0.19963751342E+03 -0.78207208781E+03 -0.26599972687E+03  0.12396689629E+04  0.90251393098E+03 0.  0.
         23    2    4    4    0    0 -0.40278667015E+03 -0.10365315299E+03 -0.30544408005E+03  0.52435878392E+03  0.93139521480E+02 0.  0.
         23    2    4    4    0    0  0.20314915673E+03 -0.67841893483E+03  0.39444353181E+02  0.71531017899E+03  0.92687454188E+02 0.  0.
          1    1    3    3  502    0  0.13810772750E+03  0.38088458919E+03  0.43649076002E+03  0.59554260826E+03  0.00000000000E+00 0. -1.
         -2    1    3    3    0  502  0.61529785916E+02  0.40118749863E+03  0.41444015149E+03  0.58008444453E+03  0.00000000000E+00 0.  1.
         11    1    5    5    0    0 -0.18441937556E+03 -0.87625298280E+01 -0.16694082599E+03  0.24891068155E+03  0.00000000000E+00 0.  1.
        -11    1    5    5    0    0 -0.21836729460E+03 -0.94890623159E+02 -0.13850325406E+03  0.27544810237E+03  0.00000000000E+00 0. -1.
          2    1    6    6  503    0  0.13334626601E+02 -0.13120669776E+03 -0.18695341631E+02  0.13320107208E+03  0.00000000000E+00 0. -1.
         -2    1    6    6    0  503  0.18981453013E+03 -0.54721223706E+03  0.58139694812E+02  0.58210910692E+03  0.00000000000E+00 0.  1.
<mgrwt>
<rscale>  0 0.23433972E+04</rscale>
<asrwt>0</asrwt>
<pdfrwt beam="1">  1        1 0.23078671E+00 0.23433972E+04</pdfrwt>
<pdfrwt beam="2">  1       -2 0.14079729E+00 0.23433972E+04</pdfrwt>
<totfact> 0.18300792E+00</totfact>
</mgrwt>
</event>
<event>
12    4  0.4486176E-008  0.2186309E+04  0.7818608E-02  0.8524148E-01
         -4   -1    0    0    0  501 -0.00000000000E+00  0.00000000000E+00  0.94818687235E+03  0.94818687235E+03  0.00000000000E+00 0.  1.
          1   -1    0    0  501    0  0.00000000000E+00 -0.00000000000E+00 -0.12602856425E+04  0.12602856425E+04  0.00000000000E+00 0. -1.
        -24    2    1    2    0    0 -0.29082621651E+03 -0.60566226773E+03 -0.74347483877E+03  0.10052994784E+04  0.80408548655E+02 0.  0.
        254    2    1    2    0    0  0.29082621651E+03  0.60566226773E+03  0.43137606864E+03  0.12031730364E+04  0.90007409259E+03 0.  0.
         23    2    4    4    0    0 -0.27189033110E+03  0.84476561170E+01  0.18566404042E+03  0.34196701690E+03  0.92057534758E+02 0.  0.
         23    2    4    4    0    0  0.56271654760E+03  0.59721461161E+03  0.24571202821E+03  0.86120601949E+03  0.89365552203E+02 0.  0.
          3    1    3    3  502    0 -0.28524449463E+03 -0.59319703340E+03 -0.70515991806E+03  0.96462306223E+03  0.00000000000E+00 0. -1.
         -4    1    3    3    0  502 -0.55817218773E+01 -0.12465234327E+02 -0.38314920708E+02  0.40676416199E+02  0.00000000000E+00 0.  1.
         11    1    5    5    0    0 -0.25128303945E+03 -0.16501800072E+02  0.17891539868E+03  0.30891130638E+03  0.00000000000E+00 0. -1.
        -11    1    5    5    0    0 -0.20607291649E+02  0.24949456189E+02  0.67486417384E+01  0.33055710528E+02  0.00000000000E+00 0.  1.
          1    1    6    6  503    0  0.31753595956E+03  0.35139645805E+03  0.96663839490E+02  0.48337610016E+03  0.00000000000E+00 0. -1.
         -1    1    6    6    0  503  0.24518058804E+03  0.24581815357E+03  0.14904818872E+03  0.37782991933E+03  0.00000000000E+00 0.  1.
<mgrwt>
<rscale>  0 0.21863086E+04</rscale>
<asrwt>0</asrwt>
<pdfrwt beam="1">  1        1 0.19389010E+00 0.21863086E+04</pdfrwt>
<pdfrwt beam="2">  1       -4 0.14587490E+00 0.21863086E+04</pdfrwt>
<totfact> 0.13761610E+00</totfact>
</mgrwt>
</event>
<event>
12    4  0.4486176E-008  0.1428717E+04  0.7818608E-02  0.8933290E-01
          1   -1    0    0  501    0  0.00000000000E+00  0.00000000000E+00  0.14695202907E+04  0.14695202907E+04  0.00000000000E+00 0. -1.
         -2   -1    0    0    0  501 -0.00000000000E+00 -0.00000000000E+00 -0.34726160137E+03  0.34726160137E+03  0.00000000000E+00 0.  1.
        -24    2    1    2    0    0  0.28630483487E+03 -0.27230028545E+03  0.33173491994E+02  0.40427422119E+03  0.78862294025E+02 0.  0.
        254    2    1    2    0    0 -0.28630483487E+03  0.27230028545E+03  0.10890851973E+04  0.14125076709E+04  0.80805535039E+03 0.  0.
         23    2    4    4    0    0  0.16337106678E+03  0.37805841244E+03  0.43081988384E+03  0.60329179474E+03  0.93471646057E+02 0.  0.
         23    2    4    4    0    0 -0.44967590165E+03 -0.10575812698E+03  0.65826531348E+03  0.80921587612E+03  0.90132753702E+02 0.  0.
          1    1    3    3  502    0  0.64021697805E+02 -0.47564867828E+02 -0.23482788083E+02  0.83142262283E+02  0.00000000000E+00 0. -1.
         -2    1    3    3    0  502  0.22228313707E+03 -0.22473541763E+03  0.56656280078E+02  0.32113195891E+03  0.00000000000E+00 0.  1.
         11    1    5    5    0    0  0.84729430730E+02  0.25866939415E+03  0.22752878600E+03  0.35476510590E+03  0.00000000000E+00 0. -1.
        -11    1    5    5    0    0  0.78641636047E+02  0.11938901828E+03  0.20329109784E+03  0.24852668885E+03  0.00000000000E+00 0.  1.
          3    1    6    6  503    0 -0.33119050159E+03 -0.11542403680E+03  0.51440467284E+03  0.62259298426E+03  0.00000000000E+00 0. -1.
         -3    1    6    6    0  503 -0.11848540006E+03  0.96659098227E+01  0.14386064064E+03  0.18662289186E+03  0.00000000000E+00 0.  1.
<mgrwt>
<rscale>  0 0.14287169E+04</rscale>
<asrwt>0</asrwt>
<pdfrwt beam="1">  1        1 0.22608004E+00 0.14287169E+04</pdfrwt>
<pdfrwt beam="2">  1       -2 0.53424862E-01 0.14287169E+04</pdfrwt>
<totfact> 0.19361442E+01</totfact>
</mgrwt>
</event>
<event>
12    4  0.4486176E-008  0.1948089E+04  0.7818608E-02  0.8631283E-01
         -2   -1    0    0    0  501 -0.00000000000E+00  0.00000000000E+00  0.41893545930E+03  0.41893545930E+03  0.00000000000E+00 0.  1.
          1   -1    0    0  501    0  0.00000000000E+00 -0.00000000000E+00 -0.22646997540E+04  0.22646997540E+04  0.00000000000E+00 0. -1.
        -24    2    1    2    0    0  0.19867094213E+03  0.68793157053E+03 -0.10830332760E+04  0.13007693455E+04  0.79497322932E+02 0.  0.
        254    2    1    2    0    0 -0.19867094213E+03 -0.68793157053E+03 -0.76273101879E+03  0.13828658679E+04  0.90434474205E+03 0.  0.
         23    2    4    4    0    0 -0.45903112191E+03 -0.56747780944E+03 -0.79196394796E+03  0.10809379636E+04  0.92083392157E+02 0.  0.
         23    2    4    4    0    0  0.26036017978E+03 -0.12045376109E+03  0.29232929174E+02  0.30192790429E+03  0.89495047156E+02 0.  0.
          3    1    3    3  502    0  0.19185093144E+03  0.58419665138E+03 -0.95518273471E+03  0.11359870440E+04  0.00000000000E+00 0. -1.
         -4    1    3    3    0  502  0.68200106971E+01  0.10373491915E+03 -0.12785054124E+03  0.16478230152E+03  0.00000000000E+00 0.  1.
         11    1    5    5    0    0 -0.41662307071E+03 -0.54918801609E+03 -0.73665023007E+03  0.10088784969E+04  0.00000000000E+00 0.  1.
        -11    1    5    5    0    0 -0.42408051206E+02 -0.18289793355E+02 -0.55313717888E+02  0.72059466655E+02  0.00000000000E+00 0. -1.
          4    1    6    6  503    0  0.43617967035E+02 -0.35299509455E+02 -0.27140944448E+02  0.62331479058E+02  0.00000000000E+00 0. -1.
         -4    1    6    6    0  503  0.21674221274E+03 -0.85154251632E+02  0.56373873622E+02  0.23959642523E+03  0.00000000000E+00 0.  1.
<mgrwt>
<rscale>  0 0.19480894E+04</rscale>
<asrwt>0</asrwt>
<pdfrwt beam="1">  1        1 0.34841535E+00 0.19480894E+04</pdfrwt>
<pdfrwt beam="2">  1       -2 0.64451609E-01 0.19480894E+04</pdfrwt>
<totfact> 0.35812198E+00</totfact>
</mgrwt>
</event>
<event>
12    4  0.4486176E-008  0.1625150E+04  0.7818608E-02  0.8805245E-01
         -2   -1    0    0    0  501 -0.00000000000E+00  0.00000000000E+00  0.42315284887E+03  0.42315284887E+03  0.00000000000E+00 0.  1.
          1   -1    0    0  501    0  0.00000000000E+00 -0.00000000000E+00 -0.15603770970E+04  0.15603770970E+04  0.00000000000E+00 0. -1.
        -24    2    1    2    0    0  0.28388906255E+02  0.22862184757E+03  0.22567346086E+03  0.33173948332E+03  0.77773354550E+02 0.  0.
        254    2    1    2    0    0 -0.28388906255E+02 -0.22862184757E+03 -0.13628977090E+04  0.16517904625E+04  0.90434931736E+03 0.  0.
         23    2    4    4    0    0  0.46123676086E+02 -0.53777455513E+03 -0.11039517826E+04  0.12324477267E+04  0.94281467446E+02 0.  0.
         23    2    4    4    0    0 -0.74512582342E+02  0.30915270757E+03 -0.25894592639E+03  0.41934273585E+03  0.87566065289E+02 0.  0.
          3    1    3    3  502    0 -0.26827960299E+02  0.89165640615E+02  0.89631370459E+02  0.12924408493E+03  0.00000000000E+00 0. -1.
         -4    1    3    3    0  502  0.55216866554E+02  0.13945620695E+03  0.13604209040E+03  0.20249539839E+03  0.00000000000E+00 0.  1.
         11    1    5    5    0    0  0.39294811262E+01 -0.94834556242E+01 -0.31912911280E+01  0.10749934491E+02  0.00000000000E+00 0. -1.
        -11    1    5    5    0    0  0.42194194960E+02 -0.52829109951E+03 -0.11007604914E+04  0.12216977922E+04  0.00000000000E+00 0.  1.
          4    1    6    6  503    0  0.17726571274E+02  0.47801165306E+02 -0.56666639087E+02  0.76225262998E+02  0.00000000000E+00 0. -1.
         -4    1    6    6    0  503 -0.92239153616E+02  0.26135154226E+03 -0.20227928730E+03  0.34311747285E+03  0.00000000000E+00 0.  1.
<mgrwt>
<rscale>  0 0.16251499E+04</rscale>
<asrwt>0</asrwt>
<pdfrwt beam="1">  1        1 0.24005801E+00 0.16251499E+04</pdfrwt>
<pdfrwt beam="2">  1       -2 0.65100439E-01 0.16251499E+04</pdfrwt>
<totfact> 0.10864211E+01</totfact>
</mgrwt>
</event>
<event>
12    4  0.4486176E-008  0.1753608E+04  0.7818608E-02  0.8731367E-01
         -2   -1    0    0    0  501 -0.00000000000E+00  0.00000000000E+00  0.76154068790E+03  0.76154068790E+03  0.00000000000E+00 0.  1.
          1   -1    0    0  501    0  0.00000000000E+00 -0.00000000000E+00 -0.10095125464E+04  0.10095125464E+04  0.00000000000E+00 0. -1.
        -24    2    1    2    0    0 -0.52110536708E+03 -0.35068467196E+02  0.28566020629E+03  0.60043893083E+03  0.78387213260E+02 0.  0.
        254    2    1    2    0    0  0.52110536708E+03  0.35068467196E+02 -0.53363206482E+03  0.11706143035E+04  0.90155092255E+03 0.  0.
         23    2    4    4    0    0 -0.19561596930E+03 -0.17169780257E+03 -0.23195525389E+03  0.36082687160E+03  0.92989508053E+02 0.  0.
         23    2    4    4    0    0  0.71672133638E+03  0.20676626976E+03 -0.30167681093E+03  0.80978743190E+03  0.91131894934E+02 0.  0.
          3    1    3    3  502    0 -0.13292247339E+03 -0.30562065103E+02  0.44706140188E+02  0.14353070308E+03  0.00000000000E+00 0. -1.
         -4    1    3    3    0  502 -0.38818289370E+03 -0.45064020935E+01  0.24095406610E+03  0.45690822775E+03  0.00000000000E+00 0.  1.
         11    1    5    5    0    0 -0.16506457739E+03 -0.93975737955E+02 -0.13594188045E+03  0.23357643052E+03  0.00000000000E+00 0. -1.
        -11    1    5    5    0    0 -0.30551391909E+02 -0.77722064613E+02 -0.96013373447E+02  0.12725044108E+03  0.00000000000E+00 0.  1.
          1    1    6    6  503    0  0.67189722927E+03  0.17263725654E+03 -0.26527089947E+03  0.74271001013E+03  0.00000000000E+00 0. -1.
         -1    1    6    6    0  503  0.44824107116E+02  0.34129013222E+02 -0.36405911457E+02  0.67077421770E+02  0.00000000000E+00 0.  1.
<mgrwt>
<rscale>  0 0.17536076E+04</rscale>
<asrwt>0</asrwt>
<pdfrwt beam="1">  1        1 0.15530962E+00 0.17536076E+04</pdfrwt>
<pdfrwt beam="2">  1       -2 0.11716011E+00 0.17536076E+04</pdfrwt>
<totfact> 0.69592521E+00</totfact>
</mgrwt>
</event>
<event>
12    4  0.4486176E-008  0.2213798E+04  0.7818608E-02  0.8512707E-01
          3   -1    0    0  501    0  0.00000000000E+00  0.00000000000E+00  0.83521737079E+03  0.83521737079E+03  0.00000000000E+00 0. -1.
         -4   -1    0    0    0  501 -0.00000000000E+00 -0.00000000000E+00 -0.14669535905E+04  0.14669535905E+04  0.00000000000E+00 0.  1.
        -24    2    1    2    0    0  0.74963744939E+03 -0.20948139076E+03 -0.77169189773E+03  0.10985154083E+04  0.73409527460E+02 0.  0.
        254    2    1    2    0    0 -0.74963744939E+03  0.20948139076E+03  0.13995567806E+03  0.12036555529E+04  0.90739205400E+03 0.  0.
         23    2    4    4    0    0 -0.68326091803E+03  0.59883475742E+02 -0.27862191730E+03  0.74628086491E+03  0.94198958298E+02 0.  0.
         23    2    4    4    0    0 -0.66376531352E+02  0.14959791502E+03  0.41857759536E+03  0.45737468801E+03  0.84847049489E+02 0.  0.
          3    1    3    3  502    0  0.16845735392E+03 -0.32356971192E+02 -0.20926500228E+03  0.27058583639E+03  0.00000000000E+00 0. -1.
         -4    1    3    3    0  502  0.58118009546E+03 -0.17712441957E+03 -0.56242689545E+03  0.82792957194E+03  0.00000000000E+00 0.  1.
         11    1    5    5    0    0 -0.77334246319E+02 -0.81799971701E+01 -0.48936396949E+01  0.77919482268E+02  0.00000000000E+00 0.  1.
        -11    1    5    5    0    0 -0.60592667172E+03  0.68063472912E+02 -0.27372827761E+03  0.66836138264E+03  0.00000000000E+00 0. -1.
          4    1    6    6  503    0 -0.24726156952E+02  0.11040164688E+03  0.35131780895E+03  0.36908550413E+03  0.00000000000E+00 0. -1.
         -4    1    6    6    0  503 -0.41650374401E+02  0.39196268136E+02  0.67259786411E+02  0.88289183888E+02  0.00000000000E+00 0.  1.
<mgrwt>
<rscale>  0 0.22137978E+04</rscale>
<asrwt>0</asrwt>
<pdfrwt beam="1">  1        3 0.12849498E+00 0.22137978E+04</pdfrwt>
<pdfrwt beam="2">  1       -4 0.22568516E+00 0.22137978E+04</pdfrwt>
<totfact> 0.89521519E-02</totfact>
</mgrwt>
</event>
<event>
12    4  0.4486176E-008  0.2249420E+04  0.7818608E-02  0.8498135E-01
         -2   -1    0    0    0  501 -0.00000000000E+00  0.00000000000E+00  0.66704427660E+03  0.66704427660E+03  0.00000000000E+00 0.  1.
          1   -1    0    0  501    0  0.00000000000E+00 -0.00000000000E+00 -0.18963848843E+04  0.18963848843E+04  0.00000000000E+00 0. -1.
        -24    2    1    2    0    0 -0.36394138949E+03  0.93668136427E+02  0.47439880273E+03  0.61041442649E+03  0.79526682747E+02 0.  0.
        254    2    1    2    0    0  0.36394138949E+03 -0.93668136427E+02 -0.17037394104E+04  0.19530147344E+04  0.87767392545E+03 0.  0.
         23    2    4    4    0    0  0.92428116245E+01 -0.18038926061E+03  0.60954817988E+01  0.20228018074E+03  0.90853738001E+02 0.  0.
         23    2    4    4    0    0  0.35469857786E+03  0.86721124187E+02 -0.17098348922E+04  0.17507345536E+04  0.90578608142E+02 0.  0.
          3    1    3    3  502    0 -0.81706893006E+02  0.52302293502E+02  0.95364996986E+02  0.13603686603E+03  0.00000000000E+00 0. -1.
         -4    1    3    3    0  502 -0.28223449648E+03  0.41365842925E+02  0.37903380574E+03  0.47437756045E+03  0.00000000000E+00 0.  1.
         11    1    5    5    0    0 -0.76569262885E+01 -0.18365279255E+03  0.11684988825E+02  0.18418337519E+03  0.00000000000E+00 0. -1.
        -11    1    5    5    0    0  0.16899737913E+02  0.32635319372E+01 -0.55895070265E+01  0.18096805548E+02  0.00000000000E+00 0.  1.
          2    1    6    6  503    0  0.10467780347E+03  0.34336733985E+02 -0.72437218469E+03  0.73270151890E+03  0.00000000000E+00 0.  1.
         -2    1    6    6    0  503  0.25002077439E+03  0.52384390202E+02 -0.98546270750E+03  0.10180330347E+04  0.00000000000E+00 0. -1.
<mgrwt>
<rscale>  0 0.22494201E+04</rscale>
<asrwt>0</asrwt>
<pdfrwt beam="1">  1        1 0.29175152E+00 0.22494201E+04</pdfrwt>
<pdfrwt beam="2">  1       -2 0.10262220E+00 0.22494201E+04</pdfrwt>
<totfact> 0.21697422E+00</totfact>
</mgrwt>
</event>
<event>
12    4  0.4486176E-008  0.1605703E+04  0.7818608E-02  0.8817052E-01
         -2   -1    0    0    0  501 -0.00000000000E+00  0.00000000000E+00  0.89487789099E+03  0.89487789099E+03  0.00000000000E+00 0.  1.
          1   -1    0    0  501    0  0.00000000000E+00 -0.00000000000E+00 -0.72028860202E+03  0.72028860202E+03  0.00000000000E+00 0. -1.
        -24    2    1    2    0    0 -0.32037019338E+02  0.26819410376E+03  0.54476573115E+03  0.61324477999E+03  0.79655573838E+02 0.  0.
        254    2    1    2    0    0  0.32037019338E+02 -0.26819410376E+03 -0.37017644219E+03  0.10019217130E+04  0.89098937860E+03 0.  0.
         23    2    4    4    0    0  0.29548291334E+03 -0.25457244461E+03 -0.54240550398E+03  0.67409513778E+03  0.89906854066E+02 0.  0.
         23    2    4    4    0    0 -0.26344589400E+03 -0.13621659148E+02  0.17222906179E+03  0.32782657524E+03  0.90653874978E+02 0.  0.
          1    1    3    3  502    0  0.24946328681E+02  0.92682864543E+02  0.16147687651E+03  0.18784891361E+03  0.00000000000E+00 0. -1.
         -2    1    3    3    0  502 -0.56983348019E+02  0.17551123921E+03  0.38328885464E+03  0.42539586638E+03  0.00000000000E+00 0.  1.
         11    1    5    5    0    0  0.49717004118E+02 -0.13800904522E+02 -0.40526164374E+02  0.65609568380E+02  0.00000000000E+00 0. -1.
        -11    1    5    5    0    0  0.24576590922E+03 -0.24077154009E+03 -0.50187933960E+03  0.60848556940E+03  0.00000000000E+00 0.  1.
          4    1    6    6  503    0 -0.15679240436E+01 -0.24541109145E+01  0.28970190536E+02  0.29116197999E+02  0.00000000000E+00 0. -1.
         -4    1    6    6    0  503 -0.26187796996E+03 -0.11167548233E+02  0.14325887125E+03  0.29871037725E+03  0.00000000000E+00 0.  1.
<mgrwt>
<rscale>  0 0.16057028E+04</rscale>
<asrwt>0</asrwt>
<pdfrwt beam="1">  1        1 0.11081363E+00 0.16057028E+04</pdfrwt>
<pdfrwt beam="2">  1       -2 0.13767352E+00 0.16057028E+04</pdfrwt>
<totfact> 0.82124519E+00</totfact>
</mgrwt>
</event>
<event>
12    4  0.4486176E-008  0.2622919E+04  0.7818608E-02  0.8360458E-01
         -2   -1    0    0    0  501 -0.00000000000E+00  0.00000000000E+00  0.19677246705E+04  0.19677246705E+04  0.00000000000E+00 0.  1.
          3   -1    0    0  501    0  0.00000000000E+00 -0.00000000000E+00 -0.87406850495E+03  0.87406850495E+03  0.00000000000E+00 0. -1.
        -24    2    1    2    0    0 -0.17556583570E+01  0.58841638679E+03  0.15587871366E+04  0.16679079311E+04  0.76567635918E+02 0.  0.
        254    2    1    2    0    0  0.17556583570E+01 -0.58841638679E+03 -0.46513097104E+03  0.11738852443E+04  0.90300765229E+03 0.  0.
         23    2    4    4    0    0  0.25124775664E+03 -0.38209644556E+03 -0.64188371972E+03  0.79373131168E+03  0.94188940754E+02 0.  0.
         23    2    4    4    0    0 -0.24949209828E+03 -0.20631994123E+03  0.17675274868E+03  0.38015393267E+03  0.91985070012E+02 0.  0.
          3    1    3    3  502    0 -0.31138696015E+01  0.79845794671E+02  0.29495872812E+03  0.30559073678E+03  0.00000000000E+00 0. -1.
         -2    1    3    3    0  502  0.13582112445E+01  0.50857059212E+03  0.12638284085E+04  0.13623171943E+04  0.00000000000E+00 0.  1.
         11    1    5    5    0    0  0.53472014082E+02 -0.45144542312E+02 -0.15029951015E+03  0.16579272825E+03  0.00000000000E+00 0.  1.
        -11    1    5    5    0    0  0.19777574256E+03 -0.33695190325E+03 -0.49158420958E+03  0.62793858342E+03  0.00000000000E+00 0. -1.
          1    1    6    6  503    0 -0.16370824473E+03 -0.18676101666E+03  0.12436063628E+03  0.27775102987E+03  0.00000000000E+00 0. -1.
         -1    1    6    6    0  503 -0.85783853551E+02 -0.19558924566E+02  0.52392112404E+02  0.10240290280E+03  0.00000000000E+00 0.  1.
<mgrwt>
<rscale>  0 0.26229191E+04</rscale>
<asrwt>0</asrwt>
<pdfrwt beam="1">  1        3 0.13447208E+00 0.26229191E+04</pdfrwt>
<pdfrwt beam="2">  1       -2 0.30272687E+00 0.26229191E+04</pdfrwt>
<totfact> 0.48037234E-02</totfact>
</mgrwt>
</event>
<event>
12    4  0.4486176E-008  0.2662114E+04  0.7818608E-02  0.8347403E-01
         -2   -1    0    0    0  501 -0.00000000000E+00  0.00000000000E+00  0.69431624713E+03  0.69431624713E+03  0.00000000000E+00 0.  1.
          1   -1    0    0  501    0  0.00000000000E+00 -0.00000000000E+00 -0.25517375618E+04  0.25517375618E+04  0.00000000000E+00 0. -1.
        -24    2    1    2    0    0  0.47803591438E+01  0.72475028832E+03  0.30749956472E+03  0.79098420648E+03  0.76250903965E+02 0.  0.
        254    2    1    2    0    0 -0.47803591438E+01 -0.72475028832E+03 -0.21649208794E+04  0.24550696024E+04  0.90288344021E+03 0.  0.
         23    2    4    4    0    0  0.34238379830E+03 -0.71277244241E+03 -0.14104933683E+04  0.16195537097E+04  0.90506666682E+02 0.  0.
         23    2    4    4    0    0 -0.34716415745E+03 -0.11977845906E+02 -0.75442751108E+03  0.83551589270E+03  0.90881881981E+02 0.  0.
          1    1    3    3  502    0  0.32748999258E+02  0.39876180383E+03  0.14407296964E+03  0.42525344646E+03  0.00000000000E+00 0. -1.
         -2    1    3    3    0  502 -0.27968640114E+02  0.32598848449E+03  0.16342659508E+03  0.36573076002E+03  0.00000000000E+00 0.  1.
         11    1    5    5    0    0 -0.46496373235E+01 -0.13496977115E+02 -0.37812904346E+02  0.40417858102E+02  0.00000000000E+00 0. -1.
        -11    1    5    5    0    0  0.34703343562E+03 -0.69927546530E+03 -0.13726804639E+04  0.15791358516E+04  0.00000000000E+00 0.  1.
          3    1    6    6  503    0 -0.28593374497E+02 -0.12097019776E+01 -0.14462951855E+03  0.14743385663E+03  0.00000000000E+00 0. -1.
         -3    1    6    6    0  503 -0.31857078295E+03 -0.10768143928E+02 -0.60979799253E+03  0.68808203607E+03  0.00000000000E+00 0.  1.
<mgrwt>
<rscale>  0 0.26621141E+04</rscale>
<asrwt>0</asrwt>
<pdfrwt beam="1">  1        1 0.39257501E+00 0.26621141E+04</pdfrwt>
<pdfrwt beam="2">  1       -2 0.10681788E+00 0.26621141E+04</pdfrwt>
<totfact> 0.67733502E-01</totfact>
</mgrwt>
</event>
<event>
12    4  0.4486176E-008  0.1695885E+04  0.7818608E-02  0.8763715E-01
          1   -1    0    0  501    0  0.00000000000E+00  0.00000000000E+00  0.13096776162E+04  0.13096776162E+04  0.00000000000E+00 0. -1.
         -2   -1    0    0    0  501 -0.00000000000E+00 -0.00000000000E+00 -0.54899524663E+03  0.54899524663E+03  0.00000000000E+00 0.  1.
        -24    2    1    2    0    0  0.49996161077E+03  0.23837792005E+03  0.54346988322E+03  0.77881296476E+03  0.66366219464E+02 0.  0.
        254    2    1    2    0    0 -0.49996161077E+03 -0.23837792005E+03  0.21721248635E+03  0.10798598981E+04  0.90118282842E+03 0.  0.
         23    2    4    4    0    0 -0.69444509219E+03 -0.36564017833E+03  0.24755770611E+03  0.82836584378E+03  0.94648968356E+02 0.  0.
         23    2    4    4    0    0  0.19448348141E+03  0.12726225828E+03 -0.30345219759E+02  0.25149405430E+03  0.91153277855E+02 0.  0.
          1    1    3    3  502    0  0.40753026690E+03  0.21314463667E+03  0.47414963488E+03  0.66055236798E+03  0.00000000000E+00 0. -1.
         -2    1    3    3    0  502  0.92431343873E+02  0.25233283377E+02  0.69320248343E+02  0.11826059678E+03  0.00000000000E+00 0.  1.
         11    1    5    5    0    0 -0.61659183131E+03 -0.28804414674E+03  0.21042196088E+03  0.71234283778E+03  0.00000000000E+00 0. -1.
        -11    1    5    5    0    0 -0.77853260873E+02 -0.77596031591E+02  0.37135745232E+02  0.11602300600E+03  0.00000000000E+00 0.  1.
          4    1    6    6  503    0  0.11519826234E+03  0.37423397341E+02 -0.48175128918E+02  0.13035334043E+03  0.00000000000E+00 0. -1.
         -4    1    6    6    0  503  0.79285219075E+02  0.89838860936E+02  0.17829909158E+02  0.12114071388E+03  0.00000000000E+00 0.  1.
<mgrwt>
<rscale>  0 0.16958854E+04</rscale>
<asrwt>0</asrwt>
<pdfrwt beam="1">  1        1 0.20148886E+00 0.16958854E+04</pdfrwt>
<pdfrwt beam="2">  1       -2 0.84460807E-01 0.16958854E+04</pdfrwt>
<totfact> 0.90890083E+00</totfact>
</mgrwt>
</event>
<event>
12    4  0.4486176E-008  0.1347863E+04  0.7818608E-02  0.8992447E-01
          3   -1    0    0  501    0  0.00000000000E+00  0.00000000000E+00  0.15260113593E+04  0.15260113593E+04  0.00000000000E+00 0. -1.
         -4   -1    0    0    0  501 -0.00000000000E+00 -0.00000000000E+00 -0.29762812368E+03  0.29762812368E+03  0.00000000000E+00 0.  1.
        -24    2    1    2    0    0  0.27170819190E+03  0.20411380373E+03  0.14390534623E+03  0.37473487513E+03  0.65036078798E+02 0.  0.
        254    2    1    2    0    0 -0.27170819190E+03 -0.20411380373E+03  0.10844778894E+04  0.14489046079E+04  0.89874606184E+03 0.  0.
         23    2    4    4    0    0 -0.62725592266E+02 -0.96411693929E+02  0.11725701155E+04  0.11816697531E+04  0.90515274157E+02 0.  0.
         23    2    4    4    0    0 -0.20898259963E+03 -0.10770210980E+03 -0.88092226104E+02  0.26723485480E+03  0.91546468617E+02 0.  0.
          3    1    3    3  502    0  0.22745587433E+03  0.17051362817E+03  0.14509160798E+03  0.31915928134E+03  0.00000000000E+00 0. -1.
         -4    1    3    3    0  502  0.44252317571E+02  0.33600175562E+02 -0.11862617513E+01  0.55575593790E+02  0.00000000000E+00 0.  1.
         11    1    5    5    0    0 -0.64432524993E+02 -0.11059220036E+03  0.94171959978E+03  0.95037781418E+03  0.00000000000E+00 0. -1.
        -11    1    5    5    0    0  0.17069327268E+01  0.14180506431E+02  0.23085051574E+03  0.23129193890E+03  0.00000000000E+00 0.  1.
          1    1    6    6  503    0 -0.68875169925E+02 -0.42145928896E+00 -0.53970527430E+02  0.87503054182E+02  0.00000000000E+00 0. -1.
         -1    1    6    6    0  503 -0.14010742971E+03 -0.10728065051E+03 -0.34121698674E+02  0.17973180062E+03  0.00000000000E+00 0.  1.
<mgrwt>
<rscale>  0 0.13478633E+04</rscale>
<asrwt>0</asrwt>
<pdfrwt beam="1">  1        3 0.23477097E+00 0.13478633E+04</pdfrwt>
<pdfrwt beam="2">  1       -4 0.45788943E-01 0.13478633E+04</pdfrwt>
<totfact> 0.94145281E-01</totfact>
</mgrwt>
</event>
<event>
12    4  0.4486176E-008  0.1189680E+04  0.7818608E-02  0.9121938E-01
         -2   -1    0    0    0  501 -0.00000000000E+00  0.00000000000E+00  0.58953635823E+03  0.58953635823E+03  0.00000000000E+00 0.  1.
          1   -1    0    0  501    0  0.00000000000E+00 -0.00000000000E+00 -0.60019127285E+03  0.60019127285E+03  0.00000000000E+00 0. -1.
        -24    2    1    2    0    0  0.10319355172E+02  0.40140403954E+02  0.24184830143E+03  0.25835919942E+03  0.80877276777E+02 0.  0.
        254    2    1    2    0    0 -0.10319355172E+02 -0.40140403954E+02 -0.25250321605E+03  0.93136843167E+03  0.89552863733E+03 0.  0.
         23    2    4    4    0    0 -0.96558547016E+02 -0.43944382490E+02 -0.57166089949E+03  0.58886880381E+03  0.93357497494E+02 0.  0.
         23    2    4    4    0    0  0.86239191844E+02  0.38039785361E+01  0.31915768343E+03  0.34249962786E+03  0.89401900028E+02 0.  0.
          1    1    3    3  502    0 -0.30405773760E+02  0.31076827837E+01  0.48493506058E+02  0.57321801263E+02  0.00000000000E+00 0. -1.
         -2    1    3    3    0  502  0.40725128932E+02  0.37032721170E+02  0.19335479537E+03  0.20103739816E+03  0.00000000000E+00 0.  1.
         11    1    5    5    0    0 -0.41148997932E+02 -0.69035081608E+02 -0.31320099106E+03  0.32334802199E+03  0.00000000000E+00 0. -1.
        -11    1    5    5    0    0 -0.55409549084E+02  0.25090699118E+02 -0.25845990843E+03  0.26552078182E+03  0.00000000000E+00 0.  1.
          3    1    6    6  503    0  0.35845707844E+02  0.46028111461E+02  0.15955892500E+03  0.16988982419E+03  0.00000000000E+00 0. -1.
         -3    1    6    6    0  503  0.50393484001E+02 -0.42224132925E+02  0.15959875843E+03  0.17260980367E+03  0.00000000000E+00 0.  1.
<mgrwt>
<rscale>  0 0.11896799E+04</rscale>
<asrwt>0</asrwt>
<pdfrwt beam="1">  1        1 0.92337119E-01 0.11896799E+04</pdfrwt>
<pdfrwt beam="2">  1       -2 0.90697902E-01 0.11896799E+04</pdfrwt>
<totfact> 0.30811565E+01</totfact>
</mgrwt>
</event>
<event>
12    4  0.4486176E-008  0.1910544E+04  0.7818608E-02  0.8649626E-01
          1   -1    0    0  501    0  0.00000000000E+00  0.00000000000E+00  0.16047193822E+04  0.16047193822E+04  0.00000000000E+00 0. -1.
         -2   -1    0    0    0  501 -0.00000000000E+00 -0.00000000000E+00 -0.56866304458E+03  0.56866304458E+03  0.00000000000E+00 0.  1.
        -24    2    1    2    0    0  0.19213298351E+03 -0.58686267043E+03 -0.55917366850E+02  0.62525378103E+03  0.80577053032E+02 0.  0.
        254    2    1    2    0    0 -0.19213298351E+03  0.58686267043E+03  0.10919737044E+04  0.15481286457E+04  0.90717851343E+03 0.  0.
         23    2    4    4    0    0 -0.42844780372E+03  0.96768456969E+02  0.18167508608E+03  0.48374589146E+03  0.89847625588E+02 0.  0.
         23    2    4    4    0    0  0.23631482021E+03  0.49009421346E+03  0.91029861835E+03  0.10643827543E+04  0.90719571627E+02 0.  0.
          1    1    3    3  502    0 -0.71440821102E+01 -0.15513784425E+02  0.27995134990E+01  0.17307590595E+02  0.00000000000E+00 0. -1.
         -2    1    3    3    0  502  0.19927706562E+03 -0.57134888600E+03 -0.58716880349E+02  0.60794619043E+03  0.00000000000E+00 0.  1.
         11    1    5    5    0    0 -0.22082765114E+03  0.85296955451E+02  0.12744246331E+03  0.26885312639E+03  0.00000000000E+00 0. -1.
        -11    1    5    5    0    0 -0.20762015259E+03  0.11471501518E+02  0.54232622776E+02  0.21489276507E+03  0.00000000000E+00 0.  1.
          2    1    6    6  503    0  0.66343319018E+02  0.13551385479E+03  0.33652196951E+03  0.36879869411E+03  0.00000000000E+00 0. -1.
         -2    1    6    6    0  503  0.16997150119E+03  0.35458035867E+03  0.57377664884E+03  0.69558406014E+03  0.00000000000E+00 0.  1.
<mgrwt>
<rscale>  0 0.19105440E+04</rscale>
<asrwt>0</asrwt>
<pdfrwt beam="1">  1        1 0.24687990E+00 0.19105440E+04</pdfrwt>
<pdfrwt beam="2">  1       -2 0.87486623E-01 0.19105440E+04</pdfrwt>
<totfact> 0.51262659E+00</totfact>
</mgrwt>
</event>
<event>
12    4  0.4486176E-008  0.1792114E+04  0.7818608E-02  0.8710505E-01
          1   -1    0    0  501    0  0.00000000000E+00  0.00000000000E+00  0.18901140815E+04  0.18901140815E+04  0.00000000000E+00 0. -1.
         -2   -1    0    0    0  501 -0.00000000000E+00 -0.00000000000E+00 -0.42479869115E+03  0.42479869115E+03  0.00000000000E+00 0.  1.
        -24    2    1    2    0    0  0.36901936112E+03  0.30081422571E+03 -0.52724717148E+02  0.48550696759E+03  0.79199952676E+02 0.  0.
        254    2    1    2    0    0 -0.36901936112E+03 -0.30081422571E+03  0.15180401075E+04  0.18294058051E+04  0.90311424768E+03 0.  0.
         23    2    4    4    0    0  0.24759832389E+03 -0.34678676851E+02  0.79279965077E+03  0.83620703710E+03  0.90572523424E+02 0.  0.
         23    2    4    4    0    0 -0.61661768501E+03 -0.26613554886E+03  0.72524045671E+03  0.99319876796E+03  0.97080238892E+02 0.  0.
          3    1    3    3  502    0  0.26117048646E+03  0.23687586320E+03 -0.89396389995E+01  0.35270400439E+03  0.00000000000E+00 0. -1.
         -4    1    3    3    0  502  0.10784887466E+03  0.63938362512E+02 -0.43785078148E+02  0.13280296320E+03  0.00000000000E+00 0.  1.
         11    1    5    5    0    0  0.56685637278E+02  0.15221277450E+02  0.29385547318E+03  0.29965978689E+03  0.00000000000E+00 0. -1.
        -11    1    5    5    0    0  0.19091268661E+03 -0.49899954300E+02  0.49894417760E+03  0.53654725021E+03  0.00000000000E+00 0.  1.
          2    1    6    6  503    0 -0.47983711749E+03 -0.21761139557E+03  0.62163786544E+03  0.81488159542E+03  0.00000000000E+00 0.  1.
         -2    1    6    6    0  503 -0.13678056752E+03 -0.48524153289E+02  0.10360259127E+03  0.17831717254E+03  0.00000000000E+00 0. -1.
<mgrwt>
<rscale>  0 0.17921138E+04</rscale>
<asrwt>0</asrwt>
<pdfrwt beam="1">  1        1 0.29078678E+00 0.17921138E+04</pdfrwt>
<pdfrwt beam="2">  1       -2 0.65353646E-01 0.17921138E+04</pdfrwt>
<totfact> 0.63298756E+00</totfact>
</mgrwt>
</event>
<event>
12    4  0.4486176E-008  0.1003802E+04  0.7818608E-02  0.9304385E-01
          1   -1    0    0  501    0  0.00000000000E+00  0.00000000000E+00  0.24731128225E+04  0.24731128225E+04  0.00000000000E+00 0. -1.
         -2   -1    0    0    0  501 -0.00000000000E+00 -0.00000000000E+00 -0.10185731331E+03  0.10185731331E+03  0.00000000000E+00 0.  1.
        -24    2    1    2    0    0 -0.22557505108E+02  0.38713473472E+01  0.37087759204E+03  0.38028275760E+03  0.80876196034E+02 0.  0.
        254    2    1    2    0    0  0.22557505108E+02 -0.38713473472E+01  0.20003779172E+04  0.21946873782E+04  0.90256138201E+03 0.  0.
         23    2    4    4    0    0 -0.37164907494E+03 -0.10931170097E+01  0.44527601254E+03  0.58734936812E+03  0.92651622123E+02 0.  0.
         23    2    4    4    0    0  0.39420658004E+03 -0.27782303374E+01  0.15551019046E+04  0.16073380101E+04  0.98929260843E+02 0.  0.
          3    1    3    3  502    0 -0.43048809483E+02 -0.50774362466E+01  0.33645191928E+03  0.33923277309E+03  0.00000000000E+00 0. -1.
         -4    1    3    3    0  502  0.20491304375E+02  0.89487835938E+01  0.34425672760E+02  0.41049984503E+02  0.00000000000E+00 0.  1.
         11    1    5    5    0    0 -0.32352374111E+02 -0.27211181756E+02  0.58556933808E+02  0.72222150482E+02  0.00000000000E+00 0. -1.
        -11    1    5    5    0    0 -0.33929670082E+03  0.26118064746E+02  0.38671907873E+03  0.51512721764E+03  0.00000000000E+00 0.  1.
          4    1    6    6  503    0  0.13183707747E+03  0.18903854350E+01  0.35035220727E+03  0.37434109805E+03  0.00000000000E+00 0. -1.
         -4    1    6    6    0  503  0.26236950257E+03 -0.46686157724E+01  0.12047496974E+04  0.12329969121E+04  0.00000000000E+00 0.  1.
<mgrwt>
<rscale>  0 0.10038020E+04</rscale>
<asrwt>0</asrwt>
<pdfrwt beam="1">  1        1 0.38047885E+00 0.10038020E+04</pdfrwt>
<pdfrwt beam="2">  1       -2 0.15670358E-01 0.10038020E+04</pdfrwt>
<totfact> 0.41060781E+01</totfact>
</mgrwt>
</event>
<event>
12    4  0.4486176E-008  0.1217272E+04  0.7818608E-02  0.9097871E-01
         -2   -1    0    0    0  501 -0.00000000000E+00  0.00000000000E+00  0.35436431043E+03  0.35436431043E+03  0.00000000000E+00 0.  1.
          1   -1    0    0  501    0  0.00000000000E+00 -0.00000000000E+00 -0.10453592616E+04  0.10453592616E+04  0.00000000000E+00 0. -1.
        -24    2    1    2    0    0  0.34626059427E+02 -0.12785584642E+03  0.10572290795E+03  0.18741801076E+03  0.80013099169E+02 0.  0.
        254    2    1    2    0    0 -0.34626059427E+02  0.12785584642E+03 -0.79671785909E+03  0.12123055612E+04  0.90409034137E+03 0.  0.
         23    2    4    4    0    0  0.82810962452E+02 -0.23191098175E+03 -0.77798567898E+03  0.82200370396E+03  0.98934390686E+02 0.  0.
         23    2    4    4    0    0 -0.11743702188E+03  0.35976682817E+03 -0.18732180106E+02  0.39030185727E+03  0.93600322968E+02 0.  0.
          3    1    3    3  502    0 -0.34798523317E+01 -0.12303475021E+01  0.39236092543E+02  0.39409314702E+02  0.00000000000E+00 0. -1.
         -4    1    3    3    0  502  0.38105911759E+02 -0.12662549892E+03  0.66486815402E+02  0.14800869606E+03  0.00000000000E+00 0.  1.
         11    1    5    5    0    0  0.77643114032E+01 -0.16261659735E+03 -0.50068316146E+03  0.52648653396E+03  0.00000000000E+00 0.  1.
        -11    1    5    5    0    0  0.75046651049E+02 -0.69294384404E+02 -0.27730251752E+03  0.29551717000E+03  0.00000000000E+00 0. -1.
          3    1    6    6  503    0 -0.10863701408E+03  0.32214016307E+03  0.13128965010E+02  0.34021854037E+03  0.00000000000E+00 0.  1.
         -3    1    6    6    0  503 -0.88000078046E+01  0.37626665105E+02 -0.31861145116E+02  0.50083316906E+02  0.00000000000E+00 0. -1.
<mgrwt>
<rscale>  0 0.12172724E+04</rscale>
<asrwt>0</asrwt>
<pdfrwt beam="1">  1        1 0.16082450E+00 0.12172724E+04</pdfrwt>
<pdfrwt beam="2">  1       -2 0.54517587E-01 0.12172724E+04</pdfrwt>
<totfact> 0.38291109E+01</totfact>
</mgrwt>
</event>
<event>
12    4  0.4486176E-008  0.3201687E+04  0.7818608E-02  0.8188372E-01
         -2   -1    0    0    0  501 -0.00000000000E+00  0.00000000000E+00  0.75587651386E+03  0.75587651386E+03  0.00000000000E+00 0.  1.
          1   -1    0    0  501    0  0.00000000000E+00 -0.00000000000E+00 -0.33903680131E+04  0.33903680131E+04  0.00000000000E+00 0. -1.
        -24    2    1    2    0    0  0.13550055117E+03 -0.35052878731E+03  0.63053506825E+03  0.73823970685E+03  0.78692835612E+02 0.  0.
        254    2    1    2    0    0 -0.13550055117E+03  0.35052878731E+03 -0.32650265675E+04  0.34080048201E+04  0.90159166888E+03 0.  0.
         23    2    4    4    0    0 -0.29500895478E+03 -0.40553462617E+02 -0.38606441523E+03  0.49684626031E+03  0.95580369027E+02 0.  0.
         23    2    4    4    0    0  0.15950840361E+03  0.39108224993E+03 -0.28789621523E+04  0.29111585598E+04  0.89626051692E+02 0.  0.
          1    1    3    3  502    0  0.99844032019E+02 -0.14965753083E+03  0.29015673960E+03  0.34140465844E+03  0.00000000000E+00 0. -1.
         -2    1    3    3    0  502  0.35656519147E+02 -0.20087125648E+03  0.34037832865E+03  0.39683504841E+03  0.00000000000E+00 0.  1.
         11    1    5    5    0    0 -0.80243286813E+02 -0.53105411706E+02 -0.14160485712E+03  0.17120486381E+03  0.00000000000E+00 0.  1.
        -11    1    5    5    0    0 -0.21476566797E+03  0.12551949088E+02 -0.24445955810E+03  0.32564139650E+03  0.00000000000E+00 0. -1.
          4    1    6    6  503    0  0.12845025034E+03  0.20669856887E+03 -0.17439559786E+04  0.17608538328E+04  0.00000000000E+00 0. -1.
         -4    1    6    6    0  503  0.31058153271E+02  0.18438368105E+03 -0.11350061736E+04  0.11503047270E+04  0.00000000000E+00 0.  1.
<mgrwt>
<rscale>  0 0.32016868E+04</rscale>
<asrwt>0</asrwt>
<pdfrwt beam="1">  1        1 0.52159508E+00 0.32016868E+04</pdfrwt>
<pdfrwt beam="2">  1       -2 0.11628869E+00 0.32016868E+04</pdfrwt>
<totfact> 0.12849734E-01</totfact>
</mgrwt>
</event>
<event>
12    4  0.4486176E-008  0.2518853E+04  0.7818608E-02  0.8396300E-01
         -2   -1    0    0    0  501 -0.00000000000E+00  0.00000000000E+00  0.11631298792E+04  0.11631298792E+04  0.00000000000E+00 0.  1.
          1   -1    0    0  501    0  0.00000000000E+00 -0.00000000000E+00 -0.13636952046E+04  0.13636952046E+04  0.00000000000E+00 0. -1.
        -24    2    1    2    0    0  0.62974328631E+02 -0.84430708588E+03 -0.78652218596E+03  0.11583737121E+04  0.79951776741E+02 0.  0.
        254    2    1    2    0    0 -0.62974328631E+02  0.84430708588E+03  0.58595686058E+03  0.13684513717E+04  0.90138420939E+03 0.  0.
         23    2    4    4    0    0 -0.41824370171E+02  0.29289677962E+03 -0.22570138033E+03  0.38300449450E+03  0.90628517989E+02 0.  0.
         23    2    4    4    0    0 -0.21149958460E+02  0.55141030626E+03  0.81165824091E+03  0.98544687721E+03  0.88407019938E+02 0.  0.
          3    1    3    3  502    0  0.58382658511E+02 -0.30419064684E+03 -0.26691402159E+03  0.40888088651E+03  0.00000000000E+00 0. -1.
         -4    1    3    3    0  502  0.45916701202E+01 -0.54011643905E+03 -0.51960816438E+03  0.74949282562E+03  0.00000000000E+00 0.  1.
         11    1    5    5    0    0 -0.25853495679E+02  0.24653990663E+03 -0.14113770050E+03  0.28525458682E+03  0.00000000000E+00 0. -1.
        -11    1    5    5    0    0 -0.15970874492E+02  0.46356872995E+02 -0.84563679827E+02  0.97749907682E+02  0.00000000000E+00 0.  1.
          3    1    6    6  503    0  0.81546187962E+01  0.51251377790E+02  0.12579065069E+03  0.13607530758E+03  0.00000000000E+00 0. -1.
         -3    1    6    6    0  503 -0.29304577256E+02  0.50015892847E+03  0.68586759022E+03  0.84937156963E+03  0.00000000000E+00 0.  1.
<mgrwt>
<rscale>  0 0.25188526E+04</rscale>
<asrwt>0</asrwt>
<pdfrwt beam="1">  1        1 0.20979926E+00 0.25188526E+04</pdfrwt>
<pdfrwt beam="2">  1       -2 0.17894306E+00 0.25188526E+04</pdfrwt>
<totfact> 0.11701077E+00</totfact>
</mgrwt>
</event>
<event>
12    4  0.4486176E-008  0.1864910E+04  0.7818608E-02  0.8672523E-01
         -2   -1    0    0    0  501 -0.00000000000E+00  0.00000000000E+00  0.10263074055E+04  0.10263074055E+04  0.00000000000E+00 0.  1.
          1   -1    0    0  501    0  0.00000000000E+00 -0.00000000000E+00 -0.84718547666E+03  0.84718547666E+03  0.00000000000E+00 0. -1.
        -24    2    1    2    0    0 -0.82243418508E+02 -0.66083850472E+03  0.32634407799E+03  0.74568366419E+03  0.77924069364E+02 0.  0.
        254    2    1    2    0    0  0.82243418508E+02  0.66083850472E+03 -0.14722214920E+03  0.11278092179E+04  0.89822478346E+03 0.  0.
         23    2    4    4    0    0  0.10066433522E+03  0.83359268801E+03 -0.28117853752E+03  0.89014524346E+03  0.91033546556E+02 0.  0.
         23    2    4    4    0    0 -0.18420916715E+02 -0.17275418329E+03  0.13395638832E+03  0.23766397448E+03  0.91413963789E+02 0.  0.
          3    1    3    3  502    0 -0.12163322411E+02 -0.13928020780E+02  0.19030342268E+01  0.18589182719E+02  0.00000000000E+00 0. -1.
         -4    1    3    3    0  502 -0.70080096097E+02 -0.64691048394E+03  0.32444104377E+03  0.72709448147E+03  0.00000000000E+00 0.  1.
         11    1    5    5    0    0  0.10974766515E+03  0.80590572821E+03 -0.25920047432E+03  0.85364716286E+03  0.00000000000E+00 0.  1.
        -11    1    5    5    0    0 -0.90833299283E+01  0.27686959798E+02 -0.21978063193E+02  0.36498080596E+02  0.00000000000E+00 0. -1.
          3    1    6    6  503    0 -0.31089987851E+01  0.14785440354E+01  0.38021674680E+02  0.38177214558E+02  0.00000000000E+00 0. -1.
         -3    1    6    6    0  503 -0.15311917930E+02 -0.17423272732E+03  0.95934713640E+02  0.19948675992E+03  0.00000000000E+00 0.  1.
<mgrwt>
<rscale>  0 0.18649104E+04</rscale>
<asrwt>0</asrwt>
<pdfrwt beam="1">  1        1 0.13033623E+00 0.18649104E+04</pdfrwt>
<pdfrwt beam="2">  1       -2 0.15789345E+00 0.18649104E+04</pdfrwt>
<totfact> 0.43224763E+00</totfact>
</mgrwt>
</event>
<event>
12    4  0.4486176E-008  0.1040645E+04  0.7818608E-02  0.9265056E-01
         -2   -1    0    0    0  501 -0.00000000000E+00  0.00000000000E+00  0.25006513969E+03  0.25006513969E+03  0.00000000000E+00 0.  1.
          1   -1    0    0  501    0  0.00000000000E+00 -0.00000000000E+00 -0.10826592175E+04  0.10826592175E+04  0.00000000000E+00 0. -1.
        -24    2    1    2    0    0 -0.92188194023E+01  0.99790570666E+02 -0.12212001628E+03  0.17753014443E+03  0.80996970189E+02 0.  0.
        254    2    1    2    0    0  0.92188194023E+01 -0.99790570666E+02 -0.71047406157E+03  0.11551942128E+04  0.90534917712E+03 0.  0.
         23    2    4    4    0    0 -0.39306459309E+02 -0.13788362329E+03  0.18550746962E+03  0.25251881004E+03  0.93786122778E+02 0.  0.
         23    2    4    4    0    0  0.48525278711E+02  0.38093052620E+02 -0.89598153119E+03  0.90267540277E+03  0.90742466274E+02 0.  0.
          1    1    3    3  502    0 -0.15158042891E+02 -0.60196080886E+01 -0.40829970346E+02  0.43966901463E+02  0.00000000000E+00 0. -1.
         -2    1    3    3    0  502  0.59392234885E+01  0.10581017875E+03 -0.81290045936E+02  0.13356324297E+03  0.00000000000E+00 0.  1.
         11    1    5    5    0    0 -0.25061315629E+02 -0.65280612959E+02  0.22418253110E+02  0.73431641966E+02  0.00000000000E+00 0.  1.
        -11    1    5    5    0    0 -0.14245143680E+02 -0.72603010327E+02  0.16308921651E+03  0.17908716808E+03  0.00000000000E+00 0. -1.
          3    1    6    6  503    0 -0.27675397613E+01 -0.26462508563E+02 -0.26416990998E+03  0.26550643113E+03  0.00000000000E+00 0. -1.
         -3    1    6    6    0  503  0.51292818472E+02  0.64555561183E+02 -0.63181162122E+03  0.63716897163E+03  0.00000000000E+00 0.  1.
<mgrwt>
<rscale>  0 0.10406447E+04</rscale>
<asrwt>0</asrwt>
<pdfrwt beam="1">  1        1 0.16656296E+00 0.10406447E+04</pdfrwt>
<pdfrwt beam="2">  1       -2 0.38471559E-01 0.10406447E+04</pdfrwt>
<totfact> 0.73102590E+01</totfact>
</mgrwt>
</event>
<event>
12    4  0.4486176E-008  0.2151073E+04  0.7818608E-02  0.8539073E-01
          1   -1    0    0  501    0  0.00000000000E+00  0.00000000000E+00  0.22597816892E+04  0.22597816892E+04  0.00000000000E+00 0. -1.
         -2   -1    0    0    0  501 -0.00000000000E+00 -0.00000000000E+00 -0.51189853185E+03  0.51189853185E+03  0.00000000000E+00 0.  1.
        -24    2    1    2    0    0 -0.21849033667E+03 -0.73980142553E+03  0.12715164921E+04  0.14902389420E+04  0.94940708332E+02 0.  0.
        254    2    1    2    0    0  0.21849033667E+03  0.73980142553E+03  0.47636666528E+03  0.12814412791E+04  0.90560608189E+03 0.  0.
         23    2    4    4    0    0  0.23058503001E+03  0.31901957600E+03 -0.22173905184E+03  0.46169370500E+03  0.95131089493E+02 0.  0.
         23    2    4    4    0    0 -0.12094693344E+02  0.42078184953E+03  0.69810571712E+03  0.81974757410E+03  0.86202357636E+02 0.  0.
          1    1    3    3  502    0 -0.19694662543E+03 -0.51991095693E+03  0.92852600978E+03  0.10822457795E+04  0.00000000000E+00 0. -1.
         -2    1    3    3    0  502 -0.21543711234E+02 -0.21989046859E+03  0.34299048231E+03  0.40799316247E+03  0.00000000000E+00 0.  1.
         11    1    5    5    0    0 -0.10393062888E+00  0.48766793692E+02 -0.37009938538E+02  0.61220474673E+02  0.00000000000E+00 0.  1.
        -11    1    5    5    0    0  0.23068896064E+03  0.27025278230E+03 -0.18472911330E+03  0.40047323032E+03  0.00000000000E+00 0. -1.
          2    1    6    6  503    0 -0.25907786013E+02  0.41065465839E+03  0.68017753394E+03  0.79495279074E+03  0.00000000000E+00 0. -1.
         -2    1    6    6    0  503  0.13813092669E+02  0.10127191138E+02  0.17928183184E+02  0.24794783357E+02  0.00000000000E+00 0.  1.
<mgrwt>
<rscale>  0 0.21510732E+04</rscale>
<asrwt>0</asrwt>
<pdfrwt beam="1">  1        1 0.34765872E+00 0.21510732E+04</pdfrwt>
<pdfrwt beam="2">  1       -2 0.78753621E-01 0.21510732E+04</pdfrwt>
<totfact> 0.22841323E+00</totfact>
</mgrwt>
</event>
<event>
12    4  0.4486176E-008  0.1463399E+04  0.7818608E-02  0.8909164E-01
          1   -1    0    0  501    0  0.00000000000E+00  0.00000000000E+00  0.10487158231E+04  0.10487158231E+04  0.00000000000E+00 0. -1.
         -2   -1    0    0    0  501 -0.00000000000E+00 -0.00000000000E+00 -0.51051411782E+03  0.51051411782E+03  0.00000000000E+00 0.  1.
        -24    2    1    2    0    0 -0.41926575317E+03 -0.21132440187E+02  0.31806893421E+03  0.53263628323E+03  0.79392767276E+02 0.  0.
        254    2    1    2    0    0  0.41926575317E+03  0.21132440187E+02  0.22013277103E+03  0.10265936577E+04  0.91060735185E+03 0.  0.
         23    2    4    4    0    0  0.43797096465E+03  0.53401818915E+02  0.53331482726E+03  0.69824563988E+03  0.91934479382E+02 0.  0.
         23    2    4    4    0    0 -0.18705211481E+02 -0.32269378728E+02 -0.31318205623E+03  0.32834801777E+03  0.91313869079E+02 0.  0.
          1    1    3    3  502    0 -0.26868642960E+03  0.13417481606E+02  0.23510603534E+03  0.35727758692E+03  0.00000000000E+00 0. -1.
         -2    1    3    3    0  502 -0.15057932356E+03 -0.34549921792E+02  0.82962898874E+02  0.17535869631E+03  0.00000000000E+00 0.  1.
         11    1    5    5    0    0  0.32287321972E+02  0.13713914969E+02  0.86983169665E+02  0.93790268306E+02  0.00000000000E+00 0. -1.
        -11    1    5    5    0    0  0.40568364268E+03  0.39687903946E+02  0.44633165760E+03  0.60445537158E+03  0.00000000000E+00 0.  1.
          2    1    6    6  503    0  0.21489632689E+02  0.29869830941E+01 -0.17509614011E+02  0.27880332924E+02  0.00000000000E+00 0. -1.
         -2    1    6    6    0  503 -0.40194844170E+02 -0.35256361822E+02 -0.29567244222E+03  0.30046768485E+03  0.00000000000E+00 0.  1.
<mgrwt>
<rscale>  0 0.14633991E+04</rscale>
<asrwt>0</asrwt>
<pdfrwt beam="1">  1        1 0.16134089E+00 0.14633991E+04</pdfrwt>
<pdfrwt beam="2">  1       -2 0.78540634E-01 0.14633991E+04</pdfrwt>
<totfact> 0.16999226E+01</totfact>
</mgrwt>
</event>
<event>
12    4  0.4486176E-008  0.1659393E+04  0.7818608E-02  0.8784869E-01
         -2   -1    0    0    0  501 -0.00000000000E+00  0.00000000000E+00  0.69709821843E+03  0.69709821843E+03  0.00000000000E+00 0.  1.
          1   -1    0    0  501    0  0.00000000000E+00 -0.00000000000E+00 -0.98751636121E+03  0.98751636121E+03  0.00000000000E+00 0. -1.
        -24    2    1    2    0    0 -0.82718935408E+02 -0.15709231249E+03 -0.67478054594E+03  0.70143175522E+03  0.71814379760E+02 0.  0.
        254    2    1    2    0    0  0.82718935408E+02  0.15709231249E+03  0.38436240316E+03  0.98318282442E+03  0.88735201153E+03 0.  0.
         23    2    4    4    0    0  0.33664270582E+03 -0.21267621665E+03  0.32505890144E+03  0.52169971150E+03  0.89150519144E+02 0.  0.
         23    2    4    4    0    0 -0.25392377041E+03  0.36976852914E+03  0.59303501714E+02  0.46148311292E+03  0.90794889063E+02 0.  0.
          3    1    3    3  502    0 -0.77930906341E+02 -0.10738647893E+03 -0.57166637943E+03  0.58686244674E+03  0.00000000000E+00 0. -1.
         -4    1    3    3    0  502 -0.47880290669E+01 -0.49705833557E+02 -0.10311416650E+03  0.11456930848E+03  0.00000000000E+00 0.  1.
         11    1    5    5    0    0  0.27258443796E+03 -0.16375618024E+03  0.30031087846E+03  0.43738425453E+03  0.00000000000E+00 0. -1.
        -11    1    5    5    0    0  0.64058267854E+02 -0.48920036410E+02  0.24748022979E+02  0.84315456971E+02  0.00000000000E+00 0.  1.
          3    1    6    6  503    0 -0.22730633360E+03  0.26458099571E+03  0.37645351627E+02  0.35083962872E+03  0.00000000000E+00 0. -1.
         -3    1    6    6    0  503 -0.26617436813E+02  0.10518753343E+03  0.21658150087E+02  0.11064348420E+03  0.00000000000E+00 0.  1.
<mgrwt>
<rscale>  0 0.16593925E+04</rscale>
<asrwt>0</asrwt>
<pdfrwt beam="1">  1        1 0.15192559E+00 0.16593925E+04</pdfrwt>
<pdfrwt beam="2">  1       -2 0.10724588E+00 0.16593925E+04</pdfrwt>
<totfact> 0.90491578E+00</totfact>
</mgrwt>
</event>
<event>
12    4  0.4486176E-008  0.1585460E+04  0.7818608E-02  0.8829531E-01
          1   -1    0    0  501    0  0.00000000000E+00  0.00000000000E+00  0.12277455529E+04  0.12277455529E+04  0.00000000000E+00 0. -1.
         -2   -1    0    0    0  501 -0.00000000000E+00 -0.00000000000E+00 -0.51184945531E+03  0.51184945531E+03  0.00000000000E+00 0.  1.
        -24    2    1    2    0    0  0.37375288787E+03  0.63517162972E+02  0.64551238627E+03  0.75288237690E+03  0.80124786694E+02 0.  0.
        254    2    1    2    0    0 -0.37375288787E+03 -0.63517162972E+02  0.70383711366E+02  0.98671263135E+03  0.90825233215E+03 0.  0.
         23    2    4    4    0    0 -0.42978409890E+02  0.29976297705E+03  0.29995918234E+03  0.43597989843E+03  0.91640464000E+02 0.  0.
         23    2    4    4    0    0 -0.33077447798E+03 -0.36328014002E+03 -0.22957547097E+03  0.55073273291E+03  0.96007451866E+02 0.  0.
          1    1    3    3  502    0  0.29916525839E+03  0.28290559218E+02  0.54952460862E+03  0.62632060724E+03  0.00000000000E+00 0. -1.
         -2    1    3    3    0  502  0.74587629484E+02  0.35226603754E+02  0.95987777645E+02  0.12656176967E+03  0.00000000000E+00 0.  1.
         11    1    5    5    0    0 -0.31531900384E+02  0.63028295672E+02  0.11691909132E+03  0.13651703451E+03  0.00000000000E+00 0. -1.
        -11    1    5    5    0    0 -0.11446509506E+02  0.23673468138E+03  0.18304009102E+03  0.29946286392E+03  0.00000000000E+00 0.  1.
          3    1    6    6  503    0 -0.23105235758E+03 -0.21847863125E+03 -0.19029224352E+03  0.37057960306E+03  0.00000000000E+00 0. -1.
         -3    1    6    6    0  503 -0.99722120397E+02 -0.14480150877E+03 -0.39283227455E+02  0.18015312986E+03  0.00000000000E+00 0.  1.
<mgrwt>
<rscale>  0 0.15854600E+04</rscale>
<asrwt>0</asrwt>
<pdfrwt beam="1">  1        1 0.18888393E+00 0.15854600E+04</pdfrwt>
<pdfrwt beam="2">  1       -2 0.78746070E-01 0.15854600E+04</pdfrwt>
<totfact> 0.12308670E+01</totfact>
</mgrwt>
</event>
<event>
12    4  0.4486176E-008  0.1587925E+04  0.7818608E-02  0.8828000E-01
         -2   -1    0    0    0  501 -0.00000000000E+00  0.00000000000E+00  0.10230892330E+04  0.10230892330E+04  0.00000000000E+00 0.  1.
          1   -1    0    0  501    0  0.00000000000E+00 -0.00000000000E+00 -0.61615028770E+03  0.61615028770E+03  0.00000000000E+00 0. -1.
        -24    2    1    2    0    0 -0.17144897037E+03 -0.72696420962E+02  0.65298622894E+03  0.68391254606E+03  0.81644573647E+02 0.  0.
        254    2    1    2    0    0  0.17144897037E+03  0.72696420962E+02 -0.24604728359E+03  0.95532697469E+03  0.90411882170E+03 0.  0.
         23    2    4    4    0    0  0.33581703062E+03 -0.17793602960E+03  0.17656560125E+03  0.42884076513E+03  0.91075142656E+02 0.  0.
         23    2    4    4    0    0 -0.16436806025E+03  0.25063245057E+03 -0.42261288484E+03  0.52648620956E+03  0.93555298704E+02 0.  0.
          1    1    3    3  502    0 -0.32418003512E+02 -0.25163705518E+02  0.28063383693E+03  0.28361856331E+03  0.00000000000E+00 0. -1.
         -2    1    3    3    0  502 -0.13903096686E+03 -0.47532715445E+02  0.37235239201E+03  0.40029398274E+03  0.00000000000E+00 0.  1.
         11    1    5    5    0    0  0.50714884593E+02 -0.54333352480E+02  0.65084611655E+01  0.74608798260E+02  0.00000000000E+00 0. -1.
        -11    1    5    5    0    0  0.28510214603E+03 -0.12360267712E+03  0.17005714008E+03  0.35423196687E+03  0.00000000000E+00 0.  1.
          2    1    6    6  503    0 -0.31275826583E+02  0.12507353807E+03 -0.14531975629E+03  0.19426630902E+03  0.00000000000E+00 0. -1.
         -2    1    6    6    0  503 -0.13309223367E+03  0.12555891249E+03 -0.27729312855E+03  0.33221990053E+03  0.00000000000E+00 0.  1.
<mgrwt>
<rscale>  0 0.15879253E+04</rscale>
<asrwt>0</asrwt>
<pdfrwt beam="1">  1        1 0.94792352E-01 0.15879253E+04</pdfrwt>
<pdfrwt beam="2">  1       -2 0.15739834E+00 0.15879253E+04</pdfrwt>
<totfact> 0.72900446E+00</totfact>
</mgrwt>
</event>
<event>
12    4  0.4486176E-008  0.2063247E+04  0.7818608E-02  0.8577609E-01
         -2   -1    0    0    0  501 -0.00000000000E+00  0.00000000000E+00  0.22412020821E+04  0.22412020821E+04  0.00000000000E+00 0.  1.
          1   -1    0    0  501    0  0.00000000000E+00 -0.00000000000E+00 -0.47485532675E+03  0.47485532675E+03  0.00000000000E+00 0. -1.
        -24    2    1    2    0    0 -0.32993159839E+03  0.72779494828E+03  0.10468183158E+04  0.13193550946E+04  0.79554590821E+02 0.  0.
        254    2    1    2    0    0  0.32993159839E+03 -0.72779494828E+03  0.71952843955E+03  0.13967023143E+04  0.89135617629E+03 0.  0.
         23    2    4    4    0    0 -0.15428253713E+03 -0.51896405995E+03  0.65855118828E+03  0.85814121996E+03  0.97927978746E+02 0.  0.
         23    2    4    4    0    0  0.48421413552E+03 -0.20883088833E+03  0.60977251273E+02  0.53856109432E+03  0.90863403985E+02 0.  0.
          3    1    3    3  502    0 -0.40872000452E+02  0.10074570652E+03  0.19051907754E+03  0.21935755449E+03  0.00000000000E+00 0. -1.
         -4    1    3    3    0  502 -0.28905959794E+03  0.62704924176E+03  0.85629923824E+03  0.10999975401E+04  0.00000000000E+00 0.  1.
         11    1    5    5    0    0 -0.16601845972E+03 -0.44999623440E+03  0.56089749417E+03  0.73801405062E+03  0.00000000000E+00 0.  1.
        -11    1    5    5    0    0  0.11735922594E+02 -0.68967825557E+02  0.97653694106E+02  0.12012716934E+03  0.00000000000E+00 0. -1.
          1    1    6    6  503    0  0.38625232375E+02 -0.41603371593E+02 -0.91007622955E+01  0.57494112553E+02  0.00000000000E+00 0. -1.
         -1    1    6    6    0  503  0.44558890314E+03 -0.16722751673E+03  0.70078013568E+02  0.48106698176E+03  0.00000000000E+00 0.  1.
<mgrwt>
<rscale>  0 0.20632467E+04</rscale>
<asrwt>0</asrwt>
<pdfrwt beam="1">  1        1 0.73054667E-01 0.20632467E+04</pdfrwt>
<pdfrwt beam="2">  1       -2 0.34480031E+00 0.20632467E+04</pdfrwt>
<totfact> 0.64598678E-01</totfact>
</mgrwt>
</event>
