<event>
12    5  0.5246737E-008  0.1906925E+04  0.7818608E-02  0.8651417E-01
         -2   -1    0    0    0  501 -0.00000000000E+00  0.00000000000E+00  0.70432204993E+03  0.70432204993E+03  0.00000000000E+00 0.  1.
          1   -1    0    0  501    0  0.00000000000E+00 -0.00000000000E+00 -0.12907320562E+04  0.12907320562E+04  0.00000000000E+00 0. -1.
        -24    2    1    2    0    0 -0.16253509988E+03  0.50530803337E+03  0.30726693724E+03  0.61826605516E+03  0.78013312654E+02 0.  0.
        254    2    1    2    0    0  0.16253509988E+03 -0.50530803337E+03 -0.89367694352E+03  0.13767880510E+04  0.90284715796E+03 0.  0.
         23    2    4    4    0    0  0.32712375457E+03 -0.49878325282E+02  0.14041716031E+02  0.34406253108E+03  0.93188289858E+02 0.  0.
         23    2    4    4    0    0 -0.16458865469E+03 -0.45542970809E+03 -0.90771865955E+03  0.10327255199E+04  0.89795268669E+02 0.  0.
          1    1    3    3  502    0  0.36509787141E+01  0.42995318032E+01 -0.25704614872E+01  0.61986201331E+01  0.00000000000E+00 0. -1.
         -2    1    3    3    0  502 -0.16618607859E+03  0.50100850157E+03  0.30983739873E+03  0.61206743502E+03  0.00000000000E+00 0.  1.
         13    1    5    5    0    0  0.10118931087E+02  0.16494243235E+02  0.53103865127E+01  0.20066216164E+02  0.00000000000E+00 0. -1.
        -13    1    5    5    0    0  0.31700482348E+03 -0.66372568517E+02  0.87313295179E+01  0.32399631492E+03  0.00000000000E+00 0.  1.
          4    1    6    6  503    0  0.58583462905E+01 -0.46653541705E+02 -0.12253967212E+03  0.13125107397E+03  0.00000000000E+00 0. -1.
         -4    1    6    6    0  503 -0.17044700098E+03 -0.40877616639E+03 -0.78517898743E+03  0.90147444593E+03  0.00000000000E+00 0.  1.
<mgrwt>
<rscale>  0 0.19069253E+04</rscale>
<asrwt>0</asrwt>
<pdfrwt beam="1">  1        1 0.19857416E+00 0.19069253E+04</pdfrwt>
<pdfrwt beam="2">  1       -2 0.10835724E+00 0.19069253E+04</pdfrwt>
<totfact> 0.51344760E+00</totfact>
</mgrwt>
</event>
<event>
12    5  0.5246737E-008  0.1664503E+04  0.7818608E-02  0.8781873E-01
          1   -1    0    0  501    0  0.00000000000E+00  0.00000000000E+00  0.19412497002E+04  0.19412497002E+04  0.00000000000E+00 0. -1.
         -2   -1    0    0    0  501 -0.00000000000E+00 -0.00000000000E+00 -0.35680232334E+03  0.35680232334E+03  0.00000000000E+00 0.  1.
        -24    2    1    2    0    0 -0.55424644784E+03  0.11402958712E+02  0.71553210326E+03  0.90860085588E+03  0.79058029993E+02 0.  0.
        254    2    1    2    0    0  0.55424644784E+03 -0.11402958712E+02  0.86891527363E+03  0.13894511677E+04  0.93179484986E+03 0.  0.
         23    2    4    4    0    0 -0.12980694606E+03 -0.28116536542E+02  0.64319116449E+03  0.66332838171E+03  0.93108995486E+02 0.  0.
         23    2    4    4    0    0  0.68405339390E+03  0.16713577830E+02  0.22572410915E+03  0.72612278598E+03  0.89969647530E+02 0.  0.
          3    1    3    3  502    0 -0.40431411276E+03 -0.25778584347E+02  0.53244795324E+03  0.66905549852E+03  0.00000000000E+00 0. -1.
         -4    1    3    3    0  502 -0.14993233508E+03  0.37181543059E+02  0.18308415002E+03  0.23954535736E+03  0.00000000000E+00 0.  1.
         13    1    5    5    0    0 -0.30852270244E+02 -0.16957139695E+02  0.46179461978E+02  0.58068492958E+02  0.00000000000E+00 0. -1.
        -13    1    5    5    0    0 -0.98954675812E+02 -0.11159396847E+02  0.59701170251E+03  0.60525988875E+03  0.00000000000E+00 0.  1.
          3    1    6    6  503    0  0.37525592805E+03  0.31440189055E+02  0.82952888804E+02  0.38559911668E+03  0.00000000000E+00 0. -1.
         -3    1    6    6    0  503  0.30879746585E+03 -0.14726611225E+02  0.14277122034E+03  0.34052366930E+03  0.00000000000E+00 0.  1.
<mgrwt>
<rscale>  0 0.16645028E+04</rscale>
<asrwt>0</asrwt>
<pdfrwt beam="1">  1        1 0.29865379E+00 0.16645028E+04</pdfrwt>
<pdfrwt beam="2">  1       -2 0.54892666E-01 0.16645028E+04</pdfrwt>
<totfact> 0.85464549E+00</totfact>
</mgrwt>
</event>
<event>
12    5  0.5246737E-008  0.1127248E+04  0.7818608E-02  0.9179033E-01
         -2   -1    0    0    0  501 -0.00000000000E+00  0.00000000000E+00  0.76254035314E+03  0.76254035314E+03  0.00000000000E+00 0.  1.
          1   -1    0    0  501    0  0.00000000000E+00 -0.00000000000E+00 -0.41659723614E+03  0.41659723614E+03  0.00000000000E+00 0. -1.
        -24    2    1    2    0    0 -0.32030789963E-01  0.87381659085E+02  0.24442325925E+03  0.27131154421E+03  0.78940920908E+02 0.  0.
        254    2    1    2    0    0  0.32030789963E-01 -0.87381659085E+02  0.10151985775E+03  0.90782604507E+03  0.89788991041E+03 0.  0.
         23    2    4    4    0    0  0.42158401562E+03  0.26910034530E+02  0.15458287921E+03  0.45946771827E+03  0.93581437267E+02 0.  0.
         23    2    4    4    0    0 -0.42155198483E+03 -0.11429169362E+03 -0.53063021458E+02  0.44835832680E+03  0.86260291125E+02 0.  0.
          3    1    3    3  502    0 -0.26948930477E+02  0.81723938204E+01  0.30000051905E+02  0.41146518552E+02  0.00000000000E+00 0. -1.
         -4    1    3    3    0  502  0.26916899687E+02  0.79209265265E+02  0.21442320734E+03  0.23016502566E+03  0.00000000000E+00 0.  1.
         13    1    5    5    0    0  0.64801364876E+02  0.38989535138E+02  0.30164245533E+02  0.81420405604E+02  0.00000000000E+00 0. -1.
        -13    1    5    5    0    0  0.35678265074E+03 -0.12079500608E+02  0.12441863368E+03  0.37804731266E+03  0.00000000000E+00 0.  1.
          3    1    6    6  503    0 -0.13438995262E+03 -0.74266535146E+02  0.32644078309E+00  0.15354570710E+03  0.00000000000E+00 0. -1.
         -3    1    6    6    0  503 -0.28716203221E+03 -0.40025158470E+02 -0.53389462241E+02  0.29481261970E+03  0.00000000000E+00 0.  1.
<mgrwt>
<rscale>  0 0.11272483E+04</rscale>
<asrwt>0</asrwt>
<pdfrwt beam="1">  1        1 0.64091883E-01 0.11272483E+04</pdfrwt>
<pdfrwt beam="2">  1       -2 0.11731390E+00 0.11272483E+04</pdfrwt>
<totfact> 0.27724928E+01</totfact>
</mgrwt>
</event>
<event>
12    5  0.5246737E-008  0.1245152E+04  0.7818608E-02  0.9074228E-01
         -2   -1    0    0    0  501 -0.00000000000E+00  0.00000000000E+00  0.11487529286E+04  0.11487529286E+04  0.00000000000E+00 0.  1.
          1   -1    0    0  501    0  0.00000000000E+00 -0.00000000000E+00 -0.33741013536E+03  0.33741013536E+03  0.00000000000E+00 0. -1.
        -24    2    1    2    0    0 -0.78555588938E+01  0.27048938385E+03  0.31416255301E+03  0.42221759178E+03  0.79645266776E+02 0.  0.
        254    2    1    2    0    0  0.78555588938E+01 -0.27048938385E+03  0.49718024024E+03  0.10639454722E+04  0.90086933566E+03 0.  0.
         23    2    4    4    0    0  0.44166133275E+03 -0.19407641483E+03  0.25813805118E+03  0.55486348251E+03  0.92237970028E+02 0.  0.
         23    2    4    4    0    0 -0.43380577386E+03 -0.76412969012E+02  0.23904218906E+03  0.50908198968E+03  0.89425459438E+02 0.  0.
          1    1    3    3  502    0 -0.13400607631E+02  0.43980772205E+02  0.18117370490E+02  0.49417848214E+02  0.00000000000E+00 0. -1.
         -4    1    3    3    0  502  0.55450487376E+01  0.22650861164E+03  0.29604518252E+03  0.37279974357E+03  0.00000000000E+00 0.  1.
         13    1    5    5    0    0  0.10431438184E+03 -0.29182947065E+02  0.10003553276E+03  0.14744572721E+03  0.00000000000E+00 0.  1.
        -13    1    5    5    0    0  0.33734695092E+03 -0.16489346777E+03  0.15810251841E+03  0.40741775530E+03  0.00000000000E+00 0. -1.
          4    1    6    6  503    0 -0.37721403603E+03 -0.88528989698E+02  0.18294344685E+03  0.42848117314E+03  0.00000000000E+00 0. -1.
         -4    1    6    6    0  503 -0.56591737832E+02  0.12116020686E+02  0.56098742215E+02  0.80600816536E+02  0.00000000000E+00 0.  1.
<mgrwt>
<rscale>  0 0.12451520E+04</rscale>
<asrwt>0</asrwt>
<pdfrwt beam="1">  1        1 0.51909252E-01 0.12451520E+04</pdfrwt>
<pdfrwt beam="2">  1       -2 0.17673122E+00 0.12451520E+04</pdfrwt>
<totfact> 0.12355753E+01</totfact>
</mgrwt>
</event>
<event>
12    5  0.5246737E-008  0.1426605E+04  0.7818608E-02  0.8934783E-01
         -2   -1    0    0    0  501 -0.00000000000E+00  0.00000000000E+00  0.19307395782E+04  0.19307395782E+04  0.00000000000E+00 0.  1.
          1   -1    0    0  501    0  0.00000000000E+00 -0.00000000000E+00 -0.26352617725E+03  0.26352617725E+03  0.00000000000E+00 0. -1.
        -24    2    1    2    0    0  0.12332042007E+03 -0.27383372450E+03  0.95232330210E+03  0.10017526903E+04  0.79974659163E+02 0.  0.
        254    2    1    2    0    0 -0.12332042007E+03  0.27383372450E+03  0.71489009882E+03  0.11925130651E+04  0.90599487992E+03 0.  0.
         23    2    4    4    0    0 -0.29545730533E+03  0.51162530751E+03  0.64198953747E+03  0.87725156205E+03  0.91456341221E+02 0.  0.
         23    2    4    4    0    0  0.17213688526E+03 -0.23779158300E+03  0.72900561349E+02  0.31526150308E+03  0.88878452188E+02 0.  0.
          1    1    3    3  502    0  0.43201752524E+02 -0.83400930546E+02  0.19027301366E+03  0.21219313459E+03  0.00000000000E+00 0. -1.
         -2    1    3    3    0  502  0.80118667549E+02 -0.19043279396E+03  0.76205028844E+03  0.78955955571E+03  0.00000000000E+00 0.  1.
         13    1    5    5    0    0 -0.22270509090E+03  0.34330388054E+03  0.38742160974E+03  0.56351629577E+03  0.00000000000E+00 0.  1.
        -13    1    5    5    0    0 -0.72752214436E+02  0.16832142696E+03  0.25456792773E+03  0.31373526628E+03  0.00000000000E+00 0. -1.
          3    1    6    6  503    0  0.20015818125E+02 -0.30719495143E+02  0.43116382094E+02  0.56598080903E+02  0.00000000000E+00 0. -1.
         -3    1    6    6    0  503  0.15212106714E+03 -0.20707208786E+03  0.29784179255E+02  0.25866342217E+03  0.00000000000E+00 0.  1.
<mgrwt>
<rscale>  0 0.14266049E+04</rscale>
<asrwt>0</asrwt>
<pdfrwt beam="1">  1        1 0.40542490E-01 0.14266049E+04</pdfrwt>
<pdfrwt beam="2">  1       -2 0.29703685E+00 0.14266049E+04</pdfrwt>
<totfact> 0.29347549E+00</totfact>
</mgrwt>
</event>
<event>
12    5  0.5246737E-008  0.1802115E+04  0.7818608E-02  0.8705175E-01
         -2   -1    0    0    0  501 -0.00000000000E+00  0.00000000000E+00  0.57701973214E+03  0.57701973214E+03  0.00000000000E+00 0.  1.
          1   -1    0    0  501    0  0.00000000000E+00 -0.00000000000E+00 -0.14070662148E+04  0.14070662148E+04  0.00000000000E+00 0. -1.
        -24    2    1    2    0    0 -0.50861603667E+03 -0.37244077597E+03 -0.47497907302E+02  0.63743170080E+03  0.81613219666E+02 0.  0.
        254    2    1    2    0    0  0.50861603667E+03  0.37244077597E+03 -0.78254857539E+03  0.13466542462E+04  0.89648925343E+03 0.  0.
         23    2    4    4    0    0  0.21806977586E+03 -0.93749171339E+02 -0.74596962246E+03  0.78825498503E+03  0.92368336155E+02 0.  0.
         23    2    4    4    0    0  0.29054626081E+03  0.46618994731E+03 -0.36578952936E+02  0.55839926114E+03  0.93389070024E+02 0.  0.
          1    1    3    3  502    0 -0.15634426120E+03 -0.15096164862E+03 -0.41610699985E+02  0.22127900424E+03  0.00000000000E+00 0. -1.
         -2    1    3    3    0  502 -0.35227177547E+03 -0.22147912735E+03 -0.58872073165E+01  0.41615269656E+03  0.00000000000E+00 0.  1.
         13    1    5    5    0    0  0.14607788743E+02 -0.23830290932E+02 -0.31579094444E+02  0.42172377972E+02  0.00000000000E+00 0.  1.
        -13    1    5    5    0    0  0.20346198712E+03 -0.69918880407E+02 -0.71439052801E+03  0.74608260706E+03  0.00000000000E+00 0. -1.
          2    1    6    6  503    0  0.24014848352E+03  0.35172572144E+03 -0.63131676310E+02  0.43054370953E+03  0.00000000000E+00 0. -1.
         -2    1    6    6    0  503  0.50397777293E+02  0.11446422587E+03  0.26552723374E+02  0.12785555161E+03  0.00000000000E+00 0.  1.
<mgrwt>
<rscale>  0 0.18021154E+04</rscale>
<asrwt>0</asrwt>
<pdfrwt beam="1">  1        1 0.21647172E+00 0.18021154E+04</pdfrwt>
<pdfrwt beam="2">  1       -2 0.88772267E-01 0.18021154E+04</pdfrwt>
<totfact> 0.68588965E+00</totfact>
</mgrwt>
</event>
<event>
12    5  0.5246737E-008  0.2343545E+04  0.7818608E-02  0.8460947E-01
          3   -1    0    0  501    0  0.00000000000E+00  0.00000000000E+00  0.67241660861E+03  0.67241660861E+03  0.00000000000E+00 0. -1.
         -4   -1    0    0    0  501 -0.00000000000E+00 -0.00000000000E+00 -0.20419646918E+04  0.20419646918E+04  0.00000000000E+00 0.  1.
        -24    2    1    2    0    0 -0.46172658292E+03  0.52812821507E+03 -0.13848241430E+04  0.15536899605E+04  0.64060420475E+02 0.  0.
        254    2    1    2    0    0  0.46172658292E+03 -0.52812821507E+03  0.15276059808E+02  0.11606913399E+04  0.92458649110E+03 0.  0.
         23    2    4    4    0    0  0.15165724536E+03  0.17450736619E+03  0.25028243144E+03  0.35247109708E+03  0.90232133225E+02 0.  0.
         23    2    4    4    0    0  0.31006933757E+03 -0.70263558126E+03 -0.23500637163E+03  0.80822024280E+03  0.90289600740E+02 0.  0.
          3    1    3    3  502    0 -0.86821864120E+02  0.74660091158E+02 -0.18965447840E+03  0.22154229050E+03  0.00000000000E+00 0. -1.
         -4    1    3    3    0  502 -0.37490471880E+03  0.45346812392E+03 -0.11951696646E+04  0.13321476701E+04  0.00000000000E+00 0.  1.
         13    1    5    5    0    0  0.44668245128E+02  0.14884171586E+02  0.92649951515E+02  0.10392691760E+03  0.00000000000E+00 0. -1.
        -13    1    5    5    0    0  0.10698900023E+03  0.15962319460E+03  0.15763247993E+03  0.24854417948E+03  0.00000000000E+00 0.  1.
          3    1    6    6  503    0  0.24691884441E+02 -0.10337461430E+03 -0.58901630655E+02  0.12151297105E+03  0.00000000000E+00 0. -1.
         -3    1    6    6    0  503  0.28537745313E+03 -0.59926096697E+03 -0.17610474098E+03  0.68670727175E+03  0.00000000000E+00 0.  1.
<mgrwt>
<rscale>  0 0.23435452E+04</rscale>
<asrwt>0</asrwt>
<pdfrwt beam="1">  1        3 0.10344871E+00 0.23435452E+04</pdfrwt>
<pdfrwt beam="2">  1       -4 0.31414841E+00 0.23435452E+04</pdfrwt>
<totfact> 0.41872467E-02</totfact>
</mgrwt>
</event>
<event>
12    5  0.5246737E-008  0.1410617E+04  0.7818608E-02  0.8946169E-01
         -2   -1    0    0    0  501 -0.00000000000E+00  0.00000000000E+00  0.20813303871E+03  0.20813303871E+03  0.00000000000E+00 0.  1.
          1   -1    0    0  501    0  0.00000000000E+00 -0.00000000000E+00 -0.23901048383E+04  0.23901048383E+04  0.00000000000E+00 0. -1.
        -24    2    1    2    0    0 -0.18564857571E+03 -0.33288433383E+03 -0.35307309554E+03  0.52564574802E+03  0.79783884671E+02 0.  0.
        254    2    1    2    0    0  0.18564857571E+03  0.33288433383E+03 -0.18288987041E+04  0.20725921290E+04  0.89749110861E+03 0.  0.
         23    2    4    4    0    0  0.24994851271E+03 -0.25735007270E+03 -0.81203672291E+03  0.89234505724E+03  0.90403223881E+02 0.  0.
         23    2    4    4    0    0 -0.64299937005E+02  0.59023440653E+03 -0.10168619811E+04  0.11802470717E+04  0.80397295418E+02 0.  0.
          1    1    3    3  502    0 -0.69089750800E+01 -0.74037735460E+02 -0.57387085502E+02  0.93928684602E+02  0.00000000000E+00 0. -1.
         -2    1    3    3    0  502 -0.17873960063E+03 -0.25884659837E+03 -0.29568601003E+03  0.43171706342E+03  0.00000000000E+00 0.  1.
         13    1    5    5    0    0  0.20531972027E+03 -0.16889624897E+03 -0.65202814048E+03  0.70414687844E+03  0.00000000000E+00 0. -1.
        -13    1    5    5    0    0  0.44628792443E+02 -0.88453823733E+02 -0.16000858243E+03  0.18819817879E+03  0.00000000000E+00 0.  1.
          4    1    6    6  503    0 -0.61766959398E+02  0.33278412931E+03 -0.51631503640E+03  0.61736670692E+03  0.00000000000E+00 0. -1.
         -4    1    6    6    0  503 -0.25329776063E+01  0.25745027722E+03 -0.50054694474E+03  0.56288036483E+03  0.00000000000E+00 0.  1.
<mgrwt>
<rscale>  0 0.14106166E+04</rscale>
<asrwt>0</asrwt>
<pdfrwt beam="1">  1        1 0.36770844E+00 0.14106166E+04</pdfrwt>
<pdfrwt beam="2">  1       -2 0.32020467E-01 0.14106166E+04</pdfrwt>
<totfact> 0.12559369E+01</totfact>
</mgrwt>
</event>
<event>
12    5  0.5246737E-008  0.1875659E+04  0.7818608E-02  0.8667068E-01
         -2   -1    0    0    0  501 -0.00000000000E+00  0.00000000000E+00  0.35270249916E+03  0.35270249916E+03  0.00000000000E+00 0.  1.
          1   -1    0    0  501    0  0.00000000000E+00 -0.00000000000E+00 -0.24936717345E+04  0.24936717345E+04  0.00000000000E+00 0. -1.
        -24    2    1    2    0    0  0.49221021088E+03 -0.31042038720E+02 -0.16298312724E+04  0.17048144544E+04  0.82509681390E+02 0.  0.
        254    2    1    2    0    0 -0.49221021088E+03  0.31042038720E+02 -0.51113796297E+03  0.11415597793E+04  0.89367903225E+03 0.  0.
         23    2    4    4    0    0 -0.36478701993E+03  0.36461947939E+03 -0.56430466680E+03  0.77053447505E+03  0.96263625561E+02 0.  0.
         23    2    4    4    0    0 -0.12742319095E+03 -0.33357744067E+03  0.53166703832E+02  0.37102530426E+03  0.85571604437E+02 0.  0.
          3    1    3    3  502    0  0.31104933186E+03  0.17600344747E+02 -0.10665894996E+04  0.11111591334E+04  0.00000000000E+00 0. -1.
         -4    1    3    3    0  502  0.18116087902E+03 -0.48642383466E+02 -0.56324177273E+03  0.59365532096E+03  0.00000000000E+00 0.  1.
         13    1    5    5    0    0 -0.27833657036E+03  0.22926128384E+03 -0.34811975602E+03  0.50121786400E+03  0.00000000000E+00 0. -1.
        -13    1    5    5    0    0 -0.86450449564E+02  0.13535819556E+03 -0.21618491078E+03  0.26931661104E+03  0.00000000000E+00 0.  1.
          1    1    6    6  503    0 -0.52775024059E+02 -0.24134737492E+03  0.51494151420E+02  0.25235967621E+03  0.00000000000E+00 0. -1.
         -1    1    6    6    0  503 -0.74648166892E+02 -0.92230065753E+02  0.16725524116E+01  0.11866562805E+03  0.00000000000E+00 0.  1.
<mgrwt>
<rscale>  0 0.18756591E+04</rscale>
<asrwt>0</asrwt>
<pdfrwt beam="1">  1        1 0.38364181E+00 0.18756591E+04</pdfrwt>
<pdfrwt beam="2">  1       -2 0.54261923E-01 0.18756591E+04</pdfrwt>
<totfact> 0.36064277E+00</totfact>
</mgrwt>
</event>
<event>
12    5  0.5246737E-008  0.1334649E+04  0.7818608E-02  0.9002531E-01
         -2   -1    0    0    0  501 -0.00000000000E+00  0.00000000000E+00  0.23468472345E+03  0.23468472345E+03  0.00000000000E+00 0.  1.
          1   -1    0    0  501    0  0.00000000000E+00 -0.00000000000E+00 -0.18975331817E+04  0.18975331817E+04  0.00000000000E+00 0. -1.
        -24    2    1    2    0    0  0.21433266899E+02  0.30206728221E+03 -0.87613134070E+03  0.93030292129E+03  0.78443427388E+02 0.  0.
        254    2    1    2    0    0 -0.21433266899E+02 -0.30206728221E+03 -0.78671711755E+03  0.12019149839E+04  0.85672152853E+03 0.  0.
         23    2    4    4    0    0  0.59337970220E+02 -0.29688098337E+03  0.81173270302E+02  0.32565017508E+03  0.88315478391E+02 0.  0.
         23    2    4    4    0    0 -0.80771237119E+02 -0.51862988396E+01 -0.86789038785E+03  0.87626480877E+03  0.89751876435E+02 0.  0.
          1    1    3    3  502    0 -0.18364608756E+02  0.21550696938E+03 -0.56834988490E+03  0.60811356206E+03  0.00000000000E+00 0. -1.
         -2    1    3    3    0  502  0.39797875656E+02  0.86560312831E+02 -0.30778145580E+03  0.32218935923E+03  0.00000000000E+00 0.  1.
         13    1    5    5    0    0  0.31714662074E+02 -0.26139548380E+03  0.43283356808E+02  0.26684614991E+03  0.00000000000E+00 0. -1.
        -13    1    5    5    0    0  0.27623308146E+02 -0.35485499568E+02  0.37889913495E+02  0.58804025178E+02  0.00000000000E+00 0.  1.
          3    1    6    6  503    0 -0.57219511151E+02  0.25431272697E+02 -0.27160003411E+03  0.27872459636E+03  0.00000000000E+00 0. -1.
         -3    1    6    6    0  503 -0.23551725968E+02 -0.30617571537E+02 -0.59629035374E+03  0.59754021241E+03  0.00000000000E+00 0.  1.
<mgrwt>
<rscale>  0 0.13346491E+04</rscale>
<asrwt>0</asrwt>
<pdfrwt beam="1">  1        1 0.29192819E+00 0.13346491E+04</pdfrwt>
<pdfrwt beam="2">  1       -2 0.36105342E-01 0.13346491E+04</pdfrwt>
<totfact> 0.21729161E+01</totfact>
</mgrwt>
</event>
<event>
12    5  0.5246737E-008  0.1665543E+04  0.7818608E-02  0.8781264E-01
         -2   -1    0    0    0  501 -0.00000000000E+00  0.00000000000E+00  0.33399361877E+03  0.33399361877E+03  0.00000000000E+00 0.  1.
          1   -1    0    0  501    0  0.00000000000E+00 -0.00000000000E+00 -0.20764113293E+04  0.20764113293E+04  0.00000000000E+00 0. -1.
        -24    2    1    2    0    0 -0.86594764707E+02 -0.25994437462E+03 -0.13674861041E+04  0.13969581889E+04  0.80026279529E+02 0.  0.
        254    2    1    2    0    0  0.86594764707E+02  0.25994437462E+03 -0.37493160639E+03  0.10134467592E+04  0.90079458979E+03 0.  0.
         23    2    4    4    0    0  0.19163900960E+03  0.32038949317E+03 -0.61716564546E+03  0.72719790114E+03  0.92457645216E+02 0.  0.
         23    2    4    4    0    0 -0.10504424489E+03 -0.60445118552E+02  0.24223403906E+03  0.28624885801E+03  0.92591432062E+02 0.  0.
          3    1    3    3  502    0 -0.46492554953E+02 -0.12025176303E+03 -0.45276803279E+03  0.47076632812E+03  0.00000000000E+00 0. -1.
         -4    1    3    3    0  502 -0.40102209754E+02 -0.13969261159E+03 -0.91471807134E+03  0.92619186079E+03  0.00000000000E+00 0.  1.
         13    1    5    5    0    0  0.13559292304E+02 -0.14305416531E+01 -0.44921478670E+02  0.46945075387E+02  0.00000000000E+00 0.  1.
        -13    1    5    5    0    0  0.17807971730E+03  0.32182003483E+03 -0.57224416679E+03  0.68025282576E+03  0.00000000000E+00 0. -1.
          2    1    6    6  503    0 -0.11915278795E+03 -0.67205972264E+02  0.21995094087E+03  0.25902209553E+03  0.00000000000E+00 0. -1.
         -2    1    6    6    0  503  0.14108543058E+02  0.67608537114E+01  0.22283098197E+02  0.27226762484E+02  0.00000000000E+00 0.  1.
<mgrwt>
<rscale>  0 0.16655427E+04</rscale>
<asrwt>0</asrwt>
<pdfrwt beam="1">  1        1 0.31944789E+00 0.16655427E+04</pdfrwt>
<pdfrwt beam="2">  1       -2 0.51383635E-01 0.16655427E+04</pdfrwt>
<totfact> 0.79326506E+00</totfact>
</mgrwt>
</event>
<event>
12    5  0.5246737E-008  0.1176989E+04  0.7818608E-02  0.9133240E-01
          1   -1    0    0  501    0  0.00000000000E+00  0.00000000000E+00  0.26546150011E+03  0.26546150011E+03  0.00000000000E+00 0. -1.
         -2   -1    0    0    0  501 -0.00000000000E+00 -0.00000000000E+00 -0.13046183165E+04  0.13046183165E+04  0.00000000000E+00 0.  1.
        -24    2    1    2    0    0 -0.13942865747E+03 -0.17291621716E+03 -0.29019175557E+03  0.37407760156E+03  0.79890101427E+02 0.  0.
        254    2    1    2    0    0  0.13942865747E+03  0.17291621716E+03 -0.74896506078E+03  0.11960022150E+04  0.90561154329E+03 0.  0.
         23    2    4    4    0    0  0.21398037876E+02  0.33671286259E+03 -0.87439593507E+03  0.94155547848E+03  0.90139003362E+02 0.  0.
         23    2    4    4    0    0  0.11803061959E+03 -0.16379664542E+03  0.12543087429E+03  0.25444673653E+03  0.90827690109E+02 0.  0.
          3    1    3    3  502    0 -0.11321031394E+03 -0.13970585523E+03 -0.17318158545E+03  0.24965208332E+03  0.00000000000E+00 0. -1.
         -4    1    3    3    0  502 -0.26218343529E+02 -0.33210361936E+02 -0.11701017012E+03  0.12442551824E+03  0.00000000000E+00 0.  1.
         13    1    5    5    0    0 -0.81406948157E+01  0.28177500074E+03 -0.64663721302E+03  0.70540988596E+03  0.00000000000E+00 0. -1.
        -13    1    5    5    0    0  0.29538732692E+02  0.54937861847E+02 -0.22775872205E+03  0.23614559251E+03  0.00000000000E+00 0.  1.
          2    1    6    6  503    0  0.35303854079E+02 -0.23024613698E+02  0.70565707211E+02  0.82194975411E+02  0.00000000000E+00 0.  1.
         -2    1    6    6    0  503  0.82726765514E+02 -0.14077203173E+03  0.54865167077E+02  0.17225176111E+03  0.00000000000E+00 0. -1.
<mgrwt>
<rscale>  0 0.11769893E+04</rscale>
<asrwt>0</asrwt>
<pdfrwt beam="1">  1        1 0.40840231E-01 0.11769893E+04</pdfrwt>
<pdfrwt beam="2">  1       -2 0.20071051E+00 0.11769893E+04</pdfrwt>
<totfact> 0.11696846E+01</totfact>
</mgrwt>
</event>
<event>
12    5  0.5246737E-008  0.1605303E+04  0.7818608E-02  0.8817297E-01
         -4   -1    0    0    0  501 -0.00000000000E+00  0.00000000000E+00  0.52237106244E+03  0.52237106244E+03  0.00000000000E+00 0.  1.
          1   -1    0    0  501    0  0.00000000000E+00 -0.00000000000E+00 -0.12333174038E+04  0.12333174038E+04  0.00000000000E+00 0. -1.
        -24    2    1    2    0    0 -0.28814570421E+02 -0.25052534562E+03  0.26958012785E+03  0.37757261204E+03  0.79337278502E+02 0.  0.
        254    2    1    2    0    0  0.28814570421E+02  0.25052534562E+03 -0.98052646921E+03  0.13781158542E+04  0.93497482452E+03 0.  0.
         23    2    4    4    0    0 -0.88709988690E+02  0.48390584995E+03 -0.98155907334E+03  0.11019172802E+04  0.93429889811E+02 0.  0.
         23    2    4    4    0    0  0.11752455911E+03 -0.23338050433E+03  0.10326041334E+01  0.27619857396E+03  0.89476836053E+02 0.  0.
          1    1    3    3  502    0  0.16472673700E+02 -0.11619929667E+03  0.85333544503E+02  0.14510492528E+03  0.00000000000E+00 0. -1.
         -2    1    3    3    0  502 -0.45287244121E+02 -0.13432604896E+03  0.18424658335E+03  0.23246768675E+03  0.00000000000E+00 0.  1.
         13    1    5    5    0    0 -0.57298843870E+01  0.24134109184E+03 -0.41613631200E+03  0.48109020396E+03  0.00000000000E+00 0.  1.
        -13    1    5    5    0    0 -0.82980104303E+02  0.24256475811E+03 -0.56542276134E+03  0.62082707627E+03  0.00000000000E+00 0. -1.
          2    1    6    6  503    0  0.47635278584E+02 -0.33375723420E+02 -0.23878699323E+02  0.62874883388E+02  0.00000000000E+00 0.  1.
         -2    1    6    6    0  503  0.69889280527E+02 -0.20000478091E+03  0.24911303457E+02  0.21332369057E+03  0.00000000000E+00 0. -1.
<mgrwt>
<rscale>  0 0.16053029E+04</rscale>
<asrwt>0</asrwt>
<pdfrwt beam="1">  1        1 0.18974114E+00 0.16053029E+04</pdfrwt>
<pdfrwt beam="2">  1       -4 0.80364779E-01 0.16053029E+04</pdfrwt>
<totfact> 0.65013844E+00</totfact>
</mgrwt>
</event>
<event>
12    5  0.5246737E-008  0.2140460E+04  0.7818608E-02  0.8543627E-01
         -2   -1    0    0    0  501 -0.00000000000E+00  0.00000000000E+00  0.32230893684E+03  0.32230893684E+03  0.00000000000E+00 0.  1.
          1   -1    0    0  501    0  0.00000000000E+00 -0.00000000000E+00 -0.35537083682E+04  0.35537083682E+04  0.00000000000E+00 0. -1.
        -24    2    1    2    0    0 -0.68881279224E+03 -0.14369835883E+02 -0.23197877427E+04  0.24211177152E+04  0.75672086423E+02 0.  0.
        254    2    1    2    0    0  0.68881279224E+03  0.14369835883E+02 -0.91161168865E+03  0.14548995898E+04  0.90057059173E+03 0.  0.
         23    2    4    4    0    0  0.65895945444E+03 -0.25858969955E+02 -0.10751353953E+04  0.12646738279E+04  0.92668894215E+02 0.  0.
         23    2    4    4    0    0  0.29853337805E+02  0.40228805838E+02  0.16352370663E+03  0.19022576190E+03  0.83284207774E+02 0.  0.
          1    1    3    3  502    0 -0.60377486917E+03 -0.24100305651E+02 -0.21015443612E+04  0.21866901060E+04  0.00000000000E+00 0. -1.
         -2    1    3    3    0  502 -0.85037923066E+02  0.97304697682E+01 -0.21824338146E+03  0.23442760919E+03  0.00000000000E+00 0.  1.
         13    1    5    5    0    0  0.25960414801E+02 -0.17011583921E+02 -0.32827021069E+02  0.45176879446E+02  0.00000000000E+00 0. -1.
        -13    1    5    5    0    0  0.63299903963E+03 -0.88473860337E+01 -0.10423083742E+04  0.12194969485E+04  0.00000000000E+00 0.  1.
          2    1    6    6  503    0  0.53891609051E+02  0.37047553913E+02  0.80406135229E+02  0.10364349164E+03  0.00000000000E+00 0.  1.
         -2    1    6    6    0  503 -0.24038271246E+02  0.31812519247E+01  0.83117571401E+02  0.86582270263E+02  0.00000000000E+00 0. -1.
<mgrwt>
<rscale>  0 0.21404597E+04</rscale>
<asrwt>0</asrwt>
<pdfrwt beam="1">  1        1 0.54672436E+00 0.21404597E+04</pdfrwt>
<pdfrwt beam="2">  1       -2 0.49585990E-01 0.21404597E+04</pdfrwt>
<totfact> 0.70471411E-01</totfact>
</mgrwt>
</event>
<event>
12    5  0.5246737E-008  0.1482979E+04  0.7818608E-02  0.8895851E-01
         -2   -1    0    0    0  501 -0.00000000000E+00  0.00000000000E+00  0.21680480656E+03  0.21680480656E+03  0.00000000000E+00 0.  1.
          1   -1    0    0  501    0  0.00000000000E+00 -0.00000000000E+00 -0.25359522717E+04  0.25359522717E+04  0.00000000000E+00 0. -1.
        -24    2    1    2    0    0  0.43703590155E+03  0.14380437168E+03 -0.64481574754E+03  0.79785260275E+03  0.95401000459E+02 0.  0.
        254    2    1    2    0    0 -0.43703590155E+03 -0.14380437168E+03 -0.16743317176E+04  0.19549044755E+04  0.89810062421E+03 0.  0.
         23    2    4    4    0    0  0.14943682660E+03  0.19743395640E+03 -0.81336614532E+03  0.85503336603E+03  0.90587186722E+02 0.  0.
         23    2    4    4    0    0 -0.58647272815E+03 -0.34123832808E+03 -0.86096557231E+03  0.10998711095E+04  0.89782422448E+02 0.  0.
          1    1    3    3  502    0  0.36029344138E+03  0.83599426951E+02 -0.47500302415E+03  0.60202001714E+03  0.00000000000E+00 0. -1.
         -2    1    3    3    0  502  0.76742460171E+02  0.60204944727E+02 -0.16981272339E+03  0.19583258561E+03  0.00000000000E+00 0.  1.
         13    1    5    5    0    0  0.11979932156E+03  0.15394104132E+03 -0.73637019692E+03  0.76176819871E+03  0.00000000000E+00 0. -1.
        -13    1    5    5    0    0  0.29637505035E+02  0.43492915076E+02 -0.76995948396E+02  0.93265167323E+02  0.00000000000E+00 0.  1.
          2    1    6    6  503    0 -0.54324745538E+03 -0.32263971539E+03 -0.83161016779E+03  0.10444087585E+04  0.00000000000E+00 0.  1.
         -2    1    6    6    0  503 -0.43225272764E+02 -0.18598612681E+02 -0.29355404522E+02  0.55462350959E+02  0.00000000000E+00 0. -1.
<mgrwt>
<rscale>  0 0.14829790E+04</rscale>
<asrwt>0</asrwt>
<pdfrwt beam="1">  1        1 0.39014650E+00 0.14829790E+04</pdfrwt>
<pdfrwt beam="2">  1       -2 0.33354586E-01 0.14829790E+04</pdfrwt>
<totfact> 0.91631396E+00</totfact>
</mgrwt>
</event>
<event>
12    5  0.5246737E-008  0.3374469E+04  0.7818608E-02  0.8144201E-01
         -2   -1    0    0    0  501 -0.00000000000E+00  0.00000000000E+00  0.13790926978E+04  0.13790926978E+04  0.00000000000E+00 0.  1.
          1   -1    0    0  501    0  0.00000000000E+00 -0.00000000000E+00 -0.20642265872E+04  0.20642265872E+04  0.00000000000E+00 0. -1.
        -24    2    1    2    0    0  0.12917448929E+02 -0.88904486113E+03 -0.16362153059E+04  0.18638955854E+04  0.79615327638E+02 0.  0.
        254    2    1    2    0    0 -0.12917448929E+02  0.88904486113E+03  0.95108141650E+03  0.15794236996E+04  0.89412288669E+03 0.  0.
         23    2    4    4    0    0  0.18831473282E+02  0.43627010467E+03 -0.75694089161E+02  0.45247240876E+03  0.91189127312E+02 0.  0.
         23    2    4    4    0    0 -0.31748922212E+02  0.45277475646E+03  0.10267755057E+04  0.11269512909E+04  0.98682819136E+02 0.  0.
          1    1    3    3  502    0  0.40057204240E+01 -0.76701172100E+03 -0.14622241788E+04  0.16511882313E+04  0.00000000000E+00 0. -1.
         -2    1    3    3    0  502  0.89117285052E+01 -0.12203314013E+03 -0.17399112702E+03  0.21270735407E+03  0.00000000000E+00 0.  1.
         13    1    5    5    0    0 -0.32720290990E+02  0.11152215950E+03 -0.33548109983E+02  0.12096811640E+03  0.00000000000E+00 0.  1.
        -13    1    5    5    0    0  0.51551764272E+02  0.32474794517E+03 -0.42145979178E+02  0.33150429236E+03  0.00000000000E+00 0. -1.
          3    1    6    6  503    0 -0.61178283843E+02  0.33617295213E+03  0.80850292149E+03  0.87774256489E+03  0.00000000000E+00 0. -1.
         -3    1    6    6    0  503  0.29429361632E+02  0.11660180433E+03  0.21827258417E+03  0.24920872597E+03  0.00000000000E+00 0.  1.
<mgrwt>
<rscale>  0 0.33744687E+04</rscale>
<asrwt>0</asrwt>
<pdfrwt beam="1">  1        1 0.31757332E+00 0.33744687E+04</pdfrwt>
<pdfrwt beam="2">  1       -2 0.21216811E+00 0.33744687E+04</pdfrwt>
<totfact> 0.21667887E-01</totfact>
</mgrwt>
</event>
<event>
12    5  0.5246737E-008  0.1748406E+04  0.7818608E-02  0.8734228E-01
         -2   -1    0    0    0  501 -0.00000000000E+00  0.00000000000E+00  0.47126749121E+03  0.47126749121E+03  0.00000000000E+00 0.  1.
          3   -1    0    0  501    0  0.00000000000E+00 -0.00000000000E+00 -0.16216498018E+04  0.16216498018E+04  0.00000000000E+00 0. -1.
        -24    2    1    2    0    0  0.54846266178E+03 -0.21157392001E+03 -0.17630287846E+03  0.61891072416E+03  0.79956016245E+02 0.  0.
        254    2    1    2    0    0 -0.54846266178E+03  0.21157392001E+03 -0.97407943213E+03  0.14740065688E+04  0.93717117428E+03 0.  0.
         23    2    4    4    0    0  0.25145101474E+03  0.11972657841E+03 -0.22019548953E+03  0.36750347572E+03  0.94924626233E+02 0.  0.
         23    2    4    4    0    0 -0.79991367652E+03  0.91847341598E+02 -0.75388394259E+03  0.11065030931E+04  0.87808155303E+02 0.  0.
          3    1    3    3  502    0  0.39733441699E+03 -0.15392820132E+03 -0.16440438000E+03  0.45672456716E+03  0.00000000000E+00 0. -1.
         -4    1    3    3    0  502  0.15112824479E+03 -0.57645718689E+02 -0.11898498459E+02  0.16218615700E+03  0.00000000000E+00 0.  1.
         13    1    5    5    0    0  0.22045798932E+02  0.46278101305E+02 -0.22913469002E+02  0.56148971252E+02  0.00000000000E+00 0.  1.
        -13    1    5    5    0    0  0.22940521581E+03  0.73448477107E+02 -0.19728202053E+03  0.31135450447E+03  0.00000000000E+00 0. -1.
          1    1    6    6  503    0 -0.54716661293E+03  0.65587510685E+02 -0.45866560542E+03  0.71698477073E+03  0.00000000000E+00 0. -1.
         -1    1    6    6    0  503 -0.25274706359E+03  0.26259830913E+02 -0.29521833717E+03  0.38951832239E+03  0.00000000000E+00 0.  1.
<mgrwt>
<rscale>  0 0.17484059E+04</rscale>
<asrwt>0</asrwt>
<pdfrwt beam="1">  1        3 0.24948459E+00 0.17484059E+04</pdfrwt>
<pdfrwt beam="2">  1       -2 0.72502690E-01 0.17484059E+04</pdfrwt>
<totfact> 0.49763567E-01</totfact>
</mgrwt>
</event>
<event>
12    5  0.5246737E-008  0.1324385E+04  0.7818608E-02  0.9010448E-01
         -2   -1    0    0    0  501 -0.00000000000E+00  0.00000000000E+00  0.14851551718E+04  0.14851551718E+04  0.00000000000E+00 0.  1.
          1   -1    0    0  501    0  0.00000000000E+00 -0.00000000000E+00 -0.29525480894E+03  0.29525480894E+03  0.00000000000E+00 0. -1.
        -24    2    1    2    0    0  0.76263242262E+02  0.31179217407E+02 -0.13721631096E+03  0.17941544925E+03  0.81076270992E+02 0.  0.
        254    2    1    2    0    0 -0.76263242262E+02 -0.31179217407E+02  0.13271166738E+04  0.16009945315E+04  0.89171553656E+03 0.  0.
         23    2    4    4    0    0 -0.37902983402E+02 -0.25964470412E+03  0.13223756120E+04  0.13515984825E+04  0.96380444582E+02 0.  0.
         23    2    4    4    0    0 -0.38360258860E+02  0.22846548671E+03  0.47410618258E+01  0.24939604900E+03  0.92238405829E+02 0.  0.
          3    1    3    3  502    0  0.91106458834E+02  0.16960559894E+02 -0.96424019001E+02  0.13373720078E+03  0.00000000000E+00 0. -1.
         -4    1    3    3    0  502 -0.14843216572E+02  0.14218657513E+02 -0.40792291963E+02  0.45678248470E+02  0.00000000000E+00 0.  1.
         13    1    5    5    0    0 -0.24357176294E+02 -0.14002926694E+03  0.94104569308E+03  0.95171868959E+03  0.00000000000E+00 0. -1.
        -13    1    5    5    0    0 -0.13545807108E+02 -0.11961543718E+03  0.38132991890E+03  0.39987979288E+03  0.00000000000E+00 0.  1.
          2    1    6    6  503    0 -0.11224991890E+01  0.20415138457E+03  0.11176042196E+02  0.20446014709E+03  0.00000000000E+00 0. -1.
         -2    1    6    6    0  503 -0.37237759671E+02  0.24314102139E+02 -0.64349803706E+01  0.44935901910E+02  0.00000000000E+00 0.  1.
<mgrwt>
<rscale>  0 0.13243855E+04</rscale>
<asrwt>0</asrwt>
<pdfrwt beam="1">  1        1 0.45423818E-01 0.13243855E+04</pdfrwt>
<pdfrwt beam="2">  1       -2 0.22848541E+00 0.13243855E+04</pdfrwt>
<totfact> 0.66990397E+00</totfact>
</mgrwt>
</event>
<event>
12    5  0.5246737E-008  0.2071499E+04  0.7818608E-02  0.8573903E-01
          1   -1    0    0  501    0  0.00000000000E+00  0.00000000000E+00  0.51029610103E+03  0.51029610103E+03  0.00000000000E+00 0. -1.
         -2   -1    0    0    0  501 -0.00000000000E+00 -0.00000000000E+00 -0.21022646313E+04  0.21022646313E+04  0.00000000000E+00 0.  1.
        -24    2    1    2    0    0 -0.63153970931E+03 -0.23738987623E+03 -0.13003286664E+04  0.14671700715E+04  0.80851841478E+02 0.  0.
        254    2    1    2    0    0  0.63153970931E+03  0.23738987623E+03 -0.29163986391E+03  0.11453906609E+04  0.87844726535E+03 0.  0.
         23    2    4    4    0    0  0.44890784311E+03  0.55041976832E+03 -0.28364682342E+03  0.77166799957E+03  0.10264408489E+03 0.  0.
         23    2    4    4    0    0  0.18263186620E+03 -0.31302989209E+03 -0.79930404830E+01  0.37372266129E+03  0.90898993244E+02 0.  0.
          1    1    3    3  502    0 -0.60906565835E+01 -0.18383397962E+01 -0.40939871189E+02  0.41431252018E+02  0.00000000000E+00 0. -1.
         -2    1    3    3    0  502 -0.62544905273E+03 -0.23555153643E+03 -0.12593887952E+04  0.14257388195E+04  0.00000000000E+00 0.  1.
         13    1    5    5    0    0  0.43233891290E+03  0.55002180291E+03 -0.26894975059E+03  0.74951643586E+03  0.00000000000E+00 0.  1.
        -13    1    5    5    0    0  0.16568930212E+02  0.39796540281E+00 -0.14697072831E+02  0.22151563706E+02  0.00000000000E+00 0. -1.
          1    1    6    6  503    0  0.41606426787E+02 -0.11466830528E+03  0.34250258996E+02  0.12670041526E+03  0.00000000000E+00 0. -1.
         -1    1    6    6    0  503  0.14102543941E+03 -0.19836158681E+03 -0.42243299479E+02  0.24702224603E+03  0.00000000000E+00 0.  1.
<mgrwt>
<rscale>  0 0.20714994E+04</rscale>
<asrwt>0</asrwt>
<pdfrwt beam="1">  1        1 0.78507094E-01 0.20714994E+04</pdfrwt>
<pdfrwt beam="2">  1       -2 0.32342532E+00 0.20714994E+04</pdfrwt>
<totfact> 0.79422262E-01</totfact>
</mgrwt>
</event>
<event>
12    5  0.5246737E-008  0.2393395E+04  0.7818608E-02  0.8441981E-01
          1   -1    0    0  501    0  0.00000000000E+00  0.00000000000E+00  0.10835256999E+04  0.10835256999E+04  0.00000000000E+00 0. -1.
         -2   -1    0    0    0  501 -0.00000000000E+00 -0.00000000000E+00 -0.13216896679E+04  0.13216896679E+04  0.00000000000E+00 0.  1.
        -24    2    1    2    0    0  0.44461597906E+03 -0.91522311556E+03  0.34739027114E+02  0.10211269197E+04  0.78591767899E+02 0.  0.
        254    2    1    2    0    0 -0.44461597906E+03  0.91522311556E+03 -0.27290299503E+03  0.13840884481E+04  0.89772382580E+03 0.  0.
         23    2    4    4    0    0  0.20395168861E+03 -0.10252519287E+02 -0.22005655790E+02  0.22292065932E+03  0.86648520043E+02 0.  0.
         23    2    4    4    0    0 -0.64856766767E+03  0.92547563485E+03 -0.25089733924E+03  0.11611677888E+04  0.90642090987E+02 0.  0.
          3    1    3    3  502    0  0.43154826886E+03 -0.90794224738E+03  0.31259637786E+02  0.10057684614E+04  0.00000000000E+00 0. -1.
         -4    1    3    3    0  502  0.13067710198E+02 -0.72808681824E+01  0.34793893278E+01  0.15358458302E+02  0.00000000000E+00 0.  1.
         13    1    5    5    0    0  0.26875398095E+02 -0.31741813683E+02  0.70797013181E+01  0.42189476525E+02  0.00000000000E+00 0.  1.
        -13    1    5    5    0    0  0.17707629051E+03  0.21489294396E+02 -0.29085357108E+02  0.18073118279E+03  0.00000000000E+00 0. -1.
          3    1    6    6  503    0 -0.26635849378E+03  0.30942689381E+03 -0.74269697125E+02  0.41497932206E+03  0.00000000000E+00 0. -1.
         -3    1    6    6    0  503 -0.38220917388E+03  0.61604874104E+03 -0.17662764212E+03  0.74618846674E+03  0.00000000000E+00 0.  1.
<mgrwt>
<rscale>  0 0.23933948E+04</rscale>
<asrwt>0</asrwt>
<pdfrwt beam="1">  1        1 0.16669626E+00 0.23933948E+04</pdfrwt>
<pdfrwt beam="2">  1       -2 0.20333687E+00 0.23933948E+04</pdfrwt>
<totfact> 0.12976982E+00</totfact>
</mgrwt>
</event>
<event>
12    5  0.5246737E-008  0.1943135E+04  0.7818608E-02  0.8633679E-01
          3   -1    0    0  501    0  0.00000000000E+00  0.00000000000E+00  0.15846880663E+04  0.15846880663E+04  0.00000000000E+00 0. -1.
         -4   -1    0    0    0  501 -0.00000000000E+00 -0.00000000000E+00 -0.59566483344E+03  0.59566483344E+03  0.00000000000E+00 0.  1.
        -24    2    1    2    0    0 -0.65273142388E+01 -0.70306649500E+03  0.72284854420E+03  0.10114344777E+04  0.78387387892E+02 0.  0.
        254    2    1    2    0    0  0.65273142388E+01  0.70306649500E+03  0.26617468865E+03  0.11689184221E+04  0.89508447105E+03 0.  0.
         23    2    4    4    0    0  0.13228852032E+03  0.73881484652E+03 -0.10647472575E+03  0.76350456992E+03  0.90855550261E+02 0.  0.
         23    2    4    4    0    0 -0.12576120608E+03 -0.35748351525E+02  0.37264941440E+03  0.40541385213E+03  0.91645948380E+02 0.  0.
          1    1    3    3  502    0  0.17246353920E+02 -0.56918383634E+03  0.61250101888E+03  0.83631643199E+03  0.00000000000E+00 0. -1.
         -2    1    3    3    0  502 -0.23773668158E+02 -0.13388265865E+03  0.11034752532E+03  0.17511804570E+03  0.00000000000E+00 0.  1.
         13    1    5    5    0    0  0.68619040405E+02  0.23140347713E+03 -0.10748986336E+01  0.24136548498E+03  0.00000000000E+00 0.  1.
        -13    1    5    5    0    0  0.63669479913E+02  0.50741136940E+03 -0.10539982712E+03  0.52213908494E+03  0.00000000000E+00 0. -1.
          3    1    6    6  503    0 -0.68550779695E+02 -0.60122623630E+02  0.16339432577E+03  0.18711398923E+03  0.00000000000E+00 0. -1.
         -3    1    6    6    0  503 -0.57210426383E+02  0.24374272105E+02  0.20925508863E+03  0.21829986291E+03  0.00000000000E+00 0.  1.
<mgrwt>
<rscale>  0 0.19431345E+04</rscale>
<asrwt>0</asrwt>
<pdfrwt beam="1">  1        3 0.24379816E+00 0.19431345E+04</pdfrwt>
<pdfrwt beam="2">  1       -4 0.91640744E-01 0.19431345E+04</pdfrwt>
<totfact> 0.17414878E-01</totfact>
</mgrwt>
</event>
<event>
12    5  0.5246737E-008  0.1471292E+04  0.7818608E-02  0.8903771E-01
         -2   -1    0    0    0  501 -0.00000000000E+00  0.00000000000E+00  0.59081215624E+03  0.59081215624E+03  0.00000000000E+00 0.  1.
          1   -1    0    0  501    0  0.00000000000E+00 -0.00000000000E+00 -0.91598554161E+03  0.91598554161E+03  0.00000000000E+00 0. -1.
        -24    2    1    2    0    0  0.84975730097E+02  0.94617180799E+01 -0.55833181922E+03  0.56984370248E+03  0.75346042282E+02 0.  0.
        254    2    1    2    0    0 -0.84975730097E+02 -0.94617180799E+01  0.23315843385E+03  0.93695399538E+03  0.90344315558E+03 0.  0.
         23    2    4    4    0    0  0.29813656290E+03 -0.24969281145E+03  0.25752477209E+03  0.47503212589E+03  0.90025563947E+02 0.  0.
         23    2    4    4    0    0 -0.38311229299E+03  0.24023109337E+03 -0.24366338242E+02  0.46192186949E+03  0.91060901638E+02 0.  0.
          1    1    3    3  502    0  0.87961532009E+02  0.11673570280E+02 -0.33716223688E+03  0.34864290805E+03  0.00000000000E+00 0. -1.
         -2    1    3    3    0  502 -0.29858019125E+01 -0.22118522006E+01 -0.22116958234E+03  0.22120079443E+03  0.00000000000E+00 0.  1.
         13    1    5    5    0    0  0.29639311345E+03 -0.24528640557E+03  0.26429997325E+03  0.46676415278E+03  0.00000000000E+00 0.  1.
        -13    1    5    5    0    0  0.17434494451E+01 -0.44064058784E+01 -0.67752011558E+01  0.82679731153E+01  0.00000000000E+00 0. -1.
          1    1    6    6  503    0 -0.50630189700E+02  0.16901219051E+02 -0.30251516492E+02  0.61353252273E+02  0.00000000000E+00 0. -1.
         -1    1    6    6    0  503 -0.33248210329E+03  0.22332987432E+03  0.58851782497E+01  0.40056861721E+03  0.00000000000E+00 0.  1.
<mgrwt>
<rscale>  0 0.14712925E+04</rscale>
<asrwt>0</asrwt>
<pdfrwt beam="1">  1        1 0.14092085E+00 0.14712925E+04</pdfrwt>
<pdfrwt beam="2">  1       -2 0.90894178E-01 0.14712925E+04</pdfrwt>
<totfact> 0.15499362E+01</totfact>
</mgrwt>
</event>
<event>
12    5  0.5246737E-008  0.1847178E+04  0.7818608E-02  0.8681605E-01
          1   -1    0    0  501    0  0.00000000000E+00  0.00000000000E+00  0.31848559806E+04  0.31848559806E+04  0.00000000000E+00 0. -1.
         -2   -1    0    0    0  501 -0.00000000000E+00 -0.00000000000E+00 -0.26783526746E+03  0.26783526746E+03  0.00000000000E+00 0.  1.
        -24    2    1    2    0    0 -0.43993007233E+03 -0.28632970294E+02  0.20453579142E+04  0.20941327269E+04  0.86859456038E+02 0.  0.
        254    2    1    2    0    0  0.43993007233E+03  0.28632970294E+02  0.87166279895E+03  0.13585585212E+04  0.94420702439E+03 0.  0.
         23    2    4    4    0    0  0.40230737764E+03  0.44841865710E+03  0.53654058977E+03  0.81236378813E+03  0.95543715897E+02 0.  0.
         23    2    4    4    0    0  0.37622694691E+02 -0.41978568681E+03  0.33512220918E+03  0.54619473307E+03  0.91576751086E+02 0.  0.
          1    1    3    3  502    0 -0.42381332322E+03 -0.45096664489E+02  0.19493962467E+04  0.19954441031E+04  0.00000000000E+00 0. -1.
         -2    1    3    3    0  502 -0.16116749113E+02  0.16463694196E+02  0.95961667497E+02  0.98688623748E+02  0.00000000000E+00 0.  1.
         13    1    5    5    0    0  0.39685876817E+03  0.45272108248E+03  0.52452101586E+03  0.79848328503E+03  0.00000000000E+00 0.  1.
        -13    1    5    5    0    0  0.54486094657E+01 -0.43024253745E+01  0.12019573906E+02  0.13880503093E+02  0.00000000000E+00 0. -1.
          3    1    6    6  503    0  0.32881510299E+02 -0.83819714568E+02  0.38227562381E+02  0.97817609843E+02  0.00000000000E+00 0. -1.
         -3    1    6    6    0  503  0.47411843922E+01 -0.33596597224E+03  0.29689464680E+03  0.44837712322E+03  0.00000000000E+00 0.  1.
<mgrwt>
<rscale>  0 0.18471781E+04</rscale>
<asrwt>0</asrwt>
<pdfrwt beam="1">  1        1 0.48997782E+00 0.18471781E+04</pdfrwt>
<pdfrwt beam="2">  1       -2 0.41205428E-01 0.18471781E+04</pdfrwt>
<totfact> 0.20173049E+00</totfact>
</mgrwt>
</event>
<event>
12    5  0.5246737E-008  0.1570837E+04  0.7818608E-02  0.8838667E-01
          1   -1    0    0  501    0  0.00000000000E+00  0.00000000000E+00  0.17467849112E+04  0.17467849112E+04  0.00000000000E+00 0. -1.
         -2   -1    0    0    0  501 -0.00000000000E+00 -0.00000000000E+00 -0.35315275878E+03  0.35315275878E+03  0.00000000000E+00 0.  1.
        -24    2    1    2    0    0  0.34732702848E+03  0.38537182629E+03  0.50381538671E+03  0.72798401671E+03  0.83565994769E+02 0.  0.
        254    2    1    2    0    0 -0.34732702848E+03 -0.38537182629E+03  0.88981676575E+03  0.13719536533E+04  0.90627558779E+03 0.  0.
         23    2    4    4    0    0 -0.78842470714E+01  0.74078317295E+02  0.77249635693E+03  0.78128416992E+03  0.90025408862E+02 0.  0.
         23    2    4    4    0    0 -0.33944278141E+03 -0.45945014358E+03  0.11732040882E+03  0.59066948340E+03  0.93864391581E+02 0.  0.
          3    1    3    3  502    0  0.13924981112E+03  0.19462582336E+03  0.18738210247E+03  0.30394370094E+03  0.00000000000E+00 0. -1.
         -4    1    3    3    0  502  0.20807721736E+03  0.19074600292E+03  0.31643328424E+03  0.42404031576E+03  0.00000000000E+00 0.  1.
         13    1    5    5    0    0 -0.23612521940E+02  0.62756788806E+02  0.74282331449E+03  0.74584344355E+03  0.00000000000E+00 0. -1.
        -13    1    5    5    0    0  0.15728274869E+02  0.11321528488E+02  0.29673042446E+02  0.35440726370E+02  0.00000000000E+00 0.  1.
          4    1    6    6  503    0 -0.24425300025E+03 -0.32095192589E+03  0.38832219075E+02  0.40518836126E+03  0.00000000000E+00 0. -1.
         -4    1    6    6    0  503 -0.95189781164E+02 -0.13849821770E+03  0.78488189742E+02  0.18548112214E+03  0.00000000000E+00 0.  1.
<mgrwt>
<rscale>  0 0.15708366E+04</rscale>
<asrwt>0</asrwt>
<pdfrwt beam="1">  1        1 0.26873613E+00 0.15708366E+04</pdfrwt>
<pdfrwt beam="2">  1       -2 0.54331195E-01 0.15708366E+04</pdfrwt>
<totfact> 0.11923660E+01</totfact>
</mgrwt>
</event>
<event>
12    5  0.5246737E-008  0.1656841E+04  0.7818608E-02  0.8786369E-01
         -2   -1    0    0    0  501 -0.00000000000E+00  0.00000000000E+00  0.82687001623E+03  0.82687001623E+03  0.00000000000E+00 0.  1.
          1   -1    0    0  501    0  0.00000000000E+00 -0.00000000000E+00 -0.82997420866E+03  0.82997420866E+03  0.00000000000E+00 0. -1.
        -24    2    1    2    0    0 -0.14531773536E+03 -0.11465831562E+03 -0.55195432804E+03  0.58959020968E+03  0.93269831973E+02 0.  0.
        254    2    1    2    0    0  0.14531773536E+03  0.11465831562E+03  0.54885013561E+03  0.10672540152E+04  0.89639884430E+03 0.  0.
         23    2    4    4    0    0 -0.20392228833E+03  0.39576083698E+03  0.22105642218E+03  0.50534206661E+03  0.91069878274E+02 0.  0.
         23    2    4    4    0    0  0.34924002369E+03 -0.28110252137E+03  0.32779371343E+03  0.56191194860E+03  0.85493261440E+02 0.  0.
          3    1    3    3  502    0 -0.53787951450E+02 -0.10140657463E+03 -0.30423632799E+03  0.32517100173E+03  0.00000000000E+00 0. -1.
         -4    1    3    3    0  502 -0.91529783910E+02 -0.13251740989E+02 -0.24771800005E+03  0.26441920795E+03  0.00000000000E+00 0.  1.
         13    1    5    5    0    0 -0.14459929208E+02  0.27263362074E+02  0.46309171982E+02  0.55649976406E+02  0.00000000000E+00 0.  1.
        -13    1    5    5    0    0 -0.18946235912E+03  0.36849747491E+03  0.17474725020E+03  0.44969209020E+03  0.00000000000E+00 0. -1.
          3    1    6    6  503    0  0.25076364273E+03 -0.18522187143E+03  0.27144318776E+03  0.41336539570E+03  0.00000000000E+00 0. -1.
         -3    1    6    6    0  503  0.98476380951E+02 -0.95880649931E+02  0.56350525665E+02  0.14854655290E+03  0.00000000000E+00 0.  1.
<mgrwt>
<rscale>  0 0.16568413E+04</rscale>
<asrwt>0</asrwt>
<pdfrwt beam="1">  1        1 0.12768834E+00 0.16568413E+04</pdfrwt>
<pdfrwt beam="2">  1       -2 0.12721077E+00 0.16568413E+04</pdfrwt>
<totfact> 0.79940430E+00</totfact>
</mgrwt>
</event>
<event>
12    5  0.5246737E-008  0.1172778E+04  0.7818608E-02  0.9137024E-01
         -2   -1    0    0    0  501 -0.00000000000E+00  0.00000000000E+00  0.16224174229E+03  0.16224174229E+03  0.00000000000E+00 0.  1.
          1   -1    0    0  501    0  0.00000000000E+00 -0.00000000000E+00 -0.21193799327E+04  0.21193799327E+04  0.00000000000E+00 0. -1.
        -24    2    1    2    0    0 -0.33881970381E+02  0.19435193070E+03 -0.18368297573E+03  0.28062023814E+03  0.78023211893E+02 0.  0.
        254    2    1    2    0    0  0.33881970381E+02 -0.19435193070E+03 -0.17734552146E+04  0.20010014368E+04  0.90550686963E+03 0.  0.
         23    2    4    4    0    0 -0.35615106995E+03 -0.34635482463E+02 -0.33189090488E+03  0.49621943275E+03  0.89660199792E+02 0.  0.
         23    2    4    4    0    0  0.39003304033E+03 -0.15971644824E+03 -0.14415643098E+04  0.15047820041E+04  0.92876822787E+02 0.  0.
          3    1    3    3  502    0 -0.65132422505E+01  0.14580725105E+02 -0.56502183782E+02  0.58715557064E+02  0.00000000000E+00 0. -1.
         -4    1    3    3    0  502 -0.27368728130E+02  0.17977120560E+03 -0.12718079195E+03  0.22190468107E+03  0.00000000000E+00 0.  1.
         13    1    5    5    0    0 -0.24010023265E+03 -0.24329140228E+02 -0.16368227406E+03  0.29160232445E+03  0.00000000000E+00 0. -1.
        -13    1    5    5    0    0 -0.11605083730E+03 -0.10306342235E+02 -0.16820863082E+03  0.20461710830E+03  0.00000000000E+00 0.  1.
          2    1    6    6  503    0  0.22760793125E+03 -0.12610403071E+03 -0.99323801299E+03  0.10267567129E+04  0.00000000000E+00 0. -1.
         -2    1    6    6    0  503  0.16242510908E+03 -0.33612417524E+02 -0.44832629677E+03  0.47802529122E+03  0.00000000000E+00 0.  1.
<mgrwt>
<rscale>  0 0.11727777E+04</rscale>
<asrwt>0</asrwt>
<pdfrwt beam="1">  1        1 0.32605842E+00 0.11727777E+04</pdfrwt>
<pdfrwt beam="2">  1       -2 0.24960270E-01 0.11727777E+04</pdfrwt>
<totfact> 0.31059114E+01</totfact>
</mgrwt>
</event>
<event>
12    5  0.5246737E-008  0.1484262E+04  0.7818608E-02  0.8894986E-01
          1   -1    0    0  501    0  0.00000000000E+00  0.00000000000E+00  0.18910902079E+04  0.18910902079E+04  0.00000000000E+00 0. -1.
         -2   -1    0    0    0  501 -0.00000000000E+00 -0.00000000000E+00 -0.29123875425E+03  0.29123875425E+03  0.00000000000E+00 0.  1.
        -24    2    1    2    0    0 -0.37322035128E+03  0.23628901310E+03  0.64815990075E+03  0.78870653182E+03  0.82588183691E+02 0.  0.
        254    2    1    2    0    0  0.37322035128E+03 -0.23628901310E+03  0.95169155285E+03  0.13936224303E+04  0.91724627996E+03 0.  0.
         23    2    4    4    0    0  0.70207361737E+02 -0.10610516045E+03 -0.16371466450E+03  0.22729741362E+03  0.93135622355E+02 0.  0.
         23    2    4    4    0    0  0.30301298954E+03 -0.13018385265E+03  0.11154062174E+04  0.11663250167E+04  0.86129596984E+02 0.  0.
          1    1    3    3  502    0 -0.36870900267E+03  0.23277865395E+03  0.60830156601E+03  0.74844039549E+03  0.00000000000E+00 0. -1.
         -2    1    3    3    0  502 -0.45113486108E+01  0.35103591457E+01  0.39858334735E+02  0.40266136337E+02  0.00000000000E+00 0.  1.
         13    1    5    5    0    0  0.76060940658E+02 -0.75293936382E+02 -0.16411913465E+03  0.19593247283E+03  0.00000000000E+00 0.  1.
        -13    1    5    5    0    0 -0.58535789214E+01 -0.30811224068E+02  0.40447015720E+00  0.31364940791E+02  0.00000000000E+00 0. -1.
          1    1    6    6  503    0  0.11568714130E+02  0.26933977753E+01  0.12153916321E+03  0.12211821212E+03  0.00000000000E+00 0. -1.
         -1    1    6    6    0  503  0.29144427541E+03 -0.13287725042E+03  0.99386705414E+03  0.10442068045E+04  0.00000000000E+00 0.  1.
<mgrwt>
<rscale>  0 0.14842625E+04</rscale>
<asrwt>0</asrwt>
<pdfrwt beam="1">  1        1 0.29093695E+00 0.14842625E+04</pdfrwt>
<pdfrwt beam="2">  1       -2 0.44805963E-01 0.14842625E+04</pdfrwt>
<totfact> 0.14195719E+01</totfact>
</mgrwt>
</event>
<event>
12    5  0.5246737E-008  0.1836620E+04  0.7818608E-02  0.8687064E-01
          1   -1    0    0  501    0  0.00000000000E+00  0.00000000000E+00  0.21187676564E+04  0.21187676564E+04  0.00000000000E+00 0. -1.
         -4   -1    0    0    0  501 -0.00000000000E+00 -0.00000000000E+00 -0.39801133695E+03  0.39801133695E+03  0.00000000000E+00 0.  1.
        -24    2    1    2    0    0  0.44842862647E+03 -0.52624485685E+03  0.10656395016E+04  0.12727133656E+04  0.78675798707E+02 0.  0.
        254    2    1    2    0    0 -0.44842862647E+03  0.52624485685E+03  0.65511681791E+03  0.12440656278E+04  0.80031203832E+03 0.  0.
         23    2    4    4    0    0 -0.14700849268E+03  0.65262416061E+03  0.59215303908E+03  0.89926388943E+03  0.10247208993E+03 0.  0.
         23    2    4    4    0    0 -0.30142013379E+03 -0.12637930376E+03  0.62963778836E+02  0.34480173834E+03  0.89988753980E+02 0.  0.
          3    1    3    3  502    0  0.16437665238E+03 -0.16099310219E+03  0.41172729823E+03  0.47165435534E+03  0.00000000000E+00 0. -1.
         -4    1    3    3    0  502  0.28405197408E+03 -0.36525175466E+03  0.65391220335E+03  0.80105901028E+03  0.00000000000E+00 0.  1.
         13    1    5    5    0    0 -0.25461945749E+02  0.33631804590E+02  0.16574015745E+02  0.45322256776E+02  0.00000000000E+00 0.  1.
        -13    1    5    5    0    0 -0.12154654693E+03  0.61899235602E+03  0.57557902333E+03  0.85394163265E+03  0.00000000000E+00 0. -1.
          2    1    6    6  503    0 -0.23550550066E+03 -0.13632255099E+03  0.55583406317E+02  0.27773403430E+03  0.00000000000E+00 0. -1.
         -2    1    6    6    0  503 -0.65914633131E+02  0.99432472378E+01  0.73803725189E+01  0.67067704038E+02  0.00000000000E+00 0.  1.
<mgrwt>
<rscale>  0 0.18366203E+04</rscale>
<asrwt>0</asrwt>
<pdfrwt beam="1">  1        1 0.32596425E+00 0.18366203E+04</pdfrwt>
<pdfrwt beam="2">  1       -4 0.61232515E-01 0.18366203E+04</pdfrwt>
<totfact> 0.28858176E+00</totfact>
</mgrwt>
</event>
<event>
12    5  0.5246737E-008  0.1761335E+04  0.7818608E-02  0.8727135E-01
         -2   -1    0    0    0  501 -0.00000000000E+00  0.00000000000E+00  0.16064837535E+04  0.16064837535E+04  0.00000000000E+00 0.  1.
          1   -1    0    0  501    0  0.00000000000E+00 -0.00000000000E+00 -0.48277832107E+03  0.48277832107E+03  0.00000000000E+00 0. -1.
        -24    2    1    2    0    0 -0.62657960921E+03  0.11234293711E+03  0.26132046234E+03  0.69277030416E+03  0.80120959129E+02 0.  0.
        254    2    1    2    0    0  0.62657960921E+03 -0.11234293711E+03  0.86238497014E+03  0.13964917705E+04  0.89513042961E+03 0.  0.
         23    2    4    4    0    0  0.68230073470E+02  0.13382164716E+03  0.74790704012E+03  0.76889419252E+03  0.96279605562E+02 0.  0.
         23    2    4    4    0    0  0.55834953574E+03 -0.24616458427E+03  0.11447793002E+03  0.62759757793E+03  0.91773181029E+02 0.  0.
          1    1    3    3  502    0 -0.31911235606E+03  0.20846424109E+02  0.11104127063E+03  0.33852242610E+03  0.00000000000E+00 0. -1.
         -2    1    3    3    0  502 -0.30746725315E+03  0.91496512998E+02  0.15027919170E+03  0.35424787806E+03  0.00000000000E+00 0.  1.
         13    1    5    5    0    0  0.46678400343E+02  0.13842184416E+03  0.71146559391E+03  0.72630762857E+03  0.00000000000E+00 0. -1.
        -13    1    5    5    0    0  0.21551673127E+02 -0.46001969953E+01  0.36441446214E+02  0.42586563951E+02  0.00000000000E+00 0.  1.
          2    1    6    6  503    0  0.23203814256E+03 -0.80092770682E+02  0.53130347293E+01  0.24552959059E+03  0.00000000000E+00 0. -1.
         -2    1    6    6    0  503  0.32631139318E+03 -0.16607181358E+03  0.10916489529E+03  0.38206798734E+03  0.00000000000E+00 0.  1.
<mgrwt>
<rscale>  0 0.17613353E+04</rscale>
<asrwt>0</asrwt>
<pdfrwt beam="1">  1        1 0.74273589E-01 0.17613353E+04</pdfrwt>
<pdfrwt beam="2">  1       -2 0.24715134E+00 0.17613353E+04</pdfrwt>
<totfact> 0.25778859E+00</totfact>
</mgrwt>
</event>
<event>
12    5  0.5246737E-008  0.1832361E+04  0.7818608E-02  0.8689277E-01
          1   -1    0    0  501    0  0.00000000000E+00  0.00000000000E+00  0.21944549784E+04  0.21944549784E+04  0.00000000000E+00 0. -1.
         -2   -1    0    0    0  501 -0.00000000000E+00 -0.00000000000E+00 -0.38250356090E+03  0.38250356090E+03  0.00000000000E+00 0.  1.
        -24    2    1    2    0    0 -0.59173306028E+03 -0.32164639189E+03  0.93036248872E+03  0.11514186984E+04  0.81155668219E+02 0.  0.
        254    2    1    2    0    0  0.59173306028E+03  0.32164639189E+03  0.88158892881E+03  0.14255398410E+04  0.89518734505E+03 0.  0.
         23    2    4    4    0    0  0.63787903960E+03  0.32739622983E+03  0.21954769147E+03  0.75555159753E+03  0.92623254320E+02 0.  0.
         23    2    4    4    0    0 -0.46145979316E+02 -0.57498379364E+01  0.66204123734E+03  0.66998824344E+03  0.91777635396E+02 0.  0.
          3    1    3    3  502    0 -0.59603228460E+02 -0.50315793645E+02  0.14581957637E+03  0.16537101556E+03  0.00000000000E+00 0. -1.
         -4    1    3    3    0  502 -0.53212983182E+03 -0.27133059825E+03  0.78454291235E+03  0.98604768281E+03  0.00000000000E+00 0.  1.
         13    1    5    5    0    0  0.22087629497E+03  0.12872637689E+03  0.34556572041E+02  0.25797475547E+03  0.00000000000E+00 0. -1.
        -13    1    5    5    0    0  0.41700274463E+03  0.19866985294E+03  0.18499111943E+03  0.49757684207E+03  0.00000000000E+00 0.  1.
          4    1    6    6  503    0 -0.41101856806E+02 -0.39446179478E+02  0.24405570989E+03  0.25061634671E+03  0.00000000000E+00 0.  1.
         -4    1    6    6    0  503 -0.50441225105E+01  0.33696341541E+02  0.41798552745E+03  0.41937189672E+03  0.00000000000E+00 0. -1.
<mgrwt>
<rscale>  0 0.18323611E+04</rscale>
<asrwt>0</asrwt>
<pdfrwt beam="1">  1        1 0.33760845E+00 0.18323611E+04</pdfrwt>
<pdfrwt beam="2">  1       -2 0.58846703E-01 0.18323611E+04</pdfrwt>
<totfact> 0.49019720E+00</totfact>
</mgrwt>
</event>
<event>
12    5  0.5246737E-008  0.3332757E+04  0.7818608E-02  0.8154610E-01
          1   -1    0    0  501    0  0.00000000000E+00  0.00000000000E+00  0.24545410231E+04  0.24545410231E+04  0.00000000000E+00 0. -1.
         -2   -1    0    0    0  501 -0.00000000000E+00 -0.00000000000E+00 -0.11312977513E+04  0.11312977513E+04  0.00000000000E+00 0.  1.
        -24    2    1    2    0    0 -0.60263010802E+03 -0.42407228786E+03 -0.84548811581E+03  0.11244238399E+04  0.80488914671E+02 0.  0.
        254    2    1    2    0    0  0.60263010802E+03  0.42407228786E+03  0.21687313876E+04  0.24614149344E+04  0.90120324867E+03 0.  0.
         23    2    4    4    0    0  0.19262122407E+03  0.48886130379E+03  0.47248461456E+03  0.71265635666E+03  0.92461134494E+02 0.  0.
         23    2    4    4    0    0  0.41000888395E+03 -0.64789015935E+02  0.16962467730E+04  0.17487585778E+04  0.92728349096E+02 0.  0.
          1    1    3    3  502    0 -0.27717634778E+02 -0.44205180973E+02 -0.57537082965E+02  0.77671624282E+02  0.00000000000E+00 0. -1.
         -2    1    3    3    0  502 -0.57491247324E+03 -0.37986710688E+03 -0.78795103284E+03  0.10467522156E+04  0.00000000000E+00 0.  1.
         13    1    5    5    0    0  0.17413012909E+03  0.44718902472E+03  0.38989201797E+03  0.61831635217E+03  0.00000000000E+00 0.  1.
        -13    1    5    5    0    0  0.18491094980E+02  0.41672279073E+02  0.82592596583E+02  0.94340004489E+02  0.00000000000E+00 0. -1.
          2    1    6    6  503    0  0.36049336048E+02  0.20907178109E+02  0.16743999234E+03  0.17254801001E+03  0.00000000000E+00 0. -1.
         -2    1    6    6    0  503  0.37395954791E+03 -0.85696194045E+02  0.15288067807E+04  0.15762105677E+04  0.00000000000E+00 0.  1.
<mgrwt>
<rscale>  0 0.33327567E+04</rscale>
<asrwt>0</asrwt>
<pdfrwt beam="1">  1        1 0.37762170E+00 0.33327567E+04</pdfrwt>
<pdfrwt beam="2">  1       -2 0.17404581E+00 0.33327567E+04</pdfrwt>
<totfact> 0.21155783E-01</totfact>
</mgrwt>
</event>
<event>
12    5  0.5246737E-008  0.2597743E+04  0.7818608E-02  0.8368968E-01
          1   -1    0    0  501    0  0.00000000000E+00  0.00000000000E+00  0.16575337118E+04  0.16575337118E+04  0.00000000000E+00 0. -1.
         -2   -1    0    0    0  501 -0.00000000000E+00 -0.00000000000E+00 -0.10178177643E+04  0.10178177643E+04  0.00000000000E+00 0.  1.
        -24    2    1    2    0    0 -0.45674567527E+03 -0.96389243247E+03 -0.14365965798E+03  0.10791600816E+04  0.79013613922E+02 0.  0.
        254    2    1    2    0    0  0.45674567527E+03  0.96389243247E+03  0.78337560539E+03  0.15961913945E+04  0.89243733417E+03 0.  0.
         23    2    4    4    0    0  0.61125553829E+02  0.34859452415E+03  0.77614186805E+03  0.85854906827E+03  0.97241080263E+02 0.  0.
         23    2    4    4    0    0  0.39562012144E+03  0.61529790832E+03  0.72337373433E+01  0.73764232620E+03  0.94641840521E+02 0.  0.
          1    1    3    3  502    0 -0.13103745362E+03 -0.33047095750E+03 -0.18436751200E+02  0.35598003006E+03  0.00000000000E+00 0. -1.
         -2    1    3    3    0  502 -0.32570822165E+03 -0.63342147496E+03 -0.12522290678E+03  0.72318005156E+03  0.00000000000E+00 0.  1.
         13    1    5    5    0    0  0.35961518927E+02  0.68123890765E+02  0.25253905798E+03  0.26402664855E+03  0.00000000000E+00 0. -1.
        -13    1    5    5    0    0  0.25164034903E+02  0.28047063338E+03  0.52360281007E+03  0.59452241972E+03  0.00000000000E+00 0.  1.
          3    1    6    6  503    0  0.82208957461E+02  0.17927364409E+03  0.33383495532E+02  0.20002952264E+03  0.00000000000E+00 0. -1.
         -3    1    6    6    0  503  0.31341116398E+03  0.43602426423E+03 -0.26149758189E+02  0.53761280356E+03  0.00000000000E+00 0.  1.
<mgrwt>
<rscale>  0 0.25977431E+04</rscale>
<asrwt>0</asrwt>
<pdfrwt beam="1">  1        1 0.25500519E+00 0.25977431E+04</pdfrwt>
<pdfrwt beam="2">  1       -2 0.15658735E+00 0.25977431E+04</pdfrwt>
<totfact> 0.10531013E+00</totfact>
</mgrwt>
</event>
<event>
12    5  0.5246737E-008  0.1616209E+04  0.7818608E-02  0.8810652E-01
          1   -1    0    0  501    0  0.00000000000E+00  0.00000000000E+00  0.16635742496E+04  0.16635742496E+04  0.00000000000E+00 0. -1.
         -4   -1    0    0    0  501 -0.00000000000E+00 -0.00000000000E+00 -0.39254807301E+03  0.39254807301E+03  0.00000000000E+00 0.  1.
        -24    2    1    2    0    0 -0.15833650278E+03  0.43737562634E+03  0.81935024609E+03  0.94544957785E+03  0.78563298474E+02 0.  0.
        254    2    1    2    0    0  0.15833650278E+03 -0.43737562634E+03  0.45167593047E+03  0.11106727447E+04  0.90178429408E+03 0.  0.
         23    2    4    4    0    0  0.11497721133E+03 -0.59539412147E+02  0.65241801827E+03  0.67139905617E+03  0.91447916017E+02 0.  0.
         23    2    4    4    0    0  0.43359291455E+02 -0.37783621419E+03 -0.20074208781E+03  0.43927368854E+03  0.89575413549E+02 0.  0.
          3    1    3    3  502    0 -0.98020427417E+02  0.35971625269E+03  0.62873752715E+03  0.73096830621E+03  0.00000000000E+00 0. -1.
         -4    1    3    3    0  502 -0.60316075367E+02  0.77659373650E+02  0.19061271894E+03  0.21448127164E+03  0.00000000000E+00 0.  1.
         13    1    5    5    0    0  0.12463144066E+03 -0.68655114644E+02  0.54932002692E+03  0.56744956846E+03  0.00000000000E+00 0.  1.
        -13    1    5    5    0    0 -0.96542293308E+01  0.91157024965E+01  0.10309799135E+03  0.10394948772E+03  0.00000000000E+00 0. -1.
          1    1    6    6  503    0  0.60094594491E+02 -0.36260546365E+03 -0.18341853661E+03  0.41077541568E+03  0.00000000000E+00 0. -1.
         -1    1    6    6    0  503 -0.16735303035E+02 -0.15230750547E+02 -0.17323551193E+02  0.28498272857E+02  0.00000000000E+00 0.  1.
<mgrwt>
<rscale>  0 0.16162090E+04</rscale>
<asrwt>0</asrwt>
<pdfrwt beam="1">  1        1 0.25593450E+00 0.16162090E+04</pdfrwt>
<pdfrwt beam="2">  1       -4 0.60392012E-01 0.16162090E+04</pdfrwt>
<totfact> 0.61506532E+00</totfact>
</mgrwt>
</event>
<event>
12    5  0.5246737E-008  0.1957762E+04  0.7818608E-02  0.8626627E-01
         -2   -1    0    0    0  501 -0.00000000000E+00  0.00000000000E+00  0.12854424698E+04  0.12854424698E+04  0.00000000000E+00 0.  1.
          1   -1    0    0  501    0  0.00000000000E+00 -0.00000000000E+00 -0.74543038688E+03  0.74543038688E+03  0.00000000000E+00 0. -1.
        -24    2    1    2    0    0  0.19232623444E+03 -0.84633652290E+01 -0.56010049097E+03  0.59761860138E+03  0.79839988275E+02 0.  0.
        254    2    1    2    0    0 -0.19232623444E+03  0.84633652290E+01  0.11001125739E+04  0.14332542553E+04  0.89828117875E+03 0.  0.
         23    2    4    4    0    0  0.20312159471E+03  0.19354533802E+03  0.89506982601E+03  0.94236081221E+03  0.90419726077E+02 0.  0.
         23    2    4    4    0    0 -0.39544782915E+03 -0.18508197279E+03  0.20504274786E+03  0.49089344307E+03  0.91101711101E+02 0.  0.
          3    1    3    3  502    0  0.12542595339E+03  0.63908141512E+01 -0.45606185178E+03  0.47303797410E+03  0.00000000000E+00 0. -1.
         -4    1    3    3    0  502  0.66900281054E+02 -0.14854179380E+02 -0.10403863919E+03  0.12458062728E+03  0.00000000000E+00 0.  1.
         13    1    5    5    0    0  0.18547305114E+03  0.19094358165E+03  0.87874683750E+03  0.91818065134E+03  0.00000000000E+00 0. -1.
        -13    1    5    5    0    0  0.17648543568E+02  0.26017563649E+01  0.16322988507E+02  0.24180160877E+02  0.00000000000E+00 0.  1.
          1    1    6    6  503    0 -0.35602115361E+03 -0.17712072868E+03  0.15523618716E+03  0.42687362082E+03  0.00000000000E+00 0. -1.
         -1    1    6    6    0  503 -0.39426675541E+02 -0.79612441085E+01  0.49806560705E+02  0.64019822253E+02  0.00000000000E+00 0.  1.
<mgrwt>
<rscale>  0 0.19577619E+04</rscale>
<asrwt>0</asrwt>
<pdfrwt beam="1">  1        1 0.11468160E+00 0.19577619E+04</pdfrwt>
<pdfrwt beam="2">  1       -2 0.19776038E+00 0.19577619E+04</pdfrwt>
<totfact> 0.27733780E+00</totfact>
</mgrwt>
</event>
<event>
12    5  0.5246737E-008  0.1613836E+04  0.7818608E-02  0.8812093E-01
          1   -1    0    0  501    0  0.00000000000E+00  0.00000000000E+00  0.78367826356E+03  0.78367826356E+03  0.00000000000E+00 0. -1.
         -2   -1    0    0    0  501 -0.00000000000E+00 -0.00000000000E+00 -0.83084700139E+03  0.83084700139E+03  0.00000000000E+00 0.  1.
        -24    2    1    2    0    0 -0.28160262906E+03  0.43007892288E+03 -0.21917516329E+03  0.56468063908E+03  0.80984883425E+02 0.  0.
        254    2    1    2    0    0  0.28160262906E+03 -0.43007892288E+03  0.17200642546E+03  0.10498446259E+04  0.89906596391E+03 0.  0.
         23    2    4    4    0    0  0.44778444271E+03 -0.47201805431E+03 -0.14927721909E+03  0.67454575112E+03  0.97037783797E+02 0.  0.
         23    2    4    4    0    0 -0.16618181365E+03  0.41939131430E+02  0.32128364456E+03  0.37529887475E+03  0.90833799865E+02 0.  0.
          3    1    3    3  502    0 -0.27304564971E+03  0.38029632071E+03 -0.18351528335E+03  0.50284896102E+03  0.00000000000E+00 0. -1.
         -4    1    3    3    0  502 -0.85569793534E+01  0.49782602167E+02 -0.35659879943E+02  0.61831678060E+02  0.00000000000E+00 0.  1.
         13    1    5    5    0    0  0.96328271060E+02 -0.96657910787E+02  0.83407179211E+01  0.13671669649E+03  0.00000000000E+00 0.  1.
        -13    1    5    5    0    0  0.35145617165E+03 -0.37536014352E+03 -0.15761793701E+03  0.53782905463E+03  0.00000000000E+00 0. -1.
          1    1    6    6  503    0 -0.10303717275E+03  0.25521211565E+02  0.27646657249E+03  0.29614482422E+03  0.00000000000E+00 0. -1.
         -1    1    6    6    0  503 -0.63144640902E+02  0.16417919864E+02  0.44817072069E+02  0.79154050535E+02  0.00000000000E+00 0.  1.
<mgrwt>
<rscale>  0 0.16138361E+04</rscale>
<asrwt>0</asrwt>
<pdfrwt beam="1">  1        1 0.12056589E+00 0.16138361E+04</pdfrwt>
<pdfrwt beam="2">  1       -2 0.12782262E+00 0.16138361E+04</pdfrwt>
<totfact> 0.86936274E+00</totfact>
</mgrwt>
</event>
<event>
12    5  0.5246737E-008  0.1147347E+04  0.7818608E-02  0.9160235E-01
         -2   -1    0    0    0  501 -0.00000000000E+00  0.00000000000E+00  0.10228548141E+03  0.10228548141E+03  0.00000000000E+00 0.  1.
          1   -1    0    0  501    0  0.00000000000E+00 -0.00000000000E+00 -0.32174768426E+04  0.32174768426E+04  0.00000000000E+00 0. -1.
        -24    2    1    2    0    0  0.71593044832E+02 -0.18589802351E+03 -0.39042581501E+03  0.44508855068E+03  0.77381274870E+02 0.  0.
        254    2    1    2    0    0 -0.71593044832E+02  0.18589802351E+03 -0.27247655462E+04  0.28746737734E+04  0.89426974805E+03 0.  0.
         23    2    4    4    0    0 -0.39813979378E+03 -0.57243150627E+02 -0.74526107724E+03  0.85176590827E+03  0.91098932843E+02 0.  0.
         23    2    4    4    0    0  0.32654674895E+03  0.24314117414E+03 -0.19795044690E+04  0.20229078651E+04  0.89262972051E+02 0.  0.
          3    1    3    3  502    0  0.42738006617E+01 -0.36405631686E+02 -0.14769288907E+03  0.15217366682E+03  0.00000000000E+00 0. -1.
         -4    1    3    3    0  502  0.67319244170E+02 -0.14949239183E+03 -0.24273292594E+03  0.29291488386E+03  0.00000000000E+00 0.  1.
         13    1    5    5    0    0 -0.38717890479E+02  0.21433003180E+02 -0.71448046393E+02  0.84043274578E+02  0.00000000000E+00 0.  1.
        -13    1    5    5    0    0 -0.35942190330E+03 -0.78676153807E+02 -0.67381303084E+03  0.76772263369E+03  0.00000000000E+00 0. -1.
          1    1    6    6  503    0  0.19165345557E+03  0.19256401557E+03 -0.12237956764E+04  0.12535899667E+04  0.00000000000E+00 0. -1.
         -1    1    6    6    0  503  0.13489329338E+03  0.50577158566E+02 -0.75570879262E+03  0.76931789840E+03  0.00000000000E+00 0.  1.
<mgrwt>
<rscale>  0 0.11473468E+04</rscale>
<asrwt>0</asrwt>
<pdfrwt beam="1">  1        1 0.49499650E+00 0.11473468E+04</pdfrwt>
<pdfrwt beam="2">  1       -2 0.15736226E-01 0.11473468E+04</pdfrwt>
<totfact> 0.11869596E+01</totfact>
</mgrwt>
</event>
<event>
12    5  0.5246737E-008  0.1925016E+04  0.7818608E-02  0.8642503E-01
         -2   -1    0    0    0  501 -0.00000000000E+00  0.00000000000E+00  0.43083602688E+03  0.43083602688E+03  0.00000000000E+00 0.  1.
          1   -1    0    0  501    0  0.00000000000E+00 -0.00000000000E+00 -0.21502887838E+04  0.21502887838E+04  0.00000000000E+00 0. -1.
        -24    2    1    2    0    0 -0.31040735882E+03  0.67340265502E+03 -0.78283705612E+03  0.10811771342E+04  0.79286032125E+02 0.  0.
        254    2    1    2    0    0  0.31040735882E+03 -0.67340265502E+03 -0.93661570085E+03  0.14999476765E+04  0.90706680956E+03 0.  0.
         23    2    4    4    0    0 -0.27871504945E+03 -0.32899999425E+02 -0.20496772481E+03  0.35909258105E+03  0.90394827269E+02 0.  0.
         23    2    4    4    0    0  0.58912240827E+03 -0.64050265560E+03 -0.73164797604E+03  0.11408550955E+04  0.94513090395E+02 0.  0.
          1    1    3    3  502    0 -0.28748310681E+03  0.65600816348E+03 -0.76108346448E+03  0.10451034816E+04  0.00000000000E+00 0. -1.
         -2    1    3    3    0  502 -0.22924252008E+02  0.17394491546E+02 -0.21753591634E+02  0.36073652647E+02  0.00000000000E+00 0.  1.
         13    1    5    5    0    0 -0.42745739425E+02 -0.31821445963E+02 -0.12884759653E+02  0.54825356301E+02  0.00000000000E+00 0. -1.
        -13    1    5    5    0    0 -0.23596931003E+03 -0.10785534621E+01 -0.19208296516E+03  0.30426722475E+03  0.00000000000E+00 0.  1.
          4    1    6    6  503    0 -0.15403184170E+00 -0.82331175198E+00 -0.11899505364E+02  0.11928947814E+02  0.00000000000E+00 0. -1.
         -4    1    6    6    0  503  0.58927644012E+03 -0.63967934385E+03 -0.71974847068E+03  0.11289261477E+04  0.00000000000E+00 0.  1.
<mgrwt>
<rscale>  0 0.19250162E+04</rscale>
<asrwt>0</asrwt>
<pdfrwt beam="1">  1        1 0.33081367E+00 0.19250162E+04</pdfrwt>
<pdfrwt beam="2">  1       -2 0.66282464E-01 0.19250162E+04</pdfrwt>
<totfact> 0.40428111E+00</totfact>
</mgrwt>
</event>
<event>
12    5  0.5246737E-008  0.2012294E+04  0.7818608E-02  0.8600894E-01
          1   -1    0    0  501    0  0.00000000000E+00  0.00000000000E+00  0.53551311246E+03  0.53551311246E+03  0.00000000000E+00 0. -1.
         -2   -1    0    0    0  501 -0.00000000000E+00 -0.00000000000E+00 -0.18903959020E+04  0.18903959020E+04  0.00000000000E+00 0.  1.
        -24    2    1    2    0    0  0.21239359327E+03 -0.77550420044E+03 -0.55386308893E+03  0.98138660733E+03  0.99184416167E+02 0.  0.
        254    2    1    2    0    0 -0.21239359327E+03  0.77550420044E+03 -0.80101970064E+03  0.14445224072E+04  0.89358526207E+03 0.  0.
         23    2    4    4    0    0 -0.13013852660E+03  0.95914962947E+03 -0.57878535152E+03  0.11314381415E+04  0.90861086882E+02 0.  0.
         23    2    4    4    0    0 -0.82255066665E+02 -0.18364542902E+03 -0.22223434912E+03  0.31308426565E+03  0.90233651559E+02 0.  0.
          1    1    3    3  502    0  0.46785016466E+02 -0.81667244177E+02 -0.40113578861E+02  0.10231068246E+03  0.00000000000E+00 0. -1.
         -2    1    3    3    0  502  0.16560857680E+03 -0.69383695626E+03 -0.51374951007E+03  0.87907592487E+03  0.00000000000E+00 0.  1.
         13    1    5    5    0    0 -0.14177295831E+03  0.88868303347E+03 -0.54818601510E+03  0.10537385885E+04  0.00000000000E+00 0. -1.
        -13    1    5    5    0    0  0.11634431702E+02  0.70466595997E+02 -0.30599336420E+02  0.77699553035E+02  0.00000000000E+00 0.  1.
          3    1    6    6  503    0  0.17116318064E+02 -0.31843853227E+02 -0.19713680722E+02  0.41178010395E+02  0.00000000000E+00 0. -1.
         -3    1    6    6    0  503 -0.99371384729E+02 -0.15180157580E+03 -0.20252066840E+03  0.27190625525E+03  0.00000000000E+00 0.  1.
<mgrwt>
<rscale>  0 0.20122940E+04</rscale>
<asrwt>0</asrwt>
<pdfrwt beam="1">  1        1 0.82386634E-01 0.20122940E+04</pdfrwt>
<pdfrwt beam="2">  1       -2 0.29083013E+00 0.20122940E+04</pdfrwt>
<totfact> 0.11827029E+00</totfact>
</mgrwt>
</event>
<event>
12    5  0.5246737E-008  0.1741083E+04  0.7818608E-02  0.8738274E-01
          1   -1    0    0  501    0  0.00000000000E+00  0.00000000000E+00  0.18504109797E+04  0.18504109797E+04  0.00000000000E+00 0. -1.
         -2   -1    0    0    0  501 -0.00000000000E+00 -0.00000000000E+00 -0.40955380508E+03  0.40955380508E+03  0.00000000000E+00 0.  1.
        -24    2    1    2    0    0 -0.47444026835E+03  0.34542890636E+03  0.21884526934E+03  0.63157025843E+03  0.81074298264E+02 0.  0.
        254    2    1    2    0    0  0.47444026835E+03 -0.34542890636E+03  0.12220119053E+04  0.16283945263E+04  0.90218675407E+03 0.  0.
         23    2    4    4    0    0 -0.11990369988E+03 -0.44256196663E+03  0.52508251936E+03  0.70282537160E+03  0.89520161268E+02 0.  0.
         23    2    4    4    0    0  0.59434396823E+03  0.97133060272E+02  0.69692938589E+03  0.92556915472E+03  0.91039042697E+02 0.  0.
          1    1    3    3  502    0 -0.18043563133E+03  0.11729327954E+03  0.40825172182E+02  0.21904662782E+03  0.00000000000E+00 0. -1.
         -2    1    3    3    0  502 -0.29400463702E+03  0.22813562682E+03  0.17802009715E+03  0.41252363060E+03  0.00000000000E+00 0.  1.
         13    1    5    5    0    0  0.10608820671E+02 -0.96972952760E+02  0.11841329695E+03  0.15342102052E+03  0.00000000000E+00 0.  1.
        -13    1    5    5    0    0 -0.13051252055E+03 -0.34558901387E+03  0.40666922242E+03  0.54940435108E+03  0.00000000000E+00 0. -1.
          1    1    6    6  503    0  0.50111424621E+03  0.50402085883E+02  0.55512482274E+03  0.74954614724E+03  0.00000000000E+00 0. -1.
         -1    1    6    6    0  503  0.93229722014E+02  0.46730974389E+02  0.14180456315E+03  0.17602300748E+03  0.00000000000E+00 0.  1.
<mgrwt>
<rscale>  0 0.17410834E+04</rscale>
<asrwt>0</asrwt>
<pdfrwt beam="1">  1        1 0.28467861E+00 0.17410834E+04</pdfrwt>
<pdfrwt beam="2">  1       -2 0.63008279E-01 0.17410834E+04</pdfrwt>
<totfact> 0.73161106E+00</totfact>
</mgrwt>
</event>
<event>
12    5  0.5246737E-008  0.1557519E+04  0.7818608E-02  0.8847079E-01
         -2   -1    0    0    0  501 -0.00000000000E+00  0.00000000000E+00  0.11236261426E+04  0.11236261426E+04  0.00000000000E+00 0.  1.
          1   -1    0    0  501    0  0.00000000000E+00 -0.00000000000E+00 -0.53974041986E+03  0.53974041986E+03  0.00000000000E+00 0. -1.
        -24    2    1    2    0    0 -0.43434850991E+03  0.17293036922E+03  0.44267340533E+03  0.64900391633E+03  0.81748388085E+02 0.  0.
        254    2    1    2    0    0  0.43434850991E+03 -0.17293036922E+03  0.14121231736E+03  0.10143626461E+04  0.88905968221E+03 0.  0.
         23    2    4    4    0    0  0.19925802630E+03 -0.17091725620E+03  0.50215595590E+03  0.57382646105E+03  0.90552381822E+02 0.  0.
         23    2    4    4    0    0  0.23509048362E+03 -0.20131130216E+01 -0.36094363853E+03  0.44053618503E+03  0.92305102870E+02 0.  0.
          1    1    3    3  502    0 -0.20085943613E+02  0.23548969620E+01  0.15616052449E+01  0.20283719616E+02  0.00000000000E+00 0. -1.
         -2    1    3    3    0  502 -0.41426256630E+03  0.17057547226E+03  0.44111180009E+03  0.62872019671E+03  0.00000000000E+00 0.  1.
         13    1    5    5    0    0  0.20018558534E+03 -0.17708757309E+03  0.46659471046E+03  0.53772195506E+03  0.00000000000E+00 0. -1.
        -13    1    5    5    0    0 -0.92755903924E+00  0.61703168952E+01  0.35561245436E+02  0.36104505997E+02  0.00000000000E+00 0.  1.
          1    1    6    6  503    0  0.18872437486E+03  0.33374268123E+02 -0.24803611584E+03  0.31345278145E+03  0.00000000000E+00 0. -1.
         -1    1    6    6    0  503  0.46366108760E+02 -0.35387381145E+02 -0.11290752269E+03  0.12708340358E+03  0.00000000000E+00 0.  1.
<mgrwt>
<rscale>  0 0.15575191E+04</rscale>
<asrwt>0</asrwt>
<pdfrwt beam="1">  1        1 0.83036988E-01 0.15575191E+04</pdfrwt>
<pdfrwt beam="2">  1       -2 0.17286556E+00 0.15575191E+04</pdfrwt>
<totfact> 0.68190188E+00</totfact>
</mgrwt>
</event>
<event>
12    5  0.5246737E-008  0.2578642E+04  0.7818608E-02  0.8375492E-01
         -2   -1    0    0    0  501 -0.00000000000E+00  0.00000000000E+00  0.11592175036E+04  0.11592175036E+04  0.00000000000E+00 0.  1.
          1   -1    0    0  501    0  0.00000000000E+00 -0.00000000000E+00 -0.14340268878E+04  0.14340268878E+04  0.00000000000E+00 0. -1.
        -24    2    1    2    0    0  0.11189219299E+04 -0.27550722983E+02 -0.32099909626E+03  0.11672028700E+04  0.81097424573E+02 0.  0.
        254    2    1    2    0    0 -0.11189219299E+04  0.27550722983E+02  0.46189712001E+02  0.14260415214E+04  0.88244864082E+03 0.  0.
         23    2    4    4    0    0 -0.26659732186E+03 -0.27732168567E+03 -0.25144604153E+03  0.46859287083E+03  0.91502554230E+02 0.  0.
         23    2    4    4    0    0 -0.85232460806E+03  0.30487240865E+03  0.29763575353E+03  0.95744865058E+03  0.93361949674E+02 0.  0.
          1    1    3    3  502    0  0.65678733796E+03 -0.32136443686E+02 -0.22645529880E+03  0.69547419843E+03  0.00000000000E+00 0. -1.
         -2    1    3    3    0  502  0.46213459196E+03  0.45857207037E+01 -0.94543797455E+02  0.47172867155E+03  0.00000000000E+00 0.  1.
         13    1    5    5    0    0 -0.10874340030E+03 -0.17103533772E+03 -0.10367220417E+03  0.22765355208E+03  0.00000000000E+00 0. -1.
        -13    1    5    5    0    0 -0.15785392157E+03 -0.10628634794E+03 -0.14777383736E+03  0.24093931875E+03  0.00000000000E+00 0.  1.
          1    1    6    6  503    0 -0.62865513638E+03  0.18743482297E+03  0.19102839379E+03  0.68325027669E+03  0.00000000000E+00 0. -1.
         -1    1    6    6    0  503 -0.22366947168E+03  0.11743758568E+03  0.10660735974E+03  0.27419837389E+03  0.00000000000E+00 0.  1.
<mgrwt>
<rscale>  0 0.25786423E+04</rscale>
<asrwt>0</asrwt>
<pdfrwt beam="1">  1        1 0.22061952E+00 0.25786423E+04</pdfrwt>
<pdfrwt beam="2">  1       -2 0.17834115E+00 0.25786423E+04</pdfrwt>
<totfact> 0.10490044E+00</totfact>
</mgrwt>
</event>
<event>
12    5  0.5246737E-008  0.1598795E+04  0.7818608E-02  0.8821289E-01
         -2   -1    0    0    0  501 -0.00000000000E+00  0.00000000000E+00  0.27101542267E+04  0.27101542267E+04  0.00000000000E+00 0.  1.
          1   -1    0    0  501    0  0.00000000000E+00 -0.00000000000E+00 -0.23579334825E+03  0.23579334825E+03  0.00000000000E+00 0. -1.
        -24    2    1    2    0    0  0.23253275899E+03  0.23916491032E+02 -0.60784077837E+02  0.25429341727E+03  0.79542161147E+02 0.  0.
        254    2    1    2    0    0 -0.23253275899E+03 -0.23916491032E+02  0.25351449563E+04  0.26916541577E+04  0.87372688674E+03 0.  0.
         23    2    4    4    0    0  0.34390840142E+02  0.36486067085E+03  0.70668313988E+03  0.80118200370E+03  0.90473774333E+02 0.  0.
         23    2    4    4    0    0 -0.26692359913E+03 -0.38877716189E+03  0.18284618165E+04  0.18904721540E+04  0.90644699345E+02 0.  0.
          1    1    3    3  502    0  0.18257690623E+03  0.25359745848E+01 -0.14949830227E+02  0.18320550013E+03  0.00000000000E+00 0. -1.
         -2    1    3    3    0  502  0.49955852765E+02  0.21380516447E+02 -0.45834247609E+02  0.71087917138E+02  0.00000000000E+00 0.  1.
         13    1    5    5    0    0  0.41976000625E+02  0.24443281187E+03  0.38879616821E+03  0.46116357679E+03  0.00000000000E+00 0.  1.
        -13    1    5    5    0    0 -0.75851604836E+01  0.12042785899E+03  0.31788697167E+03  0.34001842690E+03  0.00000000000E+00 0. -1.
          3    1    6    6  503    0 -0.18629032755E+02 -0.87788404760E+02  0.31686019680E+03  0.32932389708E+03  0.00000000000E+00 0. -1.
         -3    1    6    6    0  503 -0.24829456638E+03 -0.30098875713E+03  0.15116016197E+04  0.15611482569E+04  0.00000000000E+00 0.  1.
<mgrwt>
<rscale>  0 0.15987950E+04</rscale>
<asrwt>0</asrwt>
<pdfrwt beam="1">  1        1 0.36275901E-01 0.15987950E+04</pdfrwt>
<pdfrwt beam="2">  1       -2 0.41694678E+00 0.15987950E+04</pdfrwt>
<totfact> 0.58192031E-01</totfact>
</mgrwt>
</event>
<event>
12    5  0.5246737E-008  0.2822083E+04  0.7818608E-02  0.8296445E-01
          1   -1    0    0  501    0  0.00000000000E+00  0.00000000000E+00  0.25289190039E+04  0.25289190039E+04  0.00000000000E+00 0. -1.
         -2   -1    0    0    0  501 -0.00000000000E+00 -0.00000000000E+00 -0.78730811037E+03  0.78730811037E+03  0.00000000000E+00 0.  1.
        -24    2    1    2    0    0 -0.71261794383E+03 -0.70423683182E+03  0.16927545372E+04  0.19686233189E+04  0.79284293596E+02 0.  0.
        254    2    1    2    0    0  0.71261794383E+03  0.70423683182E+03  0.48856356305E+02  0.13476037954E+04  0.89993066211E+03 0.  0.
         23    2    4    4    0    0  0.57205925398E+03  0.36082560521E+03 -0.37354864801E+03  0.77798526599E+03  0.90970183207E+02 0.  0.
         23    2    4    4    0    0  0.14055868985E+03  0.34341122662E+03  0.42240500431E+03  0.56961852939E+03  0.91385258658E+02 0.  0.
          3    1    3    3  502    0 -0.40706873892E+03 -0.44700915423E+03  0.10625096049E+04  0.12224765040E+04  0.00000000000E+00 0. -1.
         -4    1    3    3    0  502 -0.30554920491E+03 -0.25722767759E+03  0.63024493230E+03  0.74614681493E+03  0.00000000000E+00 0.  1.
         13    1    5    5    0    0  0.43202131088E+03  0.27049243985E+03 -0.23504832578E+03  0.56129875157E+03  0.00000000000E+00 0.  1.
        -13    1    5    5    0    0  0.14003794310E+03  0.90333165359E+02 -0.13850032223E+03  0.21668651442E+03  0.00000000000E+00 0. -1.
          3    1    6    6  503    0  0.11960665857E+03  0.17578427163E+03  0.25119457029E+03  0.32909660446E+03  0.00000000000E+00 0. -1.
         -3    1    6    6    0  503  0.20952031281E+02  0.16762695499E+03  0.17121043403E+03  0.24052192493E+03  0.00000000000E+00 0.  1.
<mgrwt>
<rscale>  0 0.28220832E+04</rscale>
<asrwt>0</asrwt>
<pdfrwt beam="1">  1        1 0.38906446E+00 0.28220832E+04</pdfrwt>
<pdfrwt beam="2">  1       -2 0.12112433E+00 0.28220832E+04</pdfrwt>
<totfact> 0.50985943E-01</totfact>
</mgrwt>
</event>
<event>
12    5  0.5246737E-008  0.2447430E+04  0.7818608E-02  0.8421957E-01
         -2   -1    0    0    0  501 -0.00000000000E+00  0.00000000000E+00  0.16080970526E+04  0.16080970526E+04  0.00000000000E+00 0.  1.
          1   -1    0    0  501    0  0.00000000000E+00 -0.00000000000E+00 -0.93121119734E+03  0.93121119734E+03  0.00000000000E+00 0. -1.
        -24    2    1    2    0    0  0.39684694261E+03 -0.50675561510E+03 -0.58122409720E+03  0.87092574008E+03  0.80009026189E+02 0.  0.
        254    2    1    2    0    0 -0.39684694261E+03  0.50675561510E+03  0.12581099525E+04  0.16683825099E+04  0.88677550567E+03 0.  0.
         23    2    4    4    0    0 -0.26282024035E+03 -0.49534816736E+02 -0.32034384083E+00  0.28285242671E+03  0.92071797355E+02 0.  0.
         23    2    4    4    0    0 -0.13402670226E+03  0.55629043184E+03  0.12584302963E+04  0.13855300832E+04  0.92868720288E+02 0.  0.
          3    1    3    3  502    0  0.37806693605E+03 -0.45166325627E+03 -0.54430665662E+03  0.80200002596E+03  0.00000000000E+00 0. -1.
         -4    1    3    3    0  502  0.18780006560E+02 -0.55092358834E+02 -0.36917440587E+02  0.68925714126E+02  0.00000000000E+00 0.  1.
         13    1    5    5    0    0  0.14354604852E+01  0.61580650319E+01  0.10853058446E+02  0.12560700194E+02  0.00000000000E+00 0.  1.
        -13    1    5    5    0    0 -0.26425570083E+03 -0.55692881768E+02 -0.11173402287E+02  0.27029172651E+03  0.00000000000E+00 0. -1.
          2    1    6    6  503    0  0.87474038634E+01  0.12608724114E+03  0.26869841584E+03  0.29693997395E+03  0.00000000000E+00 0. -1.
         -2    1    6    6    0  503 -0.14277410613E+03  0.43020319070E+03  0.98973188048E+03  0.10885901092E+04  0.00000000000E+00 0.  1.
<mgrwt>
<rscale>  0 0.24474297E+04</rscale>
<asrwt>0</asrwt>
<pdfrwt beam="1">  1        1 0.14326326E+00 0.24474297E+04</pdfrwt>
<pdfrwt beam="2">  1       -2 0.24739955E+00 0.24474297E+04</pdfrwt>
<totfact> 0.89542426E-01</totfact>
</mgrwt>
</event>
<event>
12    5  0.5246737E-008  0.2092491E+04  0.7818608E-02  0.8564558E-01
          1   -1    0    0  501    0  0.00000000000E+00  0.00000000000E+00  0.11385093912E+04  0.11385093912E+04  0.00000000000E+00 0. -1.
         -2   -1    0    0    0  501 -0.00000000000E+00 -0.00000000000E+00 -0.96145852544E+03  0.96145852544E+03  0.00000000000E+00 0.  1.
        -24    2    1    2    0    0  0.27452377292E+03 -0.45172403703E+03  0.73384361854E+03  0.90788443487E+03  0.79434143033E+02 0.  0.
        254    2    1    2    0    0 -0.27452377292E+03  0.45172403703E+03 -0.55679275275E+03  0.11920834818E+04  0.91193582588E+03 0.  0.
         23    2    4    4    0    0  0.31106730937E+03  0.20226840114E+03 -0.78190940271E+02  0.39045878991E+03  0.93106747451E+02 0.  0.
         23    2    4    4    0    0 -0.58559108229E+03  0.24945563589E+03 -0.47860181248E+03  0.80162469189E+03  0.91637447529E+02 0.  0.
          3    1    3    3  502    0  0.16302768244E+03 -0.22011994132E+03  0.32605395271E+03  0.42584268678E+03  0.00000000000E+00 0. -1.
         -4    1    3    3    0  502  0.11149609048E+03 -0.23160409571E+03  0.40778966583E+03  0.48204174809E+03  0.00000000000E+00 0.  1.
         13    1    5    5    0    0  0.30527550321E+03  0.17128780776E+03 -0.63807925405E+02  0.35581469516E+03  0.00000000000E+00 0.  1.
        -13    1    5    5    0    0  0.57918061617E+01  0.30980593375E+02 -0.14383014866E+02  0.34644094751E+02  0.00000000000E+00 0. -1.
          2    1    6    6  503    0 -0.20431034231E+03  0.61088252526E+02 -0.11601658192E+03  0.24276395501E+03  0.00000000000E+00 0. -1.
         -2    1    6    6    0  503 -0.38128073998E+03  0.18836738337E+03 -0.36258523057E+03  0.55886073687E+03  0.00000000000E+00 0.  1.
<mgrwt>
<rscale>  0 0.20924909E+04</rscale>
<asrwt>0</asrwt>
<pdfrwt beam="1">  1        1 0.17515529E+00 0.20924909E+04</pdfrwt>
<pdfrwt beam="2">  1       -2 0.14791670E+00 0.20924909E+04</pdfrwt>
<totfact> 0.29772405E+00</totfact>
</mgrwt>
</event>
<event>
12    5  0.5246737E-008  0.1609358E+04  0.7818608E-02  0.8814820E-01
          1   -1    0    0  501    0  0.00000000000E+00  0.00000000000E+00  0.14466699750E+04  0.14466699750E+04  0.00000000000E+00 0. -1.
         -2   -1    0    0    0  501 -0.00000000000E+00 -0.00000000000E+00 -0.44758534493E+03  0.44758534493E+03  0.00000000000E+00 0.  1.
        -24    2    1    2    0    0  0.21804773077E+03  0.19543115196E+03  0.88341300454E+03  0.93400121117E+03  0.78750097259E+02 0.  0.
        254    2    1    2    0    0 -0.21804773077E+03 -0.19543115196E+03  0.11567162556E+03  0.96025410880E+03  0.90717687385E+03 0.  0.
         23    2    4    4    0    0 -0.56265676891E+03 -0.70802133961E+02  0.67807754216E+02  0.57868302036E+03  0.93169548389E+02 0.  0.
         23    2    4    4    0    0  0.34460903813E+03 -0.12462901800E+03  0.47863871348E+02  0.38157108844E+03  0.94961908486E+02 0.  0.
          1    1    3    3  502    0  0.13368158264E+03  0.16654433046E+03  0.59862763832E+03  0.63558070212E+03  0.00000000000E+00 0. -1.
         -2    1    3    3    0  502  0.84366148136E+02  0.28886821504E+02  0.28478536622E+03  0.29842050905E+03  0.00000000000E+00 0.  1.
         13    1    5    5    0    0 -0.28612267883E+03 -0.63352937498E+02  0.72969182922E+02  0.30200046968E+03  0.00000000000E+00 0. -1.
        -13    1    5    5    0    0 -0.27653409008E+03 -0.74491964634E+01 -0.51614287063E+01  0.27668255068E+03  0.00000000000E+00 0.  1.
          2    1    6    6  503    0  0.52533912593E+02 -0.23272159367E+02  0.44025360136E+02  0.72385341811E+02  0.00000000000E+00 0. -1.
         -2    1    6    6    0  503  0.29207512554E+03 -0.10135685864E+03  0.38385112120E+01  0.30918574663E+03  0.00000000000E+00 0.  1.
<mgrwt>
<rscale>  0 0.16093580E+04</rscale>
<asrwt>0</asrwt>
<pdfrwt beam="1">  1        1 0.22256461E+00 0.16093580E+04</pdfrwt>
<pdfrwt beam="2">  1       -2 0.68859284E-01 0.16093580E+04</pdfrwt>
<totfact> 0.11549945E+01</totfact>
</mgrwt>
</event>
<event>
12    5  0.5246737E-008  0.1627713E+04  0.7818608E-02  0.8803701E-01
         -2   -1    0    0    0  501 -0.00000000000E+00  0.00000000000E+00  0.61859299801E+03  0.61859299801E+03  0.00000000000E+00 0.  1.
          1   -1    0    0  501    0  0.00000000000E+00 -0.00000000000E+00 -0.10707564211E+04  0.10707564211E+04  0.00000000000E+00 0. -1.
        -24    2    1    2    0    0  0.58271104938E+02  0.13757964725E+02 -0.74555232040E+03  0.75222724956E+03  0.80079768092E+02 0.  0.
        254    2    1    2    0    0 -0.58271104938E+02 -0.13757964725E+02  0.29338889733E+03  0.93712216953E+03  0.88799555871E+03 0.  0.
         23    2    4    4    0    0 -0.18741232771E+03  0.12986042067E+03  0.55038652621E+03  0.60260963594E+03  0.90696944035E+02 0.  0.
         23    2    4    4    0    0  0.12914122277E+03 -0.14361838540E+03 -0.25699762888E+03  0.33451253359E+03  0.92450840110E+02 0.  0.
          1    1    3    3  502    0  0.58147521467E+02 -0.17458143582E+02 -0.61523478067E+03  0.61822306361E+03  0.00000000000E+00 0. -1.
         -2    1    3    3    0  502  0.12358347127E+00  0.31216108306E+02 -0.13031753973E+03  0.13400418595E+03  0.00000000000E+00 0.  1.
         13    1    5    5    0    0 -0.84802984964E+02  0.34002825049E+02  0.12631462527E+03  0.15589458915E+03  0.00000000000E+00 0. -1.
        -13    1    5    5    0    0 -0.10260934274E+03  0.95857595622E+02  0.42407190094E+03  0.44671504678E+03  0.00000000000E+00 0.  1.
          3    1    6    6  503    0  0.13833519313E+03 -0.10310192671E+03 -0.20998584163E+03  0.27177322649E+03  0.00000000000E+00 0. -1.
         -3    1    6    6    0  503 -0.91939703617E+01 -0.40516458684E+02 -0.47011787252E+02  0.62739307104E+02  0.00000000000E+00 0.  1.
<mgrwt>
<rscale>  0 0.16277130E+04</rscale>
<asrwt>0</asrwt>
<pdfrwt beam="1">  1        1 0.16473175E+00 0.16277130E+04</pdfrwt>
<pdfrwt beam="2">  1       -2 0.95168155E-01 0.16277130E+04</pdfrwt>
<totfact> 0.10395692E+01</totfact>
</mgrwt>
</event>
<event>
12    5  0.5246737E-008  0.3000660E+04  0.7818608E-02  0.8243542E-01
          1   -1    0    0  501    0  0.00000000000E+00  0.00000000000E+00  0.17397304142E+04  0.17397304142E+04  0.00000000000E+00 0. -1.
         -2   -1    0    0    0  501 -0.00000000000E+00 -0.00000000000E+00 -0.12938731051E+04  0.12938731051E+04  0.00000000000E+00 0.  1.
        -24    2    1    2    0    0  0.12898443174E+03  0.88886246162E+03 -0.80795073024E+03  0.12103802551E+04  0.74313660286E+02 0.  0.
        254    2    1    2    0    0 -0.12898443174E+03 -0.88886246162E+03  0.12538080393E+04  0.18232232641E+04  0.97231425586E+03 0.  0.
         23    2    4    4    0    0 -0.24276736621E+03  0.11582857484E+02 -0.16661066204E+02  0.25922372096E+03  0.88595652806E+02 0.  0.
         23    2    4    4    0    0  0.11378293447E+03 -0.90044531910E+03  0.12704691055E+04  0.15639995432E+04  0.90854246678E+02 0.  0.
          3    1    3    3  502    0  0.36283665089E+02  0.12299152463E+03 -0.14098772169E+03  0.19058057915E+03  0.00000000000E+00 0. -1.
         -4    1    3    3    0  502  0.92700766651E+02  0.76587093699E+03 -0.66696300855E+03  0.10197996759E+04  0.00000000000E+00 0.  1.
         13    1    5    5    0    0 -0.17252108277E+03  0.27835498205E+02 -0.47056377018E+02  0.18097690897E+03  0.00000000000E+00 0. -1.
        -13    1    5    5    0    0 -0.70246283436E+02 -0.16252640721E+02  0.30395310814E+02  0.78246811989E+02  0.00000000000E+00 0.  1.
          2    1    6    6  503    0  0.62829683092E+02 -0.31419493753E+03  0.51242802986E+03  0.60435793503E+03  0.00000000000E+00 0.  1.
         -2    1    6    6    0  503  0.50953251378E+02 -0.58625038157E+03  0.75804107566E+03  0.95964160815E+03  0.00000000000E+00 0. -1.
<mgrwt>
<rscale>  0 0.30006602E+04</rscale>
<asrwt>0</asrwt>
<pdfrwt beam="1">  1        1 0.26765083E+00 0.30006602E+04</pdfrwt>
<pdfrwt beam="2">  1       -2 0.19905740E+00 0.30006602E+04</pdfrwt>
<totfact> 0.45176397E-01</totfact>
</mgrwt>
</event>
<event>
12    5  0.5246737E-008  0.2730428E+04  0.7818608E-02  0.8325199E-01
         -2   -1    0    0    0  501 -0.00000000000E+00  0.00000000000E+00  0.78052957270E+03  0.78052957270E+03  0.00000000000E+00 0.  1.
          1   -1    0    0  501    0  0.00000000000E+00 -0.00000000000E+00 -0.23878786207E+04  0.23878786207E+04  0.00000000000E+00 0. -1.
        -24    2    1    2    0    0 -0.13434446625E+02 -0.58568486079E+03  0.51889601981E+03  0.78629238133E+03  0.76127452636E+02 0.  0.
        254    2    1    2    0    0  0.13434446625E+02  0.58568486079E+03 -0.21262450678E+04  0.23821158121E+04  0.90019465299E+03 0.  0.
         23    2    4    4    0    0 -0.14285869919E+03  0.42354135885E+03 -0.31449809738E+03  0.55412685642E+03  0.91387248349E+02 0.  0.
         23    2    4    4    0    0  0.15629314581E+03  0.16214350194E+03 -0.18117469704E+04  0.18279889557E+04  0.91643191304E+02 0.  0.
          3    1    3    3  502    0 -0.28366481780E+02 -0.84263328524E+02  0.70738116122E+02  0.11361710652E+03  0.00000000000E+00 0. -1.
         -4    1    3    3    0  502  0.14932035155E+02 -0.50142153227E+03  0.44815790369E+03  0.67267527480E+03  0.00000000000E+00 0.  1.
         13    1    5    5    0    0 -0.10971675793E+03  0.19506778815E+03 -0.13192838077E+03  0.25979666395E+03  0.00000000000E+00 0. -1.
        -13    1    5    5    0    0 -0.33141941251E+02  0.22847357070E+03 -0.18256971661E+03  0.29433019247E+03  0.00000000000E+00 0.  1.
          3    1    6    6  503    0  0.11885365479E+03  0.13587529721E+03 -0.16516898472E+04  0.16615256962E+04  0.00000000000E+00 0. -1.
         -3    1    6    6    0  503  0.37439491023E+02  0.26268204733E+02 -0.16005712319E+03  0.16646325947E+03  0.00000000000E+00 0.  1.
<mgrwt>
<rscale>  0 0.27304284E+04</rscale>
<asrwt>0</asrwt>
<pdfrwt beam="1">  1        1 0.36736593E+00 0.27304284E+04</pdfrwt>
<pdfrwt beam="2">  1       -2 0.12008148E+00 0.27304284E+04</pdfrwt>
<totfact> 0.65732696E-01</totfact>
</mgrwt>
</event>
<event>
12    5  0.5246737E-008  0.3911449E+04  0.7818608E-02  0.8022652E-01
          1   -1    0    0  501    0  0.00000000000E+00  0.00000000000E+00  0.17450447843E+04  0.17450447843E+04  0.00000000000E+00 0. -1.
         -2   -1    0    0    0  501 -0.00000000000E+00 -0.00000000000E+00 -0.21918399138E+04  0.21918399138E+04  0.00000000000E+00 0.  1.
        -24    2    1    2    0    0  0.13508057772E+04 -0.85424297413E+02 -0.14866382423E+04  0.20124726291E+04  0.89326709453E+02 0.  0.
        254    2    1    2    0    0 -0.13508057772E+04  0.85424297413E+02  0.10398431128E+04  0.19244120689E+04  0.88888388085E+03 0.  0.
         23    2    4    4    0    0 -0.10071295606E+04  0.33879141556E+03  0.10368609235E+04  0.14877166459E+04  0.95554531826E+02 0.  0.
         23    2    4    4    0    0 -0.34367621655E+03 -0.25336711815E+03  0.29821892768E+01  0.43669542306E+03  0.91573799147E+02 0.  0.
          3    1    3    3  502    0  0.51055573162E+03 -0.74310918346E+02 -0.54924153136E+03  0.75356189357E+03  0.00000000000E+00 0. -1.
         -4    1    3    3    0  502  0.84025004554E+03 -0.11113379067E+02 -0.93739671097E+03  0.12589107355E+04  0.00000000000E+00 0.  1.
         13    1    5    5    0    0 -0.26133882458E+03  0.44411690975E+02  0.25847039215E+03  0.37023954833E+03  0.00000000000E+00 0. -1.
        -13    1    5    5    0    0 -0.74579073603E+03  0.29437972459E+03  0.77839053139E+03  0.11174770976E+04  0.00000000000E+00 0.  1.
          4    1    6    6  503    0 -0.28944985712E+03 -0.16675336460E+03  0.10672480200E+02  0.33421820152E+03  0.00000000000E+00 0.  1.
         -4    1    6    6    0  503 -0.54226359426E+02 -0.86613753551E+02 -0.76902909227E+01  0.10247722154E+03  0.00000000000E+00 0. -1.
<mgrwt>
<rscale>  0 0.39114493E+04</rscale>
<asrwt>0</asrwt>
<pdfrwt beam="1">  1        1 0.26846843E+00 0.39114493E+04</pdfrwt>
<pdfrwt beam="2">  1       -2 0.33720614E+00 0.39114493E+04</pdfrwt>
<totfact> 0.57554969E-02</totfact>
</mgrwt>
</event>
<event>
12    5  0.5246737E-008  0.4043002E+04  0.7818608E-02  0.7995927E-01
         -2   -1    0    0    0  501 -0.00000000000E+00  0.00000000000E+00  0.12175902595E+04  0.12175902595E+04  0.00000000000E+00 0.  1.
          1   -1    0    0  501    0  0.00000000000E+00 -0.00000000000E+00 -0.33561923856E+04  0.33561923856E+04  0.00000000000E+00 0. -1.
        -24    2    1    2    0    0 -0.18217196555E+04 -0.22166000329E+03 -0.16497238431E+04  0.24689238242E+04  0.78742813199E+02 0.  0.
        254    2    1    2    0    0  0.18217196555E+04  0.22166000329E+03 -0.48887828304E+03  0.21048588209E+04  0.90754229650E+03 0.  0.
         23    2    4    4    0    0  0.11863028965E+04 -0.81084365300E+02  0.80624573421E+02  0.11951935745E+04  0.89989566993E+02 0.  0.
         23    2    4    4    0    0  0.63541675908E+03  0.30274436859E+03 -0.56950285646E+03  0.90966524645E+03  0.88026965461E+02 0.  0.
          3    1    3    3  502    0 -0.88987425127E+03 -0.11295486307E+03 -0.75386287844E+03  0.11717270261E+04  0.00000000000E+00 0. -1.
         -4    1    3    3    0  502 -0.93184540428E+03 -0.10870514022E+03 -0.89586096467E+03  0.12971967981E+04  0.00000000000E+00 0.  1.
         13    1    5    5    0    0  0.10119565396E+04 -0.39119222898E+02  0.56957885959E+02  0.10143128474E+04  0.00000000000E+00 0. -1.
        -13    1    5    5    0    0  0.17434635683E+03 -0.41965142402E+02  0.23666687462E+02  0.18088072703E+03  0.00000000000E+00 0.  1.
          3    1    6    6  503    0  0.14208465635E+03  0.82389906514E+02 -0.17951788685E+03  0.24331629202E+03  0.00000000000E+00 0. -1.
         -3    1    6    6    0  503  0.49333210274E+03  0.22035446208E+03 -0.38998496961E+03  0.66634895443E+03  0.00000000000E+00 0.  1.
<mgrwt>
<rscale>  0 0.40430024E+04</rscale>
<asrwt>0</asrwt>
<pdfrwt beam="1">  1        1 0.51633729E+00 0.40430024E+04</pdfrwt>
<pdfrwt beam="2">  1       -2 0.18732158E+00 0.40430024E+04</pdfrwt>
<totfact> 0.35864352E-02</totfact>
</mgrwt>
</event>
<event>
12    5  0.5246737E-008  0.2108277E+04  0.7818608E-02  0.8557606E-01
          1   -1    0    0  501    0  0.00000000000E+00  0.00000000000E+00  0.10080191419E+04  0.10080191419E+04  0.00000000000E+00 0. -1.
         -2   -1    0    0    0  501 -0.00000000000E+00 -0.00000000000E+00 -0.11023679080E+04  0.11023679080E+04  0.00000000000E+00 0.  1.
        -24    2    1    2    0    0 -0.22539590717E+03 -0.25550385191E+03 -0.82448555528E+03  0.89631336225E+03  0.86693016797E+02 0.  0.
        254    2    1    2    0    0  0.22539590717E+03  0.25550385191E+03  0.73013678915E+03  0.12140736877E+04  0.90817930770E+03 0.  0.
         23    2    4    4    0    0  0.19242937025E+03  0.44933345286E+03  0.83638959343E+03  0.97302789393E+03  0.91137895356E+02 0.  0.
         23    2    4    4    0    0  0.32966536919E+02 -0.19382960095E+03 -0.10625280428E+03  0.24104579375E+03  0.90314503313E+02 0.  0.
          3    1    3    3  502    0 -0.71136261494E+02 -0.27924240017E+02 -0.19255401449E+03  0.20716461903E+03  0.00000000000E+00 0. -1.
         -4    1    3    3    0  502 -0.15425964567E+03 -0.22757961189E+03 -0.63193154079E+03  0.68914874322E+03  0.00000000000E+00 0.  1.
         13    1    5    5    0    0  0.85093773908E+02  0.27791116827E+03  0.42886264744E+03  0.51807213607E+03  0.00000000000E+00 0. -1.
        -13    1    5    5    0    0  0.10733559634E+03  0.17142228459E+03  0.40752694599E+03  0.45495575786E+03  0.00000000000E+00 0.  1.
          4    1    6    6  503    0 -0.92205424834E+01 -0.16501798651E+03 -0.80733356535E+02  0.18393974322E+03  0.00000000000E+00 0. -1.
         -4    1    6    6    0  503  0.42187079403E+02 -0.28811614436E+02 -0.25519447742E+02  0.57106050538E+02  0.00000000000E+00 0.  1.
<mgrwt>
<rscale>  0 0.21082770E+04</rscale>
<asrwt>0</asrwt>
<pdfrwt beam="1">  1        1 0.15507987E+00 0.21082770E+04</pdfrwt>
<pdfrwt beam="2">  1       -2 0.16959506E+00 0.21082770E+04</pdfrwt>
<totfact> 0.25779632E+00</totfact>
</mgrwt>
</event>
<event>
12    5  0.5246737E-008  0.1136214E+04  0.7818608E-02  0.9170597E-01
          1   -1    0    0  501    0  0.00000000000E+00  0.00000000000E+00  0.20107725418E+04  0.20107725418E+04  0.00000000000E+00 0. -1.
         -2   -1    0    0    0  501 -0.00000000000E+00 -0.00000000000E+00 -0.16050825975E+03  0.16050825975E+03  0.00000000000E+00 0.  1.
        -24    2    1    2    0    0 -0.53108732976E+02  0.47637399834E+02  0.70733958851E+03  0.71537394507E+03  0.79628691050E+02 0.  0.
        254    2    1    2    0    0  0.53108732976E+02 -0.47637399834E+02  0.11429246936E+04  0.14559068565E+04  0.89905398074E+03 0.  0.
         23    2    4    4    0    0  0.26688392009E+02 -0.43090500124E+03  0.87190335022E+03  0.97720640408E+03  0.91244252830E+02 0.  0.
         23    2    4    4    0    0  0.26420340967E+02  0.38326760141E+03  0.27102134336E+03  0.47870045244E+03  0.90052573023E+02 0.  0.
          3    1    3    3  502    0 -0.45663738824E+02  0.50030253127E+02  0.70333299403E+03  0.70658722304E+03  0.00000000000E+00 0. -1.
         -4    1    3    3    0  502 -0.74449941524E+01 -0.23928532924E+01  0.40065944791E+01  0.87867220354E+01  0.00000000000E+00 0.  1.
         13    1    5    5    0    0  0.32842037042E+02 -0.20987885193E+03  0.51852131394E+03  0.56034996644E+03  0.00000000000E+00 0. -1.
        -13    1    5    5    0    0 -0.61536450323E+01 -0.22102614932E+03  0.35338203628E+03  0.41685643763E+03  0.00000000000E+00 0.  1.
          2    1    6    6  503    0 -0.33574500721E+02  0.14559054211E+03  0.10620810961E+03  0.18331398092E+03  0.00000000000E+00 0. -1.
         -2    1    6    6    0  503  0.59994841688E+02  0.23767705929E+03  0.16481323374E+03  0.29538647153E+03  0.00000000000E+00 0.  1.
<mgrwt>
<rscale>  0 0.11362141E+04</rscale>
<asrwt>0</asrwt>
<pdfrwt beam="1">  1        1 0.30934960E+00 0.11362141E+04</pdfrwt>
<pdfrwt beam="2">  1       -2 0.24693580E-01 0.11362141E+04</pdfrwt>
<totfact> 0.37611537E+01</totfact>
</mgrwt>
</event>
<event>
12    5  0.5246737E-008  0.1522454E+04  0.7818608E-02  0.8869657E-01
          1   -1    0    0  501    0  0.00000000000E+00  0.00000000000E+00  0.12865900696E+04  0.12865900696E+04  0.00000000000E+00 0. -1.
         -2   -1    0    0    0  501 -0.00000000000E+00 -0.00000000000E+00 -0.45038966343E+03  0.45038966343E+03  0.00000000000E+00 0.  1.
        -24    2    1    2    0    0  0.37023007815E+03 -0.29520134148E+03  0.42937361487E+03  0.64397512777E+03  0.78282317645E+02 0.  0.
        254    2    1    2    0    0 -0.37023007815E+03  0.29520134148E+03  0.40682679133E+03  0.10930046053E+04  0.89718274966E+03 0.  0.
         23    2    4    4    0    0 -0.38386351331E+03  0.37826254320E+03 -0.11360732041E+03  0.55822078988E+03  0.90939972312E+02 0.  0.
         23    2    4    4    0    0  0.13633435162E+02 -0.83061201721E+02  0.52043411173E+03  0.53478381542E+03  0.89760964739E+02 0.  0.
          3    1    3    3  502    0  0.11580926358E+02 -0.17355593300E+02  0.44054164191E+02  0.48745295739E+02  0.00000000000E+00 0. -1.
         -4    1    3    3    0  502  0.35864915179E+03 -0.27784574818E+03  0.38531945068E+03  0.59522983203E+03  0.00000000000E+00 0.  1.
         13    1    5    5    0    0 -0.25325001324E+02  0.34954489623E+02 -0.35140711567E+02  0.55660054314E+02  0.00000000000E+00 0. -1.
        -13    1    5    5    0    0 -0.35853851199E+03  0.34330805358E+03 -0.78466608839E+02  0.50256073557E+03  0.00000000000E+00 0.  1.
          3    1    6    6  503    0  0.22970957828E+02  0.84706752550E+01  0.53012894063E+02  0.58393357325E+02  0.00000000000E+00 0. -1.
         -3    1    6    6    0  503 -0.93375226663E+01 -0.91531876976E+02  0.46742121767E+03  0.47639045809E+03  0.00000000000E+00 0.  1.
<mgrwt>
<rscale>  0 0.15224544E+04</rscale>
<asrwt>0</asrwt>
<pdfrwt beam="1">  1        1 0.19793693E+00 0.15224544E+04</pdfrwt>
<pdfrwt beam="2">  1       -2 0.69290718E-01 0.15224544E+04</pdfrwt>
<totfact> 0.14888704E+01</totfact>
</mgrwt>
</event>
<event>
12    5  0.5246737E-008  0.1124446E+04  0.7818608E-02  0.9181687E-01
          1   -1    0    0  501    0  0.00000000000E+00  0.00000000000E+00  0.93933513635E+03  0.93933513635E+03  0.00000000000E+00 0. -1.
         -2   -1    0    0    0  501 -0.00000000000E+00 -0.00000000000E+00 -0.33650889603E+03  0.33650889603E+03  0.00000000000E+00 0.  1.
        -24    2    1    2    0    0  0.69498650513E+01 -0.45587555146E+02  0.28852674352E+03  0.30292672658E+03  0.79939940811E+02 0.  0.
        254    2    1    2    0    0 -0.69498650513E+01  0.45587555146E+02  0.31429949679E+03  0.97291730580E+03  0.91959631601E+03 0.  0.
         23    2    4    4    0    0  0.41608988150E+03  0.18068516358E+03  0.20926151143E+03  0.50743669937E+03  0.89015200266E+02 0.  0.
         23    2    4    4    0    0 -0.42303974655E+03 -0.13509760843E+03  0.10503798536E+03  0.46548060643E+03  0.91789027838E+02 0.  0.
          1    1    3    3  502    0 -0.15821291510E+02 -0.56970183432E+02  0.24890614575E+03  0.25583233662E+03  0.00000000000E+00 0. -1.
         -2    1    3    3    0  502  0.22771156561E+02  0.11382628286E+02  0.39620597771E+02  0.47094389958E+02  0.00000000000E+00 0.  1.
         13    1    5    5    0    0  0.13028508681E+03  0.45414525439E+02  0.10864417326E+03  0.17561389282E+03  0.00000000000E+00 0. -1.
        -13    1    5    5    0    0  0.28580479469E+03  0.13527063814E+03  0.10061733817E+03  0.33182280655E+03  0.00000000000E+00 0.  1.
          3    1    6    6  503    0 -0.27505750798E+03 -0.90258091547E+02  0.22899891480E+02  0.29039208119E+03  0.00000000000E+00 0. -1.
         -3    1    6    6    0  503 -0.14798223856E+03 -0.44839516883E+02  0.82138093879E+02  0.17508852524E+03  0.00000000000E+00 0.  1.
<mgrwt>
<rscale>  0 0.11244459E+04</rscale>
<asrwt>0</asrwt>
<pdfrwt beam="1">  1        1 0.14451310E+00 0.11244459E+04</pdfrwt>
<pdfrwt beam="2">  1       -2 0.51770600E-01 0.11244459E+04</pdfrwt>
<totfact> 0.51943089E+01</totfact>
</mgrwt>
</event>
<event>
12    5  0.5246737E-008  0.1493429E+04  0.7818608E-02  0.8888835E-01
          1   -1    0    0  501    0  0.00000000000E+00  0.00000000000E+00  0.20245885909E+04  0.20245885909E+04  0.00000000000E+00 0. -1.
         -2   -1    0    0    0  501 -0.00000000000E+00 -0.00000000000E+00 -0.27540521301E+03  0.27540521301E+03  0.00000000000E+00 0.  1.
        -24    2    1    2    0    0 -0.34648725024E+03 -0.19708460543E+03  0.99625113352E+03  0.10758790404E+04  0.78125746848E+02 0.  0.
        254    2    1    2    0    0  0.34648725024E+03  0.19708460543E+03  0.75293224437E+03  0.12241147635E+04  0.87900752741E+03 0.  0.
         23    2    4    4    0    0  0.86478022247E+01 -0.31793568834E+03  0.35410833556E+03  0.48487130791E+03  0.92463968726E+02 0.  0.
         23    2    4    4    0    0  0.33783944802E+03  0.51502029377E+03  0.39882390880E+03  0.73924345556E+03  0.89660363192E+02 0.  0.
          3    1    3    3  502    0 -0.17627645338E+03 -0.13258353009E+03  0.47376806223E+03  0.52259731845E+03  0.00000000000E+00 0. -1.
         -4    1    3    3    0  502 -0.17021079686E+03 -0.64501075343E+02  0.52248307129E+03  0.55328172197E+03  0.00000000000E+00 0.  1.
         13    1    5    5    0    0 -0.35120249079E+02 -0.63130049790E+02  0.87959002604E+02  0.11382276231E+03  0.00000000000E+00 0.  1.
        -13    1    5    5    0    0  0.43768051303E+02 -0.25480563855E+03  0.26614933296E+03  0.37104854559E+03  0.00000000000E+00 0. -1.
          1    1    6    6  503    0  0.75128844644E+01  0.56042124530E+02  0.28839278014E+02  0.63473357491E+02  0.00000000000E+00 0. -1.
         -1    1    6    6    0  503  0.33032656355E+03  0.45897816924E+03  0.36998463079E+03  0.67577009807E+03  0.00000000000E+00 0.  1.
<mgrwt>
<rscale>  0 0.14934286E+04</rscale>
<asrwt>0</asrwt>
<pdfrwt beam="1">  1        1 0.31147516E+00 0.14934286E+04</pdfrwt>
<pdfrwt beam="2">  1       -2 0.42370034E-01 0.14934286E+04</pdfrwt>
<totfact> 0.12874462E+01</totfact>
</mgrwt>
</event>
<event>
12    5  0.5246737E-008  0.2880565E+04  0.7818608E-02  0.8278683E-01
         -2   -1    0    0    0  501 -0.00000000000E+00  0.00000000000E+00  0.22383228629E+04  0.22383228629E+04  0.00000000000E+00 0.  1.
          1   -1    0    0  501    0  0.00000000000E+00 -0.00000000000E+00 -0.92677156369E+03  0.92677156369E+03  0.00000000000E+00 0. -1.
        -24    2    1    2    0    0 -0.23879562803E+03 -0.11280872706E+04 -0.16713917991E+02  0.11559963074E+04  0.80273691866E+02 0.  0.
        254    2    1    2    0    0  0.23879562803E+03  0.11280872706E+04  0.13282652172E+04  0.20090981193E+04  0.97086689279E+03 0.  0.
         23    2    4    4    0    0 -0.34758011578E+03  0.46280513810E+03  0.33589687167E+03  0.67530711657E+03  0.90622627175E+02 0.  0.
         23    2    4    4    0    0  0.58637574381E+03  0.66528213246E+03  0.99236834556E+03  0.13337910027E+04  0.88128751639E+02 0.  0.
          3    1    3    3  502    0 -0.17902470796E+03 -0.75570606636E+03  0.21486381284E+02  0.77691902369E+03  0.00000000000E+00 0. -1.
         -4    1    3    3    0  502 -0.59770920075E+02 -0.37238120421E+03 -0.38200299276E+02  0.37907728367E+03  0.00000000000E+00 0.  1.
         13    1    5    5    0    0 -0.73108682539E+01  0.49879878580E+02  0.22358441941E+02  0.55148445198E+02  0.00000000000E+00 0. -1.
        -13    1    5    5    0    0 -0.34026924752E+03  0.41292525952E+03  0.31353842973E+03  0.62015867137E+03  0.00000000000E+00 0.  1.
          1    1    6    6  503    0  0.38582081205E+03  0.48897109406E+03  0.66113540634E+03  0.90832288057E+03  0.00000000000E+00 0. -1.
         -1    1    6    6    0  503  0.20055493176E+03  0.17631103840E+03  0.33123293922E+03  0.42546812212E+03  0.00000000000E+00 0.  1.
<mgrwt>
<rscale>  0 0.28805652E+04</rscale>
<asrwt>0</asrwt>
<pdfrwt beam="1">  1        1 0.14258024E+00 0.28805652E+04</pdfrwt>
<pdfrwt beam="2">  1       -2 0.34435736E+00 0.28805652E+04</pdfrwt>
<totfact> 0.22034936E-01</totfact>
</mgrwt>
</event>
<event>
12    5  0.5246737E-008  0.2225615E+04  0.7818608E-02  0.8507842E-01
         -2   -1    0    0    0  501 -0.00000000000E+00  0.00000000000E+00  0.10938874230E+04  0.10938874230E+04  0.00000000000E+00 0.  1.
          1   -1    0    0  501    0  0.00000000000E+00 -0.00000000000E+00 -0.11320548001E+04  0.11320548001E+04  0.00000000000E+00 0. -1.
        -24    2    1    2    0    0  0.39063051485E+03 -0.39146974240E+02 -0.85968887474E+03  0.94850587163E+03  0.80459570169E+02 0.  0.
        254    2    1    2    0    0 -0.39063051485E+03  0.39146974240E+02  0.82152149761E+03  0.12774363515E+04  0.89600300015E+03 0.  0.
         23    2    4    4    0    0 -0.49154883934E+02 -0.15247985449E+03  0.85374996067E+03  0.87326717015E+03  0.89667421514E+02 0.  0.
         23    2    4    4    0    0 -0.34147563092E+03  0.19162682873E+03 -0.32228463055E+02  0.40416918132E+03  0.94802981485E+02 0.  0.
          3    1    3    3  502    0  0.38054343209E+03 -0.30234308019E+02 -0.85039796648E+03  0.93215026604E+03  0.00000000000E+00 0. -1.
         -4    1    3    3    0  502  0.10087082759E+02 -0.89126662216E+01 -0.92909082657E+01  0.16355605588E+02  0.00000000000E+00 0.  1.
         13    1    5    5    0    0  0.25368108412E+02 -0.47749263500E+02  0.29594478234E+03  0.30084355948E+03  0.00000000000E+00 0.  1.
        -13    1    5    5    0    0 -0.74522992346E+02 -0.10473059099E+03  0.55780517833E+03  0.57242361066E+03  0.00000000000E+00 0. -1.
          1    1    6    6  503    0 -0.55803641665E+02  0.68655659435E+02 -0.29105241950E+02  0.93138397583E+02  0.00000000000E+00 0. -1.
         -1    1    6    6    0  503 -0.28567198925E+03  0.12297116929E+03 -0.31232211055E+01  0.31103078374E+03  0.00000000000E+00 0.  1.
<mgrwt>
<rscale>  0 0.22256150E+04</rscale>
<asrwt>0</asrwt>
<pdfrwt beam="1">  1        1 0.17416228E+00 0.22256150E+04</pdfrwt>
<pdfrwt beam="2">  1       -2 0.16829037E+00 0.22256150E+04</pdfrwt>
<totfact> 0.20981317E+00</totfact>
</mgrwt>
</event>
<event>
12    5  0.5246737E-008  0.1310544E+04  0.7818608E-02  0.9021245E-01
          3   -1    0    0  501    0  0.00000000000E+00  0.00000000000E+00  0.81312126422E+03  0.81312126422E+03  0.00000000000E+00 0. -1.
         -4   -1    0    0    0  501 -0.00000000000E+00 -0.00000000000E+00 -0.52806575108E+03  0.52806575108E+03  0.00000000000E+00 0.  1.
        -24    2    1    2    0    0  0.25512389959E+03 -0.20276493997E+03 -0.20155691563E+02  0.33689359980E+03  0.83001329280E+02 0.  0.
        254    2    1    2    0    0 -0.25512389959E+03  0.20276493997E+03  0.30521120471E+03  0.10042934155E+04  0.89958299222E+03 0.  0.
         23    2    4    4    0    0 -0.23456574423E+03  0.29980763916E+03  0.57915112416E+03  0.69922502256E+03  0.92703283124E+02 0.  0.
         23    2    4    4    0    0 -0.20558155364E+02 -0.97042699188E+02 -0.27393991945E+03  0.30506839293E+03  0.90463924729E+02 0.  0.
          1    1    3    3  502    0  0.25377632781E+03 -0.20554379286E+03 -0.28676105139E+02  0.32783074040E+03  0.00000000000E+00 0. -1.
         -2    1    3    3    0  502  0.13475717788E+01  0.27788528947E+01  0.85204135761E+01  0.90628594062E+01  0.00000000000E+00 0.  1.
         13    1    5    5    0    0 -0.99422017383E+02  0.12817591153E+03  0.33104840001E+03  0.36865545565E+03  0.00000000000E+00 0. -1.
        -13    1    5    5    0    0 -0.13514372685E+03  0.17163172763E+03  0.24810272415E+03  0.33056956691E+03  0.00000000000E+00 0.  1.
          1    1    6    6  503    0 -0.27515349124E+02 -0.54542334877E+02 -0.24660668118E+03  0.25406065404E+03  0.00000000000E+00 0. -1.
         -1    1    6    6    0  503  0.69571937607E+01 -0.42500364311E+02 -0.27333238271E+02  0.51007738883E+02  0.00000000000E+00 0.  1.
<mgrwt>
<rscale>  0 0.13105441E+04</rscale>
<asrwt>0</asrwt>
<pdfrwt beam="1">  1        3 0.12509558E+00 0.13105441E+04</pdfrwt>
<pdfrwt beam="2">  1       -4 0.81240885E-01 0.13105441E+04</pdfrwt>
<totfact> 0.15368637E+00</totfact>
</mgrwt>
</event>
<event>
12    5  0.5246737E-008  0.1123844E+04  0.7818608E-02  0.9182258E-01
          1   -1    0    0  501    0  0.00000000000E+00  0.00000000000E+00  0.33050194228E+04  0.33050194228E+04  0.00000000000E+00 0. -1.
         -2   -1    0    0    0  501 -0.00000000000E+00 -0.00000000000E+00 -0.95538492332E+02  0.95538492332E+02  0.00000000000E+00 0.  1.
        -24    2    1    2    0    0  0.17585115434E+03 -0.34198632554E+02  0.43975430676E+03  0.48150885633E+03  0.79835790616E+02 0.  0.
        254    2    1    2    0    0 -0.17585115434E+03  0.34198632554E+02  0.27697266238E+04  0.29190490588E+04  0.90408443337E+03 0.  0.
         23    2    4    4    0    0 -0.37772926237E+03  0.23502170725E+03  0.74541534805E+03  0.87292950230E+03  0.91909065657E+02 0.  0.
         23    2    4    4    0    0  0.20187810803E+03 -0.20082307469E+03  0.20243112757E+04  0.20461195565E+04  0.87660828794E+02 0.  0.
          3    1    3    3  502    0  0.11688505634E+02 -0.28323548932E+02  0.51365392056E+02  0.59810100227E+02  0.00000000000E+00 0. -1.
         -4    1    3    3    0  502  0.16416264870E+03 -0.58750836213E+01  0.38838891470E+03  0.42169875611E+03  0.00000000000E+00 0.  1.
         13    1    5    5    0    0 -0.19493389477E+03  0.97207474657E+02  0.28469653670E+03  0.35846985155E+03  0.00000000000E+00 0.  1.
        -13    1    5    5    0    0 -0.18279536759E+03  0.13781423259E+03  0.46071881135E+03  0.51445965075E+03  0.00000000000E+00 0. -1.
          3    1    6    6  503    0  0.83838031519E+02 -0.12247600981E+03  0.80132169997E+03  0.81495132085E+03  0.00000000000E+00 0. -1.
         -3    1    6    6    0  503  0.11804007651E+03 -0.78347064884E+02  0.12229895757E+04  0.12311682357E+04  0.00000000000E+00 0.  1.
<mgrwt>
<rscale>  0 0.11238444E+04</rscale>
<asrwt>0</asrwt>
<pdfrwt beam="1">  1        1 0.50846444E+00 0.11238444E+04</pdfrwt>
<pdfrwt beam="2">  1       -2 0.14698232E-01 0.11238444E+04</pdfrwt>
<totfact> 0.11492516E+01</totfact>
</mgrwt>
</event>
<event>
12    5  0.5246737E-008  0.1876036E+04  0.7818608E-02  0.8666877E-01
          1   -1    0    0  501    0  0.00000000000E+00  0.00000000000E+00  0.13041355328E+04  0.13041355328E+04  0.00000000000E+00 0. -1.
         -2   -1    0    0    0  501 -0.00000000000E+00 -0.00000000000E+00 -0.67468300407E+03  0.67468300407E+03  0.00000000000E+00 0.  1.
        -24    2    1    2    0    0  0.32463505588E+03 -0.76001641358E+01 -0.43552535131E+03  0.54929126916E+03  0.81196580861E+02 0.  0.
        254    2    1    2    0    0 -0.32463505588E+03  0.76001641358E+01  0.10649778801E+04  0.14295272677E+04  0.89661844846E+03 0.  0.
         23    2    4    4    0    0 -0.27219634574E+03 -0.26632093086E+03  0.76833691767E+02  0.39867047315E+03  0.89537931209E+02 0.  0.
         23    2    4    4    0    0 -0.52438710143E+02  0.27392109500E+03  0.98814418829E+03  0.10308567946E+04  0.91946774992E+02 0.  0.
          1    1    3    3  502    0  0.47181766858E+02 -0.28902619889E+02 -0.56455992510E+02  0.79049096456E+02  0.00000000000E+00 0. -1.
         -2    1    3    3    0  502  0.27745328902E+03  0.21302455754E+02 -0.37906935880E+03  0.47024217271E+03  0.00000000000E+00 0.  1.
         13    1    5    5    0    0 -0.41285764892E+02 -0.56075711559E+01  0.18344153659E+02  0.45524358430E+02  0.00000000000E+00 0. -1.
        -13    1    5    5    0    0 -0.23091058085E+03 -0.26071335971E+03  0.58489538108E+02  0.35314611472E+03  0.00000000000E+00 0.  1.
          4    1    6    6  503    0 -0.52684294251E+02  0.65591912059E+02  0.32816974606E+03  0.33878210699E+03  0.00000000000E+00 0. -1.
         -4    1    6    6    0  503  0.24558410826E+00  0.20832918294E+03  0.65997444223E+03  0.69207468757E+03  0.00000000000E+00 0.  1.
<mgrwt>
<rscale>  0 0.18760363E+04</rscale>
<asrwt>0</asrwt>
<pdfrwt beam="1">  1        1 0.20063624E+00 0.18760363E+04</pdfrwt>
<pdfrwt beam="2">  1       -2 0.10379739E+00 0.18760363E+04</pdfrwt>
<totfact> 0.55845795E+00</totfact>
</mgrwt>
</event>
<event>
12    5  0.5246737E-008  0.2253702E+04  0.7818608E-02  0.8496403E-01
          1   -1    0    0  501    0  0.00000000000E+00  0.00000000000E+00  0.19019377894E+04  0.19019377894E+04  0.00000000000E+00 0. -1.
         -2   -1    0    0    0  501 -0.00000000000E+00 -0.00000000000E+00 -0.66763126188E+03  0.66763126188E+03  0.00000000000E+00 0.  1.
        -24    2    1    2    0    0 -0.21678028869E+03 -0.44077695225E+03 -0.40078419064E+03  0.63859971377E+03  0.76834964503E+02 0.  0.
        254    2    1    2    0    0  0.21678028869E+03  0.44077695225E+03  0.16350907182E+04  0.19309693376E+04  0.90213242410E+03 0.  0.
         23    2    4    4    0    0  0.39568928626E+03 -0.12445936778E+03  0.60115441777E+03  0.73568366024E+03  0.88225100981E+02 0.  0.
         23    2    4    4    0    0 -0.17890899758E+03  0.56523632002E+03  0.10339363004E+04  0.11952856773E+04  0.90460213084E+02 0.  0.
          1    1    3    3  502    0 -0.37627991773E+01 -0.62664059304E+02 -0.59501705086E+02  0.86495062831E+02  0.00000000000E+00 0. -1.
         -2    1    3    3    0  502 -0.21301748951E+03 -0.37811289294E+03 -0.34128248556E+03  0.55210465094E+03  0.00000000000E+00 0.  1.
         13    1    5    5    0    0  0.61323110314E+02 -0.31443361774E+02  0.16121770856E+03  0.17532928566E+03  0.00000000000E+00 0. -1.
        -13    1    5    5    0    0  0.33436617595E+03 -0.93016006002E+02  0.43993670921E+03  0.56035437458E+03  0.00000000000E+00 0.  1.
          4    1    6    6  503    0 -0.12452551934E+03  0.24541986206E+03  0.48669601387E+03  0.55911584093E+03  0.00000000000E+00 0.  1.
         -4    1    6    6    0  503 -0.54383478240E+02  0.31981645796E+03  0.54724028656E+03  0.63616983639E+03  0.00000000000E+00 0. -1.
<mgrwt>
<rscale>  0 0.22537020E+04</rscale>
<asrwt>0</asrwt>
<pdfrwt beam="1">  1        1 0.29260581E+00 0.22537020E+04</pdfrwt>
<pdfrwt beam="2">  1       -2 0.10271250E+00 0.22537020E+04</pdfrwt>
<totfact> 0.21457019E+00</totfact>
</mgrwt>
</event>
<event>
12    5  0.5246737E-008  0.2163468E+04  0.7818608E-02  0.8533789E-01
         -2   -1    0    0    0  501 -0.00000000000E+00  0.00000000000E+00  0.12335729901E+04  0.12335729901E+04  0.00000000000E+00 0.  1.
          1   -1    0    0  501    0  0.00000000000E+00 -0.00000000000E+00 -0.94858463494E+03  0.94858463494E+03  0.00000000000E+00 0. -1.
        -24    2    1    2    0    0  0.56692018700E+03 -0.17974013771E+03 -0.55195782579E+03  0.81521117964E+03  0.78783313141E+02 0.  0.
        254    2    1    2    0    0 -0.56692018700E+03  0.17974013771E+03  0.83694618094E+03  0.13669464454E+04  0.90241822857E+03 0.  0.
         23    2    4    4    0    0 -0.30907704957E+03  0.45343653919E+03  0.14638070436E+03  0.57544746654E+03  0.92623746941E+02 0.  0.
         23    2    4    4    0    0 -0.25784313743E+03 -0.27369640149E+03  0.69056547659E+03  0.79149897885E+03  0.90538126594E+02 0.  0.
          3    1    3    3  502    0  0.31744260992E+03 -0.96016211723E+02 -0.36005668092E+03  0.48951990458E+03  0.00000000000E+00 0. -1.
         -4    1    3    3    0  502  0.24947757708E+03 -0.83723925982E+02 -0.19190114487E+03  0.32569127506E+03  0.00000000000E+00 0.  1.
         13    1    5    5    0    0 -0.27645646410E+03  0.40283999529E+03  0.98219426802E+02  0.49835258016E+03  0.00000000000E+00 0. -1.
        -13    1    5    5    0    0 -0.32620585474E+02  0.50596543900E+02  0.48161277554E+02  0.77094886387E+02  0.00000000000E+00 0.  1.
          3    1    6    6  503    0 -0.17217452920E+03 -0.18015083759E+03  0.53928554937E+03  0.59407684397E+03  0.00000000000E+00 0. -1.
         -3    1    6    6    0  503 -0.85668608233E+02 -0.93545563898E+02  0.15127992722E+03  0.19742213488E+03  0.00000000000E+00 0.  1.
<mgrwt>
<rscale>  0 0.21634679E+04</rscale>
<asrwt>0</asrwt>
<pdfrwt beam="1">  1        1 0.14593610E+00 0.21634679E+04</pdfrwt>
<pdfrwt beam="2">  1       -2 0.18978046E+00 0.21634679E+04</pdfrwt>
<totfact> 0.20718748E+00</totfact>
</mgrwt>
</event>
<event>
12    5  0.5246737E-008  0.1985512E+04  0.7818608E-02  0.8613424E-01
          1   -1    0    0  501    0  0.00000000000E+00  0.00000000000E+00  0.11813548219E+04  0.11813548219E+04  0.00000000000E+00 0. -1.
         -2   -1    0    0    0  501 -0.00000000000E+00 -0.00000000000E+00 -0.83426639672E+03  0.83426639672E+03  0.00000000000E+00 0.  1.
        -24    2    1    2    0    0  0.54440391983E+03 -0.50246728347E+03  0.36675654403E+03  0.83002266800E+03  0.74687803046E+02 0.  0.
        254    2    1    2    0    0 -0.54440391983E+03  0.50246728347E+03 -0.19668118811E+02  0.11855985507E+04  0.92542319484E+03 0.  0.
         23    2    4    4    0    0  0.20094745050E+02 -0.18342151256E+03  0.17532122656E+03  0.27168416014E+03  0.95013158763E+02 0.  0.
         23    2    4    4    0    0 -0.56449866488E+03  0.68588879602E+03 -0.19498934537E+03  0.91391439052E+03  0.90091538103E+02 0.  0.
          3    1    3    3  502    0  0.31749798833E+03 -0.34106871724E+03  0.23815922204E+03  0.52330933253E+03  0.00000000000E+00 0. -1.
         -4    1    3    3    0  502  0.22690593150E+03 -0.16139856622E+03  0.12859732198E+03  0.30671333546E+03  0.00000000000E+00 0.  1.
         13    1    5    5    0    0  0.25168949559E+02 -0.14889364298E+02  0.11433986329E+01  0.29265620642E+02  0.00000000000E+00 0.  1.
        -13    1    5    5    0    0 -0.50742045093E+01 -0.16853214826E+03  0.17417782793E+03  0.24241853949E+03  0.00000000000E+00 0. -1.
          3    1    6    6  503    0 -0.41773405258E+03  0.53653765650E+03 -0.11434470005E+03  0.68952817633E+03  0.00000000000E+00 0. -1.
         -3    1    6    6    0  503 -0.14676461230E+03  0.14935113953E+03 -0.80644645322E+02  0.22438621419E+03  0.00000000000E+00 0.  1.
<mgrwt>
<rscale>  0 0.19855122E+04</rscale>
<asrwt>0</asrwt>
<pdfrwt beam="1">  1        1 0.18174690E+00 0.19855122E+04</pdfrwt>
<pdfrwt beam="2">  1       -2 0.12834868E+00 0.19855122E+04</pdfrwt>
<totfact> 0.40302337E+00</totfact>
</mgrwt>
</event>
<event>
12    5  0.5246737E-008  0.1631451E+04  0.7818608E-02  0.8801456E-01
          1   -1    0    0  501    0  0.00000000000E+00  0.00000000000E+00  0.24121753071E+04  0.24121753071E+04  0.00000000000E+00 0. -1.
         -2   -1    0    0    0  501 -0.00000000000E+00 -0.00000000000E+00 -0.27585404292E+03  0.27585404292E+03  0.00000000000E+00 0.  1.
        -24    2    1    2    0    0  0.96816895986E+01 -0.56428301450E+03  0.73798210778E+03  0.93250767613E+03  0.80274024887E+02 0.  0.
        254    2    1    2    0    0 -0.96816895986E+01  0.56428301450E+03  0.13983391564E+04  0.17555216739E+04  0.89888536289E+03 0.  0.
         23    2    4    4    0    0  0.31920516385E+03 -0.65044875272E+02  0.54888117987E+03  0.64444400784E+03  0.88964921198E+02 0.  0.
         23    2    4    4    0    0 -0.32888685345E+03  0.62932788977E+03  0.84945797652E+03  0.11110776660E+04  0.93244682920E+02 0.  0.
          1    1    3    3  502    0 -0.17411315471E+02 -0.30677825744E+03  0.45396561384E+03  0.54817956154E+03  0.00000000000E+00 0. -1.
         -2    1    3    3    0  502  0.27093005070E+02 -0.25750475706E+03  0.28401649395E+03  0.38432811459E+03  0.00000000000E+00 0.  1.
         13    1    5    5    0    0  0.31316277340E+03 -0.78577580671E+02  0.52538990188E+03  0.61666839373E+03  0.00000000000E+00 0.  1.
        -13    1    5    5    0    0  0.60423904457E+01  0.13532705400E+02  0.23491277986E+02  0.27775614109E+02  0.00000000000E+00 0. -1.
          2    1    6    6  503    0 -0.33530490626E+03  0.61855702045E+03  0.83280010091E+03  0.10902284971E+04  0.00000000000E+00 0.  1.
         -2    1    6    6    0  503  0.64180528095E+01  0.10770869319E+02  0.16657875616E+02  0.20849168995E+02  0.00000000000E+00 0. -1.
<mgrwt>
<rscale>  0 0.16314513E+04</rscale>
<asrwt>0</asrwt>
<pdfrwt beam="1">  1        1 0.37110388E+00 0.16314513E+04</pdfrwt>
<pdfrwt beam="2">  1       -2 0.42439085E-01 0.16314513E+04</pdfrwt>
<totfact> 0.69027700E+00</totfact>
</mgrwt>
</event>
<event>
12    5  0.5246737E-008  0.1486896E+04  0.7818608E-02  0.8893214E-01
         -4   -1    0    0    0  501 -0.00000000000E+00  0.00000000000E+00  0.12499942269E+04  0.12499942269E+04  0.00000000000E+00 0.  1.
          1   -1    0    0  501    0  0.00000000000E+00 -0.00000000000E+00 -0.44217412187E+03  0.44217412187E+03  0.00000000000E+00 0. -1.
        -24    2    1    2    0    0  0.10537999331E+02 -0.26726297164E+02 -0.27279481524E+03  0.28571198744E+03  0.79931121333E+02 0.  0.
        254    2    1    2    0    0 -0.10537999331E+02  0.26726297164E+02  0.10806149203E+04  0.14064563613E+04  0.89975860431E+03 0.  0.
         23    2    4    4    0    0 -0.64845931847E+02 -0.27870159959E+03  0.10370808208E+04  0.10797534896E+04  0.91931457762E+02 0.  0.
         23    2    4    4    0    0  0.54307932516E+02  0.30542789676E+03  0.43534099406E+02  0.32670287168E+03  0.92757732288E+02 0.  0.
          1    1    3    3  502    0  0.93371456230E+00 -0.10937652779E+02 -0.26568417132E+03  0.26591085529E+03  0.00000000000E+00 0. -1.
         -2    1    3    3    0  502  0.96042847685E+01 -0.15788644385E+02 -0.71106439120E+01  0.19801132146E+02  0.00000000000E+00 0.  1.
         13    1    5    5    0    0  0.14475536996E+01 -0.63439168756E+02  0.12389440766E+03  0.13919930960E+03  0.00000000000E+00 0. -1.
        -13    1    5    5    0    0 -0.66293485546E+02 -0.21526243084E+03  0.91318641319E+03  0.94055418004E+03  0.00000000000E+00 0.  1.
          1    1    6    6  503    0  0.98155939900E+01  0.16458790462E+02  0.27982295399E+02  0.33915284529E+02  0.00000000000E+00 0. -1.
         -1    1    6    6    0  503  0.44492338526E+02  0.28896910630E+03  0.15551804007E+02  0.29278758715E+03  0.00000000000E+00 0.  1.
<mgrwt>
<rscale>  0 0.14868962E+04</rscale>
<asrwt>0</asrwt>
<pdfrwt beam="1">  1        1 0.68026789E-01 0.14868962E+04</pdfrwt>
<pdfrwt beam="2">  1       -4 0.19230680E+00 0.14868962E+04</pdfrwt>
<totfact> 0.35903067E+00</totfact>
</mgrwt>
</event>
<event>
12    5  0.5246737E-008  0.2015588E+04  0.7818608E-02  0.8599367E-01
          1   -1    0    0  501    0  0.00000000000E+00  0.00000000000E+00  0.78173801832E+03  0.78173801832E+03  0.00000000000E+00 0. -1.
         -2   -1    0    0    0  501 -0.00000000000E+00 -0.00000000000E+00 -0.12992190986E+04  0.12992190986E+04  0.00000000000E+00 0.  1.
        -24    2    1    2    0    0 -0.42110594690E+03  0.24747645888E+03  0.45030064647E+03  0.66842090592E+03  0.73763263516E+02 0.  0.
        254    2    1    2    0    0  0.42110594690E+03 -0.24747645888E+03 -0.96778172674E+03  0.14125362110E+04  0.90558393346E+03 0.  0.
         23    2    4    4    0    0  0.60442378424E+03 -0.28756881338E+03 -0.35224950991E+03  0.76273780772E+03  0.98312322286E+02 0.  0.
         23    2    4    4    0    0 -0.18331783734E+03  0.40092354500E+02 -0.61553221683E+03  0.64979840327E+03  0.90250920023E+02 0.  0.
          3    1    3    3  502    0 -0.31893054574E+03  0.16537598221E+03  0.29242595966E+03  0.46322656485E+03  0.00000000000E+00 0. -1.
         -4    1    3    3    0  502 -0.10217540115E+03  0.82100476672E+02  0.15787468681E+03  0.20519434107E+03  0.00000000000E+00 0.  1.
         13    1    5    5    0    0  0.12020329228E+03 -0.28631822256E+02 -0.34368622927E+02  0.12825683203E+03  0.00000000000E+00 0. -1.
        -13    1    5    5    0    0  0.48422049196E+03 -0.25893699112E+03 -0.31788088698E+03  0.63448097569E+03  0.00000000000E+00 0.  1.
          3    1    6    6  503    0 -0.51797619288E+01 -0.15506021328E+02 -0.10426310352E+03  0.10553701430E+03  0.00000000000E+00 0. -1.
         -3    1    6    6    0  503 -0.17813807541E+03  0.55598375828E+02 -0.51126911331E+03  0.54426138897E+03  0.00000000000E+00 0.  1.
<mgrwt>
<rscale>  0 0.20155882E+04</rscale>
<asrwt>0</asrwt>
<pdfrwt beam="1">  1        1 0.12026739E+00 0.20155882E+04</pdfrwt>
<pdfrwt beam="2">  1       -2 0.19987986E+00 0.20155882E+04</pdfrwt>
<totfact> 0.24799458E+00</totfact>
</mgrwt>
</event>
<event>
12    5  0.5246737E-008  0.1694828E+04  0.7818608E-02  0.8764320E-01
          1   -1    0    0  501    0  0.00000000000E+00  0.00000000000E+00  0.19958946854E+04  0.19958946854E+04  0.00000000000E+00 0. -1.
         -2   -1    0    0    0  501 -0.00000000000E+00 -0.00000000000E+00 -0.35979374242E+03  0.35979374242E+03  0.00000000000E+00 0.  1.
        -24    2    1    2    0    0 -0.23614119518E+03 -0.39987743022E+03  0.11374726497E+04  0.12312034342E+04  0.79707241228E+02 0.  0.
        254    2    1    2    0    0  0.23614119518E+03  0.39987743022E+03  0.49862829329E+03  0.11244849936E+04  0.89452317061E+03 0.  0.
         23    2    4    4    0    0 -0.13786341732E+03  0.61047825144E+02 -0.19468055998E+03  0.26212126036E+03  0.89854748967E+02 0.  0.
         23    2    4    4    0    0  0.37400461250E+03  0.33882960508E+03  0.69330885327E+03  0.86236373326E+03  0.91154215344E+02 0.  0.
          3    1    3    3  502    0 -0.69960092465E+02 -0.13374755173E+03  0.27934246317E+03  0.31751383255E+03  0.00000000000E+00 0. -1.
         -4    1    3    3    0  502 -0.16618110272E+03 -0.26612987849E+03  0.85813018649E+03  0.91368960161E+03  0.00000000000E+00 0.  1.
         13    1    5    5    0    0 -0.15988671590E+02  0.43560337534E+02 -0.25701887908E+02  0.53044581885E+02  0.00000000000E+00 0. -1.
        -13    1    5    5    0    0 -0.12187474573E+03  0.17487487610E+02 -0.16897867207E+03  0.20907667848E+03  0.00000000000E+00 0.  1.
          2    1    6    6  503    0  0.63121592671E+02  0.26047786815E+02  0.13121671729E+03  0.14792109233E+03  0.00000000000E+00 0. -1.
         -2    1    6    6    0  503  0.31088301983E+03  0.31278181826E+03  0.56209213598E+03  0.71444264094E+03  0.00000000000E+00 0.  1.
<mgrwt>
<rscale>  0 0.16948279E+04</rscale>
<asrwt>0</asrwt>
<pdfrwt beam="1">  1        1 0.30706071E+00 0.16948279E+04</pdfrwt>
<pdfrwt beam="2">  1       -2 0.55352885E-01 0.16948279E+04</pdfrwt>
<totfact> 0.76928631E+00</totfact>
</mgrwt>
</event>
<event>
12    5  0.5246737E-008  0.1090139E+04  0.7818608E-02  0.9214857E-01
         -2   -1    0    0    0  501 -0.00000000000E+00  0.00000000000E+00  0.30602300448E+03  0.30602300448E+03  0.00000000000E+00 0.  1.
          1   -1    0    0  501    0  0.00000000000E+00 -0.00000000000E+00 -0.97084428941E+03  0.97084428941E+03  0.00000000000E+00 0. -1.
        -24    2    1    2    0    0  0.43524057640E+02 -0.15042757188E+03 -0.14184400823E+03  0.22578996787E+03  0.79615255732E+02 0.  0.
        254    2    1    2    0    0 -0.43524057640E+02  0.15042757188E+03 -0.52297727670E+03  0.10510773260E+04  0.89818456641E+03 0.  0.
         23    2    4    4    0    0  0.36566420714E+03  0.14332636999E+03 -0.48380233453E+03  0.62986649477E+03  0.91729720470E+02 0.  0.
         23    2    4    4    0    0 -0.40918826478E+03  0.71012018846E+01 -0.39174942169E+02  0.42121083124E+03  0.91642922052E+02 0.  0.
          1    1    3    3  502    0  0.34005006106E+02 -0.12635518971E+03 -0.67844718348E+02  0.14739362338E+03  0.00000000000E+00 0. -1.
         -2    1    3    3    0  502  0.95190515332E+01 -0.24072382169E+02 -0.73999289886E+02  0.78396344488E+02  0.00000000000E+00 0.  1.
         13    1    5    5    0    0  0.33292730310E+03  0.14726578864E+03 -0.40569021855E+03  0.54508013639E+03  0.00000000000E+00 0.  1.
        -13    1    5    5    0    0  0.32736904041E+02 -0.39394186514E+01 -0.78112115972E+02  0.84786358379E+02  0.00000000000E+00 0. -1.
          3    1    6    6  503    0 -0.14145771374E+03 -0.30438733140E+02  0.15052342267E+02  0.14547637011E+03  0.00000000000E+00 0. -1.
         -3    1    6    6    0  503 -0.26773055103E+03  0.37539935025E+02 -0.54227284436E+02  0.27573446113E+03  0.00000000000E+00 0.  1.
<mgrwt>
<rscale>  0 0.10901389E+04</rscale>
<asrwt>0</asrwt>
<pdfrwt beam="1">  1        1 0.14936066E+00 0.10901389E+04</pdfrwt>
<pdfrwt beam="2">  1       -2 0.47080464E-01 0.10901389E+04</pdfrwt>
<totfact> 0.59617148E+01</totfact>
</mgrwt>
</event>
<event>
12    5  0.5246737E-008  0.2642726E+04  0.7818608E-02  0.8353831E-01
          1   -1    0    0  501    0  0.00000000000E+00  0.00000000000E+00  0.10831410506E+04  0.10831410506E+04  0.00000000000E+00 0. -1.
         -2   -1    0    0    0  501 -0.00000000000E+00 -0.00000000000E+00 -0.16119783816E+04  0.16119783816E+04  0.00000000000E+00 0.  1.
        -24    2    1    2    0    0  0.68160502774E+01  0.36129996676E+03 -0.13617098362E+04  0.14108469385E+04  0.75175005835E+02 0.  0.
        254    2    1    2    0    0 -0.68160502774E+01 -0.36129996676E+03  0.83287250518E+03  0.12842724937E+04  0.90834745754E+03 0.  0.
         23    2    4    4    0    0  0.35172209741E+02  0.86186071671E+02  0.81477620256E+03  0.82508840611E+03  0.90804704511E+02 0.  0.
         23    2    4    4    0    0 -0.41988260018E+02 -0.44748603843E+03  0.18096302628E+02  0.45918408757E+03  0.92280992301E+02 0.  0.
          1    1    3    3  502    0  0.31993435778E+02  0.90865702063E+02 -0.40781983201E+03  0.41904316142E+03  0.00000000000E+00 0. -1.
         -2    1    3    3    0  502 -0.25177385501E+02  0.27043426470E+03 -0.95389000416E+03  0.99180377711E+03  0.00000000000E+00 0.  1.
         13    1    5    5    0    0 -0.10364463645E+02  0.83803092280E+02  0.52987272034E+03  0.53655892513E+03  0.00000000000E+00 0.  1.
        -13    1    5    5    0    0  0.45536673385E+02  0.23829793902E+01  0.28490348222E+03  0.28852948098E+03  0.00000000000E+00 0. -1.
          1    1    6    6  503    0  0.38418227252E+01 -0.14472774896E+02 -0.16619846423E+02  0.22370518773E+02  0.00000000000E+00 0. -1.
         -1    1    6    6    0  503 -0.45830082743E+02 -0.43301326354E+03  0.34716149051E+02  0.43681356880E+03  0.00000000000E+00 0.  1.
<mgrwt>
<rscale>  0 0.26427258E+04</rscale>
<asrwt>0</asrwt>
<pdfrwt beam="1">  1        1 0.16663709E+00 0.26427258E+04</pdfrwt>
<pdfrwt beam="2">  1       -2 0.24799667E+00 0.26427258E+04</pdfrwt>
<totfact> 0.66451499E-01</totfact>
</mgrwt>
</event>
<event>
12    5  0.5246737E-008  0.1128305E+04  0.7818608E-02  0.9178034E-01
         -2   -1    0    0    0  501 -0.00000000000E+00  0.00000000000E+00  0.31640182298E+03  0.31640182298E+03  0.00000000000E+00 0.  1.
          1   -1    0    0  501    0  0.00000000000E+00 -0.00000000000E+00 -0.10058991138E+04  0.10058991138E+04  0.00000000000E+00 0. -1.
        -24    2    1    2    0    0  0.11677429976E+03 -0.71153041264E+02  0.31673949210E+02  0.16133893476E+03  0.79548855708E+02 0.  0.
        254    2    1    2    0    0 -0.11677429976E+03  0.71153041264E+02 -0.72117124002E+03  0.11609620020E+04  0.89946974397E+03 0.  0.
         23    2    4    4    0    0  0.34563634503E+03  0.20438965763E+03 -0.24912820939E+03  0.48084992060E+03  0.88950358489E+02 0.  0.
         23    2    4    4    0    0 -0.46241064479E+03 -0.13323661636E+03 -0.47204303063E+03  0.68011208140E+03  0.90289645883E+02 0.  0.
          1    1    3    3  502    0  0.94121831590E+01  0.72652076892E+01 -0.16143908209E+02  0.20049892938E+02  0.00000000000E+00 0. -1.
         -2    1    3    3    0  502  0.10736211660E+03 -0.78418248953E+02  0.47817857419E+02  0.14128904182E+03  0.00000000000E+00 0.  1.
         13    1    5    5    0    0  0.31070911369E+03  0.21028271693E+03 -0.21950114867E+03  0.43467197820E+03  0.00000000000E+00 0. -1.
        -13    1    5    5    0    0  0.34927231343E+02 -0.58930592984E+01 -0.29627060719E+02  0.46177942398E+02  0.00000000000E+00 0.  1.
          3    1    6    6  503    0 -0.38107480786E+03 -0.79114418382E+02 -0.34698792205E+03  0.52141894713E+03  0.00000000000E+00 0. -1.
         -3    1    6    6    0  503 -0.81335836932E+02 -0.54122197981E+02 -0.12505510858E+03  0.15869313427E+03  0.00000000000E+00 0.  1.
<mgrwt>
<rscale>  0 0.11283055E+04</rscale>
<asrwt>0</asrwt>
<pdfrwt beam="1">  1        1 0.15475371E+00 0.11283055E+04</pdfrwt>
<pdfrwt beam="2">  1       -2 0.48677204E-01 0.11283055E+04</pdfrwt>
<totfact> 0.52168007E+01</totfact>
</mgrwt>
</event>
<event>
12    5  0.5246737E-008  0.2244892E+04  0.7818608E-02  0.8499972E-01
          1   -1    0    0  501    0  0.00000000000E+00  0.00000000000E+00  0.11725000742E+04  0.11725000742E+04  0.00000000000E+00 0. -1.
         -2   -1    0    0    0  501 -0.00000000000E+00 -0.00000000000E+00 -0.10745286661E+04  0.10745286661E+04  0.00000000000E+00 0.  1.
        -24    2    1    2    0    0  0.34792258769E+03  0.60190539285E+02  0.91110275737E+03  0.98037958148E+03  0.79767545004E+02 0.  0.
        254    2    1    2    0    0 -0.34792258769E+03 -0.60190539285E+02 -0.81313134933E+03  0.12666491588E+04  0.90473447611E+03 0.  0.
         23    2    4    4    0    0 -0.55964246863E+03 -0.29646064344E+03 -0.51756337056E+03  0.82363760981E+03  0.97048770955E+02 0.  0.
         23    2    4    4    0    0  0.21171988094E+03  0.23627010415E+03 -0.29556797877E+03  0.44301154902E+03  0.90829138440E+02 0.  0.
          3    1    3    3  502    0  0.30911828748E+03  0.31469234823E+02  0.82643430527E+03  0.88291454248E+03  0.00000000000E+00 0. -1.
         -4    1    3    3    0  502  0.38804300212E+02  0.28721304462E+02  0.84668452102E+02  0.97465038995E+02  0.00000000000E+00 0.  1.
         13    1    5    5    0    0 -0.88091791668E+02 -0.86549139492E+02 -0.11908405871E+03  0.17155736750E+03  0.00000000000E+00 0.  1.
        -13    1    5    5    0    0 -0.47155067696E+03 -0.20991150395E+03 -0.39847931186E+03  0.65208024231E+03  0.00000000000E+00 0. -1.
          4    1    6    6  503    0  0.22580159416E+02  0.35875838132E+02 -0.89149992822E+02  0.98715047390E+02  0.00000000000E+00 0.  1.
         -4    1    6    6    0  503  0.18913972153E+03  0.20039426602E+03 -0.20641798595E+03  0.34429650163E+03  0.00000000000E+00 0. -1.
<mgrwt>
<rscale>  0 0.22448919E+04</rscale>
<asrwt>0</asrwt>
<pdfrwt beam="1">  1        1 0.18038463E+00 0.22448919E+04</pdfrwt>
<pdfrwt beam="2">  1       -2 0.16531210E+00 0.22448919E+04</pdfrwt>
<totfact> 0.20541007E+00</totfact>
</mgrwt>
</event>
<event>
12    5  0.5246737E-008  0.1214813E+04  0.7818608E-02  0.9099988E-01
          1   -1    0    0  501    0  0.00000000000E+00  0.00000000000E+00  0.10315546418E+04  0.10315546418E+04  0.00000000000E+00 0. -1.
         -2   -1    0    0    0  501 -0.00000000000E+00 -0.00000000000E+00 -0.35765710978E+03  0.35765710978E+03  0.00000000000E+00 0.  1.
        -24    2    1    2    0    0  0.90300926489E+02 -0.12469423517E+03 -0.94457895994E+02  0.19652029346E+03  0.77427527506E+02 0.  0.
        254    2    1    2    0    0 -0.90300926489E+02  0.12469423517E+03  0.76835542798E+03  0.11926914581E+04  0.89913288278E+03 0.  0.
         23    2    4    4    0    0  0.57839914932E+02  0.43573180368E+03  0.69678357995E+03  0.82892173167E+03  0.91630887007E+02 0.  0.
         23    2    4    4    0    0 -0.14814084142E+03 -0.31103756851E+03  0.71571848027E+02  0.36376972642E+03  0.92281127547E+02 0.  0.
          1    1    3    3  502    0  0.47085154963E+02 -0.91696458598E+01 -0.17103742857E+02  0.50927715861E+02  0.00000000000E+00 0. -1.
         -2    1    3    3    0  502  0.43215771526E+02 -0.11552458931E+03 -0.77354153137E+02  0.14559257760E+03  0.00000000000E+00 0.  1.
         13    1    5    5    0    0 -0.14275124779E+02  0.12927132049E+03  0.15531179305E+03  0.20257494057E+03  0.00000000000E+00 0. -1.
        -13    1    5    5    0    0  0.72115039712E+02  0.30646048320E+03  0.54147178690E+03  0.62634679110E+03  0.00000000000E+00 0.  1.
          1    1    6    6  503    0 -0.14021789296E+02 -0.87036262354E+02  0.51070135879E+02  0.10188267919E+03  0.00000000000E+00 0. -1.
         -1    1    6    6    0  503 -0.13411905213E+03 -0.22400130616E+03  0.20501712148E+02  0.26188704723E+03  0.00000000000E+00 0.  1.
<mgrwt>
<rscale>  0 0.12148133E+04</rscale>
<asrwt>0</asrwt>
<pdfrwt beam="1">  1        1 0.15870071E+00 0.12148133E+04</pdfrwt>
<pdfrwt beam="2">  1       -2 0.55024171E-01 0.12148133E+04</pdfrwt>
<totfact> 0.38499433E+01</totfact>
</mgrwt>
</event>
<event>
12    5  0.5246737E-008  0.2706317E+04  0.7818608E-02  0.8332958E-01
          1   -1    0    0  501    0  0.00000000000E+00  0.00000000000E+00  0.88585228518E+03  0.88585228518E+03  0.00000000000E+00 0. -1.
         -2   -1    0    0    0  501 -0.00000000000E+00 -0.00000000000E+00 -0.20669782381E+04  0.20669782381E+04  0.00000000000E+00 0.  1.
        -24    2    1    2    0    0 -0.44531667976E+03 -0.88989215093E+03  0.20618763703E+03  0.10193706263E+04  0.79925880997E+02 0.  0.
        254    2    1    2    0    0  0.44531667976E+03  0.88989215093E+03 -0.13873135899E+04  0.19334598970E+04  0.90742117618E+03 0.  0.
         23    2    4    4    0    0  0.18642721420E+03  0.10052852319E+04 -0.12099205922E+04  0.15867294981E+04  0.91919296545E+02 0.  0.
         23    2    4    4    0    0  0.25888946556E+03 -0.11539308095E+03 -0.17739299774E+03  0.34673039892E+03  0.91729904501E+02 0.  0.
          1    1    3    3  502    0 -0.34295700284E+03 -0.75026940556E+03  0.17880622331E+03  0.84409439769E+03  0.00000000000E+00 0. -1.
         -2    1    3    3    0  502 -0.10235967692E+03 -0.13962274537E+03  0.27381413716E+02  0.17527622857E+03  0.00000000000E+00 0.  1.
         13    1    5    5    0    0  0.22910619584E+02  0.36342333066E+02 -0.38004056930E+02  0.57358260133E+02  0.00000000000E+00 0. -1.
        -13    1    5    5    0    0  0.16351659462E+03  0.96894289881E+03 -0.11719165352E+04  0.15293712379E+04  0.00000000000E+00 0.  1.
          3    1    6    6  503    0  0.10417499792E+03 -0.27418283271E+01 -0.83608243543E+02  0.13360496324E+03  0.00000000000E+00 0. -1.
         -3    1    6    6    0  503  0.15471446764E+03 -0.11265125262E+03 -0.93784754197E+02  0.21312543568E+03  0.00000000000E+00 0.  1.
<mgrwt>
<rscale>  0 0.27063166E+04</rscale>
<asrwt>0</asrwt>
<pdfrwt beam="1">  1        1 0.13628497E+00 0.27063166E+04</pdfrwt>
<pdfrwt beam="2">  1       -2 0.31799665E+00 0.27063166E+04</pdfrwt>
<totfact> 0.35250206E-01</totfact>
</mgrwt>
</event>
<event>
12    5  0.5246737E-008  0.1669605E+04  0.7818608E-02  0.8778892E-01
          3   -1    0    0  501    0  0.00000000000E+00  0.00000000000E+00  0.66514543141E+03  0.66514543141E+03  0.00000000000E+00 0. -1.
         -4   -1    0    0    0  501 -0.00000000000E+00 -0.00000000000E+00 -0.10477340015E+04  0.10477340015E+04  0.00000000000E+00 0.  1.
        -24    2    1    2    0    0  0.54812252394E+03  0.18538814193E+03 -0.27250076896E+03  0.64451257731E+03  0.79578444407E+02 0.  0.
        254    2    1    2    0    0 -0.54812252394E+03 -0.18538814193E+03 -0.11008780113E+03  0.10683668556E+04  0.89133683294E+03 0.  0.
         23    2    4    4    0    0 -0.69061057753E+03  0.12133529111E+03 -0.21476866156E+02  0.70703360105E+03  0.88147799543E+02 0.  0.
         23    2    4    4    0    0  0.14248805359E+03 -0.30672343304E+03 -0.88610934975E+02  0.36133325455E+03  0.91256305293E+02 0.  0.
          1    1    3    3  502    0  0.75309884411E+02  0.38415081123E+02 -0.13109070702E+02  0.85552001042E+02  0.00000000000E+00 0. -1.
         -2    1    3    3    0  502  0.47281263953E+03  0.14697306080E+03 -0.25939169825E+03  0.55896057627E+03  0.00000000000E+00 0.  1.
         13    1    5    5    0    0 -0.39886105452E+03  0.84942260074E+02  0.28522996861E+02  0.40880177313E+03  0.00000000000E+00 0.  1.
        -13    1    5    5    0    0 -0.29174952301E+03  0.36393031037E+02 -0.49999863017E+02  0.29823182792E+03  0.00000000000E+00 0. -1.
          4    1    6    6  503    0  0.54512177200E+02 -0.76975963568E+02  0.12893078667E+02  0.95200356658E+02  0.00000000000E+00 0. -1.
         -4    1    6    6    0  503  0.87975876389E+02 -0.22974746947E+03 -0.10150401364E+03  0.26613289789E+03  0.00000000000E+00 0.  1.
<mgrwt>
<rscale>  0 0.16696053E+04</rscale>
<asrwt>0</asrwt>
<pdfrwt beam="1">  1        3 0.10233007E+00 0.16696053E+04</pdfrwt>
<pdfrwt beam="2">  1       -4 0.16118985E+00 0.16696053E+04</pdfrwt>
<totfact> 0.44340994E-01</totfact>
</mgrwt>
</event>
<event>
12    5  0.5246737E-008  0.2211421E+04  0.7818608E-02  0.8513689E-01
         -2   -1    0    0    0  501 -0.00000000000E+00  0.00000000000E+00  0.51542500754E+03  0.51542500754E+03  0.00000000000E+00 0.  1.
          1   -1    0    0  501    0  0.00000000000E+00 -0.00000000000E+00 -0.23720156795E+04  0.23720156795E+04  0.00000000000E+00 0. -1.
        -24    2    1    2    0    0  0.29680221421E+03 -0.26436374983E+03 -0.18447965324E+04  0.18888261336E+04  0.80063538224E+02 0.  0.
        254    2    1    2    0    0 -0.29680221421E+03  0.26436374983E+03 -0.11794139582E+02  0.99861455353E+03  0.91603066445E+03 0.  0.
         23    2    4    4    0    0  0.23381051456E+03  0.35741693014E+03  0.70454169243E+02  0.44457483876E+03  0.10133498226E+03 0.  0.
         23    2    4    4    0    0 -0.53061272877E+03 -0.93053180317E+02 -0.82248308825E+02  0.55403971476E+03  0.99932271725E+02 0.  0.
          1    1    3    3  502    0  0.24324631789E+03 -0.17639098701E+03 -0.12878935899E+04  0.13224796597E+04  0.00000000000E+00 0. -1.
         -2    1    3    3    0  502  0.53555896324E+02 -0.87972762813E+02 -0.55690294254E+03  0.56634647385E+03  0.00000000000E+00 0.  1.
         13    1    5    5    0    0  0.88009857390E+02  0.96366925137E+02 -0.20348482754E+02  0.13208474556E+03  0.00000000000E+00 0.  1.
        -13    1    5    5    0    0  0.14580065717E+03  0.26105000501E+03  0.90802651998E+02  0.31249009321E+03  0.00000000000E+00 0. -1.
          3    1    6    6  503    0 -0.18465993885E+03 -0.79625438859E+02 -0.17832504706E+02  0.20188487252E+03  0.00000000000E+00 0. -1.
         -3    1    6    6    0  503 -0.34595278992E+03 -0.13427741458E+02 -0.64415804119E+02  0.35215484224E+03  0.00000000000E+00 0.  1.
<mgrwt>
<rscale>  0 0.22114214E+04</rscale>
<asrwt>0</asrwt>
<pdfrwt beam="1">  1        1 0.36492549E+00 0.22114214E+04</pdfrwt>
<pdfrwt beam="2">  1       -2 0.79296155E-01 0.22114214E+04</pdfrwt>
<totfact> 0.18741381E+00</totfact>
</mgrwt>
</event>
<event>
12    5  0.5246737E-008  0.1658401E+04  0.7818608E-02  0.8785452E-01
         -2   -1    0    0    0  501 -0.00000000000E+00  0.00000000000E+00  0.18991921897E+04  0.18991921897E+04  0.00000000000E+00 0.  1.
          1   -1    0    0  501    0  0.00000000000E+00 -0.00000000000E+00 -0.36203485988E+03  0.36203485988E+03  0.00000000000E+00 0. -1.
        -24    2    1    2    0    0  0.40120361328E+03 -0.39746289166E+03  0.36737941931E+03  0.67854055227E+03  0.80675608376E+02 0.  0.
        254    2    1    2    0    0 -0.40120361328E+03  0.39746289166E+03  0.11697779105E+04  0.15826864973E+04  0.90419859505E+03 0.  0.
         23    2    4    4    0    0 -0.66050873764E+03  0.17116694758E+03  0.90494416792E+03  0.11369941380E+04  0.90894478647E+02 0.  0.
         23    2    4    4    0    0  0.25930512436E+03  0.22629594409E+03  0.26483374261E+03  0.44569235937E+03  0.10027844307E+03 0.  0.
          1    1    3    3  502    0  0.36541198140E+03 -0.32945291102E+03  0.33454763097E+03  0.59496827992E+03  0.00000000000E+00 0. -1.
         -2    1    3    3    0  502  0.35791631881E+02 -0.68009980642E+02  0.32831788344E+02  0.83572272348E+02  0.00000000000E+00 0.  1.
         13    1    5    5    0    0 -0.34683265893E+03  0.11409828958E+03  0.41859729848E+03  0.55545927959E+03  0.00000000000E+00 0.  1.
        -13    1    5    5    0    0 -0.31367607871E+03  0.57068657995E+02  0.48634686944E+03  0.58153485837E+03  0.00000000000E+00 0. -1.
          1    1    6    6  503    0  0.22616128373E+02  0.63258772588E+02  0.26121372256E+02  0.72079731274E+02  0.00000000000E+00 0. -1.
         -1    1    6    6    0  503  0.23668899599E+03  0.16303717150E+03  0.23871237036E+03  0.37361262810E+03  0.00000000000E+00 0.  1.
<mgrwt>
<rscale>  0 0.16584014E+04</rscale>
<asrwt>0</asrwt>
<pdfrwt beam="1">  1        1 0.55697671E-01 0.16584014E+04</pdfrwt>
<pdfrwt beam="2">  1       -2 0.29218341E+00 0.16584014E+04</pdfrwt>
<totfact> 0.20328110E+00</totfact>
</mgrwt>
</event>
<event>
12    5  0.5246737E-008  0.1291140E+04  0.7818608E-02  0.9036621E-01
          1   -1    0    0  501    0  0.00000000000E+00  0.00000000000E+00  0.22163240437E+04  0.22163240437E+04  0.00000000000E+00 0. -1.
         -2   -1    0    0    0  501 -0.00000000000E+00 -0.00000000000E+00 -0.18804145160E+03  0.18804145160E+03  0.00000000000E+00 0.  1.
        -24    2    1    2    0    0  0.22670455520E+03  0.17516121495E+03  0.76036938453E+03  0.81631740768E+03  0.78333278900E+02 0.  0.
        254    2    1    2    0    0 -0.22670455520E+03 -0.17516121495E+03  0.12679132076E+04  0.15880480876E+04  0.91225896549E+03 0.  0.
         23    2    4    4    0    0 -0.47376996638E+03 -0.38422823861E+03  0.81054215399E+03  0.10183879957E+04  0.89700646613E+02 0.  0.
         23    2    4    4    0    0  0.24706541118E+03  0.20906702366E+03  0.45737105361E+03  0.56966009195E+03  0.10282996594E+03 0.  0.
          1    1    3    3  502    0  0.14119461729E+03  0.15239675544E+03  0.55928686639E+03  0.59662592127E+03  0.00000000000E+00 0. -1.
         -2    1    3    3    0  502  0.85509937911E+02  0.22764459505E+02  0.20108251814E+03  0.21969148640E+03  0.00000000000E+00 0.  1.
         13    1    5    5    0    0 -0.45611082437E+03 -0.38146524392E+03  0.76119857297E+03  0.96590687125E+03  0.00000000000E+00 0.  1.
        -13    1    5    5    0    0 -0.17659142013E+02 -0.27629946855E+01  0.49343581016E+02  0.52481124452E+02  0.00000000000E+00 0. -1.
          1    1    6    6  503    0  0.59162722920E+02  0.11178817142E+02  0.13143913517E+03  0.14457330317E+03  0.00000000000E+00 0. -1.
         -1    1    6    6    0  503  0.18790268826E+03  0.19788820652E+03  0.32593191845E+03  0.42508678878E+03  0.00000000000E+00 0.  1.
<mgrwt>
<rscale>  0 0.12911403E+04</rscale>
<asrwt>0</asrwt>
<pdfrwt beam="1">  1        1 0.34097291E+00 0.12911403E+04</pdfrwt>
<pdfrwt beam="2">  1       -2 0.28929456E-01 0.12911403E+04</pdfrwt>
<totfact> 0.20162439E+01</totfact>
</mgrwt>
</event>
<event>
12    5  0.5246737E-008  0.1377637E+04  0.7818608E-02  0.8970167E-01
         -2   -1    0    0    0  501 -0.00000000000E+00  0.00000000000E+00  0.26264648860E+03  0.26264648860E+03  0.00000000000E+00 0.  1.
          1   -1    0    0  501    0  0.00000000000E+00 -0.00000000000E+00 -0.18065011828E+04  0.18065011828E+04  0.00000000000E+00 0. -1.
        -24    2    1    2    0    0 -0.22819550849E+03  0.35069689207E+03 -0.74258365468E+03  0.85606502076E+03  0.79720357279E+02 0.  0.
        254    2    1    2    0    0  0.22819550849E+03 -0.35069689207E+03 -0.80127103950E+03  0.12130826506E+04  0.80899489387E+03 0.  0.
         23    2    4    4    0    0  0.30591017142E+03 -0.38078669594E+03 -0.91689181592E+03  0.10428724382E+04  0.91174445351E+02 0.  0.
         23    2    4    4    0    0 -0.77714662928E+02  0.30089803869E+02  0.11562077641E+03  0.17021021243E+03  0.93050455920E+02 0.  0.
          3    1    3    3  502    0 -0.18433198583E+03  0.32302538873E+03 -0.67721853202E+03  0.77262450315E+03  0.00000000000E+00 0. -1.
         -4    1    3    3    0  502 -0.43863522666E+02  0.27671503337E+02 -0.65365122665E+02  0.83440517607E+02  0.00000000000E+00 0.  1.
         13    1    5    5    0    0  0.15100178108E+02 -0.38744610253E+02 -0.13492719368E+03  0.14118961646E+03  0.00000000000E+00 0.  1.
        -13    1    5    5    0    0  0.29080999331E+03 -0.34204208568E+03 -0.78196462224E+03  0.90168282174E+03  0.00000000000E+00 0. -1.
          3    1    6    6  503    0 -0.87841931374E+02  0.63130611813E+01  0.53790768847E+02  0.10319644598E+03  0.00000000000E+00 0. -1.
         -3    1    6    6    0  503  0.10127268446E+02  0.23776742688E+02  0.61830007565E+02  0.67013766455E+02  0.00000000000E+00 0.  1.
<mgrwt>
<rscale>  0 0.13776374E+04</rscale>
<asrwt>0</asrwt>
<pdfrwt beam="1">  1        1 0.27792326E+00 0.13776374E+04</pdfrwt>
<pdfrwt beam="2">  1       -2 0.40407152E-01 0.13776374E+04</pdfrwt>
<totfact> 0.20053978E+01</totfact>
</mgrwt>
</event>
<event>
12    5  0.5246737E-008  0.1752354E+04  0.7818608E-02  0.8732055E-01
          1   -1    0    0  501    0  0.00000000000E+00  0.00000000000E+00  0.16868260852E+04  0.16868260852E+04  0.00000000000E+00 0. -1.
         -2   -1    0    0    0  501 -0.00000000000E+00 -0.00000000000E+00 -0.45510702069E+03  0.45510702069E+03  0.00000000000E+00 0.  1.
        -24    2    1    2    0    0 -0.28310899844E+03 -0.46363342241E+03  0.87329230793E+03  0.10315727961E+04  0.79977016453E+02 0.  0.
        254    2    1    2    0    0  0.28310899844E+03  0.46363342241E+03  0.35842675662E+03  0.11103603098E+04  0.89962415621E+03 0.  0.
         23    2    4    4    0    0 -0.30860227349E+03  0.25745053920E+03  0.19725562972E+03  0.45698192762E+03  0.91687269437E+02 0.  0.
         23    2    4    4    0    0  0.59171127193E+03  0.20618288321E+03  0.16117112690E+03  0.65337838222E+03  0.91069026340E+02 0.  0.
          3    1    3    3  502    0 -0.17653065730E+03 -0.27919386958E+03  0.45620202196E+03  0.56323403184E+03  0.00000000000E+00 0. -1.
         -4    1    3    3    0  502 -0.10657834114E+03 -0.18443955283E+03  0.41709028597E+03  0.46833876425E+03  0.00000000000E+00 0.  1.
         13    1    5    5    0    0 -0.26918819305E+03  0.17575057515E+03  0.15176527672E+03  0.35550421539E+03  0.00000000000E+00 0.  1.
        -13    1    5    5    0    0 -0.39414080434E+02  0.81699964048E+02  0.45490353007E+02  0.10147771223E+03  0.00000000000E+00 0. -1.
          3    1    6    6  503    0  0.36296008651E+02  0.14111231589E+01  0.29876944770E+02  0.47032152208E+02  0.00000000000E+00 0. -1.
         -3    1    6    6    0  503  0.55541526327E+03  0.20477176005E+03  0.13129418213E+03  0.60634623001E+03  0.00000000000E+00 0.  1.
<mgrwt>
<rscale>  0 0.17523543E+04</rscale>
<asrwt>0</asrwt>
<pdfrwt beam="1">  1        1 0.25951170E+00 0.17523543E+04</pdfrwt>
<pdfrwt beam="2">  1       -2 0.70016466E-01 0.17523543E+04</pdfrwt>
<totfact> 0.75180801E+00</totfact>
</mgrwt>
</event>
<event>
12    5  0.5246737E-008  0.1969460E+04  0.7818608E-02  0.8621034E-01
         -4   -1    0    0    0  501 -0.00000000000E+00  0.00000000000E+00  0.45141763107E+03  0.45141763107E+03  0.00000000000E+00 0.  1.
          1   -1    0    0  501    0  0.00000000000E+00 -0.00000000000E+00 -0.21481073787E+04  0.21481073787E+04  0.00000000000E+00 0. -1.
        -24    2    1    2    0    0  0.41719133372E+03 -0.52293529196E+03 -0.96483860185E+03  0.11774221685E+04  0.88879168892E+02 0.  0.
        254    2    1    2    0    0 -0.41719133372E+03  0.52293529196E+03 -0.73185114582E+03  0.14221028413E+04  0.10194412505E+04 0.  0.
         23    2    4    4    0    0 -0.23260867566E+03 -0.28468331298E+03 -0.16092895780E+03  0.41139602498E+03  0.90538252848E+02 0.  0.
         23    2    4    4    0    0 -0.18458265806E+03  0.80761860494E+03 -0.57092218802E+03  0.10107068164E+04  0.96216189744E+02 0.  0.
          1    1    3    3  502    0  0.34240065666E+03 -0.47659034012E+03 -0.84195154175E+03  0.10262840546E+04  0.00000000000E+00 0. -1.
         -2    1    3    3    0  502  0.74790677066E+02 -0.46344951843E+02 -0.12288706010E+03  0.15113811391E+03  0.00000000000E+00 0.  1.
         13    1    5    5    0    0 -0.43896166633E+02 -0.53567427226E+02  0.59754482973E+01  0.69512938990E+02  0.00000000000E+00 0. -1.
        -13    1    5    5    0    0 -0.18871250903E+03 -0.23111588576E+03 -0.16690440610E+03  0.34188308599E+03  0.00000000000E+00 0.  1.
          3    1    6    6  503    0  0.64175236644E+01  0.10697553717E+03 -0.60541117171E+02  0.12308605539E+03  0.00000000000E+00 0. -1.
         -3    1    6    6    0  503 -0.19100018172E+03  0.70064306777E+03 -0.51038107084E+03  0.88762076097E+03  0.00000000000E+00 0.  1.
<mgrwt>
<rscale>  0 0.19694604E+04</rscale>
<asrwt>0</asrwt>
<pdfrwt beam="1">  1        1 0.33047805E+00 0.19694604E+04</pdfrwt>
<pdfrwt beam="2">  1       -4 0.69448867E-01 0.19694604E+04</pdfrwt>
<totfact> 0.20676859E+00</totfact>
</mgrwt>
</event>
<event>
12    5  0.5246737E-008  0.1348616E+04  0.7818608E-02  0.8991876E-01
         -2   -1    0    0    0  501 -0.00000000000E+00  0.00000000000E+00  0.14065235304E+04  0.14065235304E+04  0.00000000000E+00 0.  1.
          1   -1    0    0  501    0  0.00000000000E+00 -0.00000000000E+00 -0.32327313162E+03  0.32327313162E+03  0.00000000000E+00 0. -1.
        -24    2    1    2    0    0  0.21449811918E+02 -0.30885146855E+03  0.66958617478E+03  0.74184827206E+03  0.78382965226E+02 0.  0.
        254    2    1    2    0    0 -0.21449811918E+02  0.30885146855E+03  0.41366422401E+03  0.98794838997E+03  0.84206567853E+03 0.  0.
         23    2    4    4    0    0 -0.11975053012E+03  0.51578129801E+03  0.40527731884E+02  0.53961335471E+03  0.95757708258E+02 0.  0.
         23    2    4    4    0    0  0.98300718204E+02 -0.20692982946E+03  0.37313649212E+03  0.44833503526E+03  0.96387118275E+02 0.  0.
          3    1    3    3  502    0 -0.23699714297E+02 -0.83287550476E+02  0.22895812016E+03  0.24478626046E+03  0.00000000000E+00 0. -1.
         -4    1    3    3    0  502  0.45149526215E+02 -0.22556391807E+03  0.44062805462E+03  0.49706201160E+03  0.00000000000E+00 0.  1.
         13    1    5    5    0    0 -0.47077258470E+02  0.14218452526E+03  0.52817270371E+02  0.15881552675E+03  0.00000000000E+00 0.  1.
        -13    1    5    5    0    0 -0.72673271652E+02  0.37359677275E+03 -0.12289538488E+02  0.38079782796E+03  0.00000000000E+00 0. -1.
          3    1    6    6  503    0 -0.86609763136E+01 -0.77117969659E+02  0.15020741093E+03  0.16906939419E+03  0.00000000000E+00 0. -1.
         -3    1    6    6    0  503  0.10696169452E+03 -0.12981185980E+03  0.22292908119E+03  0.27926564107E+03  0.00000000000E+00 0.  1.
<mgrwt>
<rscale>  0 0.13486160E+04</rscale>
<asrwt>0</asrwt>
<pdfrwt beam="1">  1        1 0.49734329E-01 0.13486160E+04</pdfrwt>
<pdfrwt beam="2">  1       -2 0.21638823E+00 0.13486160E+04</pdfrwt>
<totfact> 0.70791178E+00</totfact>
</mgrwt>
</event>
<event>
12    5  0.5246737E-008  0.3124597E+04  0.7818608E-02  0.8209020E-01
         -2   -1    0    0    0  501 -0.00000000000E+00  0.00000000000E+00  0.30337543068E+04  0.30337543068E+04  0.00000000000E+00 0.  1.
          1   -1    0    0  501    0  0.00000000000E+00 -0.00000000000E+00 -0.80454004666E+03  0.80454004666E+03  0.00000000000E+00 0. -1.
        -24    2    1    2    0    0  0.90920021827E+03 -0.36843898564E+03  0.23042586552E+04  0.25056795288E+04  0.80184959299E+02 0.  0.
        254    2    1    2    0    0 -0.90920021827E+03  0.36843898564E+03 -0.75044395056E+02  0.13326148247E+04  0.89879824588E+03 0.  0.
         23    2    4    4    0    0 -0.90569833216E+03  0.13726371838E+03 -0.32811215408E+03  0.97731690027E+03  0.91432710980E+02 0.  0.
         23    2    4    4    0    0 -0.35018861095E+01  0.23117526727E+03  0.25306775903E+03  0.35529792445E+03  0.93482923891E+02 0.  0.
          1    1    3    3  502    0  0.93059756553E+02 -0.41515888418E+02  0.30722564494E+03  0.32368392637E+03  0.00000000000E+00 0. -1.
         -2    1    3    3    0  502  0.81614046172E+03 -0.32692309723E+03  0.19970330103E+04  0.21819956024E+04  0.00000000000E+00 0.  1.
         13    1    5    5    0    0 -0.34831001467E+03  0.14204206781E+02 -0.10048540790E+03  0.36279325105E+03  0.00000000000E+00 0. -1.
        -13    1    5    5    0    0 -0.55738831749E+03  0.12305951160E+03 -0.22762674618E+03  0.61452364922E+03  0.00000000000E+00 0.  1.
          1    1    6    6  503    0  0.12836450019E+02  0.17617528247E+03  0.23724037064E+03  0.29577947540E+03  0.00000000000E+00 0.  1.
         -1    1    6    6    0  503 -0.16338336129E+02  0.54999984796E+02  0.15827388384E+02  0.59518449057E+02  0.00000000000E+00 0. -1.
<mgrwt>
<rscale>  0 0.31245971E+04</rscale>
<asrwt>0</asrwt>
<pdfrwt beam="1">  1        1 0.12377539E+00 0.31245971E+04</pdfrwt>
<pdfrwt beam="2">  1       -2 0.46673143E+00 0.31245971E+04</pdfrwt>
<totfact> 0.43511612E-02</totfact>
</mgrwt>
</event>
<event>
12    5  0.5246737E-008  0.2082955E+04  0.7818608E-02  0.8568789E-01
          1   -1    0    0  501    0  0.00000000000E+00  0.00000000000E+00  0.14304424384E+04  0.14304424384E+04  0.00000000000E+00 0. -1.
         -2   -1    0    0    0  501 -0.00000000000E+00 -0.00000000000E+00 -0.75827983111E+03  0.75827983111E+03  0.00000000000E+00 0.  1.
        -24    2    1    2    0    0  0.74927137187E+03  0.27461536260E+03  0.10025635214E+02  0.80247586528E+03  0.83939352595E+02 0.  0.
        254    2    1    2    0    0 -0.74927137187E+03 -0.27461536260E+03  0.66213697207E+03  0.13862464042E+04  0.92001768317E+03 0.  0.
         23    2    4    4    0    0 -0.85430600124E+03  0.22273686930E+01  0.64802748286E+03  0.10762533882E+04  0.92401472777E+02 0.  0.
         23    2    4    4    0    0  0.10503462937E+03 -0.27684273129E+03  0.14109489214E+02  0.30999301601E+03  0.90677566425E+02 0.  0.
          1    1    3    3  502    0  0.11405026279E+03  0.20816181004E+02 -0.20570970632E+02  0.11774523628E+03  0.00000000000E+00 0. -1.
         -2    1    3    3    0  502  0.63522110908E+03  0.25379918159E+03  0.30596605846E+02  0.68473062900E+03  0.00000000000E+00 0.  1.
         13    1    5    5    0    0 -0.27744911382E+02  0.69790873741E+01  0.50652876563E+01  0.29054171942E+02  0.00000000000E+00 0.  1.
        -13    1    5    5    0    0 -0.82656108986E+03 -0.47517186810E+01  0.64296219520E+03  0.10471992163E+04  0.00000000000E+00 0. -1.
          1    1    6    6  503    0  0.65623971461E+02 -0.66624495396E+02 -0.12944778957E+02  0.94408136934E+02  0.00000000000E+00 0. -1.
         -1    1    6    6    0  503  0.39410657911E+02 -0.21021823589E+03  0.27054268172E+02  0.21558487907E+03  0.00000000000E+00 0.  1.
<mgrwt>
<rscale>  0 0.20829553E+04</rscale>
<asrwt>0</asrwt>
<pdfrwt beam="1">  1        1 0.22006807E+00 0.20829553E+04</pdfrwt>
<pdfrwt beam="2">  1       -2 0.11665844E+00 0.20829553E+04</pdfrwt>
<totfact> 0.33664095E+00</totfact>
</mgrwt>
</event>
<event>
12    5  0.5246737E-008  0.1570546E+04  0.7818608E-02  0.8838850E-01
         -2   -1    0    0    0  501 -0.00000000000E+00  0.00000000000E+00  0.44105446570E+03  0.44105446570E+03  0.00000000000E+00 0.  1.
          1   -1    0    0  501    0  0.00000000000E+00 -0.00000000000E+00 -0.13981354192E+04  0.13981354192E+04  0.00000000000E+00 0. -1.
        -24    2    1    2    0    0 -0.15389866402E+03  0.45376124874E+03 -0.56282763069E+03  0.74341292176E+03  0.79396226121E+02 0.  0.
        254    2    1    2    0    0  0.15389866402E+03 -0.45376124874E+03 -0.39425332283E+03  0.10957769632E+04  0.90316521236E+03 0.  0.
         23    2    4    4    0    0 -0.28768059982E+03 -0.47597432520E+03 -0.15114978391E+03  0.58342964002E+03  0.90731482500E+02 0.  0.
         23    2    4    4    0    0  0.44157926384E+03  0.22213076469E+02 -0.24310353892E+03  0.51234732315E+03  0.88965059887E+02 0.  0.
          3    1    3    3  502    0 -0.64651421069E+02  0.25696652423E+03 -0.25857272651E+03  0.37023162441E+03  0.00000000000E+00 0. -1.
         -4    1    3    3    0  502 -0.89247242955E+02  0.19679472451E+03 -0.30425490418E+03  0.37318129735E+03  0.00000000000E+00 0.  1.
         13    1    5    5    0    0 -0.19521878874E+03 -0.38750520862E+03 -0.13516236854E+03  0.45446620122E+03  0.00000000000E+00 0.  1.
        -13    1    5    5    0    0 -0.92461811080E+02 -0.88469116586E+02 -0.15987415370E+02  0.12896343880E+03  0.00000000000E+00 0. -1.
          3    1    6    6  503    0  0.12917627465E+03 -0.33264912150E+02 -0.80804548390E+02  0.15595653033E+03  0.00000000000E+00 0. -1.
         -3    1    6    6    0  503  0.31240298919E+03  0.55477988619E+02 -0.16229899053E+03  0.35639079282E+03  0.00000000000E+00 0.  1.
<mgrwt>
<rscale>  0 0.15705462E+04</rscale>
<asrwt>0</asrwt>
<pdfrwt beam="1">  1        1 0.21509776E+00 0.15705462E+04</pdfrwt>
<pdfrwt beam="2">  1       -2 0.67854533E-01 0.15705462E+04</pdfrwt>
<totfact> 0.12936846E+01</totfact>
</mgrwt>
</event>
<event>
12    5  0.5246737E-008  0.1294730E+04  0.7818608E-02  0.9033755E-01
          1   -1    0    0  501    0  0.00000000000E+00  0.00000000000E+00  0.23769221583E+04  0.23769221583E+04  0.00000000000E+00 0. -1.
         -2   -1    0    0    0  501 -0.00000000000E+00 -0.00000000000E+00 -0.17631260364E+03  0.17631260364E+03  0.00000000000E+00 0.  1.
        -24    2    1    2    0    0 -0.13937909894E+03  0.16252364448E+03  0.76562559018E+02  0.23882510783E+03  0.73042032085E+02 0.  0.
        254    2    1    2    0    0  0.13937909894E+03 -0.16252364448E+03  0.21240469956E+04  0.23144096541E+04  0.89391047601E+03 0.  0.
         23    2    4    4    0    0  0.12283681073E+03  0.35840250471E+03  0.96226341976E+03  0.10381115846E+04  0.90462896580E+02 0.  0.
         23    2    4    4    0    0  0.16542288208E+02 -0.52092614919E+03  0.11617835759E+04  0.12762980695E+04  0.86936671197E+02 0.  0.
          1    1    3    3  502    0 -0.12203791786E+03  0.12894249036E+03  0.89573676123E+02  0.19885387266E+03  0.00000000000E+00 0. -1.
         -2    1    3    3    0  502 -0.17341181083E+02  0.33581154119E+02 -0.13011117105E+02  0.39971235178E+02  0.00000000000E+00 0.  1.
         13    1    5    5    0    0  0.11246802470E+03  0.21090754959E+03  0.53433282489E+03  0.58535683033E+03  0.00000000000E+00 0.  1.
        -13    1    5    5    0    0  0.10368786038E+02  0.14749495512E+03  0.42793059487E+03  0.45275475429E+03  0.00000000000E+00 0. -1.
          3    1    6    6  503    0  0.38526066906E+02 -0.14149085375E+03  0.27952054916E+03  0.31565116335E+03  0.00000000000E+00 0. -1.
         -3    1    6    6    0  503 -0.21983778698E+02 -0.37943529544E+03  0.88226302670E+03  0.96064690612E+03  0.00000000000E+00 0.  1.
<mgrwt>
<rscale>  0 0.12947298E+04</rscale>
<asrwt>0</asrwt>
<pdfrwt beam="1">  1        1 0.36568031E+00 0.12947298E+04</pdfrwt>
<pdfrwt beam="2">  1       -2 0.27125018E-01 0.12947298E+04</pdfrwt>
<totfact> 0.17642036E+01</totfact>
</mgrwt>
</event>
<event>
12    5  0.5246737E-008  0.1126356E+04  0.7818608E-02  0.9179877E-01
         -2   -1    0    0    0  501 -0.00000000000E+00  0.00000000000E+00  0.14800101191E+03  0.14800101191E+03  0.00000000000E+00 0.  1.
          1   -1    0    0  501    0  0.00000000000E+00 -0.00000000000E+00 -0.21430226396E+04  0.21430226396E+04  0.00000000000E+00 0. -1.
        -24    2    1    2    0    0  0.23370765739E+03 -0.13660501894E+03 -0.77048398293E+03  0.82136437782E+03  0.87827517768E+02 0.  0.
        254    2    1    2    0    0 -0.23370765739E+03  0.13660501894E+03 -0.12245376448E+04  0.14696592737E+04  0.76624130467E+03 0.  0.
         23    2    4    4    0    0  0.20858838770E+03 -0.14777641303E+03 -0.50379173311E+03  0.57288175444E+03  0.95081073224E+02 0.  0.
         23    2    4    4    0    0 -0.44229604509E+03  0.28438143196E+03 -0.72074591167E+03  0.89677751927E+03  0.90756044012E+02 0.  0.
          3    1    3    3  502    0  0.12219514142E+03 -0.81256304655E+02 -0.53790237177E+03  0.55756004268E+03  0.00000000000E+00 0. -1.
         -4    1    3    3    0  502  0.11151251597E+03 -0.55348714283E+02 -0.23258161116E+03  0.26380433514E+03  0.00000000000E+00 0.  1.
         13    1    5    5    0    0  0.72036723218E+02 -0.72003049236E+02 -0.29541831617E+03  0.31248313574E+03  0.00000000000E+00 0.  1.
        -13    1    5    5    0    0  0.13655166448E+03 -0.75773363790E+02 -0.20837341694E+03  0.26039861870E+03  0.00000000000E+00 0. -1.
          2    1    6    6  503    0 -0.40252088554E+03  0.25272652372E+03 -0.59763563162E+03  0.76358503604E+03  0.00000000000E+00 0. -1.
         -2    1    6    6    0  503 -0.39775159552E+02  0.31654908244E+02 -0.12311028005E+03  0.13319248323E+03  0.00000000000E+00 0.  1.
<mgrwt>
<rscale>  0 0.11263561E+04</rscale>
<asrwt>0</asrwt>
<pdfrwt beam="1">  1        1 0.32969578E+00 0.11263561E+04</pdfrwt>
<pdfrwt beam="2">  1       -2 0.22769387E-01 0.11263561E+04</pdfrwt>
<totfact> 0.35463709E+01</totfact>
</mgrwt>
</event>
<event>
12    5  0.5246737E-008  0.1734122E+04  0.7818608E-02  0.8742139E-01
         -2   -1    0    0    0  501 -0.00000000000E+00  0.00000000000E+00  0.17485763578E+03  0.17485763578E+03  0.00000000000E+00 0.  1.
          1   -1    0    0  501    0  0.00000000000E+00 -0.00000000000E+00 -0.42994655415E+04  0.42994655415E+04  0.00000000000E+00 0. -1.
        -24    2    1    2    0    0  0.46550652136E+03  0.29233016837E+03 -0.72313963843E+03  0.91179420223E+03  0.79274723462E+02 0.  0.
        254    2    1    2    0    0 -0.46550652136E+03 -0.29233016837E+03 -0.34014682672E+04  0.35625289750E+04  0.90524752191E+03 0.  0.
         23    2    4    4    0    0 -0.32762458149E+03 -0.15103093802E+02 -0.31060940920E+04  0.31247944354E+04  0.94624442098E+02 0.  0.
         23    2    4    4    0    0 -0.13788193987E+03 -0.27722707457E+03 -0.29537417521E+03  0.43773453962E+03  0.92191884551E+02 0.  0.
          1    1    3    3  502    0  0.28989528439E+03  0.21503918383E+03 -0.42949723309E+03  0.56102495464E+03  0.00000000000E+00 0. -1.
         -2    1    3    3    0  502  0.17561123697E+03  0.77290984541E+02 -0.29364240535E+03  0.35076924759E+03  0.00000000000E+00 0.  1.
         13    1    5    5    0    0 -0.12293377276E+03  0.10730803168E+02 -0.15809862444E+04  0.15857948693E+04  0.00000000000E+00 0.  1.
        -13    1    5    5    0    0 -0.20469080873E+03 -0.25833896970E+02 -0.15251078477E+04  0.15389995661E+04  0.00000000000E+00 0. -1.
          3    1    6    6  503    0 -0.71528904711E+02 -0.11334834686E+03 -0.69761994728E+02  0.15109919872E+03  0.00000000000E+00 0. -1.
         -3    1    6    6    0  503 -0.66353035157E+02 -0.16387872771E+03 -0.22561218048E+03  0.28663534090E+03  0.00000000000E+00 0.  1.
<mgrwt>
<rscale>  0 0.17341215E+04</rscale>
<asrwt>0</asrwt>
<pdfrwt beam="1">  1        1 0.66145617E+00 0.17341215E+04</pdfrwt>
<pdfrwt beam="2">  1       -2 0.26901178E-01 0.17341215E+04</pdfrwt>
<totfact> 0.54213044E-01</totfact>
</mgrwt>
</event>
<event>
12    5  0.5246737E-008  0.1133407E+04  0.7818608E-02  0.9173229E-01
          1   -1    0    0  501    0  0.00000000000E+00  0.00000000000E+00  0.58747964176E+03  0.58747964176E+03  0.00000000000E+00 0. -1.
         -2   -1    0    0    0  501 -0.00000000000E+00 -0.00000000000E+00 -0.54666219478E+03  0.54666219478E+03  0.00000000000E+00 0.  1.
        -24    2    1    2    0    0 -0.67796402056E+02  0.12743822194E+03 -0.11794372677E+03  0.20293824766E+03  0.80226910299E+02 0.  0.
        254    2    1    2    0    0  0.67796402056E+02 -0.12743822194E+03  0.15876117375E+03  0.93120358888E+03  0.90614466898E+03 0.  0.
         23    2    4    4    0    0  0.28878902044E+03  0.28431248315E+03 -0.36195958962E+02  0.41675036269E+03  0.90211035681E+02 0.  0.
         23    2    4    4    0    0 -0.22099261838E+03 -0.41175070508E+03  0.19495713271E+03  0.51445322619E+03  0.90980535424E+02 0.  0.
          3    1    3    3  502    0 -0.73283040637E+02  0.72333719901E+02 -0.47671392419E+02  0.11346864208E+03  0.00000000000E+00 0. -1.
         -4    1    3    3    0  502  0.54866385811E+01  0.55104502039E+02 -0.70272334354E+02  0.89469605585E+02  0.00000000000E+00 0.  1.
         13    1    5    5    0    0  0.84229987959E+02  0.58153587548E+02 -0.44689888280E+02  0.11168579467E+03  0.00000000000E+00 0. -1.
        -13    1    5    5    0    0  0.20455903248E+03  0.22615889560E+03  0.84939293174E+01  0.30506456802E+03  0.00000000000E+00 0.  1.
          3    1    6    6  503    0  0.83822774050E+01 -0.79103100055E+01  0.65574058704E+01  0.13260284711E+02  0.00000000000E+00 0. -1.
         -3    1    6    6    0  503 -0.22937489579E+03 -0.40384039508E+03  0.18839972684E+03  0.50119294148E+03  0.00000000000E+00 0.  1.
<mgrwt>
<rscale>  0 0.11334071E+04</rscale>
<asrwt>0</asrwt>
<pdfrwt beam="1">  1        1 0.90381484E-01 0.11334071E+04</pdfrwt>
<pdfrwt beam="2">  1       -2 0.84101876E-01 0.11334071E+04</pdfrwt>
<totfact> 0.37936989E+01</totfact>
</mgrwt>
</event>
<event>
12    5  0.5246737E-008  0.2124917E+04  0.7818608E-02  0.8550346E-01
          1   -1    0    0  501    0  0.00000000000E+00  0.00000000000E+00  0.47005539068E+04  0.47005539068E+04  0.00000000000E+00 0. -1.
         -2   -1    0    0    0  501 -0.00000000000E+00 -0.00000000000E+00 -0.24014574989E+03  0.24014574989E+03  0.00000000000E+00 0.  1.
        -24    2    1    2    0    0  0.24185011555E+03 -0.81746983895E+03  0.21679089136E+04  0.23308573746E+04  0.79489791757E+02 0.  0.
        254    2    1    2    0    0 -0.24185011555E+03  0.81746983895E+03  0.22924992433E+04  0.26098422821E+04  0.91048093936E+03 0.  0.
         23    2    4    4    0    0 -0.31636773997E+03 -0.77834038382E+02  0.51741097524E+03  0.61819610179E+03  0.91135166368E+02 0.  0.
         23    2    4    4    0    0  0.74517624413E+02  0.89530387733E+03  0.17750882680E+04  0.19916461803E+04  0.92705118681E+02 0.  0.
          3    1    3    3  502    0  0.56186015043E+01 -0.19759410611E+02  0.26601385603E+02  0.33610068529E+02  0.00000000000E+00 0. -1.
         -2    1    3    3    0  502  0.23623151405E+03 -0.79771042834E+03  0.21413075280E+04  0.22972473061E+04  0.00000000000E+00 0.  1.
         13    1    5    5    0    0 -0.22237258920E+03 -0.10444466913E+02  0.33635237368E+03  0.40335043646E+03  0.00000000000E+00 0.  1.
        -13    1    5    5    0    0 -0.93995150765E+02 -0.67389571470E+02  0.18105860157E+03  0.21484566533E+03  0.00000000000E+00 0. -1.
          3    1    6    6  503    0  0.73264820782E+02  0.85043684862E+03  0.17232896795E+04  0.19231063119E+04  0.00000000000E+00 0. -1.
         -3    1    6    6    0  503  0.12528036308E+01  0.44867028716E+02  0.51798588534E+02  0.68539868375E+02  0.00000000000E+00 0.  1.
<mgrwt>
<rscale>  0 0.21249170E+04</rscale>
<asrwt>0</asrwt>
<pdfrwt beam="1">  1        1 0.72316207E+00 0.21249170E+04</pdfrwt>
<pdfrwt beam="2">  1       -2 0.36945504E-01 0.21249170E+04</pdfrwt>
<totfact> 0.11096844E-01</totfact>
</mgrwt>
</event>
<event>
12    5  0.5246737E-008  0.1827357E+04  0.7818608E-02  0.8691885E-01
         -2   -1    0    0    0  501 -0.00000000000E+00  0.00000000000E+00  0.52777246977E+03  0.52777246977E+03  0.00000000000E+00 0.  1.
          1   -1    0    0  501    0  0.00000000000E+00 -0.00000000000E+00 -0.15817581683E+04  0.15817581683E+04  0.00000000000E+00 0. -1.
        -24    2    1    2    0    0  0.66667976320E+02 -0.10451703525E+03 -0.11871445173E+04  0.11965349399E+04  0.83757552206E+02 0.  0.
        254    2    1    2    0    0 -0.66667976320E+02  0.10451703525E+03  0.13315881881E+03  0.91299569819E+03  0.89468510894E+03 0.  0.
         23    2    4    4    0    0  0.25364835803E+03  0.37910185099E+03  0.22149098001E+02  0.46590476606E+03  0.92309076160E+02 0.  0.
         23    2    4    4    0    0 -0.32031633435E+03 -0.27458481573E+03  0.11100972081E+03  0.44709093213E+03  0.97814970194E+02 0.  0.
          3    1    3    3  502    0  0.30952943929E+02 -0.10918885729E+03 -0.91956396988E+03  0.92654097912E+03  0.00000000000E+00 0. -1.
         -4    1    3    3    0  502  0.35715032391E+02  0.46718220360E+01 -0.26758054747E+03  0.26999396075E+03  0.00000000000E+00 0.  1.
         13    1    5    5    0    0  0.18888714494E+02  0.86686797723E+02 -0.11238612609E+02  0.89429809616E+02  0.00000000000E+00 0.  1.
        -13    1    5    5    0    0  0.23475964354E+03  0.29241505327E+03  0.33387710610E+02  0.37647495645E+03  0.00000000000E+00 0. -1.
          3    1    6    6  503    0 -0.26338161001E+03 -0.19490475846E+03  0.11956109855E+03  0.34878731864E+03  0.00000000000E+00 0. -1.
         -3    1    6    6    0  503 -0.56934724348E+02 -0.79680057276E+02 -0.85513777374E+01  0.98303613490E+02  0.00000000000E+00 0.  1.
<mgrwt>
<rscale>  0 0.18273570E+04</rscale>
<asrwt>0</asrwt>
<pdfrwt beam="1">  1        1 0.24334741E+00 0.18273570E+04</pdfrwt>
<pdfrwt beam="2">  1       -2 0.81195765E-01 0.18273570E+04</pdfrwt>
<totfact> 0.63441902E+00</totfact>
</mgrwt>
</event>
<event>
12    5  0.5246737E-008  0.2084143E+04  0.7818608E-02  0.8568261E-01
          1   -1    0    0  501    0  0.00000000000E+00  0.00000000000E+00  0.22165060836E+04  0.22165060836E+04  0.00000000000E+00 0. -1.
         -2   -1    0    0    0  501 -0.00000000000E+00 -0.00000000000E+00 -0.48992103524E+03  0.48992103524E+03  0.00000000000E+00 0.  1.
        -24    2    1    2    0    0 -0.14297907826E+03  0.16426596155E+03 -0.35666845077E+03  0.42544513908E+03  0.79780070506E+02 0.  0.
        254    2    1    2    0    0  0.14297907826E+03 -0.16426596155E+03  0.20832534992E+04  0.22809819798E+04  0.90305444322E+03 0.  0.
         23    2    4    4    0    0  0.11204477823E+03 -0.51764053836E+03  0.14896746511E+04  0.15834978422E+04  0.88482148931E+02 0.  0.
         23    2    4    4    0    0  0.30934300029E+02  0.35337457681E+03  0.59357884805E+03  0.69748413763E+03  0.91201704707E+02 0.  0.
          1    1    3    3  502    0 -0.28140620097E+02  0.49476885149E+01 -0.88879161515E+02  0.93358874633E+02  0.00000000000E+00 0. -1.
         -4    1    3    3    0  502 -0.11483845816E+03  0.15931827303E+03 -0.26778928925E+03  0.33208626444E+03  0.00000000000E+00 0.  1.
         13    1    5    5    0    0  0.95396925613E+02 -0.42381828709E+03  0.11083073810E+04  0.11904065543E+04  0.00000000000E+00 0. -1.
        -13    1    5    5    0    0  0.16647852615E+02 -0.93822251274E+02  0.38136727014E+03  0.39309128783E+03  0.00000000000E+00 0.  1.
          4    1    6    6  503    0  0.23209151491E+02  0.25216618055E+03  0.49487612788E+03  0.55590361509E+03  0.00000000000E+00 0. -1.
         -4    1    6    6    0  503  0.77251485388E+01  0.10120839626E+03  0.98702720167E+02  0.14158052254E+03  0.00000000000E+00 0.  1.
<mgrwt>
<rscale>  0 0.20841429E+04</rscale>
<asrwt>0</asrwt>
<pdfrwt beam="1">  1        1 0.34100093E+00 0.20841429E+04</pdfrwt>
<pdfrwt beam="2">  1       -2 0.75372468E-01 0.20841429E+04</pdfrwt>
<totfact> 0.27122700E+00</totfact>
</mgrwt>
</event>
<event>
12    5  0.5246737E-008  0.2403007E+04  0.7818608E-02  0.8438378E-01
          1   -1    0    0  501    0  0.00000000000E+00  0.00000000000E+00  0.18318491393E+04  0.18318491393E+04  0.00000000000E+00 0. -1.
         -2   -1    0    0    0  501 -0.00000000000E+00 -0.00000000000E+00 -0.78806228804E+03  0.78806228804E+03  0.00000000000E+00 0.  1.
        -24    2    1    2    0    0  0.69212701733E+03  0.46929051103E+03 -0.20522206966E+03  0.86471579248E+03  0.79648678798E+02 0.  0.
        254    2    1    2    0    0 -0.69212701733E+03 -0.46929051103E+03  0.12490089209E+04  0.17551956348E+04  0.90631950224E+03 0.  0.
         23    2    4    4    0    0 -0.33734441551E+03  0.28306229162E+02 -0.12282002029E+02  0.35069133374E+03  0.90725226396E+02 0.  0.
         23    2    4    4    0    0 -0.35478260183E+03 -0.49759674019E+03  0.12612909229E+04  0.14045043011E+04  0.91128091678E+02 0.  0.
          1    1    3    3  502    0  0.15507475062E+03  0.14699055046E+03 -0.52756558027E+02  0.22008556204E+03  0.00000000000E+00 0. -1.
         -2    1    3    3    0  502  0.53705226672E+03  0.32229996057E+03 -0.15246551164E+03  0.64463023045E+03  0.00000000000E+00 0.  1.
         13    1    5    5    0    0  0.28155063239E+00 -0.10560633976E+02 -0.14459862822E+01  0.10662885963E+02  0.00000000000E+00 0. -1.
        -13    1    5    5    0    0 -0.33762596614E+03  0.38866863138E+02 -0.10836015746E+02  0.34002844778E+03  0.00000000000E+00 0.  1.
          2    1    6    6  503    0 -0.60800654115E+02 -0.11468499335E+03  0.19798906975E+03  0.23674678241E+03  0.00000000000E+00 0. -1.
         -2    1    6    6    0  503 -0.29398194771E+03 -0.38291174684E+03  0.10633018532E+04  0.11677575187E+04  0.00000000000E+00 0.  1.
<mgrwt>
<rscale>  0 0.24030075E+04</rscale>
<asrwt>0</asrwt>
<pdfrwt beam="1">  1        1 0.28182294E+00 0.24030075E+04</pdfrwt>
<pdfrwt beam="2">  1       -2 0.12124035E+00 0.24030075E+04</pdfrwt>
<totfact> 0.15788197E+00</totfact>
</mgrwt>
</event>
<event>
12    5  0.5246737E-008  0.2472311E+04  0.7818608E-02  0.8412917E-01
         -2   -1    0    0    0  501 -0.00000000000E+00  0.00000000000E+00  0.62290979835E+03  0.62290979835E+03  0.00000000000E+00 0.  1.
          1   -1    0    0  501    0  0.00000000000E+00 -0.00000000000E+00 -0.24531334066E+04  0.24531334066E+04  0.00000000000E+00 0. -1.
        -24    2    1    2    0    0 -0.41351005224E+03 -0.84239141234E+03 -0.14414107336E+04  0.17218550921E+04  0.80661020630E+02 0.  0.
        254    2    1    2    0    0  0.41351005224E+03  0.84239141234E+03 -0.38881287466E+03  0.13541881129E+04  0.89556470381E+03 0.  0.
         23    2    4    4    0    0  0.33632491134E+03 -0.87866695284E+02 -0.11669582112E+03  0.37765286302E+03  0.90381237839E+02 0.  0.
         23    2    4    4    0    0  0.77185140902E+02  0.93025810762E+03 -0.27211705354E+03  0.97653524987E+03  0.90750816194E+02 0.  0.
          1    1    3    3  502    0 -0.35401638861E+03 -0.75114988318E+03 -0.13119839262E+04  0.15526930067E+04  0.00000000000E+00 0. -1.
         -4    1    3    3    0  502 -0.59493663628E+02 -0.91241529153E+02 -0.12942680737E+03  0.16916208535E+03  0.00000000000E+00 0.  1.
         13    1    5    5    0    0  0.33622334707E+03 -0.77360189911E+02 -0.12192231578E+03  0.36591773554E+03  0.00000000000E+00 0. -1.
        -13    1    5    5    0    0  0.10156426633E+00 -0.10506505373E+02  0.52264946617E+01  0.11735127477E+02  0.00000000000E+00 0.  1.
          2    1    6    6  503    0  0.32546000464E+01  0.45473737331E+03 -0.10139150309E+03  0.46591512962E+03  0.00000000000E+00 0. -1.
         -2    1    6    6    0  503  0.73930540856E+02  0.47552073431E+03 -0.17072555045E+03  0.51062012025E+03  0.00000000000E+00 0.  1.
<mgrwt>
<rscale>  0 0.24723113E+04</rscale>
<asrwt>0</asrwt>
<pdfrwt beam="1">  1        1 0.37740514E+00 0.24723113E+04</pdfrwt>
<pdfrwt beam="2">  1       -2 0.95832276E-01 0.24723113E+04</pdfrwt>
<totfact> 0.10434735E+00</totfact>
</mgrwt>
</event>
<event>
12    5  0.5246737E-008  0.1521670E+04  0.7818608E-02  0.8870169E-01
          1   -1    0    0  501    0  0.00000000000E+00  0.00000000000E+00  0.48825473668E+03  0.48825473668E+03  0.00000000000E+00 0. -1.
         -2   -1    0    0    0  501 -0.00000000000E+00 -0.00000000000E+00 -0.11855895744E+04  0.11855895744E+04  0.00000000000E+00 0.  1.
        -24    2    1    2    0    0 -0.20288790610E+03 -0.90017863500E+01  0.26278507866E+03  0.34162628353E+03  0.80049893396E+02 0.  0.
        254    2    1    2    0    0  0.20288790610E+03  0.90017863500E+01 -0.96011991638E+03  0.13322180276E+04  0.90096064538E+03 0.  0.
         23    2    4    4    0    0  0.39877362961E+03 -0.22795772307E+03 -0.20374169137E+03  0.51074377994E+03  0.91451630704E+02 0.  0.
         23    2    4    4    0    0 -0.19588572352E+03  0.23695950942E+03 -0.75637822501E+03  0.82147424763E+03  0.90503560452E+02 0.  0.
          1    1    3    3  502    0 -0.12005199486E+03 -0.38162164804E+02  0.11989373614E+03  0.17390612484E+03  0.00000000000E+00 0. -1.
         -4    1    3    3    0  502 -0.82835911236E+02  0.29160378453E+02  0.14289134252E+03  0.16772015868E+03  0.00000000000E+00 0.  1.
         13    1    5    5    0    0  0.38860913356E+03 -0.21801991310E+03 -0.17508138079E+03  0.47875174265E+03  0.00000000000E+00 0. -1.
        -13    1    5    5    0    0  0.10164496055E+02 -0.99378099664E+01 -0.28660310578E+02  0.31992037281E+02  0.00000000000E+00 0.  1.
          2    1    6    6  503    0 -0.13633378953E+03  0.11650725548E+03 -0.51335239620E+03  0.54377525268E+03  0.00000000000E+00 0. -1.
         -2    1    6    6    0  503 -0.59551933988E+02  0.12045225394E+03 -0.24302582882E+03  0.27769899495E+03  0.00000000000E+00 0.  1.
<mgrwt>
<rscale>  0 0.15216698E+04</rscale>
<asrwt>0</asrwt>
<pdfrwt beam="1">  1        1 0.75116115E-01 0.15216698E+04</pdfrwt>
<pdfrwt beam="2">  1       -2 0.18239839E+00 0.15216698E+04</pdfrwt>
<totfact> 0.67450595E+00</totfact>
</mgrwt>
</event>
<event>
12    5  0.5246737E-008  0.2653586E+04  0.7818608E-02  0.8350224E-01
          1   -1    0    0  501    0  0.00000000000E+00  0.00000000000E+00  0.83670263370E+03  0.83670263370E+03  0.00000000000E+00 0. -1.
         -4   -1    0    0    0  501 -0.00000000000E+00 -0.00000000000E+00 -0.21039491135E+04  0.21039491135E+04  0.00000000000E+00 0.  1.
        -24    2    1    2    0    0 -0.74670392991E+03 -0.76520024949E+03 -0.30084257431E+02  0.10725629077E+04  0.79924636967E+02 0.  0.
        254    2    1    2    0    0  0.74670392991E+03  0.76520024949E+03 -0.12371622224E+04  0.18680888396E+04  0.90337554052E+03 0.  0.
         23    2    4    4    0    0  0.91154623429E+03  0.42376012323E+03 -0.86666940627E+03  0.13303537450E+04  0.90752673084E+02 0.  0.
         23    2    4    4    0    0 -0.16484230439E+03  0.34144012626E+03 -0.37049281614E+03  0.53773509461E+03  0.90220618640E+02 0.  0.
          3    1    3    3  502    0 -0.67704339521E+03 -0.67841512200E+03 -0.48890334137E+02  0.95970052700E+03  0.00000000000E+00 0. -1.
         -2    1    3    3    0  502 -0.69660534698E+02 -0.86785127490E+02  0.18806076706E+02  0.11286238066E+03  0.00000000000E+00 0.  1.
         13    1    5    5    0    0  0.45145260720E+03  0.16512911678E+03 -0.43976573117E+03  0.65151437442E+03  0.00000000000E+00 0. -1.
        -13    1    5    5    0    0  0.46009362709E+03  0.25863100646E+03 -0.42690367510E+03  0.67883937055E+03  0.00000000000E+00 0.  1.
          3    1    6    6  503    0 -0.17235757365E+03  0.34029880605E+03 -0.35816391378E+03  0.52325118225E+03  0.00000000000E+00 0. -1.
         -3    1    6    6    0  503  0.75152692583E+01  0.11413202084E+01 -0.12328902354E+02  0.14483912355E+02  0.00000000000E+00 0.  1.
<mgrwt>
<rscale>  0 0.26535861E+04</rscale>
<asrwt>0</asrwt>
<pdfrwt beam="1">  1        1 0.12872348E+00 0.26535861E+04</pdfrwt>
<pdfrwt beam="2">  1       -4 0.32368448E+00 0.26535861E+04</pdfrwt>
<totfact> 0.18885820E-01</totfact>
</mgrwt>
</event>
<event>
12    5  0.5246737E-008  0.1635612E+04  0.7818608E-02  0.8798964E-01
         -2   -1    0    0    0  501 -0.00000000000E+00  0.00000000000E+00  0.57065609168E+03  0.57065609168E+03  0.00000000000E+00 0.  1.
          1   -1    0    0  501    0  0.00000000000E+00 -0.00000000000E+00 -0.11719962633E+04  0.11719962633E+04  0.00000000000E+00 0. -1.
        -24    2    1    2    0    0 -0.25421678273E+03  0.50699596472E+03 -0.16727570981E+03  0.59682125870E+03  0.80891105098E+02 0.  0.
        254    2    1    2    0    0  0.25421678273E+03 -0.50699596472E+03 -0.43406446182E+03  0.11458310963E+04  0.89601666464E+03 0.  0.
         23    2    4    4    0    0  0.46751884779E+03 -0.42982633408E+03 -0.57619702137E+03  0.86221858386E+03  0.89962927962E+02 0.  0.
         23    2    4    4    0    0 -0.21330206506E+03 -0.77169630642E+02  0.14213255955E+03  0.28361251242E+03  0.93709497216E+02 0.  0.
          3    1    3    3  502    0 -0.17242076026E+02  0.36896079169E+02 -0.35744684009E+02  0.54187565720E+02  0.00000000000E+00 0. -1.
         -4    1    3    3    0  502 -0.23697470671E+03  0.47009988555E+03 -0.13153102580E+03  0.54263369298E+03  0.00000000000E+00 0.  1.
         13    1    5    5    0    0  0.25945318161E+03 -0.29029276247E+03 -0.37960787185E+03  0.54377199060E+03  0.00000000000E+00 0. -1.
        -13    1    5    5    0    0  0.20806566618E+03 -0.13953357161E+03 -0.19658914952E+03  0.31844659326E+03  0.00000000000E+00 0.  1.
          4    1    6    6  503    0 -0.17763009165E+03 -0.31688226465E+02  0.13505154632E+03  0.22537859996E+03  0.00000000000E+00 0. -1.
         -4    1    6    6    0  503 -0.35671973406E+02 -0.45481404177E+02  0.70810132304E+01  0.58233912465E+02  0.00000000000E+00 0.  1.
<mgrwt>
<rscale>  0 0.16356122E+04</rscale>
<asrwt>0</asrwt>
<pdfrwt beam="1">  1        1 0.18030712E+00 0.16356122E+04</pdfrwt>
<pdfrwt beam="2">  1       -2 0.87793245E-01 0.16356122E+04</pdfrwt>
<totfact> 0.10520141E+01</totfact>
</mgrwt>
</event>
<event>
12    5  0.5246737E-008  0.1167684E+04  0.7818608E-02  0.9141622E-01
         -2   -1    0    0    0  501 -0.00000000000E+00  0.00000000000E+00  0.10736489939E+03  0.10736489939E+03  0.00000000000E+00 0.  1.
          1   -1    0    0  501    0  0.00000000000E+00 -0.00000000000E+00 -0.31748893810E+04  0.31748893810E+04  0.00000000000E+00 0. -1.
        -24    2    1    2    0    0  0.68924933442E+02  0.18953174558E+03 -0.78324853209E+03  0.81258187413E+03  0.78346091817E+02 0.  0.
        254    2    1    2    0    0 -0.68924933442E+02 -0.18953174558E+03 -0.22842759496E+04  0.24696724063E+04  0.91689271548E+03 0.  0.
         23    2    4    4    0    0  0.27534102609E+03 -0.18880885605E+03 -0.31265179927E+03  0.46646441079E+03  0.91522861462E+02 0.  0.
         23    2    4    4    0    0 -0.34426595954E+03 -0.72288952872E+00 -0.19716241503E+04  0.20032079955E+04  0.83790869758E+02 0.  0.
          1    1    3    3  502    0  0.69976488982E+02  0.13386513125E+03 -0.66416801510E+03  0.68112828062E+03  0.00000000000E+00 0. -1.
         -2    1    3    3    0  502 -0.10515555402E+01  0.55666614322E+02 -0.11908051699E+03  0.13145359351E+03  0.00000000000E+00 0.  1.
         13    1    5    5    0    0  0.14340222174E+03 -0.14573855635E+03 -0.21543684147E+03  0.29701339477E+03  0.00000000000E+00 0.  1.
        -13    1    5    5    0    0  0.13193880435E+03 -0.43070299695E+02 -0.97214957802E+02  0.16945101602E+03  0.00000000000E+00 0. -1.
          4    1    6    6  503    0 -0.52871326644E+02 -0.63508427559E+01 -0.16948444258E+03  0.17765327653E+03  0.00000000000E+00 0. -1.
         -4    1    6    6    0  503 -0.29139463289E+03  0.56279532272E+01 -0.18021397077E+04  0.18255547190E+04  0.00000000000E+00 0.  1.
<mgrwt>
<rscale>  0 0.11676843E+04</rscale>
<asrwt>0</asrwt>
<pdfrwt beam="1">  1        1 0.48844457E+00 0.11676843E+04</pdfrwt>
<pdfrwt beam="2">  1       -2 0.16517675E-01 0.11676843E+04</pdfrwt>
<totfact> 0.11722749E+01</totfact>
</mgrwt>
</event>
<event>
12    5  0.5246737E-008  0.5018833E+04  0.7818608E-02  0.7825609E-01
         -2   -1    0    0    0  501 -0.00000000000E+00  0.00000000000E+00  0.23552941071E+04  0.23552941071E+04  0.00000000000E+00 0.  1.
          1   -1    0    0  501    0  0.00000000000E+00 -0.00000000000E+00 -0.26736240247E+04  0.26736240247E+04  0.00000000000E+00 0. -1.
        -24    2    1    2    0    0 -0.13545054889E+03 -0.23377513591E+04 -0.77750157838E+03  0.24686239444E+04  0.78531563540E+02 0.  0.
        254    2    1    2    0    0  0.13545054889E+03  0.23377513591E+04  0.45917166078E+03  0.25602941874E+04  0.92781433706E+03 0.  0.
         23    2    4    4    0    0  0.51024144952E+03  0.11099824344E+04  0.12990871126E+03  0.12319360589E+04  0.91557842145E+02 0.  0.
         23    2    4    4    0    0 -0.37479090063E+03  0.12277689247E+04  0.32926294952E+03  0.13283581285E+04  0.90755033549E+02 0.  0.
          3    1    3    3  502    0 -0.97990992491E+02 -0.18883253138E+04 -0.65788570296E+03  0.20020460344E+04  0.00000000000E+00 0. -1.
         -4    1    3    3    0  502 -0.37459556401E+02 -0.44942604525E+03 -0.11961587541E+03  0.46657791007E+03  0.00000000000E+00 0.  1.
         13    1    5    5    0    0  0.17932520726E+03  0.38102174274E+03  0.88496729061E+02  0.43031008523E+03  0.00000000000E+00 0.  1.
        -13    1    5    5    0    0  0.33091624227E+03  0.72896069168E+03  0.41411982195E+02  0.80162597368E+03  0.00000000000E+00 0. -1.
          2    1    6    6  503    0 -0.20717222974E+03  0.71236458594E+03  0.23528672814E+03  0.77829523994E+03  0.00000000000E+00 0. -1.
         -2    1    6    6    0  503 -0.16761867089E+03  0.51540433873E+03  0.93976221379E+02  0.55006288859E+03  0.00000000000E+00 0.  1.
<mgrwt>
<rscale>  0 0.50188329E+04</rscale>
<asrwt>0</asrwt>
<pdfrwt beam="1">  1        1 0.41132678E+00 0.50188329E+04</pdfrwt>
<pdfrwt beam="2">  1       -2 0.36235294E+00 0.50188329E+04</pdfrwt>
<totfact> 0.84366446E-03</totfact>
</mgrwt>
</event>
<event>
12    5  0.5246737E-008  0.4088577E+04  0.7818608E-02  0.7986912E-01
          1   -1    0    0  501    0  0.00000000000E+00  0.00000000000E+00  0.20902085024E+04  0.20902085024E+04  0.00000000000E+00 0. -1.
         -2   -1    0    0    0  501 -0.00000000000E+00 -0.00000000000E+00 -0.19993774407E+04  0.19993774407E+04  0.00000000000E+00 0.  1.
        -24    2    1    2    0    0  0.54281470845E+03  0.66662651138E+02  0.19413265059E+04  0.20184875919E+04  0.80323342603E+02 0.  0.
        254    2    1    2    0    0 -0.54281470845E+03 -0.66662651138E+02 -0.18504954442E+04  0.20710983512E+04  0.75234518299E+03 0.  0.
         23    2    4    4    0    0 -0.27769130075E+03  0.33012126113E+03 -0.82575306534E+03  0.93607492745E+03  0.90970540926E+02 0.  0.
         23    2    4    4    0    0 -0.26512340769E+03 -0.39678391227E+03 -0.10247423789E+04  0.11350234237E+04  0.10224155211E+03 0.  0.
          1    1    3    3  502    0  0.48037303600E+03  0.53008854417E+02  0.17926619826E+04  0.18566650684E+04  0.00000000000E+00 0. -1.
         -2    1    3    3    0  502  0.62441672453E+02  0.13653796721E+02  0.14866452335E+03  0.16182252355E+03  0.00000000000E+00 0.  1.
         13    1    5    5    0    0 -0.21839717837E+03  0.24528668462E+03 -0.53856593427E+03  0.63080595331E+03  0.00000000000E+00 0.  1.
        -13    1    5    5    0    0 -0.59294122383E+02  0.84834576506E+02 -0.28718713107E+03  0.30526897414E+03  0.00000000000E+00 0. -1.
          2    1    6    6  503    0 -0.89336151681E-01  0.40204478916E+01 -0.30419586470E+02  0.30684250410E+02  0.00000000000E+00 0. -1.
         -2    1    6    6    0  503 -0.26503407154E+03 -0.40080436016E+03 -0.99432279242E+03  0.11043391733E+04  0.00000000000E+00 0.  1.
<mgrwt>
<rscale>  0 0.40885771E+04</rscale>
<asrwt>0</asrwt>
<pdfrwt beam="1">  1        1 0.32157054E+00 0.40885771E+04</pdfrwt>
<pdfrwt beam="2">  1       -2 0.30759653E+00 0.40885771E+04</pdfrwt>
<totfact> 0.50464072E-02</totfact>
</mgrwt>
</event>
<event>
12    5  0.5246737E-008  0.1111638E+04  0.7818608E-02  0.9193922E-01
         -2   -1    0    0    0  501 -0.00000000000E+00  0.00000000000E+00  0.17135541784E+03  0.17135541784E+03  0.00000000000E+00 0.  1.
          1   -1    0    0  501    0  0.00000000000E+00 -0.00000000000E+00 -0.18028892210E+04  0.18028892210E+04  0.00000000000E+00 0. -1.
        -24    2    1    2    0    0  0.27115066708E+02  0.10967899675E+03 -0.38746835019E+02  0.14265638870E+03  0.78005248807E+02 0.  0.
        254    2    1    2    0    0 -0.27115066708E+02 -0.10967899675E+03 -0.15927869682E+04  0.18315882502E+04  0.89720704578E+03 0.  0.
         23    2    4    4    0    0 -0.81780540957E+02 -0.28892709906E+03 -0.15922807443E+04  0.16226145492E+04  0.85750109475E+02 0.  0.
         23    2    4    4    0    0  0.54665474249E+02  0.17924810231E+03 -0.50622389093E+00  0.20897370095E+03  0.92474619057E+02 0.  0.
          1    1    3    3  502    0  0.77512098027E+01  0.55796597250E+02 -0.59329705580E+02  0.81812929799E+02  0.00000000000E+00 0. -1.
         -2    1    3    3    0  502  0.19363856905E+02  0.53882399502E+02  0.20582870561E+02  0.60843458900E+02  0.00000000000E+00 0.  1.
         13    1    5    5    0    0 -0.60622842214E+02 -0.23725785151E+03 -0.14343816826E+04  0.14551347802E+04  0.00000000000E+00 0.  1.
        -13    1    5    5    0    0 -0.21157698743E+02 -0.51669247551E+02 -0.15789906169E+03  0.16747976905E+03  0.00000000000E+00 0. -1.
          3    1    6    6  503    0 -0.66114717798E+01  0.61756907152E+02 -0.36004088344E+02  0.71790817780E+02  0.00000000000E+00 0. -1.
         -3    1    6    6    0  503  0.61276946029E+02  0.11749119516E+03  0.35497864453E+02  0.13718288317E+03  0.00000000000E+00 0.  1.
<mgrwt>
<rscale>  0 0.11116381E+04</rscale>
<asrwt>0</asrwt>
<pdfrwt beam="1">  1        1 0.27736758E+00 0.11116381E+04</pdfrwt>
<pdfrwt beam="2">  1       -2 0.26362371E-01 0.11116381E+04</pdfrwt>
<totfact> 0.46221746E+01</totfact>
</mgrwt>
</event>
<event>
12    5  0.5246737E-008  0.1998498E+04  0.7818608E-02  0.8607323E-01
         -2   -1    0    0    0  501 -0.00000000000E+00  0.00000000000E+00  0.11623058214E+04  0.11623058214E+04  0.00000000000E+00 0.  1.
          1   -1    0    0  501    0  0.00000000000E+00 -0.00000000000E+00 -0.85906684464E+03  0.85906684464E+03  0.00000000000E+00 0. -1.
        -24    2    1    2    0    0  0.11139082329E+03  0.25219214989E+03  0.87210284684E+03  0.91814425649E+03  0.80104333648E+02 0.  0.
        254    2    1    2    0    0 -0.11139082329E+03 -0.25219214989E+03 -0.56886387012E+03  0.11032284095E+04  0.90415597373E+03 0.  0.
         23    2    4    4    0    0  0.10880849386E+02 -0.13354507635E+03  0.23093398643E+03  0.28043302676E+03  0.85787505534E+02 0.  0.
         23    2    4    4    0    0 -0.12227167268E+03 -0.11864707354E+03 -0.79979785655E+03  0.82279538275E+03  0.91039225246E+02 0.  0.
          1    1    3    3  502    0  0.22497131214E+02  0.50283650689E+01  0.98668392250E+02  0.10132550023E+03  0.00000000000E+00 0. -1.
         -4    1    3    3    0  502  0.88893692078E+02  0.24716378482E+03  0.77343445459E+03  0.81681875626E+03  0.00000000000E+00 0.  1.
         13    1    5    5    0    0  0.29851908564E+02 -0.13165225086E+03  0.22091502119E+03  0.25889553528E+03  0.00000000000E+00 0. -1.
        -13    1    5    5    0    0 -0.18971059177E+02 -0.18928254949E+01  0.10018965245E+02  0.21537491480E+02  0.00000000000E+00 0.  1.
          1    1    6    6  503    0 -0.90164226979E+02 -0.29401893969E+02 -0.47773521244E+03  0.48705748368E+03  0.00000000000E+00 0. -1.
         -1    1    6    6    0  503 -0.32107445698E+02 -0.89245179572E+02 -0.32206264411E+03  0.33573789908E+03  0.00000000000E+00 0.  1.
<mgrwt>
<rscale>  0 0.19984978E+04</rscale>
<asrwt>0</asrwt>
<pdfrwt beam="1">  1        1 0.13216413E+00 0.19984978E+04</pdfrwt>
<pdfrwt beam="2">  1       -2 0.17881628E+00 0.19984978E+04</pdfrwt>
<totfact> 0.29552759E+00</totfact>
</mgrwt>
</event>
<event>
12    5  0.5246737E-008  0.1054781E+04  0.7818608E-02  0.9250422E-01
          1   -1    0    0  501    0  0.00000000000E+00  0.00000000000E+00  0.18621739832E+04  0.18621739832E+04  0.00000000000E+00 0. -1.
         -2   -1    0    0    0  501 -0.00000000000E+00 -0.00000000000E+00 -0.14936352085E+03  0.14936352085E+03  0.00000000000E+00 0.  1.
        -24    2    1    2    0    0  0.82489764369E+02  0.17331142066E+02  0.39757243822E+03  0.41423581834E+03  0.80140750297E+02 0.  0.
        254    2    1    2    0    0 -0.82489764369E+02 -0.17331142066E+02  0.13152380242E+04  0.15973016857E+04  0.90245037833E+03 0.  0.
         23    2    4    4    0    0 -0.14626180502E+03  0.11467142593E+03  0.13941289286E+04  0.14093476113E+04  0.90128622658E+02 0.  0.
         23    2    4    4    0    0  0.63772040648E+02 -0.13200256799E+03 -0.78890904395E+02  0.18795407440E+03  0.87243384630E+02 0.  0.
          3    1    3    3  502    0  0.61330392155E+02 -0.15467174885E+02  0.13874843533E+03  0.15248533964E+03  0.00000000000E+00 0. -1.
         -4    1    3    3    0  502  0.21159372214E+02  0.32798316951E+02  0.25882400289E+03  0.26175047870E+03  0.00000000000E+00 0.  1.
         13    1    5    5    0    0 -0.57777016131E+02  0.62814811698E+02  0.35262478053E+03  0.36280589852E+03  0.00000000000E+00 0.  1.
        -13    1    5    5    0    0 -0.88484788886E+02  0.51856614228E+02  0.10415041480E+04  0.10465417128E+04  0.00000000000E+00 0. -1.
          3    1    6    6  503    0  0.85501454311E+02 -0.11241819904E+03 -0.67806095217E+02  0.15667168447E+03  0.00000000000E+00 0. -1.
         -3    1    6    6    0  503 -0.21729413663E+02 -0.19584368952E+02 -0.11084809178E+02  0.31282389933E+02  0.00000000000E+00 0.  1.
<mgrwt>
<rscale>  0 0.10547812E+04</rscale>
<asrwt>0</asrwt>
<pdfrwt beam="1">  1        1 0.28648829E+00 0.10547812E+04</pdfrwt>
<pdfrwt beam="2">  1       -2 0.22979005E-01 0.10547812E+04</pdfrwt>
<totfact> 0.54281669E+01</totfact>
</mgrwt>
</event>
<event>
12    5  0.5246737E-008  0.1710426E+04  0.7818608E-02  0.8755440E-01
         -2   -1    0    0    0  501 -0.00000000000E+00  0.00000000000E+00  0.62753479062E+03  0.62753479062E+03  0.00000000000E+00 0.  1.
          1   -1    0    0  501    0  0.00000000000E+00 -0.00000000000E+00 -0.11654964232E+04  0.11654964232E+04  0.00000000000E+00 0. -1.
        -24    2    1    2    0    0  0.61633272347E+02 -0.13669064785E+03  0.43398417740E+03  0.46619949868E+03  0.80726159737E+02 0.  0.
        254    2    1    2    0    0 -0.61633272347E+02  0.13669064785E+03 -0.97194580999E+03  0.13268317152E+04  0.89068555020E+03 0.  0.
         23    2    4    4    0    0 -0.26686560923E+03 -0.94424385705E+02 -0.95976306529E+03  0.10047059103E+04  0.90308397589E+02 0.  0.
         23    2    4    4    0    0  0.20523233689E+03  0.23111503355E+03 -0.12182744703E+02  0.32212580487E+03  0.89900745598E+02 0.  0.
          1    1    3    3  502    0 -0.14533285459E+02 -0.25782574030E+02  0.39197431326E+02  0.49116149405E+02  0.00000000000E+00 0. -1.
         -2    1    3    3    0  502  0.76166557806E+02 -0.11090807382E+03  0.39478674607E+03  0.41708334927E+03  0.00000000000E+00 0.  1.
         13    1    5    5    0    0 -0.22610965885E+03 -0.48628799708E+02 -0.67836374232E+03  0.71670614961E+03  0.00000000000E+00 0.  1.
        -13    1    5    5    0    0 -0.40755950382E+02 -0.45795585997E+02 -0.28139932297E+03  0.28799976069E+03  0.00000000000E+00 0. -1.
          1    1    6    6  503    0  0.53068215732E+02  0.21134785839E+02 -0.25305734232E+02  0.62476354555E+02  0.00000000000E+00 0. -1.
         -1    1    6    6    0  503  0.15216412115E+03  0.20998024772E+03  0.13122989529E+02  0.25964945032E+03  0.00000000000E+00 0.  1.
<mgrwt>
<rscale>  0 0.17104263E+04</rscale>
<asrwt>0</asrwt>
<pdfrwt beam="1">  1        1 0.17930714E+00 0.17104263E+04</pdfrwt>
<pdfrwt beam="2">  1       -2 0.96543815E-01 0.17104263E+04</pdfrwt>
<totfact> 0.84782158E+00</totfact>
</mgrwt>
</event>
<event>
12    5  0.5246737E-008  0.2196979E+04  0.7818608E-02  0.8519687E-01
         -2   -1    0    0    0  501 -0.00000000000E+00  0.00000000000E+00  0.19357602313E+04  0.19357602313E+04  0.00000000000E+00 0.  1.
          1   -1    0    0  501    0  0.00000000000E+00 -0.00000000000E+00 -0.62336175681E+03  0.62336175681E+03  0.00000000000E+00 0. -1.
        -24    2    1    2    0    0 -0.17079829506E+03  0.26886665607E+03 -0.45150246257E+03  0.55831839430E+03  0.80022617804E+02 0.  0.
        254    2    1    2    0    0  0.17079829506E+03 -0.26886665607E+03  0.17639009371E+04  0.20008035938E+04  0.88904846263E+03 0.  0.
         23    2    4    4    0    0 -0.17597604466E+03 -0.85287813481E+01  0.14375163239E+04  0.14510036903E+04  0.88984378335E+02 0.  0.
         23    2    4    4    0    0  0.34677433972E+03 -0.26033787472E+03  0.32638461322E+03  0.54979990349E+03  0.87890650421E+02 0.  0.
          3    1    3    3  502    0 -0.13667619425E+03  0.24633522346E+03 -0.35275240785E+03  0.45143735516E+03  0.00000000000E+00 0. -1.
         -4    1    3    3    0  502 -0.34122100814E+02  0.22531432612E+02 -0.98750054720E+02  0.10688103914E+03  0.00000000000E+00 0.  1.
         13    1    5    5    0    0  0.14380566741E+01  0.90038335117E+01  0.16533662361E+02  0.18881181530E+02  0.00000000000E+00 0.  1.
        -13    1    5    5    0    0 -0.17741410133E+03 -0.17532614860E+02  0.14209826615E+04  0.14321225088E+04  0.00000000000E+00 0. -1.
          2    1    6    6  503    0  0.14460468748E+03 -0.10954163872E+03  0.19149323651E+03  0.26377935075E+03  0.00000000000E+00 0.  1.
         -2    1    6    6    0  503  0.20216965224E+03 -0.15079623600E+03  0.13489137671E+03  0.28602055274E+03  0.00000000000E+00 0. -1.
<mgrwt>
<rscale>  0 0.21969787E+04</rscale>
<asrwt>0</asrwt>
<pdfrwt beam="1">  1        1 0.95901809E-01 0.21969787E+04</pdfrwt>
<pdfrwt beam="2">  1       -2 0.29780927E+00 0.21969787E+04</pdfrwt>
<totfact> 0.84882597E-01</totfact>
</mgrwt>
</event>
<event>
12    5  0.5246737E-008  0.2238545E+04  0.7818608E-02  0.8502554E-01
          1   -1    0    0  501    0  0.00000000000E+00  0.00000000000E+00  0.20734775385E+04  0.20734775385E+04  0.00000000000E+00 0. -1.
         -2   -1    0    0    0  501 -0.00000000000E+00 -0.00000000000E+00 -0.60418843092E+03  0.60418843092E+03  0.00000000000E+00 0.  1.
        -24    2    1    2    0    0  0.79550952714E+03  0.73173969818E+02  0.12240750964E+04  0.14638485346E+04  0.79390509613E+02 0.  0.
        254    2    1    2    0    0 -0.79550952714E+03 -0.73173969818E+02  0.24521401111E+03  0.12138174348E+04  0.88035959473E+03 0.  0.
         23    2    4    4    0    0 -0.68160275859E+03 -0.29854666882E+03  0.45171996549E+03  0.87538541451E+03  0.92391897598E+02 0.  0.
         23    2    4    4    0    0 -0.11390676856E+03  0.22537269900E+03 -0.20650595437E+03  0.33843202024E+03  0.90132778471E+02 0.  0.
          3    1    3    3  502    0  0.70155906204E+03  0.74979569724E+02  0.11192121230E+04  0.13230430188E+04  0.00000000000E+00 0. -1.
         -4    1    3    3    0  502  0.93950465103E+02 -0.18055999065E+01  0.10486297343E+03  0.14080551580E+03  0.00000000000E+00 0.  1.
         13    1    5    5    0    0 -0.46038399508E+03 -0.20226791629E+03  0.25351759785E+03  0.56314909687E+03  0.00000000000E+00 0. -1.
        -13    1    5    5    0    0 -0.22121876351E+03 -0.96278752532E+02  0.19820236764E+03  0.31223631764E+03  0.00000000000E+00 0.  1.
          4    1    6    6  503    0 -0.20350987642E+02  0.11229921624E+03 -0.52263597900E+02  0.12552593490E+03  0.00000000000E+00 0. -1.
         -4    1    6    6    0  503 -0.93555780915E+02  0.11307348276E+03 -0.15424235647E+03  0.21290608534E+03  0.00000000000E+00 0.  1.
<mgrwt>
<rscale>  0 0.22385452E+04</rscale>
<asrwt>0</asrwt>
<pdfrwt beam="1">  1        1 0.31899654E+00 0.22385452E+04</pdfrwt>
<pdfrwt beam="2">  1       -2 0.92952067E-01 0.22385452E+04</pdfrwt>
<totfact> 0.20794413E+00</totfact>
</mgrwt>
</event>
<event>
12    5  0.5246737E-008  0.1504050E+04  0.7818608E-02  0.8881764E-01
         -2   -1    0    0    0  501 -0.00000000000E+00  0.00000000000E+00  0.32117440320E+03  0.32117440320E+03  0.00000000000E+00 0.  1.
          1   -1    0    0  501    0  0.00000000000E+00 -0.00000000000E+00 -0.17608556400E+04  0.17608556400E+04  0.00000000000E+00 0. -1.
        -24    2    1    2    0    0  0.24493327368E+03 -0.13366811795E+02  0.10240523262E+03  0.27703412300E+03  0.78039050666E+02 0.  0.
        254    2    1    2    0    0 -0.24493327368E+03  0.13366811795E+02 -0.15420864694E+04  0.18049959202E+04  0.90543283159E+03 0.  0.
         23    2    4    4    0    0  0.15827375412E+03 -0.29698947550E+03 -0.98712239325E+03  0.10466407792E+04  0.88277809283E+02 0.  0.
         23    2    4    4    0    0 -0.40320702780E+03  0.31035628729E+03 -0.55496407618E+03  0.75835514101E+03  0.90666761909E+02 0.  0.
          3    1    3    3  502    0  0.13497483988E+03  0.80157494438E+01  0.17218826457E+02  0.13630461337E+03  0.00000000000E+00 0. -1.
         -4    1    3    3    0  502  0.10995843379E+03 -0.21382561239E+02  0.85186406163E+02  0.14072950964E+03  0.00000000000E+00 0.  1.
         13    1    5    5    0    0  0.11589144033E+03 -0.18501930028E+03 -0.74818609301E+03  0.77938783490E+03  0.00000000000E+00 0.  1.
        -13    1    5    5    0    0  0.42382313796E+02 -0.11197017521E+03 -0.23893630025E+03  0.26725294430E+03  0.00000000000E+00 0. -1.
          3    1    6    6  503    0 -0.13941960912E+02  0.41655037889E+01 -0.18500588499E-01  0.14550946297E+02  0.00000000000E+00 0. -1.
         -3    1    6    6    0  503 -0.38926506689E+03  0.30619078350E+03 -0.55494557559E+03  0.74380419471E+03  0.00000000000E+00 0.  1.
<mgrwt>
<rscale>  0 0.15040502E+04</rscale>
<asrwt>0</asrwt>
<pdfrwt beam="1">  1        1 0.27090087E+00 0.15040502E+04</pdfrwt>
<pdfrwt beam="2">  1       -2 0.49411446E-01 0.15040502E+04</pdfrwt>
<totfact> 0.14256361E+01</totfact>
</mgrwt>
</event>
<event>
12    5  0.5246737E-008  0.1285109E+04  0.7818608E-02  0.9041458E-01
         -2   -1    0    0    0  501 -0.00000000000E+00  0.00000000000E+00  0.37600371088E+03  0.37600371088E+03  0.00000000000E+00 0.  1.
          1   -1    0    0  501    0  0.00000000000E+00 -0.00000000000E+00 -0.10980644620E+04  0.10980644620E+04  0.00000000000E+00 0. -1.
        -24    2    1    2    0    0 -0.50523448645E+02 -0.10822458819E+03 -0.52373906668E+03  0.54307163720E+03  0.79743418596E+02 0.  0.
        254    2    1    2    0    0  0.50523448645E+02  0.10822458819E+03 -0.19832168442E+03  0.93099653567E+03  0.90175267039E+03 0.  0.
         23    2    4    4    0    0  0.38006514393E+03 -0.19890676168E+03 -0.24980941652E+02  0.43962222971E+03  0.92899106221E+02 0.  0.
         23    2    4    4    0    0 -0.32954169528E+03  0.30713134986E+03 -0.17334074277E+03  0.49137430596E+03  0.92055963716E+02 0.  0.
          1    1    3    3  502    0 -0.51992541084E+02 -0.11036873541E+03 -0.52579120242E+03  0.53976001207E+03  0.00000000000E+00 0. -1.
         -2    1    3    3    0  502  0.14690924391E+01  0.21441472217E+01  0.20521357402E+01  0.33116251296E+01  0.00000000000E+00 0.  1.
         13    1    5    5    0    0  0.22516969557E+02 -0.37578202353E+02 -0.17830122429E+02  0.47297446823E+02  0.00000000000E+00 0. -1.
        -13    1    5    5    0    0  0.35754817437E+03 -0.16132855932E+03 -0.71508192238E+01  0.39232478288E+03  0.00000000000E+00 0.  1.
          2    1    6    6  503    0 -0.47394425202E+02  0.27812650163E+02  0.68462762031E+01  0.55377310762E+02  0.00000000000E+00 0. -1.
         -2    1    6    6    0  503 -0.28214727008E+03  0.27931869970E+03 -0.18018701897E+03  0.43599699520E+03  0.00000000000E+00 0.  1.
<mgrwt>
<rscale>  0 0.12851090E+04</rscale>
<asrwt>0</asrwt>
<pdfrwt beam="1">  1        1 0.16893300E+00 0.12851090E+04</pdfrwt>
<pdfrwt beam="2">  1       -2 0.57846724E-01 0.12851090E+04</pdfrwt>
<totfact> 0.30694502E+01</totfact>
</mgrwt>
</event>
<event>
12    5  0.5246737E-008  0.1380010E+04  0.7818608E-02  0.8968417E-01
          1   -1    0    0  501    0  0.00000000000E+00  0.00000000000E+00  0.62681566447E+03  0.62681566447E+03  0.00000000000E+00 0. -1.
         -2   -1    0    0    0  501 -0.00000000000E+00 -0.00000000000E+00 -0.75956467823E+03  0.75956467823E+03  0.00000000000E+00 0.  1.
        -24    2    1    2    0    0 -0.90846824695E+02  0.20786707759E+03 -0.32807375961E+03  0.40676579987E+03  0.79775664844E+02 0.  0.
        254    2    1    2    0    0  0.90846824695E+02 -0.20786707759E+03  0.19532474585E+03  0.97961454283E+03  0.93275453828E+03 0.  0.
         23    2    4    4    0    0  0.13896025362E+03  0.77626566023E+02  0.51073624213E+03  0.54301932007E+03  0.93180669189E+02 0.  0.
         23    2    4    4    0    0 -0.48113428929E+02 -0.28549364361E+03 -0.31541149628E+03  0.43659522276E+03  0.85495344709E+02 0.  0.
          3    1    3    3  502    0 -0.32161088946E+02  0.13234682133E+03 -0.13748499543E+03  0.19352555575E+03  0.00000000000E+00 0. -1.
         -4    1    3    3    0  502 -0.58685735749E+02  0.75520256262E+02 -0.19058876417E+03  0.21324024413E+03  0.00000000000E+00 0.  1.
         13    1    5    5    0    0  0.16832107371E+02  0.77379068676E+01  0.21194278936E+03  0.21275088955E+03  0.00000000000E+00 0.  1.
        -13    1    5    5    0    0  0.12212814625E+03  0.69888659156E+02  0.29879345277E+03  0.33026843053E+03  0.00000000000E+00 0. -1.
          4    1    6    6  503    0 -0.73846131174E+01 -0.17172225662E+03 -0.23614886243E+03  0.29207764576E+03  0.00000000000E+00 0.  1.
         -4    1    6    6    0  503 -0.40728815812E+02 -0.11377138700E+03 -0.79262633848E+02  0.14451757700E+03  0.00000000000E+00 0. -1.
<mgrwt>
<rscale>  0 0.13800102E+04</rscale>
<asrwt>0</asrwt>
<pdfrwt beam="1">  1        1 0.96433180E-01 0.13800102E+04</pdfrwt>
<pdfrwt beam="2">  1       -2 0.11685610E+00 0.13800102E+04</pdfrwt>
<totfact> 0.15569766E+01</totfact>
</mgrwt>
</event>
<event>
12    5  0.5246737E-008  0.1400404E+04  0.7818608E-02  0.8953526E-01
         -2   -1    0    0    0  501 -0.00000000000E+00  0.00000000000E+00  0.43664302579E+03  0.43664302579E+03  0.00000000000E+00 0.  1.
          1   -1    0    0  501    0  0.00000000000E+00 -0.00000000000E+00 -0.11228464738E+04  0.11228464738E+04  0.00000000000E+00 0. -1.
        -24    2    1    2    0    0  0.37351975303E+03 -0.19094579854E+03 -0.19290454978E+03  0.46864054446E+03  0.80215277261E+02 0.  0.
        254    2    1    2    0    0 -0.37351975303E+03  0.19094579854E+03 -0.49329889819E+03  0.10908489551E+04  0.87785553251E+03 0.  0.
         23    2    4    4    0    0  0.21001543762E+03  0.29504072980E+03 -0.15860835465E+03  0.40393184338E+03  0.82757523237E+02 0.  0.
         23    2    4    4    0    0 -0.58353519065E+03 -0.10409493125E+03 -0.33469054354E+03  0.68691711170E+03  0.92131888986E+02 0.  0.
          3    1    3    3  502    0  0.93761500514E+02 -0.26205123975E+02 -0.76242608480E+02  0.12365622851E+03  0.00000000000E+00 0. -1.
         -4    1    3    3    0  502  0.27975825252E+03 -0.16474067457E+03 -0.11666194130E+03  0.34498431596E+03  0.00000000000E+00 0.  1.
         13    1    5    5    0    0  0.20241170042E+03  0.29957889106E+03 -0.14953244783E+03  0.39125178772E+03  0.00000000000E+00 0. -1.
        -13    1    5    5    0    0  0.76037372019E+01 -0.45381612621E+01 -0.90759068199E+01  0.12680055665E+02  0.00000000000E+00 0.  1.
          2    1    6    6  503    0 -0.48963222417E+03 -0.10103643978E+03 -0.31504409245E+03  0.59093219348E+03  0.00000000000E+00 0. -1.
         -2    1    6    6    0  503 -0.93902966489E+02 -0.30584914774E+01 -0.19646451092E+02  0.95984918222E+02  0.00000000000E+00 0.  1.
<mgrwt>
<rscale>  0 0.14004043E+04</rscale>
<asrwt>0</asrwt>
<pdfrwt beam="1">  1        1 0.17274561E+00 0.14004043E+04</pdfrwt>
<pdfrwt beam="2">  1       -2 0.67175850E-01 0.14004043E+04</pdfrwt>
<totfact> 0.21188146E+01</totfact>
</mgrwt>
</event>
<event>
12    5  0.5246737E-008  0.2410896E+04  0.7818608E-02  0.8435435E-01
          1   -1    0    0  501    0  0.00000000000E+00  0.00000000000E+00  0.36399119495E+04  0.36399119495E+04  0.00000000000E+00 0. -1.
         -2   -1    0    0    0  501 -0.00000000000E+00 -0.00000000000E+00 -0.39921433952E+03  0.39921433952E+03  0.00000000000E+00 0.  1.
        -24    2    1    2    0    0 -0.61397051794E+03  0.32209096537E+03  0.26933159793E+04  0.27822910943E+04  0.80562906103E+02 0.  0.
        254    2    1    2    0    0  0.61397051794E+03 -0.32209096537E+03  0.54738163069E+03  0.12568351948E+04  0.89403896471E+03 0.  0.
         23    2    4    4    0    0 -0.19147484454E+03 -0.14101256282E+03  0.29607775348E+03  0.38941348277E+03  0.86218707349E+02 0.  0.
         23    2    4    4    0    0  0.80544536248E+03 -0.18107840255E+03  0.25130387722E+03  0.86742171203E+03  0.87949803876E+02 0.  0.
          1    1    3    3  502    0 -0.58629235676E+03  0.31993157373E+03  0.26228225829E+04  0.27065278940E+04  0.00000000000E+00 0. -1.
         -2    1    3    3    0  502 -0.27678161182E+02  0.21593916448E+01  0.70493396387E+02  0.75763200255E+02  0.00000000000E+00 0.  1.
         13    1    5    5    0    0  0.62288483319E+00  0.12544492294E+01  0.36537167568E+02  0.36564002000E+02  0.00000000000E+00 0. -1.
        -13    1    5    5    0    0 -0.19209772937E+03 -0.14226701205E+03  0.25954058591E+03  0.35284948077E+03  0.00000000000E+00 0.  1.
          4    1    6    6  503    0  0.10255113068E+03 -0.52142017879E+02  0.45915404650E+02  0.12386988664E+03  0.00000000000E+00 0. -1.
         -4    1    6    6    0  503  0.70289423179E+03 -0.12893638467E+03  0.20538847257E+03  0.74355182539E+03  0.00000000000E+00 0.  1.
<mgrwt>
<rscale>  0 0.24108961E+04</rscale>
<asrwt>0</asrwt>
<pdfrwt beam="1">  1        1 0.55998643E+00 0.24108961E+04</pdfrwt>
<pdfrwt beam="2">  1       -2 0.61417593E-01 0.24108961E+04</pdfrwt>
<totfact> 0.37540017E-01</totfact>
</mgrwt>
</event>
<event>
12    5  0.5246737E-008  0.1734154E+04  0.7818608E-02  0.8742121E-01
         -2   -1    0    0    0  501 -0.00000000000E+00  0.00000000000E+00  0.72123252152E+03  0.72123252152E+03  0.00000000000E+00 0.  1.
          1   -1    0    0  501    0  0.00000000000E+00 -0.00000000000E+00 -0.10424140212E+04  0.10424140212E+04  0.00000000000E+00 0. -1.
        -24    2    1    2    0    0  0.28079098506E+03 -0.34533293073E+03  0.33941840406E+03  0.56516207881E+03  0.78133936151E+02 0.  0.
        254    2    1    2    0    0 -0.28079098506E+03  0.34533293073E+03 -0.66059990372E+03  0.11984844639E+04  0.89547438101E+03 0.  0.
         23    2    4    4    0    0 -0.45591702318E+03  0.54182896332E+03 -0.53463596354E+03  0.89304425013E+03  0.10125937820E+03 0.  0.
         23    2    4    4    0    0  0.17512603812E+03 -0.19649603258E+03 -0.12596394018E+03  0.30544021375E+03  0.90260677493E+02 0.  0.
          3    1    3    3  502    0  0.92738970443E+02 -0.12722038291E+03  0.16698609840E+03  0.22949923643E+03  0.00000000000E+00 0. -1.
         -4    1    3    3    0  502  0.18805201462E+03 -0.21811254782E+03  0.17243230566E+03  0.33566284238E+03  0.00000000000E+00 0.  1.
         13    1    5    5    0    0 -0.42505694877E+03  0.46416887338E+03 -0.49410929542E+03  0.80016882502E+03  0.00000000000E+00 0.  1.
        -13    1    5    5    0    0 -0.30860074410E+02  0.77660089934E+02 -0.40526668126E+02  0.92875425117E+02  0.00000000000E+00 0. -1.
          4    1    6    6  503    0  0.92535043699E+02 -0.14095722767E+03 -0.11757028008E+03  0.20555886043E+03  0.00000000000E+00 0. -1.
         -4    1    6    6    0  503  0.82590994422E+02 -0.55538804917E+02 -0.83936601004E+01  0.99881353320E+02  0.00000000000E+00 0.  1.
<mgrwt>
<rscale>  0 0.17341544E+04</rscale>
<asrwt>0</asrwt>
<pdfrwt beam="1">  1        1 0.16037139E+00 0.17341544E+04</pdfrwt>
<pdfrwt beam="2">  1       -2 0.11095885E+00 0.17341544E+04</pdfrwt>
<totfact> 0.75070336E+00</totfact>
</mgrwt>
</event>
<event>
12    5  0.5246737E-008  0.1789327E+04  0.7818608E-02  0.8711996E-01
          1   -1    0    0  501    0  0.00000000000E+00  0.00000000000E+00  0.20710956642E+04  0.20710956642E+04  0.00000000000E+00 0. -1.
         -2   -1    0    0    0  501 -0.00000000000E+00 -0.00000000000E+00 -0.38647308700E+03  0.38647308700E+03  0.00000000000E+00 0.  1.
        -24    2    1    2    0    0  0.66101123437E+03 -0.76526691842E+02  0.68108916097E+03  0.95822883913E+03  0.10736794872E+03 0.  0.
        254    2    1    2    0    0 -0.66101123437E+03  0.76526691842E+02  0.10035334162E+04  0.14993399121E+04  0.89339166548E+03 0.  0.
         23    2    4    4    0    0  0.11160297443E+03  0.11768535981E+02  0.60660479368E+03  0.62368400029E+03  0.91753115254E+02 0.  0.
         23    2    4    4    0    0 -0.77261420880E+03  0.64758155861E+02  0.39692862256E+03  0.87565591181E+03  0.89970051042E+02 0.  0.
          1    1    3    3  502    0  0.10809285272E+03 -0.12929369039E+02  0.60189864673E+02  0.12439474749E+03  0.00000000000E+00 0. -1.
         -2    1    3    3    0  502  0.55291838165E+03 -0.63597322803E+02  0.62089929630E+03  0.83383409164E+03  0.00000000000E+00 0.  1.
         13    1    5    5    0    0 -0.74499586785E+01 -0.16635663296E+02  0.39230240722E+02  0.43258050866E+02  0.00000000000E+00 0. -1.
        -13    1    5    5    0    0  0.11905293311E+03  0.28404199277E+02  0.56737455296E+03  0.58042594943E+03  0.00000000000E+00 0.  1.
          1    1    6    6  503    0 -0.58812558056E+03  0.10801735961E+02  0.30469359019E+03  0.66245494935E+03  0.00000000000E+00 0.  1.
         -1    1    6    6    0  503 -0.18448862824E+03  0.53956419900E+02  0.92235032374E+02  0.21320096246E+03  0.00000000000E+00 0. -1.
<mgrwt>
<rscale>  0 0.17893270E+04</rscale>
<asrwt>0</asrwt>
<pdfrwt beam="1">  1        1 0.31863010E+00 0.17893270E+04</pdfrwt>
<pdfrwt beam="2">  1       -2 0.59457399E-01 0.17893270E+04</pdfrwt>
<totfact> 0.58396756E+00</totfact>
</mgrwt>
</event>
<event>
12    5  0.5246737E-008  0.1536119E+04  0.7818608E-02  0.8860783E-01
          1   -1    0    0  501    0  0.00000000000E+00  0.00000000000E+00  0.15842254919E+04  0.15842254919E+04  0.00000000000E+00 0. -1.
         -2   -1    0    0    0  501 -0.00000000000E+00 -0.00000000000E+00 -0.37236847228E+03  0.37236847228E+03  0.00000000000E+00 0.  1.
        -24    2    1    2    0    0 -0.10471770003E+03  0.70975585600E+02  0.98314497424E+03  0.99561694199E+03  0.93143568520E+02 0.  0.
        254    2    1    2    0    0  0.10471770003E+03 -0.70975585600E+02  0.22871204538E+03  0.96097702218E+03  0.92475094323E+03 0.  0.
         23    2    4    4    0    0 -0.95459531808E+02 -0.35827804852E+03  0.40633838150E+03  0.55752152126E+03  0.90794736201E+02 0.  0.
         23    2    4    4    0    0  0.20017723184E+03  0.28730246292E+03 -0.17762633612E+03  0.40345550093E+03  0.92798688583E+02 0.  0.
          3    1    3    3  502    0 -0.76290565264E+02  0.35379249060E+01  0.65339977949E+03  0.65784803648E+03  0.00000000000E+00 0. -1.
         -4    1    3    3    0  502 -0.28427134768E+02  0.67437660694E+02  0.32974519475E+03  0.33776890551E+03  0.00000000000E+00 0.  1.
         13    1    5    5    0    0 -0.10004060733E+03 -0.20451630300E+03  0.23297549376E+03  0.32574932387E+03  0.00000000000E+00 0. -1.
        -13    1    5    5    0    0  0.45810755171E+01 -0.15376174552E+03  0.17336288774E+03  0.23177219739E+03  0.00000000000E+00 0.  1.
          4    1    6    6  503    0  0.25814227140E+02  0.48757615628E+02  0.61170114381E+01  0.55507632210E+02  0.00000000000E+00 0.  1.
         -4    1    6    6    0  503  0.17436300470E+03  0.23854484729E+03 -0.18374334755E+03  0.34794786872E+03  0.00000000000E+00 0. -1.
<mgrwt>
<rscale>  0 0.15361193E+04</rscale>
<asrwt>0</asrwt>
<pdfrwt beam="1">  1        1 0.24372700E+00 0.15361193E+04</pdfrwt>
<pdfrwt beam="2">  1       -2 0.57287458E-01 0.15361193E+04</pdfrwt>
<totfact> 0.13826653E+01</totfact>
</mgrwt>
</event>
<event>
12    5  0.5562816E-008  0.1518366E+04  0.7818608E-02  0.8872331E-01
         -2   -1    0    0    0  501 -0.00000000000E+00  0.00000000000E+00  0.27987076656E+03  0.27987076656E+03  0.00000000000E+00 0.  1.
          1   -1    0    0  501    0  0.00000000000E+00 -0.00000000000E+00 -0.20593748186E+04  0.20593748186E+04  0.00000000000E+00 0. -1.
        -24    2    1    2    0    0  0.33635467344E+03  0.24663702110E+03 -0.19134017362E+03  0.46571164697E+03  0.79448030566E+02 0.  0.
        254    2    1    2    0    0 -0.33635467344E+03 -0.24663702110E+03 -0.15881638785E+04  0.18735339382E+04  0.90216441203E+03 0.  0.
         23    2    4    4    0    0  0.20807907203E+03 -0.26336324154E+03 -0.10360502079E+04  0.10925827179E+04  0.87634839660E+02 0.  0.
         23    2    4    4    0    0 -0.54443374547E+03  0.16726220443E+02 -0.55211367061E+03  0.78095122030E+03  0.91473676808E+02 0.  0.
          1    1    3    3  502    0  0.12791103450E+02  0.33800901795E+02 -0.70923148785E+01  0.36829529184E+02  0.00000000000E+00 0. -1.
         -2    1    3    3    0  502  0.32356356999E+03  0.21283611931E+03 -0.18424785874E+03  0.42888211779E+03  0.00000000000E+00 0.  1.
         13    1    5    5    0    0  0.20833463565E+03 -0.25098985078E+03 -0.10261119693E+04  0.10767102670E+04  0.00000000000E+00 0. -1.
        -13    1    5    5    0    0 -0.25556361923E+00 -0.12373390768E+02 -0.99382385476E+01  0.15872450891E+02  0.00000000000E+00 0.  1.
          4    1    6    6  503    0 -0.45482591157E+03  0.44019399265E+02 -0.43404795876E+03  0.63023959559E+03  0.00000000000E+00 0. -1.
         -4    1    6    6    0  503 -0.89607833909E+02 -0.27293178821E+02 -0.11806571185E+03  0.15071162471E+03  0.00000000000E+00 0.  1.
<mgrwt>
<rscale>  0 0.15183660E+04</rscale>
<asrwt>0</asrwt>
<pdfrwt beam="1">  1        1 0.31682690E+00 0.15183660E+04</pdfrwt>
<pdfrwt beam="2">  1       -2 0.43057040E-01 0.15183660E+04</pdfrwt>
<totfact> 0.11786616E+01</totfact>
</mgrwt>
</event>
<event>
12    5  0.5246737E-008  0.1315804E+04  0.7818608E-02  0.9017125E-01
          1   -1    0    0  501    0  0.00000000000E+00  0.00000000000E+00  0.37911889633E+04  0.37911889633E+04  0.00000000000E+00 0. -1.
         -4   -1    0    0    0  501 -0.00000000000E+00 -0.00000000000E+00 -0.11416876164E+03  0.11416876164E+03  0.00000000000E+00 0.  1.
        -24    2    1    2    0    0  0.10346193688E+03  0.14241749931E+03  0.12048665758E+03  0.22885028644E+03  0.82875222211E+02 0.  0.
        254    2    1    2    0    0 -0.10346193688E+03 -0.14241749931E+03  0.35565335440E+04  0.36765074385E+04  0.91476170591E+03 0.  0.
         23    2    4    4    0    0 -0.35874188662E+03 -0.33370931089E+03  0.28921355088E+04  0.29347401444E+04  0.90522199700E+02 0.  0.
         23    2    4    4    0    0  0.25527994974E+03  0.19129181158E+03  0.66439803525E+03  0.74176729403E+03  0.83866318297E+02 0.  0.
          1    1    3    3  502    0  0.68596917057E+01 -0.27929338850E+01  0.32827145305E+02  0.33652300350E+02  0.00000000000E+00 0. -1.
         -2    1    3    3    0  502  0.96602245172E+02  0.14521043320E+03  0.87659512272E+02  0.19519798609E+03  0.00000000000E+00 0.  1.
         13    1    5    5    0    0 -0.82595622995E+02 -0.39851449534E+02  0.41640710286E+03  0.42638603434E+03  0.00000000000E+00 0. -1.
        -13    1    5    5    0    0 -0.27614626362E+03 -0.29385786135E+03  0.24757284059E+04  0.25083541101E+04  0.00000000000E+00 0.  1.
          4    1    6    6  503    0  0.13123782296E+03  0.14656673649E+03  0.42884728252E+03  0.47182111668E+03  0.00000000000E+00 0. -1.
         -4    1    6    6    0  503  0.12404212678E+03  0.44725075081E+02  0.23555075272E+03  0.26994617735E+03  0.00000000000E+00 0.  1.
<mgrwt>
<rscale>  0 0.13158045E+04</rscale>
<asrwt>0</asrwt>
<pdfrwt beam="1">  1        1 0.58325974E+00 0.13158045E+04</pdfrwt>
<pdfrwt beam="2">  1       -4 0.17564428E-01 0.13158045E+04</pdfrwt>
<totfact> 0.21492031E+00</totfact>
</mgrwt>
</event>
<event>
12    5  0.5246737E-008  0.1540627E+04  0.7818608E-02  0.8857877E-01
         -2   -1    0    0    0  501 -0.00000000000E+00  0.00000000000E+00  0.13082821910E+04  0.13082821910E+04  0.00000000000E+00 0.  1.
          1   -1    0    0  501    0  0.00000000000E+00 -0.00000000000E+00 -0.45355883500E+03  0.45355883500E+03  0.00000000000E+00 0. -1.
        -24    2    1    2    0    0  0.26340587329E+02 -0.44002241998E+03 -0.30084034787E+01  0.44719417994E+03  0.75233153959E+02 0.  0.
        254    2    1    2    0    0 -0.26340587329E+02  0.44002241998E+03  0.85773175943E+03  0.13146468460E+04  0.89346460590E+03 0.  0.
         23    2    4    4    0    0 -0.34356920947E+03  0.17532202714E+03  0.79278844051E+03  0.88639022159E+03  0.91632410342E+02 0.  0.
         23    2    4    4    0    0  0.31722862214E+03  0.26470039284E+03  0.64943318925E+02  0.42825662444E+03  0.92118429375E+02 0.  0.
          3    1    3    3  502    0  0.37375166219E+02 -0.32140708506E+03 -0.30274708289E+02  0.32498611561E+03  0.00000000000E+00 0. -1.
         -4    1    3    3    0  502 -0.11034578890E+02 -0.11861533492E+03  0.27266304810E+02  0.12220806433E+03  0.00000000000E+00 0.  1.
         13    1    5    5    0    0 -0.28860766824E+03  0.13974349123E+03  0.72178761051E+03  0.78981009375E+03  0.00000000000E+00 0. -1.
        -13    1    5    5    0    0 -0.54961541225E+02  0.35578535918E+02  0.71000829998E+02  0.96580127834E+02  0.00000000000E+00 0.  1.
          2    1    6    6  503    0  0.18523693971E+03  0.20152040014E+03  0.16916154719E+02  0.27424323473E+03  0.00000000000E+00 0. -1.
         -2    1    6    6    0  503  0.13199168242E+03  0.63179992697E+02  0.48027164206E+02  0.15401338970E+03  0.00000000000E+00 0.  1.
<mgrwt>
<rscale>  0 0.15406271E+04</rscale>
<asrwt>0</asrwt>
<pdfrwt beam="1">  1        1 0.69778283E-01 0.15406271E+04</pdfrwt>
<pdfrwt beam="2">  1       -2 0.20127418E+00 0.15406271E+04</pdfrwt>
<totfact> 0.55669678E+00</totfact>
</mgrwt>
</event>
<event>
12    5  0.5246737E-008  0.2070137E+04  0.7818608E-02  0.8574513E-01
         -2   -1    0    0    0  501 -0.00000000000E+00  0.00000000000E+00  0.27060776050E+04  0.27060776050E+04  0.00000000000E+00 0.  1.
          1   -1    0    0  501    0  0.00000000000E+00 -0.00000000000E+00 -0.39591145672E+03  0.39591145672E+03  0.00000000000E+00 0. -1.
        -24    2    1    2    0    0 -0.11189155450E+03 -0.21103498064E+02  0.21578926015E+04  0.21623381839E+04  0.78999140344E+02 0.  0.
        254    2    1    2    0    0  0.11189155450E+03  0.21103498064E+02  0.15227354675E+03  0.93965087783E+03  0.92021272625E+03 0.  0.
         23    2    4    4    0    0 -0.26250043173E+03 -0.31195267074E+03  0.69277499314E+02  0.42371593426E+03  0.92276083562E+02 0.  0.
         23    2    4    4    0    0  0.37439198623E+03  0.33305616880E+03  0.82996047440E+02  0.51593494356E+03  0.90580081538E+02 0.  0.
          1    1    3    3  502    0 -0.79020647943E+01  0.53105823553E+01  0.25044027492E+02  0.26792689786E+02  0.00000000000E+00 0. -1.
         -2    1    3    3    0  502 -0.10398948970E+03 -0.26414080419E+02  0.21328485741E+04  0.21355454941E+04  0.00000000000E+00 0.  1.
         13    1    5    5    0    0 -0.86592110192E+02 -0.10603245463E+03 -0.20440751376E+02  0.13841567577E+03  0.00000000000E+00 0. -1.
        -13    1    5    5    0    0 -0.17590832154E+03 -0.20592021611E+03  0.89718250690E+02  0.28530025849E+03  0.00000000000E+00 0.  1.
          4    1    6    6  503    0  0.22593787921E+03  0.16968627333E+03  0.85371057608E+02  0.29517719102E+03  0.00000000000E+00 0. -1.
         -4    1    6    6    0  503  0.14845410701E+03  0.16336989547E+03 -0.23750101682E+01  0.22075775255E+03  0.00000000000E+00 0.  1.
<mgrwt>
<rscale>  0 0.20701373E+04</rscale>
<asrwt>0</asrwt>
<pdfrwt beam="1">  1        1 0.60909457E-01 0.20701373E+04</pdfrwt>
<pdfrwt beam="2">  1       -2 0.41631962E+00 0.20701373E+04</pdfrwt>
<totfact> 0.28521141E-01</totfact>
</mgrwt>
</event>
<event>
12    5  0.5246737E-008  0.1641030E+04  0.7818608E-02  0.8795731E-01
          1   -1    0    0  501    0  0.00000000000E+00  0.00000000000E+00  0.48864339284E+03  0.48864339284E+03  0.00000000000E+00 0. -1.
         -2   -1    0    0    0  501 -0.00000000000E+00 -0.00000000000E+00 -0.13777831003E+04  0.13777831003E+04  0.00000000000E+00 0.  1.
        -24    2    1    2    0    0 -0.46464373139E+03  0.30351633450E+03 -0.17643331548E+03  0.58904600574E+03  0.88490223415E+02 0.  0.
        254    2    1    2    0    0  0.46464373139E+03 -0.30351633450E+03 -0.71270639200E+03  0.12773804874E+04  0.90318024004E+03 0.  0.
         23    2    4    4    0    0  0.59360138054E+01  0.10014363814E+03  0.15942285372E+03  0.20864276743E+03  0.89733904370E+02 0.  0.
         23    2    4    4    0    0  0.45870771758E+03 -0.40365997264E+03 -0.87212924572E+03  0.10687377200E+04  0.90756537972E+02 0.  0.
          1    1    3    3  502    0 -0.43140547158E+03  0.24908972815E+03 -0.15331980000E+03  0.52121332931E+03  0.00000000000E+00 0. -1.
         -2    1    3    3    0  502 -0.33238259809E+02  0.54426606347E+02 -0.23113515485E+02  0.67832676430E+02  0.00000000000E+00 0.  1.
         13    1    5    5    0    0 -0.25967570775E+02  0.93932998506E+02  0.14063119015E+03  0.17109896137E+03  0.00000000000E+00 0.  1.
        -13    1    5    5    0    0  0.31903584580E+02  0.62106396348E+01  0.18791663576E+02  0.37543806063E+02  0.00000000000E+00 0. -1.
          4    1    6    6  503    0  0.15952513229E+03 -0.16776190457E+03 -0.26407573549E+03  0.35118131859E+03  0.00000000000E+00 0. -1.
         -4    1    6    6    0  503  0.29918258529E+03 -0.23589806807E+03 -0.60805351023E+03  0.71755640139E+03  0.00000000000E+00 0.  1.
<mgrwt>
<rscale>  0 0.16410297E+04</rscale>
<asrwt>0</asrwt>
<pdfrwt beam="1">  1        1 0.75175909E-01 0.16410297E+04</pdfrwt>
<pdfrwt beam="2">  1       -2 0.21196662E+00 0.16410297E+04</pdfrwt>
<totfact> 0.42531654E+00</totfact>
</mgrwt>
</event>
<event>
12    5  0.5246737E-008  0.1962204E+04  0.7818608E-02  0.8624498E-01
         -2   -1    0    0    0  501 -0.00000000000E+00  0.00000000000E+00  0.84485441355E+03  0.84485441355E+03  0.00000000000E+00 0.  1.
          1   -1    0    0  501    0  0.00000000000E+00 -0.00000000000E+00 -0.11393223842E+04  0.11393223842E+04  0.00000000000E+00 0. -1.
        -24    2    1    2    0    0 -0.29511456452E+03 -0.34791520159E+03  0.51224348047E+03  0.69066649030E+03  0.80555718926E+02 0.  0.
        254    2    1    2    0    0  0.29511456452E+03  0.34791520159E+03 -0.80671145115E+03  0.12935103075E+04  0.90235688973E+03 0.  0.
         23    2    4    4    0    0  0.31679516923E+03  0.40372150645E+03 -0.44395297382E+02  0.52317014268E+03  0.91574132493E+02 0.  0.
         23    2    4    4    0    0 -0.21680604702E+02 -0.55806304859E+02 -0.76231615377E+03  0.77034016480E+03  0.93346981336E+02 0.  0.
          3    1    3    3  502    0 -0.53672820945E+02 -0.78089372577E+02  0.15727111819E+03  0.18361080152E+03  0.00000000000E+00 0. -1.
         -4    1    3    3    0  502 -0.24144174358E+03 -0.26982582901E+03  0.35497236228E+03  0.50705568878E+03  0.00000000000E+00 0.  1.
         13    1    5    5    0    0  0.40357093726E+02  0.32118230961E+02 -0.30273220624E+02  0.59805883164E+02  0.00000000000E+00 0.  1.
        -13    1    5    5    0    0  0.27643807550E+03  0.37160327549E+03 -0.14122076758E+02  0.46336425951E+03  0.00000000000E+00 0. -1.
          3    1    6    6  503    0  0.35623322673E+02 -0.86365694226E+01 -0.24510035841E+03  0.24782614298E+03  0.00000000000E+00 0. -1.
         -3    1    6    6    0  503 -0.57303927375E+02 -0.47169735437E+02 -0.51721579536E+03  0.52251402182E+03  0.00000000000E+00 0.  1.
<mgrwt>
<rscale>  0 0.19622044E+04</rscale>
<asrwt>0</asrwt>
<pdfrwt beam="1">  1        1 0.17528037E+00 0.19622044E+04</pdfrwt>
<pdfrwt beam="2">  1       -2 0.12997760E+00 0.19622044E+04</pdfrwt>
<totfact> 0.42014070E+00</totfact>
</mgrwt>
</event>
<event>
12    5  0.5246737E-008  0.1696643E+04  0.7818608E-02  0.8763281E-01
          1   -1    0    0  501    0  0.00000000000E+00  0.00000000000E+00  0.67499940935E+03  0.67499940935E+03  0.00000000000E+00 0. -1.
         -2   -1    0    0    0  501 -0.00000000000E+00 -0.00000000000E+00 -0.10661482395E+04  0.10661482395E+04  0.00000000000E+00 0.  1.
        -24    2    1    2    0    0 -0.58781851859E+03  0.47526298150E+02  0.14444124166E+02  0.59526729756E+03  0.79656531528E+02 0.  0.
        254    2    1    2    0    0  0.58781851859E+03 -0.47526298150E+02 -0.40559295429E+03  0.11458803513E+04  0.89484455355E+03 0.  0.
         23    2    4    4    0    0  0.50959977557E+03 -0.40019101087E+03 -0.41144051711E+03  0.77291860496E+03  0.90967545476E+02 0.  0.
         23    2    4    4    0    0  0.78218743015E+02  0.35266471272E+03  0.58475628227E+01  0.37296174629E+03  0.92605069240E+02 0.  0.
          1    1    3    3  502    0 -0.27487393885E+03  0.49205588378E+02 -0.22483334209E+02  0.28014705514E+03  0.00000000000E+00 0. -1.
         -2    1    3    3    0  502 -0.31294457974E+03 -0.16792902279E+01  0.36927458375E+02  0.31512024242E+03  0.00000000000E+00 0.  1.
         13    1    5    5    0    0  0.13510970858E+03 -0.85004978826E+02 -0.60810251287E+02  0.17081676276E+03  0.00000000000E+00 0.  1.
        -13    1    5    5    0    0  0.37449006699E+03 -0.31518603205E+03 -0.35063026583E+03  0.60210184220E+03  0.00000000000E+00 0. -1.
          2    1    6    6  503    0  0.67888885338E+02  0.23727164013E+03 -0.36770542221E+02  0.24951714317E+03  0.00000000000E+00 0. -1.
         -2    1    6    6    0  503  0.10329857677E+02  0.11539307259E+03  0.42618105043E+02  0.12344460312E+03  0.00000000000E+00 0.  1.
<mgrwt>
<rscale>  0 0.16966431E+04</rscale>
<asrwt>0</asrwt>
<pdfrwt beam="1">  1        1 0.10384606E+00 0.16966431E+04</pdfrwt>
<pdfrwt beam="2">  1       -2 0.16402281E+00 0.16966431E+04</pdfrwt>
<totfact> 0.56421220E+00</totfact>
</mgrwt>
</event>
<event>
12    5  0.5246737E-008  0.3755985E+04  0.7818608E-02  0.8055667E-01
         -2   -1    0    0    0  501 -0.00000000000E+00  0.00000000000E+00  0.10589883169E+04  0.10589883169E+04  0.00000000000E+00 0.  1.
          1   -1    0    0  501    0  0.00000000000E+00 -0.00000000000E+00 -0.33304010909E+04  0.33304010909E+04  0.00000000000E+00 0. -1.
        -24    2    1    2    0    0  0.15124066513E+03 -0.58260447944E+03 -0.30086134558E+04  0.30692596721E+04  0.79361766816E+02 0.  0.
        254    2    1    2    0    0 -0.15124066513E+03  0.58260447944E+03  0.73720068191E+03  0.13201297357E+04  0.91486389993E+03 0.  0.
         23    2    4    4    0    0 -0.27349002295E+03  0.45636585698E+03  0.90955029648E+03  0.10576129141E+04  0.90535883892E+02 0.  0.
         23    2    4    4    0    0  0.12224935781E+03  0.12623862246E+03 -0.17234961457E+03  0.26251682155E+03  0.91266624070E+02 0.  0.
          1    1    3    3  502    0  0.12262311880E+03 -0.35774160367E+03 -0.17497756430E+04  0.17901760486E+04  0.00000000000E+00 0. -1.
         -2    1    3    3    0  502  0.28617546339E+02 -0.22486287577E+03 -0.12588378129E+04  0.12790836235E+04  0.00000000000E+00 0.  1.
         13    1    5    5    0    0 -0.18285386409E+03  0.22863344894E+03  0.45155583447E+03  0.53815561061E+03  0.00000000000E+00 0.  1.
        -13    1    5    5    0    0 -0.90636158852E+02  0.22773240804E+03  0.45799446201E+03  0.51945730353E+03  0.00000000000E+00 0. -1.
          1    1    6    6  503    0 -0.79941754864E+01  0.26264798965E+02 -0.52477343902E+02  0.59225147779E+02  0.00000000000E+00 0. -1.
         -1    1    6    6    0  503  0.13024353330E+03  0.99973823494E+02 -0.11987227066E+03  0.20329167377E+03  0.00000000000E+00 0.  1.
<mgrwt>
<rscale>  0 0.37559850E+04</rscale>
<asrwt>0</asrwt>
<pdfrwt beam="1">  1        1 0.51236938E+00 0.37559850E+04</pdfrwt>
<pdfrwt beam="2">  1       -2 0.16292128E+00 0.37559850E+04</pdfrwt>
<totfact> 0.57023491E-02</totfact>
</mgrwt>
</event>
<event>
12    5  0.5246737E-008  0.1473381E+04  0.7818608E-02  0.8902349E-01
          1   -1    0    0  501    0  0.00000000000E+00  0.00000000000E+00  0.80532854596E+03  0.80532854596E+03  0.00000000000E+00 0. -1.
         -2   -1    0    0    0  501 -0.00000000000E+00 -0.00000000000E+00 -0.67390282810E+03  0.67390282810E+03  0.00000000000E+00 0.  1.
        -24    2    1    2    0    0 -0.44648414111E+03 -0.13924573752E+03  0.12217426848E+03  0.48997763732E+03  0.80087886194E+02 0.  0.
        254    2    1    2    0    0  0.44648414111E+03  0.13924573752E+03  0.92514493888E+01  0.98925373674E+03  0.87166501746E+03 0.  0.
         23    2    4    4    0    0  0.95460211579E+02 -0.35395317861E+03 -0.89874883178E+01  0.37687892551E+03  0.86956569096E+02 0.  0.
         23    2    4    4    0    0  0.35102392953E+03  0.49319891613E+03  0.18238937707E+02  0.61237481123E+03  0.90594042878E+02 0.  0.
          3    1    3    3  502    0 -0.52175404840E+01 -0.24673703345E+01  0.14514650452E+02  0.15620042344E+02  0.00000000000E+00 0. -1.
         -4    1    3    3    0  502 -0.44126660062E+03 -0.13677836719E+03  0.10765961803E+03  0.47435759497E+03  0.00000000000E+00 0.  1.
         13    1    5    5    0    0  0.41976436985E+02 -0.19110588054E+03  0.37630245413E+02  0.19924736939E+03  0.00000000000E+00 0. -1.
        -13    1    5    5    0    0  0.53483774594E+02 -0.16284729807E+03 -0.46617733731E+02  0.17763155612E+03  0.00000000000E+00 0.  1.
          3    1    6    6  503    0  0.18392925405E+03  0.30178686583E+03 -0.26377022411E+02  0.35440235636E+03  0.00000000000E+00 0. -1.
         -3    1    6    6    0  503  0.16709467548E+03  0.19141205031E+03  0.44615960118E+02  0.25797245487E+03  0.00000000000E+00 0.  1.
<mgrwt>
<rscale>  0 0.14733814E+04</rscale>
<asrwt>0</asrwt>
<pdfrwt beam="1">  1        1 0.12389670E+00 0.14733814E+04</pdfrwt>
<pdfrwt beam="2">  1       -2 0.10367736E+00 0.14733814E+04</pdfrwt>
<totfact> 0.14077462E+01</totfact>
</mgrwt>
</event>
<event>
12    5  0.5246737E-008  0.1191169E+04  0.7818608E-02  0.9120621E-01
         -2   -1    0    0    0  501 -0.00000000000E+00  0.00000000000E+00  0.27899755558E+03  0.27899755558E+03  0.00000000000E+00 0.  1.
          1   -1    0    0  501    0  0.00000000000E+00 -0.00000000000E+00 -0.12714132093E+04  0.12714132093E+04  0.00000000000E+00 0. -1.
        -24    2    1    2    0    0  0.14364111921E+03  0.72072818757E+02  0.28045168410E+02  0.18107265366E+03  0.78571700385E+02 0.  0.
        254    2    1    2    0    0 -0.14364111921E+03 -0.72072818757E+02 -0.10204608221E+04  0.13693381112E+04  0.89884331838E+03 0.  0.
         23    2    4    4    0    0 -0.46470304059E+03 -0.15671909901E+03 -0.33106850222E+03  0.59907172152E+03  0.93652455589E+02 0.  0.
         23    2    4    4    0    0  0.32106192138E+03  0.84646280249E+02 -0.68939231988E+03  0.77026638967E+03  0.88333403793E+02 0.  0.
          1    1    3    3  502    0  0.46421967155E+02 -0.87564740591E+01  0.27455868346E+02  0.54639725285E+02  0.00000000000E+00 0. -1.
         -2    1    3    3    0  502  0.97219152056E+02  0.80829292816E+02  0.58930006330E+00  0.12643292838E+03  0.00000000000E+00 0.  1.
         13    1    5    5    0    0 -0.17686357879E+03 -0.54580757894E+02 -0.72115904175E+02  0.19864664173E+03  0.00000000000E+00 0.  1.
        -13    1    5    5    0    0 -0.28783946181E+03 -0.10213834111E+03 -0.25895259804E+03  0.40042507980E+03  0.00000000000E+00 0. -1.
          2    1    6    6  503    0  0.29736051718E+03  0.99338722635E+02 -0.60535028317E+03  0.68171872816E+03  0.00000000000E+00 0. -1.
         -2    1    6    6    0  503  0.23701404203E+02 -0.14692442386E+02 -0.84042036713E+02  0.88547661512E+02  0.00000000000E+00 0.  1.
<mgrwt>
<rscale>  0 0.11911695E+04</rscale>
<asrwt>0</asrwt>
<pdfrwt beam="1">  1        1 0.19560203E+00 0.11911695E+04</pdfrwt>
<pdfrwt beam="2">  1       -2 0.42922701E-01 0.11911695E+04</pdfrwt>
<totfact> 0.42382032E+01</totfact>
</mgrwt>
</event>
<event>
12    5  0.5246737E-008  0.1984855E+04  0.7818608E-02  0.8613734E-01
         -2   -1    0    0    0  501 -0.00000000000E+00  0.00000000000E+00  0.78399841921E+03  0.78399841921E+03  0.00000000000E+00 0.  1.
          1   -1    0    0  501    0  0.00000000000E+00 -0.00000000000E+00 -0.12562686885E+04  0.12562686885E+04  0.00000000000E+00 0. -1.
        -24    2    1    2    0    0 -0.69298144941E+03 -0.39464025387E+03 -0.20245017684E+03  0.82635580349E+03  0.76900069335E+02 0.  0.
        254    2    1    2    0    0  0.69298144941E+03  0.39464025387E+03 -0.26982009246E+03  0.12139113042E+04  0.87453619309E+03 0.  0.
         23    2    4    4    0    0  0.51566096454E+03  0.14576939450E+03  0.25564077776E+03  0.59934706303E+03  0.81913051391E+02 0.  0.
         23    2    4    4    0    0  0.17732048487E+03  0.24887085937E+03 -0.52546087022E+03  0.61456424119E+03  0.90558386786E+02 0.  0.
          3    1    3    3  502    0 -0.73306042484E+00 -0.80614113794E+01 -0.22470610527E+00  0.80977912944E+01  0.00000000000E+00 0. -1.
         -4    1    3    3    0  502 -0.69224838899E+03 -0.38657884249E+03 -0.20222547074E+03  0.81825801220E+03  0.00000000000E+00 0.  1.
         13    1    5    5    0    0  0.22964604696E+03  0.10734876289E+03  0.11761625632E+03  0.27945419576E+03  0.00000000000E+00 0.  1.
        -13    1    5    5    0    0  0.28601491758E+03  0.38420631610E+02  0.13802452144E+03  0.31989286727E+03  0.00000000000E+00 0. -1.
          2    1    6    6  503    0  0.82943066307E+02  0.74047564023E+02 -0.12344064934E+03  0.16613304276E+03  0.00000000000E+00 0. -1.
         -2    1    6    6    0  503  0.94377418565E+02  0.17482329535E+03 -0.40202022088E+03  0.44843119843E+03  0.00000000000E+00 0.  1.
<mgrwt>
<rscale>  0 0.19848553E+04</rscale>
<asrwt>0</asrwt>
<pdfrwt beam="1">  1        1 0.19327210E+00 0.19848553E+04</pdfrwt>
<pdfrwt beam="2">  1       -2 0.12061514E+00 0.19848553E+04</pdfrwt>
<totfact> 0.41549002E+00</totfact>
</mgrwt>
</event>
<event>
12    5  0.5246737E-008  0.1157926E+04  0.7818608E-02  0.9150503E-01
          1   -1    0    0  501    0  0.00000000000E+00  0.00000000000E+00  0.25928648424E+03  0.25928648424E+03  0.00000000000E+00 0. -1.
         -2   -1    0    0    0  501 -0.00000000000E+00 -0.00000000000E+00 -0.12927710077E+04  0.12927710077E+04  0.00000000000E+00 0.  1.
        -24    2    1    2    0    0 -0.20531285615E+03 -0.18884166358E+02 -0.16954697352E+03  0.27966958360E+03  0.83420136185E+02 0.  0.
        254    2    1    2    0    0  0.20531285615E+03  0.18884166358E+02 -0.86393754992E+03  0.12723879083E+04  0.91108337623E+03 0.  0.
         23    2    4    4    0    0  0.43938521303E+03  0.25429505458E+03 -0.74969156785E+03  0.90940723725E+03  0.85198216278E+02 0.  0.
         23    2    4    4    0    0 -0.23407235688E+03 -0.23541088822E+03 -0.11424598207E+03  0.36298067107E+03  0.92166526462E+02 0.  0.
          3    1    3    3  502    0 -0.10663720792E+03 -0.27979160069E+02 -0.41595225492E+02  0.11783246707E+03  0.00000000000E+00 0. -1.
         -4    1    3    3    0  502 -0.98675648226E+02  0.90949937107E+01 -0.12795174803E+03  0.16183711653E+03  0.00000000000E+00 0.  1.
         13    1    5    5    0    0  0.40800806084E+03  0.23135608144E+03 -0.64327685621E+03  0.79611640347E+03  0.00000000000E+00 0. -1.
        -13    1    5    5    0    0  0.31377152190E+02  0.22938973139E+02 -0.10641471163E+03  0.11329083379E+03  0.00000000000E+00 0.  1.
          1    1    6    6  503    0 -0.16356090640E+03 -0.10075243886E+03 -0.54779670812E+02  0.19975994687E+03  0.00000000000E+00 0. -1.
         -1    1    6    6    0  503 -0.70511450482E+02 -0.13465844936E+03 -0.59466311259E+02  0.16322072420E+03  0.00000000000E+00 0.  1.
<mgrwt>
<rscale>  0 0.11579258E+04</rscale>
<asrwt>0</asrwt>
<pdfrwt beam="1">  1        1 0.39890227E-01 0.11579258E+04</pdfrwt>
<pdfrwt beam="2">  1       -2 0.19888785E+00 0.11579258E+04</pdfrwt>
<totfact> 0.12413470E+01</totfact>
</mgrwt>
</event>
<event>
12    5  0.5246737E-008  0.1562549E+04  0.7818608E-02  0.8843892E-01
         -2   -1    0    0    0  501 -0.00000000000E+00  0.00000000000E+00  0.77006315071E+03  0.77006315071E+03  0.00000000000E+00 0.  1.
          1   -1    0    0  501    0  0.00000000000E+00 -0.00000000000E+00 -0.79264946426E+03  0.79264946426E+03  0.00000000000E+00 0. -1.
        -24    2    1    2    0    0 -0.11157585713E+03 -0.50170689210E+03 -0.59858931652E+02  0.52365192437E+03  0.80431764361E+02 0.  0.
        254    2    1    2    0    0  0.11157585713E+03  0.50170689210E+03  0.37272618108E+02  0.10390606906E+04  0.90227428935E+03 0.  0.
         23    2    4    4    0    0  0.11285960229E+03  0.46713429685E+03  0.41944566731E+03  0.64449376468E+03  0.92118422512E+02 0.  0.
         23    2    4    4    0    0 -0.12837451631E+01  0.34572595257E+02 -0.38217304920E+03  0.39456692592E+03  0.91814525802E+02 0.  0.
          3    1    3    3  502    0 -0.13326957081E+02 -0.77607848520E+02  0.19558462332E+02  0.81136424532E+02  0.00000000000E+00 0. -1.
         -4    1    3    3    0  502 -0.98248900049E+02 -0.42409904358E+03 -0.79417393984E+02  0.44251549984E+03  0.00000000000E+00 0.  1.
         13    1    5    5    0    0  0.72898292230E+02  0.12379472578E+03  0.12222360098E+03  0.18862105868E+03  0.00000000000E+00 0.  1.
        -13    1    5    5    0    0  0.39961310063E+02  0.34333957107E+03  0.29722206633E+03  0.45587270600E+03  0.00000000000E+00 0. -1.
          2    1    6    6  503    0  0.23189213064E+02 -0.93566848243E+01 -0.31077881990E+02  0.39888869405E+02  0.00000000000E+00 0.  1.
         -2    1    6    6    0  503 -0.24472958227E+02  0.43929280081E+02 -0.35109516721E+03  0.35467805652E+03  0.00000000000E+00 0. -1.
<mgrwt>
<rscale>  0 0.15625494E+04</rscale>
<asrwt>0</asrwt>
<pdfrwt beam="1">  1        1 0.12194607E+00 0.15625494E+04</pdfrwt>
<pdfrwt beam="2">  1       -2 0.11847126E+00 0.15625494E+04</pdfrwt>
<totfact> 0.10369509E+01</totfact>
</mgrwt>
</event>
<event>
12    5  0.5862845E-008  0.1958273E+04  0.7818608E-02  0.8626382E-01
         -2   -1    0    0    0  501 -0.00000000000E+00  0.00000000000E+00  0.65011196296E+03  0.65011196296E+03  0.00000000000E+00 0.  1.
          1   -1    0    0  501    0  0.00000000000E+00 -0.00000000000E+00 -0.14746823345E+04  0.14746823345E+04  0.00000000000E+00 0. -1.
        -24    2    1    2    0    0 -0.32156549669E+03  0.36164588454E+03 -0.97231945911E+03  0.10887352935E+04  0.75810910881E+02 0.  0.
        254    2    1    2    0    0  0.32156549669E+03 -0.36164588454E+03  0.14774908754E+03  0.10360590040E+04  0.90409974699E+03 0.  0.
         23    2    4    4    0    0  0.40006978742E+03 -0.44471355567E+03  0.41357508654E+03  0.73291743243E+03  0.91091323052E+02 0.  0.
         23    2    4    4    0    0 -0.78504290737E+02  0.83067671133E+02 -0.26582599901E+03  0.30314157160E+03  0.90378034027E+02 0.  0.
          3    1    3    3  502    0 -0.32080273527E+03  0.33862510907E+03 -0.91724464248E+03  0.10290379457E+04  0.00000000000E+00 0. -1.
         -4    1    3    3    0  502 -0.76276141910E+00  0.23020775474E+02 -0.55074816633E+02  0.59697347811E+02  0.00000000000E+00 0.  1.
         13    1    5    5    0    0  0.16871070246E+03 -0.21702183488E+03  0.14043024251E+03  0.30867852363E+03  0.00000000000E+00 0. -1.
        -13    1    5    5    0    0  0.23135908497E+03 -0.22769172079E+03  0.27314484404E+03  0.42423890880E+03  0.00000000000E+00 0.  1.
          1    1    6    6  503    0 -0.24443984723E+02  0.76179559057E+02 -0.96997743773E+02  0.12573542025E+03  0.00000000000E+00 0. -1.
         -1    1    6    6    0  503 -0.54060306015E+02  0.68881120758E+01 -0.16882825523E+03  0.17740615136E+03  0.00000000000E+00 0.  1.
<mgrwt>
<rscale>  0 0.19582733E+04</rscale>
<asrwt>0</asrwt>
<pdfrwt beam="1">  1        1 0.22687420E+00 0.19582733E+04</pdfrwt>
<pdfrwt beam="2">  1       -2 0.10001723E+00 0.19582733E+04</pdfrwt>
<totfact> 0.45958371E+00</totfact>
</mgrwt>
</event>
<event>
12    5  0.5246737E-008  0.1595667E+04  0.7818608E-02  0.8823214E-01
          1   -1    0    0  501    0  0.00000000000E+00  0.00000000000E+00  0.23494093872E+04  0.23494093872E+04  0.00000000000E+00 0. -1.
         -2   -1    0    0    0  501 -0.00000000000E+00 -0.00000000000E+00 -0.27093547154E+03  0.27093547154E+03  0.00000000000E+00 0.  1.
        -24    2    1    2    0    0  0.59344050498E+01 -0.31845248949E+03 -0.56874735014E+01  0.32897663796E+03  0.82134497872E+02 0.  0.
        254    2    1    2    0    0 -0.59344050498E+01  0.31845248949E+03  0.20841613891E+04  0.22913682207E+04  0.89732514834E+03 0.  0.
         23    2    4    4    0    0  0.17868444335E+02 -0.16342433183E+03  0.43420346083E+02  0.19230034729E+03  0.89818169518E+02 0.  0.
         23    2    4    4    0    0 -0.23802849385E+02  0.48187682132E+03  0.20407410430E+04  0.20990678734E+04  0.93220630822E+02 0.  0.
          3    1    3    3  502    0 -0.30036842967E+02 -0.18451166812E+03  0.19733227209E+02  0.18797916870E+03  0.00000000000E+00 0. -1.
         -4    1    3    3    0  502  0.35971248016E+02 -0.13394082137E+03 -0.25420700710E+02  0.14099746926E+03  0.00000000000E+00 0.  1.
         13    1    5    5    0    0  0.26840688694E+02 -0.14856185502E+03  0.65202812396E+02  0.16444590017E+03  0.00000000000E+00 0. -1.
        -13    1    5    5    0    0 -0.89722443589E+01 -0.14862476808E+02 -0.21782466313E+02  0.27854447120E+02  0.00000000000E+00 0.  1.
          3    1    6    6  503    0 -0.22347291451E+02  0.48287301041E+03  0.20408351355E+04  0.20973015510E+04  0.00000000000E+00 0. -1.
         -3    1    6    6    0  503 -0.14555579338E+01 -0.99618908261E+00 -0.94092441773E-01  0.17663224435E+01  0.00000000000E+00 0.  1.
<mgrwt>
<rscale>  0 0.15956671E+04</rscale>
<asrwt>0</asrwt>
<pdfrwt beam="1">  1        1 0.36144758E+00 0.15956671E+04</pdfrwt>
<pdfrwt beam="2">  1       -2 0.41682382E-01 0.15956671E+04</pdfrwt>
<totfact> 0.79237022E+00</totfact>
</mgrwt>
</event>
<event>
12    5  0.5246737E-008  0.1792870E+04  0.7818608E-02  0.8710101E-01
          1   -1    0    0  501    0  0.00000000000E+00  0.00000000000E+00  0.55089674289E+03  0.55089674289E+03  0.00000000000E+00 0. -1.
         -2   -1    0    0    0  501 -0.00000000000E+00 -0.00000000000E+00 -0.14587040771E+04  0.14587040771E+04  0.00000000000E+00 0.  1.
        -24    2    1    2    0    0 -0.35777732625E+03  0.88692593563E+02  0.27461871975E+03  0.46647325387E+03  0.79440946674E+02 0.  0.
        254    2    1    2    0    0  0.35777732625E+03 -0.88692593563E+02 -0.11824260539E+04  0.15431275661E+04  0.92045658284E+03 0.  0.
         23    2    4    4    0    0 -0.12066041077E+03 -0.37793085463E+03 -0.35421232575E+03  0.53974964367E+03  0.92046947391E+02 0.  0.
         23    2    4    4    0    0  0.47843773702E+03  0.28923826107E+03 -0.82821372819E+03  0.10033779224E+04  0.90927640377E+02 0.  0.
          3    1    3    3  502    0 -0.20769686376E+03  0.78548105249E+02  0.12744139860E+03  0.25602558882E+03  0.00000000000E+00 0. -1.
         -4    1    3    3    0  502 -0.15008046249E+03  0.10144488313E+02  0.14717732115E+03  0.21044766505E+03  0.00000000000E+00 0.  1.
         13    1    5    5    0    0 -0.67020630303E+02 -0.80947522115E+02 -0.81403858854E+02  0.13293176618E+03  0.00000000000E+00 0. -1.
        -13    1    5    5    0    0 -0.53639780467E+02 -0.29698333251E+03 -0.27280846689E+03  0.40681787749E+03  0.00000000000E+00 0.  1.
          1    1    6    6  503    0  0.40368008462E+02  0.58958605525E+02 -0.10923334467E+03  0.13052822247E+03  0.00000000000E+00 0. -1.
         -1    1    6    6    0  503  0.43806972856E+03  0.23027965554E+03 -0.71898038351E+03  0.87284969996E+03  0.00000000000E+00 0.  1.
<mgrwt>
<rscale>  0 0.17928696E+04</rscale>
<asrwt>0</asrwt>
<pdfrwt beam="1">  1        1 0.84753345E-01 0.17928696E+04</pdfrwt>
<pdfrwt beam="2">  1       -2 0.22441601E+00 0.17928696E+04</pdfrwt>
<totfact> 0.29625350E+00</totfact>
</mgrwt>
</event>
<event>
12    5  0.5246737E-008  0.1285383E+04  0.7818608E-02  0.9041237E-01
         -2   -1    0    0    0  501 -0.00000000000E+00  0.00000000000E+00  0.10809111401E+04  0.10809111401E+04  0.00000000000E+00 0.  1.
          1   -1    0    0  501    0  0.00000000000E+00 -0.00000000000E+00 -0.38213368194E+03  0.38213368194E+03  0.00000000000E+00 0. -1.
        -24    2    1    2    0    0  0.14059061248E+03  0.24630968758E+03  0.22978452822E+02  0.29436602813E+03  0.75426565028E+02 0.  0.
        254    2    1    2    0    0 -0.14059061248E+03 -0.24630968758E+03  0.67579900532E+03  0.11686787939E+04  0.91031403659E+03 0.  0.
         23    2    4    4    0    0 -0.31786313067E+03 -0.16477924948E+03 -0.83729052966E+02  0.37925509971E+03  0.92923115787E+02 0.  0.
         23    2    4    4    0    0  0.17727251819E+03 -0.81530438098E+02  0.75952805829E+03  0.78942369419E+03  0.90742159924E+02 0.  0.
          1    1    3    3  502    0  0.12912416752E+03  0.15686541062E+03  0.12072609845E+02  0.20353268926E+03  0.00000000000E+00 0. -1.
         -2    1    3    3    0  502  0.11466444956E+02  0.89444276953E+02  0.10905842976E+02  0.90833338872E+02  0.00000000000E+00 0.  1.
         13    1    5    5    0    0 -0.16777354016E+03 -0.41260085942E+02 -0.62451782352E+02  0.18371331086E+03  0.00000000000E+00 0. -1.
        -13    1    5    5    0    0 -0.15008959051E+03 -0.12351916354E+03 -0.21277270614E+02  0.19554178885E+03  0.00000000000E+00 0.  1.
          4    1    6    6  503    0 -0.30937426639E+01 -0.92348369118E+01  0.64533754360E+01  0.11683300517E+02  0.00000000000E+00 0. -1.
         -4    1    6    6    0  503  0.18036626085E+03 -0.72295601186E+02  0.75307468285E+03  0.77774039368E+03  0.00000000000E+00 0.  1.
<mgrwt>
<rscale>  0 0.12853833E+04</rscale>
<asrwt>0</asrwt>
<pdfrwt beam="1">  1        1 0.58789798E-01 0.12853833E+04</pdfrwt>
<pdfrwt beam="2">  1       -2 0.16629402E+00 0.12853833E+04</pdfrwt>
<totfact> 0.12399579E+01</totfact>
</mgrwt>
</event>
<event>
12    5  0.5246737E-008  0.1725532E+04  0.7818608E-02  0.8746935E-01
         -2   -1    0    0    0  501 -0.00000000000E+00  0.00000000000E+00  0.26171166587E+03  0.26171166587E+03  0.00000000000E+00 0.  1.
          1   -1    0    0  501    0  0.00000000000E+00 -0.00000000000E+00 -0.28442179943E+04  0.28442179943E+04  0.00000000000E+00 0. -1.
        -24    2    1    2    0    0 -0.56781849372E+03  0.89292112089E+02 -0.48507206910E+03  0.75634011848E+03  0.79778064083E+02 0.  0.
        254    2    1    2    0    0  0.56781849372E+03 -0.89292112089E+02 -0.20974342593E+04  0.23495895416E+04  0.88935348376E+03 0.  0.
         23    2    4    4    0    0  0.20377754688E+03  0.38726644092E+03 -0.10001151992E+04  0.10952973015E+04  0.89135751166E+02 0.  0.
         23    2    4    4    0    0  0.36404094685E+03 -0.47655855301E+03 -0.10973190601E+04  0.12542922402E+04  0.97498916035E+02 0.  0.
          3    1    3    3  502    0 -0.88885087504E+02  0.43170986320E+02 -0.73057122633E+02  0.12288871392E+03  0.00000000000E+00 0. -1.
         -4    1    3    3    0  502 -0.47893340622E+03  0.46121125769E+02 -0.41201494646E+03  0.63345140456E+03  0.00000000000E+00 0.  1.
         13    1    5    5    0    0  0.42431018051E+02  0.35072916873E+02 -0.81625901442E+02  0.98454500035E+02  0.00000000000E+00 0.  1.
        -13    1    5    5    0    0  0.16134652882E+03  0.35219352404E+03 -0.91848929773E+03  0.99684280145E+03  0.00000000000E+00 0. -1.
          1    1    6    6  503    0  0.33780464570E+03 -0.46079769213E+03 -0.99371309470E+03  0.11462600954E+04  0.00000000000E+00 0. -1.
         -1    1    6    6    0  503  0.26236301147E+02 -0.15760860876E+02 -0.10360596541E+03  0.10803214477E+03  0.00000000000E+00 0.  1.
<mgrwt>
<rscale>  0 0.17255318E+04</rscale>
<asrwt>0</asrwt>
<pdfrwt beam="1">  1        1 0.43757199E+00 0.17255318E+04</pdfrwt>
<pdfrwt beam="2">  1       -2 0.40263334E-01 0.17255318E+04</pdfrwt>
<totfact> 0.37840183E+00</totfact>
</mgrwt>
</event>
<event>
12    5  0.5246737E-008  0.2545100E+04  0.7818608E-02  0.8387092E-01
          1   -1    0    0  501    0  0.00000000000E+00  0.00000000000E+00  0.10942545891E+04  0.10942545891E+04  0.00000000000E+00 0. -1.
         -2   -1    0    0    0  501 -0.00000000000E+00 -0.00000000000E+00 -0.14798968522E+04  0.14798968522E+04  0.00000000000E+00 0.  1.
        -24    2    1    2    0    0  0.71100383427E+03 -0.51614485598E+03  0.45670913334E+03  0.99306370711E+03  0.75235159306E+02 0.  0.
        254    2    1    2    0    0 -0.71100383427E+03  0.51614485598E+03 -0.84235139639E+03  0.15810877342E+04  0.10091335807E+04 0.  0.
         23    2    4    4    0    0 -0.48909582939E+03  0.12921929118E+03  0.10989750866E+03  0.52557233898E+03  0.90754975366E+02 0.  0.
         23    2    4    4    0    0 -0.22190800488E+03  0.38692556481E+03 -0.95224890505E+03  0.10555153952E+04  0.91543525755E+02 0.  0.
          1    1    3    3  502    0  0.57127209700E+03 -0.44849427550E+03  0.36675614872E+03  0.81363935290E+03  0.00000000000E+00 0. -1.
         -2    1    3    3    0  502  0.13973173727E+03 -0.67650580482E+02  0.89952984623E+02  0.17942435421E+03  0.00000000000E+00 0.  1.
         13    1    5    5    0    0 -0.13884356433E+03  0.23370457360E+02  0.70790832303E+02  0.15759141973E+03  0.00000000000E+00 0. -1.
        -13    1    5    5    0    0 -0.35025226506E+03  0.10584883382E+03  0.39106676354E+02  0.36798091926E+03  0.00000000000E+00 0.  1.
          2    1    6    6  503    0 -0.16091063001E+03  0.19354540501E+03 -0.49477105260E+03  0.55511300574E+03  0.00000000000E+00 0. -1.
         -2    1    6    6    0  503 -0.60997374870E+02  0.19338015979E+03 -0.45747785245E+03  0.50040238951E+03  0.00000000000E+00 0.  1.
<mgrwt>
<rscale>  0 0.25451003E+04</rscale>
<asrwt>0</asrwt>
<pdfrwt beam="1">  1        1 0.16834686E+00 0.25451003E+04</pdfrwt>
<pdfrwt beam="2">  1       -2 0.22767644E+00 0.25451003E+04</pdfrwt>
<totfact> 0.87893326E-01</totfact>
</mgrwt>
</event>
<event>
12    5  0.5246737E-008  0.1947632E+04  0.7818608E-02  0.8631503E-01
         -2   -1    0    0    0  501 -0.00000000000E+00  0.00000000000E+00  0.57164778125E+03  0.57164778125E+03  0.00000000000E+00 0.  1.
          1   -1    0    0  501    0  0.00000000000E+00 -0.00000000000E+00 -0.16589199948E+04  0.16589199948E+04  0.00000000000E+00 0. -1.
        -24    2    1    2    0    0  0.74983807817E+03 -0.26056595404E+02 -0.24061764805E+03  0.79208300616E+03  0.81009545448E+02 0.  0.
        254    2    1    2    0    0 -0.74983807817E+03  0.26056595404E+02 -0.84665456551E+03  0.14384847699E+04  0.88852596488E+03 0.  0.
         23    2    4    4    0    0 -0.38360939339E+02  0.11408256614E+02 -0.69859596745E+03  0.70573400365E+03  0.91773897099E+02 0.  0.
         23    2    4    4    0    0 -0.71147713883E+03  0.14648338790E+02 -0.14805859806E+03  0.73275076623E+03  0.92671700349E+02 0.  0.
          1    1    3    3  502    0  0.34613395226E+02 -0.74375254300E+01  0.47292908438E+01  0.35717924149E+02  0.00000000000E+00 0. -1.
         -2    1    3    3    0  502  0.71522468295E+03 -0.18619069974E+02 -0.24534693889E+03  0.75636508201E+03  0.00000000000E+00 0.  1.
         13    1    5    5    0    0  0.30417809004E+01  0.23642759451E+02 -0.46906591612E+02  0.52616165217E+02  0.00000000000E+00 0.  1.
        -13    1    5    5    0    0 -0.41402720240E+02 -0.12234502837E+02 -0.65168937584E+03  0.65311783843E+03  0.00000000000E+00 0. -1.
          4    1    6    6  503    0 -0.71196040745E+02  0.28247609780E+02 -0.65265568160E+01  0.76872619442E+02  0.00000000000E+00 0.  1.
         -4    1    6    6    0  503 -0.64028109809E+03 -0.13599270990E+02 -0.14153204124E+03  0.65587814679E+03  0.00000000000E+00 0. -1.
<mgrwt>
<rscale>  0 0.19476323E+04</rscale>
<asrwt>0</asrwt>
<pdfrwt beam="1">  1        1 0.25521846E+00 0.19476323E+04</pdfrwt>
<pdfrwt beam="2">  1       -2 0.87945813E-01 0.19476323E+04</pdfrwt>
<totfact> 0.46353637E+00</totfact>
</mgrwt>
</event>
<event>
12    5  0.5246737E-008  0.1277777E+04  0.7818608E-02  0.9047376E-01
         -2   -1    0    0    0  501 -0.00000000000E+00  0.00000000000E+00  0.17385345738E+04  0.17385345738E+04  0.00000000000E+00 0.  1.
          1   -1    0    0  501    0  0.00000000000E+00 -0.00000000000E+00 -0.23478313600E+03  0.23478313600E+03  0.00000000000E+00 0. -1.
        -24    2    1    2    0    0  0.26599966130E+03 -0.49214804505E+02  0.14415299737E+03  0.31683892341E+03  0.80180421212E+02 0.  0.
        254    2    1    2    0    0 -0.26599966130E+03  0.49214804505E+02  0.13595984404E+04  0.16564787864E+04  0.90677237150E+03 0.  0.
         23    2    4    4    0    0  0.60674452480E+02 -0.87153891169E+02 -0.87217120887E+02  0.16393185874E+03  0.89384776137E+02 0.  0.
         23    2    4    4    0    0 -0.32667411378E+03  0.13636869567E+03  0.14468155613E+04  0.14925469276E+04  0.95439326070E+02 0.  0.
          3    1    3    3  502    0  0.24218160650E+03 -0.41594464182E+02  0.15396216479E+03  0.28997651313E+03  0.00000000000E+00 0. -1.
         -4    1    3    3    0  502  0.23818054795E+02 -0.76203403225E+01 -0.98091674204E+01  0.26862410285E+02  0.00000000000E+00 0.  1.
         13    1    5    5    0    0  0.65513804537E+00 -0.78004849039E+02 -0.46196911451E+02  0.90660577470E+02  0.00000000000E+00 0. -1.
        -13    1    5    5    0    0  0.60019314434E+02 -0.91490421299E+01 -0.41020209435E+02  0.73271281272E+02  0.00000000000E+00 0.  1.
          2    1    6    6  503    0 -0.19612943082E+03  0.12936978651E+03  0.97995613453E+03  0.10077287933E+04  0.00000000000E+00 0. -1.
         -2    1    6    6    0  503 -0.13054468296E+03  0.69989091664E+01  0.46685942679E+03  0.48481813432E+03  0.00000000000E+00 0.  1.
<mgrwt>
<rscale>  0 0.12777771E+04</rscale>
<asrwt>0</asrwt>
<pdfrwt beam="1">  1        1 0.36120484E-01 0.12777771E+04</pdfrwt>
<pdfrwt beam="2">  1       -2 0.26746685E+00 0.12777771E+04</pdfrwt>
<totfact> 0.52213832E+00</totfact>
</mgrwt>
</event>
<event>
12    5  0.5246737E-008  0.2831226E+04  0.7818608E-02  0.8293639E-01
         -2   -1    0    0    0  501 -0.00000000000E+00  0.00000000000E+00  0.49367321244E+04  0.49367321244E+04  0.00000000000E+00 0.  1.
          1   -1    0    0  501    0  0.00000000000E+00 -0.00000000000E+00 -0.40592844718E+03  0.40592844718E+03  0.00000000000E+00 0. -1.
        -24    2    1    2    0    0 -0.12197365656E+04 -0.10759666819E+03  0.13877864252E+04  0.18524855106E+04  0.80106632262E+02 0.  0.
        254    2    1    2    0    0  0.12197365656E+04  0.10759666819E+03  0.31430172520E+04  0.34901750610E+04  0.89634266758E+03 0.  0.
         23    2    4    4    0    0  0.83303541121E+02  0.25228527857E+03  0.24532091740E+03  0.37294153232E+03  0.91190417631E+02 0.  0.
         23    2    4    4    0    0  0.11364330244E+04 -0.14468861038E+03  0.28976963346E+04  0.31172335287E+04  0.89922254148E+02 0.  0.
          3    1    3    3  502    0 -0.10003940275E+04 -0.80593937439E+02  0.10904486043E+04  0.14820127367E+04  0.00000000000E+00 0. -1.
         -4    1    3    3    0  502 -0.21934253805E+03 -0.27002730751E+02  0.29733782086E+03  0.37047277387E+03  0.00000000000E+00 0.  1.
         13    1    5    5    0    0  0.16703830374E+02  0.37793131315E+01 -0.46249706113E+00  0.17132281238E+02  0.00000000000E+00 0. -1.
        -13    1    5    5    0    0  0.66599710747E+02  0.24850596544E+03  0.24578341446E+03  0.35580925108E+03  0.00000000000E+00 0.  1.
          1    1    6    6  503    0  0.22610762640E+02 -0.16136094032E+02  0.77761503885E+02  0.82574037108E+02  0.00000000000E+00 0. -1.
         -1    1    6    6    0  503  0.11138222618E+04 -0.12855251635E+03  0.28199348308E+04  0.30346594916E+04  0.00000000000E+00 0.  1.
<mgrwt>
<rscale>  0 0.28312259E+04</rscale>
<asrwt>0</asrwt>
<pdfrwt beam="1">  1        1 0.62450534E-01 0.28312259E+04</pdfrwt>
<pdfrwt beam="2">  1       -2 0.75949721E+00 0.28312259E+04</pdfrwt>
<totfact> 0.57650680E-03</totfact>
</mgrwt>
</event>
<event>
12    5  0.5246737E-008  0.1769354E+04  0.7818608E-02  0.8722769E-01
          1   -1    0    0  501    0  0.00000000000E+00  0.00000000000E+00  0.94778366519E+03  0.94778366519E+03  0.00000000000E+00 0. -1.
         -2   -1    0    0    0  501 -0.00000000000E+00 -0.00000000000E+00 -0.82577203797E+03  0.82577203797E+03  0.00000000000E+00 0.  1.
        -24    2    1    2    0    0 -0.31340815379E+03 -0.35510549886E+03 -0.40120083205E+03  0.62588755823E+03  0.80302812703E+02 0.  0.
        254    2    1    2    0    0  0.31340815379E+03  0.35510549886E+03  0.52321245928E+03  0.11476681449E+04  0.90502282134E+03 0.  0.
         23    2    4    4    0    0 -0.28264237030E+03 -0.40974093641E+02  0.16374170810E+03  0.34178488411E+03  0.91869332184E+02 0.  0.
         23    2    4    4    0    0  0.59605052409E+03  0.39607959250E+03  0.35947075118E+03  0.80588326082E+03  0.89851757090E+02 0.  0.
          3    1    3    3  502    0 -0.27074850175E+03 -0.32569142617E+03 -0.32555609666E+03  0.53419699395E+03  0.00000000000E+00 0. -1.
         -4    1    3    3    0  502 -0.42659652040E+02 -0.29414072692E+02 -0.75644735398E+02  0.91690564280E+02  0.00000000000E+00 0.  1.
         13    1    5    5    0    0 -0.20376037504E+03 -0.18906526568E+02  0.67668897817E+02  0.21553381850E+03  0.00000000000E+00 0. -1.
        -13    1    5    5    0    0 -0.78881995258E+02 -0.22067567072E+02  0.96072810287E+02  0.12625106561E+03  0.00000000000E+00 0.  1.
          2    1    6    6  503    0  0.71835174834E+02  0.17692422731E+02  0.48569994527E+02  0.88500613184E+02  0.00000000000E+00 0. -1.
         -2    1    6    6    0  503  0.52421534925E+03  0.37838716977E+03  0.31090075665E+03  0.71738264763E+03  0.00000000000E+00 0.  1.
<mgrwt>
<rscale>  0 0.17693538E+04</rscale>
<asrwt>0</asrwt>
<pdfrwt beam="1">  1        1 0.14581287E+00 0.17693538E+04</pdfrwt>
<pdfrwt beam="2">  1       -2 0.12704185E+00 0.17693538E+04</pdfrwt>
<totfact> 0.63520103E+00</totfact>
</mgrwt>
</event>
<event>
12    5  0.5246737E-008  0.1536353E+04  0.7818608E-02  0.8860632E-01
          1   -1    0    0  501    0  0.00000000000E+00  0.00000000000E+00  0.22085125054E+04  0.22085125054E+04  0.00000000000E+00 0. -1.
         -2   -1    0    0    0  501 -0.00000000000E+00 -0.00000000000E+00 -0.26719122356E+03  0.26719122356E+03  0.00000000000E+00 0.  1.
        -24    2    1    2    0    0  0.83108564644E+02 -0.46466404893E+03  0.34122039267E+03  0.58809288750E+03  0.81253775696E+02 0.  0.
        254    2    1    2    0    0 -0.83108564644E+02  0.46466404893E+03  0.16001008892E+04  0.18876108415E+04  0.88313765714E+03 0.  0.
         23    2    4    4    0    0  0.33735127972E+03  0.91720094953E+02  0.30515491491E+03  0.47305144461E+03  0.91867760425E+02 0.  0.
         23    2    4    4    0    0 -0.42045984437E+03  0.37294395398E+03  0.12949459743E+04  0.14145593969E+04  0.90661664796E+02 0.  0.
          1    1    3    3  502    0  0.68749050924E+02 -0.29892722190E+03  0.26395348478E+03  0.40466697187E+03  0.00000000000E+00 0. -1.
         -2    1    3    3    0  502  0.14359513720E+02 -0.16573682703E+03  0.77266907892E+02  0.18342591563E+03  0.00000000000E+00 0.  1.
         13    1    5    5    0    0  0.38695121360E+02  0.87478465441E+01  0.82060687099E+02  0.91147098711E+02  0.00000000000E+00 0. -1.
        -13    1    5    5    0    0  0.29865615836E+03  0.82972248408E+02  0.22309422781E+03  0.38190434590E+03  0.00000000000E+00 0.  1.
          2    1    6    6  503    0 -0.10879939254E+03  0.51033412652E+02  0.24002927251E+03  0.26843205599E+03  0.00000000000E+00 0. -1.
         -2    1    6    6    0  503 -0.31166045183E+03  0.32191054133E+03  0.10549167018E+04  0.11461273409E+04  0.00000000000E+00 0.  1.
<mgrwt>
<rscale>  0 0.15363530E+04</rscale>
<asrwt>0</asrwt>
<pdfrwt beam="1">  1        1 0.33977114E+00 0.15363530E+04</pdfrwt>
<pdfrwt beam="2">  1       -2 0.41106344E-01 0.15363530E+04</pdfrwt>
<totfact> 0.10215721E+01</totfact>
</mgrwt>
</event>
<event>
12    5  0.5246737E-008  0.1129461E+04  0.7818608E-02  0.9176943E-01
          1   -1    0    0  501    0  0.00000000000E+00  0.00000000000E+00  0.98687664486E+03  0.98687664486E+03  0.00000000000E+00 0. -1.
         -2   -1    0    0    0  501 -0.00000000000E+00 -0.00000000000E+00 -0.32316158745E+03  0.32316158745E+03  0.00000000000E+00 0.  1.
        -24    2    1    2    0    0 -0.10265201114E+03 -0.16687430084E+03  0.10783581156E+03  0.23814653766E+03  0.81858069068E+02 0.  0.
        254    2    1    2    0    0  0.10265201114E+03  0.16687430084E+03  0.55587924584E+03  0.10718916946E+04  0.89530196103E+03 0.  0.
         23    2    4    4    0    0  0.29594497910E+03 -0.16528880032E+03  0.57714847120E+03  0.67640955835E+03  0.97599767684E+02 0.  0.
         23    2    4    4    0    0 -0.19329296796E+03  0.33216310116E+03 -0.21269225359E+02  0.39548213630E+03  0.90880377145E+02 0.  0.
          3    1    3    3  502    0 -0.32159496710E+02 -0.65052736712E+02  0.85776581617E+02  0.11235530133E+03  0.00000000000E+00 0. -1.
         -4    1    3    3    0  502 -0.70492514432E+02 -0.10182156413E+03  0.22059229947E+02  0.12579123633E+03  0.00000000000E+00 0.  1.
         13    1    5    5    0    0  0.71965852651E+02  0.38634116563E+01  0.11778324438E+03  0.13808295533E+03  0.00000000000E+00 0. -1.
        -13    1    5    5    0    0  0.22397912645E+03 -0.16915221197E+03  0.45936522682E+03  0.53832660302E+03  0.00000000000E+00 0.  1.
          3    1    6    6  503    0 -0.12067946861E+03  0.19877233929E+03 -0.57083675463E+02  0.23944210786E+03  0.00000000000E+00 0. -1.
         -3    1    6    6    0  503 -0.72613499348E+02  0.13339076187E+03  0.35814450104E+02  0.15604002844E+03  0.00000000000E+00 0.  1.
<mgrwt>
<rscale>  0 0.11294612E+04</rscale>
<asrwt>0</asrwt>
<pdfrwt beam="1">  1        1 0.15182717E+00 0.11294612E+04</pdfrwt>
<pdfrwt beam="2">  1       -2 0.49717168E-01 0.11294612E+04</pdfrwt>
<totfact> 0.51710724E+01</totfact>
</mgrwt>
</event>
<event>
12    5  0.5246737E-008  0.1610186E+04  0.7818608E-02  0.8814315E-01
         -2   -1    0    0    0  501 -0.00000000000E+00  0.00000000000E+00  0.69551535996E+03  0.69551535996E+03  0.00000000000E+00 0.  1.
          1   -1    0    0  501    0  0.00000000000E+00 -0.00000000000E+00 -0.93193448658E+03  0.93193448658E+03  0.00000000000E+00 0. -1.
        -24    2    1    2    0    0 -0.95499548681E+01  0.32841842750E+03  0.35470416725E+03  0.49005350358E+03  0.79921992932E+02 0.  0.
        254    2    1    2    0    0  0.95499548681E+01 -0.32841842750E+03 -0.59112329387E+03  0.11373963430E+04  0.91449102088E+03 0.  0.
         23    2    4    4    0    0  0.19936480041E+03 -0.55096940342E+03 -0.17142853024E+03  0.61763215924E+03  0.93638325483E+02 0.  0.
         23    2    4    4    0    0 -0.18981484554E+03  0.22255097592E+03 -0.41969476363E+03  0.51976418372E+03  0.91937476510E+02 0.  0.
          3    1    3    3  502    0  0.96075295651E+01  0.13467521568E+03  0.93309263000E+02  0.16412293229E+03  0.00000000000E+00 0. -1.
         -4    1    3    3    0  502 -0.19157484433E+02  0.19374321182E+03  0.26139490425E+03  0.32593057129E+03  0.00000000000E+00 0.  1.
         13    1    5    5    0    0 -0.21671649893E+01  0.27545494925E+01 -0.34049049269E+01  0.48864633999E+01  0.00000000000E+00 0.  1.
        -13    1    5    5    0    0  0.20153196540E+03 -0.55372395291E+03 -0.16802362531E+03  0.61274569584E+03  0.00000000000E+00 0. -1.
          3    1    6    6  503    0 -0.18332410129E+03  0.17441444231E+03 -0.38234131063E+03  0.45848991441E+03  0.00000000000E+00 0. -1.
         -3    1    6    6    0  503 -0.64907442559E+01  0.48136533607E+02 -0.37353453007E+02  0.61274269316E+02  0.00000000000E+00 0.  1.
<mgrwt>
<rscale>  0 0.16101860E+04</rscale>
<asrwt>0</asrwt>
<pdfrwt beam="1">  1        1 0.14337454E+00 0.16101860E+04</pdfrwt>
<pdfrwt beam="2">  1       -2 0.10700236E+00 0.16101860E+04</pdfrwt>
<totfact> 0.10115432E+01</totfact>
</mgrwt>
</event>
<event>
12    5  0.5246737E-008  0.1451664E+04  0.7818608E-02  0.8917248E-01
          1   -1    0    0  501    0  0.00000000000E+00  0.00000000000E+00  0.13560306600E+04  0.13560306600E+04  0.00000000000E+00 0. -1.
         -4   -1    0    0    0  501 -0.00000000000E+00 -0.00000000000E+00 -0.38851055161E+03  0.38851055161E+03  0.00000000000E+00 0.  1.
        -24    2    1    2    0    0 -0.38321053646E+03 -0.21989142102E+03  0.28842467910E+03  0.53380624041E+03  0.80979963519E+02 0.  0.
        254    2    1    2    0    0  0.38321053646E+03  0.21989142102E+03  0.67909542932E+03  0.12107349712E+04  0.89972552269E+03 0.  0.
         23    2    4    4    0    0  0.59897291838E+03  0.32371606659E+03  0.29031539625E+03  0.74600267915E+03  0.93146761998E+02 0.  0.
         23    2    4    4    0    0 -0.21576238192E+03 -0.10382464558E+03  0.38878003307E+03  0.46473229210E+03  0.86563425991E+02 0.  0.
          1    1    3    3  502    0 -0.36321340166E+03 -0.22220295526E+03  0.28728319061E+03  0.51364361193E+03  0.00000000000E+00 0. -1.
         -2    1    3    3    0  502 -0.19997134805E+02  0.23115342482E+01  0.11414884873E+01  0.20162628474E+02  0.00000000000E+00 0.  1.
         13    1    5    5    0    0  0.52770514472E+03  0.28764859136E+03  0.28709911258E+03  0.66606330954E+03  0.00000000000E+00 0.  1.
        -13    1    5    5    0    0  0.71267773660E+02  0.36067475236E+02  0.32162836735E+01  0.79939369606E+02  0.00000000000E+00 0. -1.
          4    1    6    6  503    0 -0.54662669539E+02 -0.68577931385E+02  0.16361197192E+03  0.18563355696E+03  0.00000000000E+00 0. -1.
         -4    1    6    6    0  503 -0.16109971238E+03 -0.35246714192E+02  0.22516806115E+03  0.27909873513E+03  0.00000000000E+00 0.  1.
<mgrwt>
<rscale>  0 0.14516642E+04</rscale>
<asrwt>0</asrwt>
<pdfrwt beam="1">  1        1 0.20862010E+00 0.14516642E+04</pdfrwt>
<pdfrwt beam="2">  1       -4 0.59770855E-01 0.14516642E+04</pdfrwt>
<totfact> 0.10382268E+01</totfact>
</mgrwt>
</event>
<event>
12    5  0.5246737E-008  0.1323091E+04  0.7818608E-02  0.9011452E-01
          1   -1    0    0  501    0  0.00000000000E+00  0.00000000000E+00  0.67074290858E+03  0.67074290858E+03  0.00000000000E+00 0. -1.
         -2   -1    0    0    0  501 -0.00000000000E+00 -0.00000000000E+00 -0.65247393920E+03  0.65247393920E+03  0.00000000000E+00 0.  1.
        -24    2    1    2    0    0 -0.12915033979E+03 -0.15090588131E+02 -0.32181897965E+03  0.35607016078E+03  0.79441598770E+02 0.  0.
        254    2    1    2    0    0  0.12915033979E+03  0.15090588131E+02  0.34008794903E+03  0.96714668701E+03  0.89599406526E+03 0.  0.
         23    2    4    4    0    0  0.71993615431E+02  0.22118824261E+03 -0.23746628886E+03  0.34452069826E+03  0.90537030276E+02 0.  0.
         23    2    4    4    0    0  0.57156724363E+02 -0.20609765448E+03  0.57755423790E+03  0.62262598875E+03  0.91384297506E+02 0.  0.
          1    1    3    3  502    0 -0.54975881455E+02 -0.45287781065E+02 -0.13066137860E+03  0.14881440291E+03  0.00000000000E+00 0. -1.
         -2    1    3    3    0  502 -0.74174458339E+02  0.30197192934E+02 -0.19115760105E+03  0.20725575787E+03  0.00000000000E+00 0.  1.
         13    1    5    5    0    0  0.27740078870E+02  0.39877754305E+02 -0.88140686128E+01  0.49370386566E+02  0.00000000000E+00 0. -1.
        -13    1    5    5    0    0  0.44253536560E+02  0.18131048830E+03 -0.22865222025E+03  0.29515031169E+03  0.00000000000E+00 0.  1.
          4    1    6    6  503    0 -0.11691175225E+02 -0.10728812645E+02  0.11133297334E+03  0.11245808975E+03  0.00000000000E+00 0. -1.
         -4    1    6    6    0  503  0.68847899589E+02 -0.19536884183E+03  0.46622126456E+03  0.51016789899E+03  0.00000000000E+00 0.  1.
<mgrwt>
<rscale>  0 0.13230907E+04</rscale>
<asrwt>0</asrwt>
<pdfrwt beam="1">  1        1 0.10319122E+00 0.13230907E+04</pdfrwt>
<pdfrwt beam="2">  1       -2 0.10038061E+00 0.13230907E+04</pdfrwt>
<totfact> 0.20429383E+01</totfact>
</mgrwt>
</event>
<event>
12    5  0.5246737E-008  0.1507595E+04  0.7818608E-02  0.8879418E-01
          1   -1    0    0  501    0  0.00000000000E+00  0.00000000000E+00  0.23433008299E+04  0.23433008299E+04  0.00000000000E+00 0. -1.
         -2   -1    0    0    0  501 -0.00000000000E+00 -0.00000000000E+00 -0.24248297035E+03  0.24248297035E+03  0.00000000000E+00 0.  1.
        -24    2    1    2    0    0  0.57154432012E+01  0.15967475108E+03  0.15910377478E+04  0.16010214659E+04  0.79623658264E+02 0.  0.
        254    2    1    2    0    0 -0.57154432012E+01 -0.15967475108E+03  0.50978011177E+03  0.98476233436E+03  0.82725594613E+03 0.  0.
         23    2    4    4    0    0  0.10430199485E+03 -0.19617797683E+03 -0.16677955074E+03  0.29254460812E+03  0.91663648578E+02 0.  0.
         23    2    4    4    0    0 -0.11001743805E+03  0.36503225745E+02  0.67655966251E+03  0.69221772625E+03  0.89420810930E+02 0.  0.
          3    1    3    3  502    0  0.18408920807E+02  0.14232925374E+03  0.15211023309E+04  0.15278575870E+04  0.00000000000E+00 0. -1.
         -4    1    3    3    0  502 -0.12693477606E+02  0.17345497346E+02  0.69935416867E+02  0.73163878959E+02  0.00000000000E+00 0.  1.
         13    1    5    5    0    0  0.86725757873E+02 -0.89860321265E+02 -0.12577979964E+03  0.17724782767E+03  0.00000000000E+00 0.  1.
        -13    1    5    5    0    0  0.17576236980E+02 -0.10631765556E+03 -0.40999751098E+02  0.11529678044E+03  0.00000000000E+00 0. -1.
          3    1    6    6  503    0 -0.47970286010E+02 -0.12925922627E+02  0.43812192324E+03  0.44092975341E+03  0.00000000000E+00 0.  1.
         -3    1    6    6    0  503 -0.62047152043E+02  0.49429148372E+02  0.23843773927E+03  0.25128797284E+03  0.00000000000E+00 0. -1.
<mgrwt>
<rscale>  0 0.15075948E+04</rscale>
<asrwt>0</asrwt>
<pdfrwt beam="1">  1        1 0.36050781E+00 0.15075948E+04</pdfrwt>
<pdfrwt beam="2">  1       -2 0.37305074E-01 0.15075948E+04</pdfrwt>
<totfact> 0.10013939E+01</totfact>
</mgrwt>
</event>
<event>
12    5  0.5246737E-008  0.1357769E+04  0.7818608E-02  0.8984968E-01
          1   -1    0    0  501    0  0.00000000000E+00  0.00000000000E+00  0.68929771570E+03  0.68929771570E+03  0.00000000000E+00 0. -1.
         -2   -1    0    0    0  501 -0.00000000000E+00 -0.00000000000E+00 -0.66862852759E+03  0.66862852759E+03  0.00000000000E+00 0.  1.
        -24    2    1    2    0    0 -0.11939396191E+03  0.18561785977E+02  0.37099337100E+03  0.39833497176E+03  0.80219762939E+02 0.  0.
        254    2    1    2    0    0  0.11939396191E+03 -0.18561785977E+02 -0.35032418289E+03  0.95959127152E+03  0.88514909322E+03 0.  0.
         23    2    4    4    0    0  0.38830570556E+03  0.13213337808E+03  0.74563081216E+02  0.42680814884E+03  0.91460331610E+02 0.  0.
         23    2    4    4    0    0 -0.26891174366E+03 -0.15069516406E+03 -0.42488726411E+03  0.53278312268E+03  0.91137864061E+02 0.  0.
          3    1    3    3  502    0 -0.81720824389E+02 -0.23060770101E+02  0.26670935678E+03  0.27989993435E+03  0.00000000000E+00 0. -1.
         -4    1    3    3    0  502 -0.37673137517E+02  0.41622556078E+02  0.10428401422E+03  0.11843503741E+03  0.00000000000E+00 0.  1.
         13    1    5    5    0    0  0.31430111522E+03  0.75951348264E+02  0.82040660383E+02  0.33359326775E+03  0.00000000000E+00 0. -1.
        -13    1    5    5    0    0  0.74004590348E+02  0.56182029819E+02 -0.74775791667E+01  0.93214881093E+02  0.00000000000E+00 0.  1.
          3    1    6    6  503    0 -0.85231688900E+02 -0.91874458065E+02 -0.13126582958E+03  0.18148298778E+03  0.00000000000E+00 0. -1.
         -3    1    6    6    0  503 -0.18368005476E+03 -0.58820705995E+02 -0.29362143453E+03  0.35130013490E+03  0.00000000000E+00 0.  1.
<mgrwt>
<rscale>  0 0.13577689E+04</rscale>
<asrwt>0</asrwt>
<pdfrwt beam="1">  1        1 0.10604580E+00 0.13577689E+04</pdfrwt>
<pdfrwt beam="2">  1       -2 0.10286593E+00 0.13577689E+04</pdfrwt>
<totfact> 0.18446565E+01</totfact>
</mgrwt>
</event>
<event>
12    5  0.5246737E-008  0.1986598E+04  0.7818608E-02  0.8612912E-01
         -2   -1    0    0    0  501 -0.00000000000E+00  0.00000000000E+00  0.11177559385E+04  0.11177559385E+04  0.00000000000E+00 0.  1.
          1   -1    0    0  501    0  0.00000000000E+00 -0.00000000000E+00 -0.88270010596E+03  0.88270010596E+03  0.00000000000E+00 0. -1.
        -24    2    1    2    0    0  0.57587575763E+03 -0.51011149019E+03 -0.72427243642E+02  0.77690092042E+03  0.80515302092E+02 0.  0.
        254    2    1    2    0    0 -0.57587575763E+03  0.51011149019E+03  0.30748307621E+03  0.12235551241E+04  0.90038584998E+03 0.  0.
         23    2    4    4    0    0  0.59588324824E+01  0.57427788341E+03  0.22807034465E+03  0.62458737819E+03  0.90899481994E+02 0.  0.
         23    2    4    4    0    0 -0.58183459011E+03 -0.64166393219E+02  0.79412731557E+02  0.59896774588E+03  0.99031118362E+02 0.  0.
          3    1    3    3  502    0  0.53451324130E+03 -0.49660307494E+03 -0.74108047833E+02  0.73335599945E+03  0.00000000000E+00 0. -1.
         -4    1    3    3    0  502  0.41362516330E+02 -0.13508415248E+02  0.16808041907E+01  0.43544920972E+02  0.00000000000E+00 0.  1.
         13    1    5    5    0    0 -0.29907272198E+02  0.79266249056E+02  0.41836564951E+02  0.94487466559E+02  0.00000000000E+00 0. -1.
        -13    1    5    5    0    0  0.35866104680E+02  0.49501163435E+03  0.18623377970E+03  0.53009991163E+03  0.00000000000E+00 0.  1.
          1    1    6    6  503    0 -0.24845837452E+03 -0.59879227709E+02  0.71843676344E+02  0.26547805862E+03  0.00000000000E+00 0. -1.
         -1    1    6    6    0  503 -0.33337621560E+03 -0.42871655096E+01  0.75690552137E+01  0.33348968726E+03  0.00000000000E+00 0.  1.
<mgrwt>
<rscale>  0 0.19865984E+04</rscale>
<asrwt>0</asrwt>
<pdfrwt beam="1">  1        1 0.13580002E+00 0.19865984E+04</pdfrwt>
<pdfrwt beam="2">  1       -2 0.17196245E+00 0.19865984E+04</pdfrwt>
<totfact> 0.31580777E+00</totfact>
</mgrwt>
</event>
<event>
12    5  0.5246737E-008  0.1341921E+04  0.7818608E-02  0.8996966E-01
         -2   -1    0    0    0  501 -0.00000000000E+00  0.00000000000E+00  0.26660288079E+03  0.26660288079E+03  0.00000000000E+00 0.  1.
          1   -1    0    0  501    0  0.00000000000E+00 -0.00000000000E+00 -0.16886099252E+04  0.16886099252E+04  0.00000000000E+00 0. -1.
        -24    2    1    2    0    0 -0.30221395117E+03  0.18315481674E+03 -0.31556316100E+03  0.47978189213E+03  0.75707306521E+02 0.  0.
        254    2    1    2    0    0  0.30221395117E+03 -0.18315481674E+03 -0.11064438834E+04  0.14754309139E+04  0.90983479560E+03 0.  0.
         23    2    4    4    0    0 -0.23838691932E+02  0.28140682309E+03 -0.94356767415E+02  0.31163078932E+03  0.91937293730E+02 0.  0.
         23    2    4    4    0    0  0.32605264310E+03 -0.46456163983E+03 -0.10120871160E+04  0.11638001245E+04  0.89345152435E+02 0.  0.
          3    1    3    3  502    0 -0.26360899627E+03  0.13506504306E+03 -0.28464108294E+03  0.41079534427E+03  0.00000000000E+00 0. -1.
         -4    1    3    3    0  502 -0.38604954891E+02  0.48089773672E+02 -0.30922078055E+02  0.68986547857E+02  0.00000000000E+00 0.  1.
         13    1    5    5    0    0 -0.32708537449E+02  0.18975324901E+03 -0.20598010300E+02  0.19365025680E+03  0.00000000000E+00 0.  1.
        -13    1    5    5    0    0  0.88698455173E+01  0.91653574089E+02 -0.73758757115E+02  0.11798053252E+03  0.00000000000E+00 0. -1.
          3    1    6    6  503    0  0.31206115722E+03 -0.45417197431E+03 -0.93977722196E+03  0.10894198341E+04  0.00000000000E+00 0.  1.
         -3    1    6    6    0  503  0.13991485879E+02 -0.10389665516E+02 -0.72309894014E+02  0.74380290393E+02  0.00000000000E+00 0. -1.
<mgrwt>
<rscale>  0 0.13419214E+04</rscale>
<asrwt>0</asrwt>
<pdfrwt beam="1">  1        1 0.25978614E+00 0.13419214E+04</pdfrwt>
<pdfrwt beam="2">  1       -2 0.41015828E-01 0.13419214E+04</pdfrwt>
<totfact> 0.23485938E+01</totfact>
</mgrwt>
</event>
<event>
12    5  0.5246737E-008  0.3098736E+04  0.7818608E-02  0.8216085E-01
          1   -1    0    0  501    0  0.00000000000E+00  0.00000000000E+00  0.13461879220E+04  0.13461879220E+04  0.00000000000E+00 0. -1.
         -2   -1    0    0    0  501 -0.00000000000E+00 -0.00000000000E+00 -0.17832138927E+04  0.17832138927E+04  0.00000000000E+00 0.  1.
        -24    2    1    2    0    0  0.13672939416E+04 -0.28189391976E+03 -0.42407845654E+03  0.14612500771E+04  0.80326494676E+02 0.  0.
        254    2    1    2    0    0 -0.13672939416E+04  0.28189391976E+03 -0.12947514120E+02  0.16681517376E+04  0.91302008572E+03 0.  0.
         23    2    4    4    0    0 -0.23010166174E+03 -0.15493371799E+03  0.28779832640E+03  0.41020314294E+03  0.92127683624E+02 0.  0.
         23    2    4    4    0    0 -0.11371922799E+04  0.43682763775E+03 -0.30074584052E+03  0.12579485947E+04  0.89229702723E+02 0.  0.
          3    1    3    3  502    0  0.11963384559E+04 -0.27337743515E+03 -0.37445582435E+03  0.12830347180E+04  0.00000000000E+00 0. -1.
         -4    1    3    3    0  502  0.17095548568E+03 -0.85164846098E+01 -0.49622632190E+02  0.17821535910E+03  0.00000000000E+00 0.  1.
         13    1    5    5    0    0 -0.21412754351E+03 -0.11037652381E+03  0.26340425703E+03  0.35695291639E+03  0.00000000000E+00 0.  1.
        -13    1    5    5    0    0 -0.15974118232E+02 -0.44557194185E+02  0.24394069368E+02  0.53250226546E+02  0.00000000000E+00 0. -1.
          4    1    6    6  503    0 -0.92080729892E+02  0.54806030645E+02 -0.86470184534E+01  0.10750503589E+03  0.00000000000E+00 0. -1.
         -4    1    6    6    0  503 -0.10451115500E+04  0.38202160711E+03 -0.29209882207E+03  0.11504435588E+04  0.00000000000E+00 0.  1.
<mgrwt>
<rscale>  0 0.30987359E+04</rscale>
<asrwt>0</asrwt>
<pdfrwt beam="1">  1        1 0.20710584E+00 0.30987359E+04</pdfrwt>
<pdfrwt beam="2">  1       -2 0.27434060E+00 0.30987359E+04</pdfrwt>
<totfact> 0.28331126E-01</totfact>
</mgrwt>
</event>
<event>
12    5  0.5246737E-008  0.2303756E+04  0.7818608E-02  0.8476442E-01
          1   -1    0    0  501    0  0.00000000000E+00  0.00000000000E+00  0.83461525124E+03  0.83461525124E+03  0.00000000000E+00 0. -1.
         -2   -1    0    0    0  501 -0.00000000000E+00 -0.00000000000E+00 -0.15897413454E+04  0.15897413454E+04  0.00000000000E+00 0.  1.
        -24    2    1    2    0    0 -0.43338784416E+03 -0.14161859749E+03  0.56870635041E+03  0.73311087129E+03  0.78382306589E+02 0.  0.
        254    2    1    2    0    0  0.43338784416E+03  0.14161859749E+03 -0.13238324445E+04  0.16912457253E+04  0.94863001828E+03 0.  0.
         23    2    4    4    0    0 -0.27810565146E+03  0.63022179167E+02 -0.59289278379E+03  0.66379368105E+03  0.88236327475E+02 0.  0.
         23    2    4    4    0    0  0.71149349562E+03  0.78596418319E+02 -0.73093966075E+03  0.10274520443E+04  0.94786730911E+02 0.  0.
          3    1    3    3  502    0 -0.14700115335E+03 -0.73026157337E+02  0.25108383223E+03  0.29997541491E+03  0.00000000000E+00 0. -1.
         -4    1    3    3    0  502 -0.28638669082E+03 -0.68592440149E+02  0.31762251817E+03  0.43313545638E+03  0.00000000000E+00 0.  1.
         13    1    5    5    0    0 -0.15069965179E+01 -0.67644608944E+01 -0.13515671775E+01  0.70608571387E+01  0.00000000000E+00 0. -1.
        -13    1    5    5    0    0 -0.27659865494E+03  0.69786640061E+02 -0.59154121661E+03  0.65673282391E+03  0.00000000000E+00 0.  1.
          1    1    6    6  503    0  0.18396213086E+03  0.47597784725E+02 -0.14972412366E+03  0.24191925907E+03  0.00000000000E+00 0. -1.
         -1    1    6    6    0  503  0.52753136475E+03  0.30998633594E+02 -0.58121553710E+03  0.78553278521E+03  0.00000000000E+00 0.  1.
<mgrwt>
<rscale>  0 0.23037555E+04</rscale>
<asrwt>0</asrwt>
<pdfrwt beam="1">  1        1 0.12840235E+00 0.23037555E+04</pdfrwt>
<pdfrwt beam="2">  1       -2 0.24457559E+00 0.23037555E+04</pdfrwt>
<totfact> 0.11344296E+00</totfact>
</mgrwt>
</event>
<event>
12    5  0.5246737E-008  0.2760141E+04  0.7818608E-02  0.8315751E-01
          1   -1    0    0  501    0  0.00000000000E+00  0.00000000000E+00  0.17707617845E+04  0.17707617845E+04  0.00000000000E+00 0. -1.
         -2   -1    0    0    0  501 -0.00000000000E+00 -0.00000000000E+00 -0.10755788932E+04  0.10755788932E+04  0.00000000000E+00 0.  1.
        -24    2    1    2    0    0  0.78098304374E+03 -0.53026940334E+03  0.11288335968E+04  0.14735668181E+04  0.77548200515E+02 0.  0.
        254    2    1    2    0    0 -0.78098304374E+03  0.53026940334E+03 -0.43365070552E+03  0.13727738597E+04  0.89740458023E+03 0.  0.
         23    2    4    4    0    0 -0.20632637921E+03  0.26171960362E+03  0.25684529232E+03  0.43083806080E+03  0.92650983652E+02 0.  0.
         23    2    4    4    0    0 -0.57465666452E+03  0.26854979972E+03 -0.69049599784E+03  0.94193579885E+03  0.90050258796E+02 0.  0.
          1    1    3    3  502    0  0.49199281609E+03 -0.30941363426E+03  0.64429790113E+03  0.86770589116E+03  0.00000000000E+00 0. -1.
         -2    1    3    3    0  502  0.28899022764E+03 -0.22085576908E+03  0.48453569564E+03  0.60586092691E+03  0.00000000000E+00 0.  1.
         13    1    5    5    0    0  0.10008230801E+01 -0.26644337531E+01  0.18947244249E+02  0.19159825644E+02  0.00000000000E+00 0.  1.
        -13    1    5    5    0    0 -0.20732720229E+03  0.26438403737E+03  0.23789804807E+03  0.41167823516E+03  0.00000000000E+00 0. -1.
          1    1    6    6  503    0 -0.56460541461E+03  0.27498224643E+03 -0.68302624670E+03  0.92785740485E+03  0.00000000000E+00 0. -1.
         -1    1    6    6    0  503 -0.10051249912E+02 -0.64324467057E+01 -0.74697511366E+01  0.14078393994E+02  0.00000000000E+00 0.  1.
<mgrwt>
<rscale>  0 0.27601406E+04</rscale>
<asrwt>0</asrwt>
<pdfrwt beam="1">  1        1 0.27242489E+00 0.27601406E+04</pdfrwt>
<pdfrwt beam="2">  1       -2 0.16547368E+00 0.27601406E+04</pdfrwt>
<totfact> 0.74778167E-01</totfact>
</mgrwt>
</event>
<event>
12    5  0.5246737E-008  0.1927093E+04  0.7818608E-02  0.8641487E-01
         -2   -1    0    0    0  501 -0.00000000000E+00  0.00000000000E+00  0.43372705813E+03  0.43372705813E+03  0.00000000000E+00 0.  1.
          1   -1    0    0  501    0  0.00000000000E+00 -0.00000000000E+00 -0.21405668968E+04  0.21405668968E+04  0.00000000000E+00 0. -1.
        -24    2    1    2    0    0 -0.36587518859E+02 -0.31219194097E+03 -0.15875490280E+04  0.16204386921E+04  0.81897397496E+02 0.  0.
        254    2    1    2    0    0  0.36587518859E+02  0.31219194097E+03 -0.11929081063E+03  0.95385526289E+03  0.89264052703E+03 0.  0.
         23    2    4    4    0    0 -0.13281164037E+03 -0.20500130758E+02  0.32690640959E+03  0.36515925835E+03  0.91729472641E+02 0.  0.
         23    2    4    4    0    0  0.16939915923E+03  0.33269207173E+03 -0.44619722022E+03  0.58869600454E+03  0.89949634219E+02 0.  0.
          3    1    3    3  502    0 -0.48009089717E+02 -0.23779841529E+03 -0.13369173977E+04  0.13587498251E+04  0.00000000000E+00 0. -1.
         -4    1    3    3    0  502  0.11421570858E+02 -0.74393525686E+02 -0.25063163036E+03  0.26168886694E+03  0.00000000000E+00 0.  1.
         13    1    5    5    0    0 -0.14144202471E+03 -0.30608195523E+02  0.26598437621E+03  0.30280422120E+03  0.00000000000E+00 0. -1.
        -13    1    5    5    0    0  0.86303843447E+01  0.10108064765E+02  0.60922033379E+02  0.62355037152E+02  0.00000000000E+00 0.  1.
          3    1    6    6  503    0  0.17508621324E+03  0.27674825271E+03 -0.38885991817E+03  0.50838648035E+03  0.00000000000E+00 0. -1.
         -3    1    6    6    0  503 -0.56870540106E+01  0.55943819024E+02 -0.57337302051E+02  0.80309524197E+02  0.00000000000E+00 0.  1.
<mgrwt>
<rscale>  0 0.19270929E+04</rscale>
<asrwt>0</asrwt>
<pdfrwt beam="1">  1        1 0.32931798E+00 0.19270929E+04</pdfrwt>
<pdfrwt beam="2">  1       -2 0.66727241E-01 0.19270929E+04</pdfrwt>
<totfact> 0.40451809E+00</totfact>
</mgrwt>
</event>
<event>
12    5  0.5246737E-008  0.1551558E+04  0.7818608E-02  0.8850874E-01
          1   -1    0    0  501    0  0.00000000000E+00  0.00000000000E+00  0.18136302996E+04  0.18136302996E+04  0.00000000000E+00 0. -1.
         -2   -1    0    0    0  501 -0.00000000000E+00 -0.00000000000E+00 -0.33183867304E+03  0.33183867304E+03  0.00000000000E+00 0.  1.
        -24    2    1    2    0    0  0.31530830687E+03  0.80293475938E+02 -0.60042735526E+02  0.34052275402E+03  0.80524811404E+02 0.  0.
        254    2    1    2    0    0 -0.31530830687E+03 -0.80293475938E+02  0.15418343621E+04  0.18049462186E+04  0.88017684663E+03 0.  0.
         23    2    4    4    0    0  0.11650143055E+03  0.12478884726E+03  0.57790089606E+01  0.19360050503E+03  0.91120353841E+02 0.  0.
         23    2    4    4    0    0 -0.43180973742E+03 -0.20508232320E+03  0.15360553531E+04  0.16113457136E+04  0.91926885106E+02 0.  0.
          3    1    3    3  502    0  0.15835808656E+03  0.80932260353E+02 -0.40139676482E+02  0.18231431094E+03  0.00000000000E+00 0. -1.
         -4    1    3    3    0  502  0.15695022031E+03 -0.63878441457E+00 -0.19903059044E+02  0.15820844308E+03  0.00000000000E+00 0.  1.
         13    1    5    5    0    0  0.10438051321E+03  0.13906316051E+03 -0.40584168255E+00  0.17387932269E+03  0.00000000000E+00 0. -1.
        -13    1    5    5    0    0  0.12120917333E+02 -0.14274313249E+02  0.61848506432E+01  0.19721182348E+02  0.00000000000E+00 0.  1.
          2    1    6    6  503    0 -0.32318958674E+03 -0.18545946918E+03  0.10939616466E+04  0.11556811013E+04  0.00000000000E+00 0. -1.
         -2    1    6    6    0  503 -0.10862015068E+03 -0.19622854026E+02  0.44209370656E+03  0.45566461231E+03  0.00000000000E+00 0.  1.
<mgrwt>
<rscale>  0 0.15515575E+04</rscale>
<asrwt>0</asrwt>
<pdfrwt beam="1">  1        1 0.27902004E+00 0.15515575E+04</pdfrwt>
<pdfrwt beam="2">  1       -2 0.51052104E-01 0.15515575E+04</pdfrwt>
<totfact> 0.12231047E+01</totfact>
</mgrwt>
</event>
<event>
12    5  0.5246737E-008  0.1120488E+04  0.7818608E-02  0.9185449E-01
         -4   -1    0    0    0  501 -0.00000000000E+00  0.00000000000E+00  0.25986851505E+03  0.25986851505E+03  0.00000000000E+00 0.  1.
          3   -1    0    0  501    0  0.00000000000E+00 -0.00000000000E+00 -0.12078169702E+04  0.12078169702E+04  0.00000000000E+00 0. -1.
        -24    2    1    2    0    0 -0.56011110399E+02  0.47126743582E+02  0.46500684385E+02  0.11900849980E+03  0.81501748008E+02 0.  0.
        254    2    1    2    0    0  0.56011110399E+02 -0.47126743582E+02 -0.99444913953E+03  0.13486769854E+04  0.90809820255E+03 0.  0.
         23    2    4    4    0    0  0.34468413969E+03 -0.16527058287E+03 -0.11215791026E+03  0.40849763012E+03  0.90384707033E+02 0.  0.
         23    2    4    4    0    0 -0.28867302929E+03  0.11814383929E+03 -0.88229122926E+03  0.94017935531E+03  0.90605310584E+02 0.  0.
          3    1    3    3  502    0 -0.54873286370E+02  0.67340304889E+02  0.27170271682E+02  0.91016580264E+02  0.00000000000E+00 0. -1.
         -4    1    3    3    0  502 -0.11378240292E+01 -0.20213561307E+02  0.19330412704E+02  0.27991919540E+02  0.00000000000E+00 0.  1.
         13    1    5    5    0    0  0.10522386168E+03 -0.24863869143E+02  0.25275919433E+01  0.10815110622E+03  0.00000000000E+00 0. -1.
        -13    1    5    5    0    0  0.23946027801E+03 -0.14040671373E+03 -0.11468550221E+03  0.30034652390E+03  0.00000000000E+00 0.  1.
          4    1    6    6  503    0 -0.40697015859E+01  0.88836541971E+01 -0.10172739192E+03  0.10219561659E+03  0.00000000000E+00 0. -1.
         -4    1    6    6    0  503 -0.28460332771E+03  0.10926018509E+03 -0.78056383734E+03  0.83798373871E+03  0.00000000000E+00 0.  1.
<mgrwt>
<rscale>  0 0.11204885E+04</rscale>
<asrwt>0</asrwt>
<pdfrwt beam="1">  1        3 0.18581799E+00 0.11204885E+04</pdfrwt>
<pdfrwt beam="2">  1       -4 0.39979772E-01 0.11204885E+04</pdfrwt>
<totfact> 0.25209091E+00</totfact>
</mgrwt>
</event>
<event>
12    5  0.5246737E-008  0.3809693E+04  0.7818608E-02  0.8044078E-01
         -2   -1    0    0    0  501 -0.00000000000E+00  0.00000000000E+00  0.14478623193E+04  0.14478623193E+04  0.00000000000E+00 0.  1.
          1   -1    0    0  501    0  0.00000000000E+00 -0.00000000000E+00 -0.25060665739E+04  0.25060665739E+04  0.00000000000E+00 0. -1.
        -24    2    1    2    0    0  0.88244997831E+03  0.12454308808E+04 -0.14927844737E+04  0.21365064404E+04  0.80238655467E+02 0.  0.
        254    2    1    2    0    0 -0.88244997831E+03 -0.12454308808E+04  0.43458021913E+03  0.18174224528E+04  0.88563444033E+03 0.  0.
         23    2    4    4    0    0 -0.14600980972E+03 -0.91998022483E+03  0.10082662633E+03  0.94073437333E+03  0.84455159494E+02 0.  0.
         23    2    4    4    0    0 -0.73644016859E+03 -0.32545065598E+03  0.33375359280E+03  0.87668807945E+03  0.94489557917E+02 0.  0.
          3    1    3    3  502    0  0.43400153390E+02  0.54118282043E+02 -0.92370652305E+02  0.11551925888E+03  0.00000000000E+00 0. -1.
         -4    1    3    3    0  502  0.83904982492E+03  0.11913125988E+04 -0.14004138214E+04  0.20209871815E+04  0.00000000000E+00 0.  1.
         13    1    5    5    0    0 -0.60714047043E+02 -0.49054787450E+03  0.92271727753E+02  0.50282947848E+03  0.00000000000E+00 0.  1.
        -13    1    5    5    0    0 -0.85295762679E+02 -0.42943235033E+03  0.85548985800E+01  0.43790489485E+03  0.00000000000E+00 0. -1.
          4    1    6    6  503    0 -0.38002257988E+03 -0.17438355207E+03  0.12256242807E+03  0.43571588590E+03  0.00000000000E+00 0.  1.
         -4    1    6    6    0  503 -0.35641758871E+03 -0.15106710392E+03  0.21119116473E+03  0.44097219355E+03  0.00000000000E+00 0. -1.
<mgrwt>
<rscale>  0 0.38096926E+04</rscale>
<asrwt>0</asrwt>
<pdfrwt beam="1">  1        1 0.38554870E+00 0.38096926E+04</pdfrwt>
<pdfrwt beam="2">  1       -2 0.22274805E+00 0.38096926E+04</pdfrwt>
<totfact> 0.89119582E-02</totfact>
</mgrwt>
</event>
<event>
12    5  0.5246737E-008  0.1454412E+04  0.7818608E-02  0.8915347E-01
          1   -1    0    0  501    0  0.00000000000E+00  0.00000000000E+00  0.11279324039E+04  0.11279324039E+04  0.00000000000E+00 0. -1.
         -2   -1    0    0    0  501 -0.00000000000E+00 -0.00000000000E+00 -0.46884774794E+03  0.46884774794E+03  0.00000000000E+00 0.  1.
        -24    2    1    2    0    0 -0.56842149532E+02 -0.18481240722E+03  0.58405254923E+03  0.62046044761E+03  0.80418473955E+02 0.  0.
        254    2    1    2    0    0  0.56842149532E+02  0.18481240722E+03  0.75032106761E+02  0.97631970426E+03  0.95403547736E+03 0.  0.
         23    2    4    4    0    0  0.12044285319E+02  0.32485147128E+03 -0.36895045825E+03  0.49975527321E+03  0.89203975579E+02 0.  0.
         23    2    4    4    0    0  0.44797864213E+02 -0.14003906406E+03  0.44398256501E+03  0.47656443105E+03  0.91516942732E+02 0.  0.
          1    1    3    3  502    0 -0.53584789916E+02 -0.12107552179E+03  0.48402499007E+03  0.50180753551E+03  0.00000000000E+00 0. -1.
         -2    1    3    3    0  502 -0.32573596157E+01 -0.63736885431E+02  0.10002755917E+03  0.11865291210E+03  0.00000000000E+00 0.  1.
         13    1    5    5    0    0  0.40992955563E+02  0.27896180241E+03 -0.29548208823E+03  0.40842352292E+03  0.00000000000E+00 0.  1.
        -13    1    5    5    0    0 -0.28948670244E+02  0.45889668865E+02 -0.73468370023E+02  0.91331750291E+02  0.00000000000E+00 0. -1.
          1    1    6    6  503    0  0.29723001262E+02  0.22287935765E+01  0.66220173510E+02  0.72619113907E+02  0.00000000000E+00 0. -1.
         -1    1    6    6    0  503  0.15074862950E+02 -0.14226785763E+03  0.37776239150E+03  0.40394531714E+03  0.00000000000E+00 0.  1.
<mgrwt>
<rscale>  0 0.14544120E+04</rscale>
<asrwt>0</asrwt>
<pdfrwt beam="1">  1        1 0.17352806E+00 0.14544120E+04</pdfrwt>
<pdfrwt beam="2">  1       -2 0.72130423E-01 0.14544120E+04</pdfrwt>
<totfact> 0.17904031E+01</totfact>
</mgrwt>
</event>
<event>
12    5  0.5246737E-008  0.1365815E+04  0.7818608E-02  0.8978942E-01
         -2   -1    0    0    0  501 -0.00000000000E+00  0.00000000000E+00  0.27058672900E+03  0.27058672900E+03  0.00000000000E+00 0.  1.
          1   -1    0    0  501    0  0.00000000000E+00 -0.00000000000E+00 -0.17235239644E+04  0.17235239644E+04  0.00000000000E+00 0. -1.
        -24    2    1    2    0    0  0.34144302740E+02 -0.37197886070E+03 -0.30214502253E+03  0.48708628551E+03  0.80170622257E+02 0.  0.
        254    2    1    2    0    0 -0.34144302740E+02  0.37197886070E+03 -0.11507922129E+04  0.15070244079E+04  0.89847968398E+03 0.  0.
         23    2    4    4    0    0  0.10455931480E+03  0.53659516179E+03 -0.11454686536E+04  0.12725555329E+04  0.91826629251E+02 0.  0.
         23    2    4    4    0    0 -0.13870361754E+03 -0.16461630109E+03 -0.53235592178E+01  0.23446887498E+03  0.92790586542E+02 0.  0.
          3    1    3    3  502    0 -0.74274209498E+01 -0.20819793172E+03 -0.20449888977E+03  0.29192694510E+03  0.00000000000E+00 0. -1.
         -4    1    3    3    0  502  0.41571723690E+02 -0.16378092898E+03 -0.97646132762E+02  0.19515934042E+03  0.00000000000E+00 0.  1.
         13    1    5    5    0    0  0.11067211745E+03  0.53057318628E+03 -0.11402615803E+04  0.12625183939E+04  0.00000000000E+00 0. -1.
        -13    1    5    5    0    0 -0.61128026469E+01  0.60219755103E+01 -0.52070733649E+01  0.10037138949E+02  0.00000000000E+00 0.  1.
          3    1    6    6  503    0 -0.10185717681E+03 -0.13234723960E+03 -0.43259184993E+02  0.17251676262E+03  0.00000000000E+00 0. -1.
         -3    1    6    6    0  503 -0.36846440728E+02 -0.32269061488E+02  0.37935625775E+02  0.61952112366E+02  0.00000000000E+00 0.  1.
<mgrwt>
<rscale>  0 0.13658151E+04</rscale>
<asrwt>0</asrwt>
<pdfrwt beam="1">  1        1 0.26515753E+00 0.13658151E+04</pdfrwt>
<pdfrwt beam="2">  1       -2 0.41628728E-01 0.13658151E+04</pdfrwt>
<totfact> 0.21553364E+01</totfact>
</mgrwt>
</event>
<event>
12    5  0.5246737E-008  0.1782920E+04  0.7818608E-02  0.8715436E-01
         -2   -1    0    0    0  501 -0.00000000000E+00  0.00000000000E+00  0.42312044959E+03  0.42312044959E+03  0.00000000000E+00 0.  1.
          1   -1    0    0  501    0  0.00000000000E+00 -0.00000000000E+00 -0.18781906073E+04  0.18781906073E+04  0.00000000000E+00 0. -1.
        -24    2    1    2    0    0  0.14937519600E+03 -0.23101723917E+03 -0.13093897597E+04  0.13403479459E+04  0.79681612561E+02 0.  0.
        254    2    1    2    0    0 -0.14937519600E+03  0.23101723917E+03 -0.14568039806E+03  0.96096311102E+03  0.90914542752E+03 0.  0.
         23    2    4    4    0    0 -0.48519172547E+03 -0.59878322894E+00 -0.21323300400E+03  0.53762841452E+03  0.90358337227E+02 0.  0.
         23    2    4    4    0    0  0.33581652947E+03  0.23161602240E+03  0.67552605934E+02  0.42333469649E+03  0.90720380248E+02 0.  0.
          1    1    3    3  502    0  0.11630289679E+03 -0.16341996859E+03 -0.76834730237E+03  0.79409698841E+03  0.00000000000E+00 0. -1.
         -2    1    3    3    0  502  0.33072299214E+02 -0.67597270582E+02 -0.54104245729E+03  0.54625095749E+03  0.00000000000E+00 0.  1.
         13    1    5    5    0    0 -0.48660561513E+02  0.25637941629E+02 -0.12313370352E+02  0.56362872417E+02  0.00000000000E+00 0.  1.
        -13    1    5    5    0    0 -0.43653116395E+03 -0.26236724858E+02 -0.20091963365E+03  0.48126554211E+03  0.00000000000E+00 0. -1.
          4    1    6    6  503    0  0.96522912539E+02  0.31701799229E+02  0.43748700254E+02  0.11061476164E+03  0.00000000000E+00 0.  1.
         -4    1    6    6    0  503  0.23929361693E+03  0.19991422317E+03  0.23803905680E+02  0.31271993485E+03  0.00000000000E+00 0. -1.
<mgrwt>
<rscale>  0 0.17829199E+04</rscale>
<asrwt>0</asrwt>
<pdfrwt beam="1">  1        1 0.28895240E+00 0.17829199E+04</pdfrwt>
<pdfrwt beam="2">  1       -2 0.65095453E-01 0.17829199E+04</pdfrwt>
<totfact> 0.65091595E+00</totfact>
</mgrwt>
</event>
<event>
12    5  0.5246737E-008  0.1963246E+04  0.7818608E-02  0.8624000E-01
          3   -1    0    0  501    0  0.00000000000E+00  0.00000000000E+00  0.51342921454E+03  0.51342921454E+03  0.00000000000E+00 0. -1.
         -4   -1    0    0    0  501 -0.00000000000E+00 -0.00000000000E+00 -0.18767600362E+04  0.18767600362E+04  0.00000000000E+00 0.  1.
        -24    2    1    2    0    0  0.97315877218E+02 -0.72925403655E+03 -0.63124011156E+03  0.97267067716E+03  0.79638796873E+02 0.  0.
        254    2    1    2    0    0 -0.97315877218E+02  0.72925403655E+03 -0.73209071009E+03  0.14175185736E+04  0.96546375843E+03 0.  0.
         23    2    4    4    0    0  0.27028280965E+03  0.16512727394E+03  0.98687532932E+02  0.34422598246E+03  0.91828557939E+02 0.  0.
         23    2    4    4    0    0 -0.36759868687E+03  0.56412676261E+03 -0.83077824302E+03  0.10732925911E+04  0.91633499249E+02 0.  0.
          1    1    3    3  502    0  0.10672871031E+03 -0.63397640917E+03 -0.52858070759E+03  0.83229482122E+03  0.00000000000E+00 0. -1.
         -2    1    3    3    0  502 -0.94128330932E+01 -0.95277627378E+02 -0.10265940397E+03  0.14037585594E+03  0.00000000000E+00 0.  1.
         13    1    5    5    0    0  0.11485904145E+02  0.38278132817E+02  0.12347016066E+01  0.39983320698E+02  0.00000000000E+00 0.  1.
        -13    1    5    5    0    0  0.25879690551E+03  0.12684914113E+03  0.97452831325E+02  0.30424266176E+03  0.00000000000E+00 0. -1.
          2    1    6    6  503    0 -0.35788523815E+03  0.55140698996E+03 -0.82771521094E+03  0.10569976266E+04  0.00000000000E+00 0. -1.
         -2    1    6    6    0  503 -0.97134487238E+01  0.12719772646E+02 -0.30630320799E+01  0.16294964492E+02  0.00000000000E+00 0.  1.
<mgrwt>
<rscale>  0 0.19632457E+04</rscale>
<asrwt>0</asrwt>
<pdfrwt beam="1">  1        3 0.78989110E-01 0.19632457E+04</pdfrwt>
<pdfrwt beam="2">  1       -4 0.28873231E+00 0.19632457E+04</pdfrwt>
<totfact> 0.11579358E-01</totfact>
</mgrwt>
</event>
<event>
12    5  0.5246737E-008  0.1405987E+04  0.7818608E-02  0.8949496E-01
         -4   -1    0    0    0  501 -0.00000000000E+00  0.00000000000E+00  0.57573699559E+03  0.57573699559E+03  0.00000000000E+00 0.  1.
          3   -1    0    0  501    0  0.00000000000E+00 -0.00000000000E+00 -0.85837822692E+03  0.85837822692E+03  0.00000000000E+00 0. -1.
        -24    2    1    2    0    0  0.23363650725E+03  0.27971215243E+03  0.11732707459E+03  0.38876718693E+03  0.67449073081E+02 0.  0.
        254    2    1    2    0    0 -0.23363650725E+03 -0.27971215243E+03 -0.39996830592E+03  0.10453480356E+04  0.89440089670E+03 0.  0.
         23    2    4    4    0    0 -0.12536244766E+03 -0.27935894978E+03 -0.66878863670E+03  0.74114145546E+03  0.90858408127E+02 0.  0.
         23    2    4    4    0    0 -0.10827405959E+03 -0.35320265802E+00  0.26882033078E+03  0.30420658012E+03  0.92487168915E+02 0.  0.
          1    1    3    3  502    0  0.15608936870E+03  0.15575145435E+03  0.42683197912E+02  0.22459800074E+03  0.00000000000E+00 0. -1.
         -2    1    3    3    0  502  0.77547138553E+02  0.12396069809E+03  0.74643876681E+02  0.16416918619E+03  0.00000000000E+00 0.  1.
         13    1    5    5    0    0  0.38913030121E+01 -0.49922872550E+02 -0.62161362723E+02  0.79821491206E+02  0.00000000000E+00 0.  1.
        -13    1    5    5    0    0 -0.12925375068E+03 -0.22943607723E+03 -0.60662727397E+03  0.66131996426E+03  0.00000000000E+00 0. -1.
          3    1    6    6  503    0 -0.10712550004E+02 -0.28175064916E+02  0.12251433579E+03  0.12616796537E+03  0.00000000000E+00 0. -1.
         -3    1    6    6    0  503 -0.97561509588E+02  0.27821862258E+02  0.14630599499E+03  0.17803861475E+03  0.00000000000E+00 0.  1.
<mgrwt>
<rscale>  0 0.14059873E+04</rscale>
<asrwt>0</asrwt>
<pdfrwt beam="1">  1        3 0.13205819E+00 0.14059873E+04</pdfrwt>
<pdfrwt beam="2">  1       -4 0.88574923E-01 0.14059873E+04</pdfrwt>
<totfact> 0.10944922E+00</totfact>
</mgrwt>
</event>
<event>
12    5  0.5246737E-008  0.2027211E+04  0.7818608E-02  0.8594003E-01
          1   -1    0    0  501    0  0.00000000000E+00  0.00000000000E+00  0.30695048412E+04  0.30695048412E+04  0.00000000000E+00 0. -1.
         -2   -1    0    0    0  501 -0.00000000000E+00 -0.00000000000E+00 -0.33471075270E+03  0.33471075270E+03  0.00000000000E+00 0.  1.
        -24    2    1    2    0    0  0.50759255528E+03  0.28414763941E+03  0.19719998733E+04  0.20576056181E+04  0.81038857419E+02 0.  0.
        254    2    1    2    0    0 -0.50759255528E+03 -0.28414763941E+03  0.76279421519E+03  0.13466099757E+04  0.94504673369E+03 0.  0.
         23    2    4    4    0    0 -0.11371223788E+03 -0.58602493545E+03  0.38084423938E+03  0.71368300782E+03  0.89136989921E+02 0.  0.
         23    2    4    4    0    0 -0.39388031740E+03  0.30187729604E+03  0.38194997581E+03  0.63292696791E+03  0.91864881168E+02 0.  0.
          1    1    3    3  502    0  0.44975093336E+03  0.27592911199E+03  0.18125440294E+04  0.18877840542E+04  0.00000000000E+00 0. -1.
         -2    1    3    3    0  502  0.57841621920E+02  0.82185274242E+01  0.15945584388E+03  0.16982156390E+03  0.00000000000E+00 0.  1.
         13    1    5    5    0    0 -0.63294761548E+02 -0.14876291069E+03  0.78750056759E+02  0.17982825661E+03  0.00000000000E+00 0. -1.
        -13    1    5    5    0    0 -0.50417476333E+02 -0.43726202476E+03  0.30209418262E+03  0.53385475121E+03  0.00000000000E+00 0.  1.
          1    1    6    6  503    0 -0.11350764466E+03  0.78141392056E+02  0.15977412066E+03  0.21099249319E+03  0.00000000000E+00 0. -1.
         -1    1    6    6    0  503 -0.28037267273E+03  0.22373590398E+03  0.22217585515E+03  0.42193447472E+03  0.00000000000E+00 0.  1.
<mgrwt>
<rscale>  0 0.20272112E+04</rscale>
<asrwt>0</asrwt>
<pdfrwt beam="1">  1        1 0.47223149E+00 0.20272112E+04</pdfrwt>
<pdfrwt beam="2">  1       -2 0.51493964E-01 0.20272112E+04</pdfrwt>
<totfact> 0.15429107E+00</totfact>
</mgrwt>
</event>
<event>
12    5  0.5246737E-008  0.1300284E+04  0.7818608E-02  0.9029340E-01
         -2   -1    0    0    0  501 -0.00000000000E+00  0.00000000000E+00  0.30245369867E+03  0.30245369867E+03  0.00000000000E+00 0.  1.
          1   -1    0    0  501    0  0.00000000000E+00 -0.00000000000E+00 -0.13975175936E+04  0.13975175936E+04  0.00000000000E+00 0. -1.
        -24    2    1    2    0    0  0.27899886746E+03  0.56199786069E+02 -0.51557499792E+03  0.59420272881E+03  0.79123450672E+02 0.  0.
        254    2    1    2    0    0 -0.27899886746E+03 -0.56199786069E+02 -0.57948889702E+03  0.11057685635E+04  0.89772933015E+03 0.  0.
         23    2    4    4    0    0 -0.48920403969E+03  0.25187635714E+03 -0.35914027519E+03  0.66334381510E+03  0.90999934257E+02 0.  0.
         23    2    4    4    0    0  0.21020517224E+03 -0.30807614321E+03 -0.22034862183E+03  0.44242474838E+03  0.89938970320E+02 0.  0.
          1    1    3    3  502    0  0.25725956070E+03  0.51404589695E+02 -0.50600674087E+03  0.56997169686E+03  0.00000000000E+00 0. -1.
         -2    1    3    3    0  502  0.21739306751E+02  0.47951963741E+01 -0.95682570512E+01  0.24231031949E+02  0.00000000000E+00 0.  1.
         13    1    5    5    0    0 -0.45229976873E+03  0.25054365526E+03 -0.31364750626E+03  0.60474950365E+03  0.00000000000E+00 0. -1.
        -13    1    5    5    0    0 -0.36904270959E+02  0.13327018849E+01 -0.45492768935E+02  0.58594311453E+02  0.00000000000E+00 0.  1.
          1    1    6    6  503    0  0.18850277028E+03 -0.27740008691E+03 -0.16063220200E+03  0.37186934122E+03  0.00000000000E+00 0. -1.
         -1    1    6    6    0  503  0.21702401954E+02 -0.30676056297E+02 -0.59716419836E+02  0.70555407153E+02  0.00000000000E+00 0.  1.
<mgrwt>
<rscale>  0 0.13002836E+04</rscale>
<asrwt>0</asrwt>
<pdfrwt beam="1">  1        1 0.21500270E+00 0.13002836E+04</pdfrwt>
<pdfrwt beam="2">  1       -2 0.46531339E-01 0.13002836E+04</pdfrwt>
<totfact> 0.29111080E+01</totfact>
</mgrwt>
</event>
<event>
12    5  0.5246737E-008  0.4236546E+04  0.7818608E-02  0.7958457E-01
         -2   -1    0    0    0  501 -0.00000000000E+00  0.00000000000E+00  0.43286345369E+04  0.43286345369E+04  0.00000000000E+00 0.  1.
          1   -1    0    0  501    0  0.00000000000E+00 -0.00000000000E+00 -0.10366041215E+04  0.10366041215E+04  0.00000000000E+00 0. -1.
        -24    2    1    2    0    0 -0.11523768001E+04 -0.16227274882E+04  0.20156001164E+04  0.28337385987E+04  0.78827827990E+02 0.  0.
        254    2    1    2    0    0  0.11523768001E+04  0.16227274882E+04  0.12764302990E+04  0.25315000596E+04  0.90443432772E+03 0.  0.
         23    2    4    4    0    0  0.10799005957E+03  0.75028267561E+03  0.18741242159E+03  0.78620484083E+03  0.91698907783E+02 0.  0.
         23    2    4    4    0    0  0.10443867405E+04  0.87244481259E+03  0.10890178774E+04  0.17452952188E+04  0.90508831338E+02 0.  0.
          3    1    3    3  502    0 -0.20525989087E+03 -0.25081641782E+03  0.35539706049E+03  0.48098603810E+03  0.00000000000E+00 0. -1.
         -4    1    3    3    0  502 -0.94711690919E+03 -0.13719110704E+04  0.16602030559E+04  0.23527525606E+04  0.00000000000E+00 0.  1.
         13    1    5    5    0    0  0.89138814220E+02  0.30539174693E+03  0.84852777686E+02  0.32925649755E+03  0.00000000000E+00 0.  1.
        -13    1    5    5    0    0  0.18851245351E+02  0.44489092868E+03  0.10255964391E+03  0.45694834328E+03  0.00000000000E+00 0. -1.
          1    1    6    6  503    0  0.87687177642E+03  0.69028639164E+03  0.87474541084E+03  0.14179488526E+04  0.00000000000E+00 0. -1.
         -1    1    6    6    0  503  0.16751496407E+03  0.18215842096E+03  0.21427246659E+03  0.32734636618E+03  0.00000000000E+00 0.  1.
<mgrwt>
<rscale>  0 0.42365460E+04</rscale>
<asrwt>0</asrwt>
<pdfrwt beam="1">  1        1 0.15947756E+00 0.42365460E+04</pdfrwt>
<pdfrwt beam="2">  1       -2 0.66594376E+00 0.42365460E+04</pdfrwt>
<totfact> 0.28415515E-03</totfact>
</mgrwt>
</event>
<event>
12    5  0.5585587E-008  0.1663732E+04  0.7818608E-02  0.8782324E-01
          1   -1    0    0  501    0  0.00000000000E+00  0.00000000000E+00  0.29283008756E+04  0.29283008756E+04  0.00000000000E+00 0. -1.
         -2   -1    0    0    0  501 -0.00000000000E+00 -0.00000000000E+00 -0.23631475644E+03  0.23631475644E+03  0.00000000000E+00 0.  1.
        -24    2    1    2    0    0 -0.31210626132E+02 -0.70685172329E+02  0.20536641694E+04  0.20575551585E+04  0.10013097856E+03 0.  0.
        254    2    1    2    0    0  0.31210626132E+02  0.70685172329E+02  0.63832194979E+03  0.11070604736E+04  0.90119780501E+03 0.  0.
         23    2    4    4    0    0  0.21382109100E+03 -0.14183171506E+03  0.74550685784E+03  0.79357865990E+03  0.90282445781E+02 0.  0.
         23    2    4    4    0    0 -0.18261046487E+03  0.21251688739E+03 -0.10718490804E+03  0.31348181366E+03  0.90951820660E+02 0.  0.
          3    1    3    3  502    0 -0.33942410814E+02 -0.47270357675E+02  0.19634389609E+04  0.19643011803E+04  0.00000000000E+00 0. -1.
         -4    1    3    3    0  502  0.27317846814E+01 -0.23414814654E+02  0.90225208473E+02  0.93253978128E+02  0.00000000000E+00 0.  1.
         13    1    5    5    0    0  0.21999467755E+03 -0.14644335800E+03  0.72593399600E+03  0.77254351451E+03  0.00000000000E+00 0. -1.
        -13    1    5    5    0    0 -0.61735865447E+01  0.46116429443E+01  0.19572861831E+02  0.21035145393E+02  0.00000000000E+00 0.  1.
          3    1    6    6  503    0 -0.18415249159E+03  0.22001625637E+03 -0.10383171652E+03  0.30512344810E+03  0.00000000000E+00 0. -1.
         -3    1    6    6    0  503  0.15420267206E+01 -0.74993689808E+01 -0.33531915223E+01  0.83583655640E+01  0.00000000000E+00 0.  1.
<mgrwt>
<rscale>  0 0.16637316E+04</rscale>
<asrwt>0</asrwt>
<pdfrwt beam="1">  1        1 0.45050780E+00 0.16637316E+04</pdfrwt>
<pdfrwt beam="2">  1       -2 0.36356118E-01 0.16637316E+04</pdfrwt>
<totfact> 0.40389567E+00</totfact>
</mgrwt>
</event>
<event>
12    5  0.5246737E-008  0.1698375E+04  0.7818608E-02  0.8762292E-01
         -2   -1    0    0    0  501 -0.00000000000E+00  0.00000000000E+00  0.86389380693E+03  0.86389380693E+03  0.00000000000E+00 0.  1.
          1   -1    0    0  501    0  0.00000000000E+00 -0.00000000000E+00 -0.83473183539E+03  0.83473183539E+03  0.00000000000E+00 0. -1.
        -24    2    1    2    0    0  0.41060333699E+03 -0.25121038372E+03 -0.35491101610E+03  0.60334516035E+03  0.79760867189E+02 0.  0.
        254    2    1    2    0    0 -0.41060333699E+03  0.25121038372E+03  0.38407298764E+03  0.10952804820E+04  0.90577343586E+03 0.  0.
         23    2    4    4    0    0 -0.44388540481E+03 -0.11105408390E+03  0.51719477263E+03  0.69716061259E+03  0.95787393563E+02 0.  0.
         23    2    4    4    0    0  0.33282067817E+02  0.36226446762E+03 -0.13312178499E+03  0.39811986938E+03  0.91841059536E+02 0.  0.
          3    1    3    3  502    0  0.41277154621E+03 -0.25226461784E+03 -0.35607079013E+03  0.60066978812E+03  0.00000000000E+00 0. -1.
         -4    1    3    3    0  502 -0.21682092178E+01  0.10542341198E+01  0.11597740306E+01  0.26753722346E+01  0.00000000000E+00 0.  1.
         13    1    5    5    0    0 -0.36500471665E+03 -0.95812893220E+02  0.36471225261E+03  0.52480813722E+03  0.00000000000E+00 0.  1.
        -13    1    5    5    0    0 -0.78880688154E+02 -0.15241190678E+02  0.15248252002E+03  0.17235247537E+03  0.00000000000E+00 0. -1.
          3    1    6    6  503    0 -0.90357962824E+01  0.53068736684E+01  0.66870656410E+01  0.12430823363E+02  0.00000000000E+00 0. -1.
         -3    1    6    6    0  503  0.42317864099E+02  0.35695759395E+03 -0.13980885063E+03  0.38568904601E+03  0.00000000000E+00 0.  1.
<mgrwt>
<rscale>  0 0.16983753E+04</rscale>
<asrwt>0</asrwt>
<pdfrwt beam="1">  1        1 0.12842028E+00 0.16983753E+04</pdfrwt>
<pdfrwt beam="2">  1       -2 0.13290674E+00 0.16983753E+04</pdfrwt>
<totfact> 0.70626830E+00</totfact>
</mgrwt>
</event>
<event>
12    5  0.5246737E-008  0.2470007E+04  0.7818608E-02  0.8413749E-01
          1   -1    0    0  501    0  0.00000000000E+00  0.00000000000E+00  0.12619723117E+04  0.12619723117E+04  0.00000000000E+00 0. -1.
         -2   -1    0    0    0  501 -0.00000000000E+00 -0.00000000000E+00 -0.12086114365E+04  0.12086114365E+04  0.00000000000E+00 0.  1.
        -24    2    1    2    0    0 -0.75559052368E+03  0.73132057459E+03  0.22396154556E+03  0.10780938496E+04  0.79879611680E+02 0.  0.
        254    2    1    2    0    0  0.75559052368E+03 -0.73132057459E+03 -0.17060067032E+03  0.13924898986E+04  0.89675900151E+03 0.  0.
         23    2    4    4    0    0  0.29367482148E+03 -0.83064006858E+03 -0.10048950020E+02  0.88557555618E+03  0.89080076325E+02 0.  0.
         23    2    4    4    0    0  0.46191570220E+03  0.99319493991E+02 -0.16055172030E+03  0.50691434246E+03  0.89189785680E+02 0.  0.
          3    1    3    3  502    0 -0.58212144635E+02  0.54824144986E+02  0.39349039052E+02  0.89121756775E+02  0.00000000000E+00 0. -1.
         -4    1    3    3    0  502 -0.69737837905E+03  0.67649642961E+03  0.18461250651E+03  0.98897209283E+03  0.00000000000E+00 0.  1.
         13    1    5    5    0    0  0.76708245683E+02 -0.11937687609E+03 -0.10527652105E+01  0.14190173295E+03  0.00000000000E+00 0. -1.
        -13    1    5    5    0    0  0.21696657580E+03 -0.71126319250E+03 -0.89961848093E+01  0.74367382323E+03  0.00000000000E+00 0.  1.
          4    1    6    6  503    0  0.16951698017E+03  0.48289560083E+02 -0.16629282794E+02  0.17704355742E+03  0.00000000000E+00 0. -1.
         -4    1    6    6    0  503  0.29239872204E+03  0.51029933909E+02 -0.14392243751E+03  0.32987078504E+03  0.00000000000E+00 0.  1.
<mgrwt>
<rscale>  0 0.24700074E+04</rscale>
<asrwt>0</asrwt>
<pdfrwt beam="1">  1        1 0.19414959E+00 0.24700074E+04</pdfrwt>
<pdfrwt beam="2">  1       -2 0.18594022E+00 0.24700074E+04</pdfrwt>
<totfact> 0.12431807E+00</totfact>
</mgrwt>
</event>
<event>
12    5  0.5246737E-008  0.2268004E+04  0.7818608E-02  0.8490645E-01
         -2   -1    0    0    0  501 -0.00000000000E+00  0.00000000000E+00  0.10056370229E+04  0.10056370229E+04  0.00000000000E+00 0.  1.
          1   -1    0    0  501    0  0.00000000000E+00 -0.00000000000E+00 -0.12787517547E+04  0.12787517547E+04  0.00000000000E+00 0. -1.
        -24    2    1    2    0    0  0.34794724227E+03  0.20862932611E+02  0.75038514999E+03  0.83161489519E+03  0.83683422553E+02 0.  0.
        254    2    1    2    0    0 -0.34794724227E+03 -0.20862932611E+02 -0.10234998818E+04  0.14527738823E+04  0.97030788917E+03 0.  0.
         23    2    4    4    0    0 -0.54286293280E+03  0.20064113696E+03 -0.97924641076E+03  0.11410371264E+04  0.89917524437E+02 0.  0.
         23    2    4    4    0    0  0.19491569053E+03 -0.22150406957E+03 -0.44253471045E+02  0.31173675593E+03  0.90361806371E+02 0.  0.
          3    1    3    3  502    0  0.62398076772E+02  0.33922026488E+02  0.11988141948E+03  0.13934051315E+03  0.00000000000E+00 0. -1.
         -4    1    3    3    0  502  0.28554916550E+03 -0.13059093877E+02  0.63050373051E+03  0.69227438204E+03  0.00000000000E+00 0.  1.
         13    1    5    5    0    0 -0.70107596379E+02 -0.27784999038E+01 -0.13887024273E+03  0.15558836540E+03  0.00000000000E+00 0.  1.
        -13    1    5    5    0    0 -0.47275533642E+03  0.20341963686E+03 -0.84037616803E+03  0.98544876100E+03  0.00000000000E+00 0. -1.
          3    1    6    6  503    0  0.20048521729E+03 -0.21925709697E+03 -0.32929325853E+02  0.29891861338E+03  0.00000000000E+00 0. -1.
         -3    1    6    6    0  503 -0.55695267585E+01 -0.22469725932E+01 -0.11324145192E+02  0.12818142552E+02  0.00000000000E+00 0.  1.
<mgrwt>
<rscale>  0 0.22680036E+04</rscale>
<asrwt>0</asrwt>
<pdfrwt beam="1">  1        1 0.19673104E+00 0.22680036E+04</pdfrwt>
<pdfrwt beam="2">  1       -2 0.15471339E+00 0.22680036E+04</pdfrwt>
<totfact> 0.20558100E+00</totfact>
</mgrwt>
</event>
<event>
12    5  0.5246737E-008  0.1326462E+04  0.7818608E-02  0.9008840E-01
         -2   -1    0    0    0  501 -0.00000000000E+00  0.00000000000E+00  0.18907151394E+03  0.18907151394E+03  0.00000000000E+00 0.  1.
          1   -1    0    0  501    0  0.00000000000E+00 -0.00000000000E+00 -0.23265013796E+04  0.23265013796E+04  0.00000000000E+00 0. -1.
        -24    2    1    2    0    0  0.80002684736E+02  0.11100705686E+03 -0.12188806653E+04  0.12290101865E+04  0.77929237432E+02 0.  0.
        254    2    1    2    0    0 -0.80002684736E+02 -0.11100705686E+03 -0.91854920039E+03  0.12865627071E+04  0.89038641580E+03 0.  0.
         23    2    4    4    0    0 -0.31944254775E+03 -0.39676909638E+03 -0.52676809320E+03  0.73813434252E+03  0.88816813981E+02 0.  0.
         23    2    4    4    0    0  0.23943986301E+03  0.28576203953E+03 -0.39178110720E+03  0.54842836455E+03  0.91048579608E+02 0.  0.
          1    1    3    3  502    0  0.58436823542E+02  0.12023932835E+03 -0.10071842949E+04  0.10160179931E+04  0.00000000000E+00 0. -1.
         -2    1    3    3    0  502  0.21565861194E+02 -0.92322714930E+01 -0.21169637038E+03  0.21299219337E+03  0.00000000000E+00 0.  1.
         13    1    5    5    0    0 -0.13476514265E+03 -0.11198183166E+03 -0.21396844410E+03  0.27655753356E+03  0.00000000000E+00 0. -1.
        -13    1    5    5    0    0 -0.18467740509E+03 -0.28478726472E+03 -0.31279964910E+03  0.46157680897E+03  0.00000000000E+00 0.  1.
          2    1    6    6  503    0  0.24310695345E+03  0.26940973899E+03 -0.38799731844E+03  0.53124807519E+03  0.00000000000E+00 0.  1.
         -2    1    6    6    0  503 -0.36670904366E+01  0.16352300532E+02 -0.37837887618E+01  0.17180289356E+02  0.00000000000E+00 0. -1.
<mgrwt>
<rscale>  0 0.13264617E+04</rscale>
<asrwt>0</asrwt>
<pdfrwt beam="1">  1        1 0.35792330E+00 0.13264617E+04</pdfrwt>
<pdfrwt beam="2">  1       -2 0.29087924E-01 0.13264617E+04</pdfrwt>
<totfact> 0.16740826E+01</totfact>
</mgrwt>
</event>
<event>
12    5  0.5246737E-008  0.1595526E+04  0.7818608E-02  0.8823301E-01
          1   -1    0    0  501    0  0.00000000000E+00  0.00000000000E+00  0.88542072269E+03  0.88542072269E+03  0.00000000000E+00 0. -1.
         -2   -1    0    0    0  501 -0.00000000000E+00 -0.00000000000E+00 -0.71878329368E+03  0.71878329368E+03  0.00000000000E+00 0.  1.
        -24    2    1    2    0    0  0.47053894893E+03  0.17808379799E+03 -0.14186907641E+03  0.52874581372E+03  0.79527096712E+02 0.  0.
        254    2    1    2    0    0 -0.47053894893E+03 -0.17808379799E+03  0.30850650542E+03  0.10754582026E+04  0.89906247847E+03 0.  0.
         23    2    4    4    0    0 -0.40746614346E+03  0.23522724788E+03 -0.93491869173E+02  0.48838440049E+03  0.91750078077E+02 0.  0.
         23    2    4    4    0    0 -0.63072805471E+02 -0.41331104587E+03  0.40199837459E+03  0.58707380216E+03  0.90822665576E+02 0.  0.
          1    1    3    3  502    0  0.28976348556E+03  0.88865685614E+02 -0.11998036587E+03  0.32596821293E+03  0.00000000000E+00 0. -1.
         -2    1    3    3    0  502  0.18077546337E+03  0.89218112376E+02 -0.21888710545E+02  0.20277760079E+03  0.00000000000E+00 0.  1.
         13    1    5    5    0    0 -0.33121131471E+03  0.21384907680E+03 -0.48284481789E+02  0.39719485624E+03  0.00000000000E+00 0.  1.
        -13    1    5    5    0    0 -0.76254828752E+02  0.21378171080E+02 -0.45207387385E+02  0.91189544251E+02  0.00000000000E+00 0. -1.
          3    1    6    6  503    0 -0.30267150488E+02 -0.99185088565E+02  0.15328020685E+03  0.18506378361E+03  0.00000000000E+00 0. -1.
         -3    1    6    6    0  503 -0.32805654983E+02 -0.31412595730E+03  0.24871816775E+03  0.40201001855E+03  0.00000000000E+00 0.  1.
<mgrwt>
<rscale>  0 0.15955258E+04</rscale>
<asrwt>0</asrwt>
<pdfrwt beam="1">  1        1 0.13621857E+00 0.15955258E+04</pdfrwt>
<pdfrwt beam="2">  1       -2 0.11058205E+00 0.15955258E+04</pdfrwt>
<totfact> 0.10206785E+01</totfact>
</mgrwt>
</event>
<event>
12    5  0.5246737E-008  0.2425563E+04  0.7818608E-02  0.8429995E-01
          1   -1    0    0  501    0  0.00000000000E+00  0.00000000000E+00  0.76340568727E+03  0.76340568727E+03  0.00000000000E+00 0. -1.
         -2   -1    0    0    0  501 -0.00000000000E+00 -0.00000000000E+00 -0.19266806360E+04  0.19266806360E+04  0.00000000000E+00 0.  1.
        -24    2    1    2    0    0  0.68396556631E+03  0.66520116622E+03 -0.40032724036E+02  0.95813397207E+03  0.78208707947E+02 0.  0.
        254    2    1    2    0    0 -0.68396556631E+03 -0.66520116622E+03 -0.11232422247E+04  0.17319523512E+04  0.90977159997E+03 0.  0.
         23    2    4    4    0    0  0.74013653146E+02  0.16050254121E+02 -0.54377946130E+03  0.55612871228E+03  0.88585611591E+02 0.  0.
         23    2    4    4    0    0 -0.75797921946E+03 -0.68125142034E+03 -0.57946276343E+03  0.11758236390E+04  0.90267053220E+02 0.  0.
          3    1    3    3  502    0  0.58958301034E+03  0.60795822731E+03 -0.33285188173E+02  0.84754305849E+03  0.00000000000E+00 0. -1.
         -4    1    3    3    0  502  0.94382555968E+02  0.57242938902E+02 -0.67475358635E+01  0.11059091357E+03  0.00000000000E+00 0.  1.
         13    1    5    5    0    0  0.58390392458E+02 -0.22275082910E+02 -0.43975269141E+03  0.44417119093E+03  0.00000000000E+00 0.  1.
        -13    1    5    5    0    0  0.15623260688E+02  0.38325337030E+02 -0.10402676989E+03  0.11195752135E+03  0.00000000000E+00 0. -1.
          4    1    6    6  503    0 -0.72916840365E+02 -0.83568495031E+02 -0.92865930182E+02  0.14465351693E+03  0.00000000000E+00 0. -1.
         -4    1    6    6    0  503 -0.68506237909E+03 -0.59768292531E+03 -0.48659683325E+03  0.10311701220E+04  0.00000000000E+00 0.  1.
<mgrwt>
<rscale>  0 0.24255630E+04</rscale>
<asrwt>0</asrwt>
<pdfrwt beam="1">  1        1 0.11744703E+00 0.24255630E+04</pdfrwt>
<pdfrwt beam="2">  1       -2 0.29641240E+00 0.24255630E+04</pdfrwt>
<totfact> 0.62435211E-01</totfact>
</mgrwt>
</event>
<event>
12    5  0.5246737E-008  0.1299541E+04  0.7818608E-02  0.9029929E-01
          1   -1    0    0  501    0  0.00000000000E+00  0.00000000000E+00  0.11773200589E+04  0.11773200589E+04  0.00000000000E+00 0. -1.
         -2   -1    0    0    0  501 -0.00000000000E+00 -0.00000000000E+00 -0.35861276610E+03  0.35861276610E+03  0.00000000000E+00 0.  1.
        -24    2    1    2    0    0  0.16579648021E+03 -0.25340306652E+03  0.36672245707E+03  0.48244103039E+03  0.81008643460E+02 0.  0.
        254    2    1    2    0    0 -0.16579648021E+03  0.25340306652E+03  0.45198483577E+03  0.10534917946E+04  0.90213806184E+03 0.  0.
         23    2    4    4    0    0  0.26587472229E+02  0.10042678959E+03  0.68744320177E+03  0.70117941815E+03  0.91005423134E+02 0.  0.
         23    2    4    4    0    0 -0.19238395244E+03  0.15297627693E+03 -0.23545836600E+03  0.35231237648E+03  0.90939771489E+02 0.  0.
          3    1    3    3  502    0  0.11829414121E+03 -0.13783718736E+03  0.26524147051E+03  0.32147415408E+03  0.00000000000E+00 0. -1.
         -4    1    3    3    0  502  0.47502339001E+02 -0.11556587916E+03  0.10148098656E+03  0.16096687631E+03  0.00000000000E+00 0.  1.
         13    1    5    5    0    0 -0.24161425415E+02  0.49932198849E+02  0.17034750510E+03  0.17915153210E+03  0.00000000000E+00 0. -1.
        -13    1    5    5    0    0  0.50748897644E+02  0.50494590741E+02  0.51709569667E+03  0.52202788606E+03  0.00000000000E+00 0.  1.
          1    1    6    6  503    0 -0.53832197480E+02  0.46743069818E+02 -0.13021327748E+03  0.14845308247E+03  0.00000000000E+00 0. -1.
         -1    1    6    6    0  503 -0.13855175496E+03  0.10623320711E+03 -0.10524508852E+03  0.20385929401E+03  0.00000000000E+00 0.  1.
<mgrwt>
<rscale>  0 0.12995415E+04</rscale>
<asrwt>0</asrwt>
<pdfrwt beam="1">  1        1 0.18112616E+00 0.12995415E+04</pdfrwt>
<pdfrwt beam="2">  1       -2 0.55171195E-01 0.12995415E+04</pdfrwt>
<totfact> 0.29553298E+01</totfact>
</mgrwt>
</event>
<event>
12    5  0.5246737E-008  0.1487894E+04  0.7818608E-02  0.8892543E-01
          1   -1    0    0  501    0  0.00000000000E+00  0.00000000000E+00  0.10602315110E+04  0.10602315110E+04  0.00000000000E+00 0. -1.
         -2   -1    0    0    0  501 -0.00000000000E+00 -0.00000000000E+00 -0.52201530597E+03  0.52201530597E+03  0.00000000000E+00 0.  1.
        -24    2    1    2    0    0 -0.33818817082E+03  0.86714794963E+02 -0.14987786315E+03  0.38865101500E+03  0.81826298030E+02 0.  0.
        254    2    1    2    0    0  0.33818817082E+03 -0.86714794963E+02  0.68809406817E+03  0.11935958020E+04  0.91066283404E+03 0.  0.
         23    2    4    4    0    0 -0.26009104699E+03 -0.14060720076E+03  0.43813725046E+03  0.53648632625E+03  0.91845470152E+02 0.  0.
         23    2    4    4    0    0  0.59827921781E+03  0.53892405795E+02  0.24995681772E+03  0.65710947573E+03  0.92043677159E+02 0.  0.
          1    1    3    3  502    0 -0.38659862022E+02  0.26690340634E+02  0.29515315949E+01  0.47070911968E+02  0.00000000000E+00 0. -1.
         -2    1    3    3    0  502 -0.29952830880E+03  0.60024454329E+02 -0.15282939474E+03  0.34158010303E+03  0.00000000000E+00 0.  1.
         13    1    5    5    0    0 -0.42950457725E+02 -0.49039474646E+02  0.48985282590E+02  0.81542441727E+02  0.00000000000E+00 0.  1.
        -13    1    5    5    0    0 -0.21714058926E+03 -0.91567726112E+02  0.38915196787E+03  0.45494388452E+03  0.00000000000E+00 0. -1.
          1    1    6    6  503    0  0.55597553943E+03  0.72110799902E+02  0.22050083140E+03  0.60243620787E+03  0.00000000000E+00 0. -1.
         -1    1    6    6    0  503  0.42303678374E+02 -0.18218394107E+02  0.29455986315E+02  0.54673267852E+02  0.00000000000E+00 0.  1.
<mgrwt>
<rscale>  0 0.14878939E+04</rscale>
<asrwt>0</asrwt>
<pdfrwt beam="1">  1        1 0.16311254E+00 0.14878939E+04</pdfrwt>
<pdfrwt beam="2">  1       -2 0.80310047E-01 0.14878939E+04</pdfrwt>
<totfact> 0.15813077E+01</totfact>
</mgrwt>
</event>
<event>
12    5  0.5246737E-008  0.1895029E+04  0.7818608E-02  0.8657335E-01
         -2   -1    0    0    0  501 -0.00000000000E+00  0.00000000000E+00  0.42974814450E+03  0.42974814450E+03  0.00000000000E+00 0.  1.
          1   -1    0    0  501    0  0.00000000000E+00 -0.00000000000E+00 -0.20890917725E+04  0.20890917725E+04  0.00000000000E+00 0. -1.
        -24    2    1    2    0    0 -0.13702801387E+03 -0.66850924206E+03 -0.28859452489E+03  0.74521780743E+03  0.79884275086E+02 0.  0.
        254    2    1    2    0    0  0.13702801387E+03  0.66850924206E+03 -0.13707491031E+04  0.17736221096E+04  0.89504245742E+03 0.  0.
         23    2    4    4    0    0 -0.29224422369E+03  0.68974539217E+02 -0.15730789535E+03  0.35087923212E+03  0.90588565775E+02 0.  0.
         23    2    4    4    0    0  0.42927223756E+03  0.59953470285E+03 -0.12134412078E+04  0.14227428775E+04  0.89672832083E+02 0.  0.
          1    1    3    3  502    0  0.20281879751E+01 -0.37234102130E+02 -0.34049717702E+02  0.50496288809E+02  0.00000000000E+00 0. -1.
         -2    1    3    3    0  502 -0.13905620185E+03 -0.63127513993E+03 -0.25454480718E+03  0.69472151862E+03  0.00000000000E+00 0.  1.
         13    1    5    5    0    0 -0.17369772112E+03  0.84097823920E+02 -0.82433351030E+02  0.20985375782E+03  0.00000000000E+00 0. -1.
        -13    1    5    5    0    0 -0.11854650257E+03 -0.15123284704E+02 -0.74874544322E+02  0.14102547429E+03  0.00000000000E+00 0.  1.
          4    1    6    6  503    0  0.24434767936E+03  0.34869438759E+03 -0.78373379777E+03  0.89192613489E+03  0.00000000000E+00 0. -1.
         -4    1    6    6    0  503  0.18492455820E+03  0.25084031526E+03 -0.42970740999E+03  0.53081674257E+03  0.00000000000E+00 0.  1.
<mgrwt>
<rscale>  0 0.18950286E+04</rscale>
<asrwt>0</asrwt>
<pdfrwt beam="1">  1        1 0.32139874E+00 0.18950286E+04</pdfrwt>
<pdfrwt beam="2">  1       -2 0.66115098E-01 0.18950286E+04</pdfrwt>
<totfact> 0.44850287E+00</totfact>
</mgrwt>
</event>
<event>
12    5  0.5246737E-008  0.1220526E+04  0.7818608E-02  0.9095078E-01
         -2   -1    0    0    0  501 -0.00000000000E+00  0.00000000000E+00  0.30498849085E+03  0.30498849085E+03  0.00000000000E+00 0.  1.
          1   -1    0    0  501    0  0.00000000000E+00 -0.00000000000E+00 -0.12210977722E+04  0.12210977722E+04  0.00000000000E+00 0. -1.
        -24    2    1    2    0    0  0.20616705355E+03  0.87146154356E+02 -0.49607831695E+03  0.54998149498E+03  0.79288347696E+02 0.  0.
        254    2    1    2    0    0 -0.20616705355E+03 -0.87146154356E+02 -0.42003096439E+03  0.97610476806E+03  0.85220607895E+03 0.  0.
         23    2    4    4    0    0 -0.46444301321E+02  0.26221336492E+02  0.25106095124E+03  0.27117399079E+03  0.87516286673E+02 0.  0.
         23    2    4    4    0    0 -0.15972275223E+03 -0.11336749085E+03 -0.67109191563E+03  0.70493077727E+03  0.90551068241E+02 0.  0.
          3    1    3    3  502    0  0.12138809940E+03  0.52291450784E+02 -0.37837589012E+03  0.40079643302E+03  0.00000000000E+00 0. -1.
         -4    1    3    3    0  502  0.84778954153E+02  0.34854703572E+02 -0.11770242683E+03  0.14918506196E+03  0.00000000000E+00 0.  1.
         13    1    5    5    0    0  0.22746393306E+02 -0.94443816329E+01  0.62440084735E+02  0.67121970580E+02  0.00000000000E+00 0. -1.
        -13    1    5    5    0    0 -0.69190694626E+02  0.35665718125E+02  0.18862086650E+03  0.20405202021E+03  0.00000000000E+00 0.  1.
          2    1    6    6  503    0 -0.16301636513E+02 -0.24816516081E+02 -0.24369906604E+03  0.24550119676E+03  0.00000000000E+00 0.  1.
         -2    1    6    6    0  503 -0.14342111572E+03 -0.88550974768E+02 -0.42739284959E+03  0.45942958051E+03  0.00000000000E+00 0. -1.
<mgrwt>
<rscale>  0 0.12205257E+04</rscale>
<asrwt>0</asrwt>
<pdfrwt beam="1">  1        1 0.18786120E+00 0.12205257E+04</pdfrwt>
<pdfrwt beam="2">  1       -2 0.46921306E-01 0.12205257E+04</pdfrwt>
<totfact> 0.38481980E+01</totfact>
</mgrwt>
</event>
<event>
12    5  0.5246737E-008  0.1965204E+04  0.7818608E-02  0.8623064E-01
          1   -1    0    0  501    0  0.00000000000E+00  0.00000000000E+00  0.17745617652E+04  0.17745617652E+04  0.00000000000E+00 0. -1.
         -2   -1    0    0    0  501 -0.00000000000E+00 -0.00000000000E+00 -0.54408177419E+03  0.54408177419E+03  0.00000000000E+00 0.  1.
        -24    2    1    2    0    0 -0.19859207753E+03  0.31234814276E+03 -0.31496440371E+03  0.49298942112E+03  0.82679006911E+02 0.  0.
        254    2    1    2    0    0  0.19859207753E+03 -0.31234814276E+03  0.15454443948E+04  0.18256541183E+04  0.89867369318E+03 0.  0.
         23    2    4    4    0    0  0.34873050546E+03 -0.29702570789E+03  0.27328937404E+03  0.54114974617E+03  0.91207067854E+02 0.  0.
         23    2    4    4    0    0 -0.15013842793E+03 -0.15322434870E+02  0.12721550207E+04  0.12845043721E+04  0.93791048275E+02 0.  0.
          1    1    3    3  502    0  0.68243131841E+01  0.21649818361E+02 -0.25972922349E+02  0.34494616693E+02  0.00000000000E+00 0. -1.
         -2    1    3    3    0  502 -0.20541639071E+03  0.29069832440E+03 -0.28899148137E+03  0.45849480443E+03  0.00000000000E+00 0.  1.
         13    1    5    5    0    0  0.17495413928E+03 -0.10926114864E+03  0.16141481122E+03  0.26191924468E+03  0.00000000000E+00 0.  1.
        -13    1    5    5    0    0  0.17377636618E+03 -0.18776455925E+03  0.11187456282E+03  0.27923050149E+03  0.00000000000E+00 0. -1.
          3    1    6    6  503    0 -0.83068095279E+02  0.38422322628E+02  0.68774925748E+03  0.69381238422E+03  0.00000000000E+00 0. -1.
         -3    1    6    6    0  503 -0.67070332648E+02 -0.53744757498E+02  0.58440576323E+03  0.59069198791E+03  0.00000000000E+00 0.  1.
<mgrwt>
<rscale>  0 0.19652040E+04</rscale>
<asrwt>0</asrwt>
<pdfrwt beam="1">  1        1 0.27300950E+00 0.19652040E+04</pdfrwt>
<pdfrwt beam="2">  1       -2 0.83704889E-01 0.19652040E+04</pdfrwt>
<totfact> 0.43213482E+00</totfact>
</mgrwt>
</event>
<event>
12    5  0.5246737E-008  0.2925400E+04  0.7818608E-02  0.8265360E-01
          1   -1    0    0  501    0  0.00000000000E+00  0.00000000000E+00  0.25278888800E+04  0.25278888800E+04  0.00000000000E+00 0. -1.
         -2   -1    0    0    0  501 -0.00000000000E+00 -0.00000000000E+00 -0.84635470702E+03  0.84635470702E+03  0.00000000000E+00 0.  1.
        -24    2    1    2    0    0  0.99305887243E+03  0.67867262893E+03  0.13885083312E+04  0.18387590146E+04  0.79478717705E+02 0.  0.
        254    2    1    2    0    0 -0.99305887243E+03 -0.67867262893E+03  0.29302584175E+03  0.15354845724E+04  0.90834259331E+03 0.  0.
         23    2    4    4    0    0 -0.51007563553E+03 -0.24981443219E+03 -0.30249829736E+03  0.65089223284E+03  0.97831867863E+02 0.  0.
         23    2    4    4    0    0 -0.48298323690E+03 -0.42885819674E+03  0.59552413911E+03  0.88459233958E+03  0.10325912519E+03 0.  0.
          1    1    3    3  502    0  0.26402781942E+03  0.19661555557E+03  0.43115555696E+03  0.54246057960E+03  0.00000000000E+00 0. -1.
         -2    1    3    3    0  502  0.72903105301E+03  0.48205707336E+03  0.95735277427E+03  0.12962984350E+04  0.00000000000E+00 0.  1.
         13    1    5    5    0    0 -0.33601058438E+03 -0.20524984892E+03 -0.17681188274E+03  0.43161679205E+03  0.00000000000E+00 0.  1.
        -13    1    5    5    0    0 -0.17406505114E+03 -0.44564583268E+02 -0.12568641462E+03  0.21927544079E+03  0.00000000000E+00 0. -1.
          1    1    6    6  503    0 -0.42493587501E+02 -0.33961446453E+02  0.16614798749E+02  0.56878259127E+02  0.00000000000E+00 0. -1.
         -1    1    6    6    0  503 -0.44048964940E+03 -0.39489675028E+03  0.57890934036E+03  0.82771408045E+03  0.00000000000E+00 0.  1.
<mgrwt>
<rscale>  0 0.29253996E+04</rscale>
<asrwt>0</asrwt>
<pdfrwt beam="1">  1        1 0.38890598E+00 0.29253996E+04</pdfrwt>
<pdfrwt beam="2">  1       -2 0.13020842E+00 0.29253996E+04</pdfrwt>
<totfact> 0.42209262E-01</totfact>
</mgrwt>
</event>
<event>
12    5  0.5246737E-008  0.1600942E+04  0.7818608E-02  0.8819970E-01
          1   -1    0    0  501    0  0.00000000000E+00  0.00000000000E+00  0.14908578585E+04  0.14908578585E+04  0.00000000000E+00 0. -1.
         -2   -1    0    0    0  501 -0.00000000000E+00 -0.00000000000E+00 -0.42978850402E+03  0.42978850402E+03  0.00000000000E+00 0.  1.
        -24    2    1    2    0    0  0.24816974578E+03  0.58140411443E+02  0.93775644234E+03  0.97520361103E+03  0.81648071974E+02 0.  0.
        254    2    1    2    0    0 -0.24816974578E+03 -0.58140411443E+02  0.12331291211E+03  0.94544275145E+03  0.90204622488E+03 0.  0.
         23    2    4    4    0    0 -0.29455131765E+03 -0.10012628504E+02  0.48044177695E+03  0.57092132879E+03  0.90918266465E+02 0.  0.
         23    2    4    4    0    0  0.46381571865E+02 -0.48127782938E+02 -0.35712886484E+03  0.37452142266E+03  0.90872087197E+02 0.  0.
          3    1    3    3  502    0  0.13182749370E+03  0.26360956785E+02  0.63964887641E+03  0.65362380100E+03  0.00000000000E+00 0. -1.
         -4    1    3    3    0  502  0.11634225208E+03  0.31779454658E+02  0.29810756593E+03  0.32157981004E+03  0.00000000000E+00 0.  1.
         13    1    5    5    0    0 -0.26423946908E+03  0.68814836716E+01  0.36693962390E+03  0.45223283762E+03  0.00000000000E+00 0.  1.
        -13    1    5    5    0    0 -0.30311848571E+02 -0.16894112176E+02  0.11350215305E+03  0.11868849117E+03  0.00000000000E+00 0. -1.
          1    1    6    6  503    0 -0.97807131497E+01  0.96487740361E+01 -0.17287276213E+03  0.17341785685E+03  0.00000000000E+00 0. -1.
         -1    1    6    6    0  503  0.56162285015E+02 -0.57776556975E+02 -0.18425610271E+03  0.20110356580E+03  0.00000000000E+00 0.  1.
<mgrwt>
<rscale>  0 0.16009417E+04</rscale>
<asrwt>0</asrwt>
<pdfrwt beam="1">  1        1 0.22936274E+00 0.16009417E+04</pdfrwt>
<pdfrwt beam="2">  1       -2 0.66121309E-01 0.16009417E+04</pdfrwt>
<totfact> 0.11758579E+01</totfact>
</mgrwt>
</event>
<event>
12    5  0.5246737E-008  0.1912362E+04  0.7818608E-02  0.8648728E-01
          1   -1    0    0  501    0  0.00000000000E+00  0.00000000000E+00  0.17812685874E+04  0.17812685874E+04  0.00000000000E+00 0. -1.
         -2   -1    0    0    0  501 -0.00000000000E+00 -0.00000000000E+00 -0.51327557870E+03  0.51327557870E+03  0.00000000000E+00 0.  1.
        -24    2    1    2    0    0  0.29094444282E+03 -0.23008721721E+03 -0.27863365764E+03  0.47052874933E+03  0.78560756404E+02 0.  0.
        254    2    1    2    0    0 -0.29094444282E+03  0.23008721721E+03  0.15466266664E+04  0.18240154168E+04  0.89296662831E+03 0.  0.
         23    2    4    4    0    0 -0.12581117387E+03  0.34281869544E+03  0.14185560319E+03  0.40220684322E+03  0.91072625747E+02 0.  0.
         23    2    4    4    0    0 -0.16513326895E+03 -0.11273147824E+03  0.14047710632E+04  0.14218085736E+04  0.90446101392E+02 0.  0.
          3    1    3    3  502    0  0.36542010299E+02 -0.11504945968E+02 -0.70484520612E+01  0.38953343565E+02  0.00000000000E+00 0. -1.
         -4    1    3    3    0  502  0.25440243252E+03 -0.21858227124E+03 -0.27158520558E+03  0.43157540576E+03  0.00000000000E+00 0.  1.
         13    1    5    5    0    0 -0.14738533189E+02  0.11465786459E+03  0.94677151752E+01  0.11598830934E+03  0.00000000000E+00 0.  1.
        -13    1    5    5    0    0 -0.11107264068E+03  0.22816083085E+03  0.13238788801E+03  0.28621853388E+03  0.00000000000E+00 0. -1.
          4    1    6    6  503    0  0.24837186058E+01 -0.30336849256E+02  0.27816460308E+03  0.27982501619E+03  0.00000000000E+00 0. -1.
         -4    1    6    6    0  503 -0.16761698755E+03 -0.82394628982E+02  0.11266064601E+04  0.11419835574E+04  0.00000000000E+00 0.  1.
<mgrwt>
<rscale>  0 0.19123615E+04</rscale>
<asrwt>0</asrwt>
<pdfrwt beam="1">  1        1 0.27404132E+00 0.19123615E+04</pdfrwt>
<pdfrwt beam="2">  1       -2 0.78965475E-01 0.19123615E+04</pdfrwt>
<totfact> 0.48997952E+00</totfact>
</mgrwt>
</event>
<event>
12    5  0.5246737E-008  0.2526354E+04  0.7818608E-02  0.8393657E-01
          1   -1    0    0  501    0  0.00000000000E+00  0.00000000000E+00  0.15709297480E+04  0.15709297480E+04  0.00000000000E+00 0. -1.
         -2   -1    0    0    0  501 -0.00000000000E+00 -0.00000000000E+00 -0.10157143732E+04  0.10157143732E+04  0.00000000000E+00 0.  1.
        -24    2    1    2    0    0 -0.82060533595E+03  0.67866775453E+03  0.53644827215E+03  0.11946822784E+04  0.74202151612E+02 0.  0.
        254    2    1    2    0    0  0.82060533595E+03 -0.67866775453E+03  0.18767102661E+02  0.13919618427E+04  0.89622682896E+03 0.  0.
         23    2    4    4    0    0  0.92634832473E+03 -0.55460120232E+03 -0.20169153984E+03  0.11021593165E+04  0.91498466284E+02 0.  0.
         23    2    4    4    0    0 -0.10574298878E+03 -0.12406655222E+03  0.22045864250E+03  0.28980252621E+03  0.93858415104E+02 0.  0.
          1    1    3    3  502    0 -0.46308245048E+03  0.41911593012E+03  0.34060790703E+03  0.71141919088E+03  0.00000000000E+00 0. -1.
         -2    1    3    3    0  502 -0.35752288547E+03  0.25955182442E+03  0.19584036512E+03  0.48326308757E+03  0.00000000000E+00 0.  1.
         13    1    5    5    0    0  0.76835584476E+03 -0.46122467206E+03 -0.20197237751E+03  0.91863580573E+03  0.00000000000E+00 0. -1.
        -13    1    5    5    0    0  0.15799247997E+03 -0.93376530261E+02  0.28083767225E+00  0.18352351075E+03  0.00000000000E+00 0.  1.
          3    1    6    6  503    0 -0.59413549271E+02 -0.11740779790E+03  0.19837527073E+03  0.23804896321E+03  0.00000000000E+00 0. -1.
         -3    1    6    6    0  503 -0.46329439513E+02 -0.66587543189E+01  0.22083371767E+02  0.51753563000E+02  0.00000000000E+00 0.  1.
<mgrwt>
<rscale>  0 0.25263538E+04</rscale>
<asrwt>0</asrwt>
<pdfrwt beam="1">  1        1 0.24168150E+00 0.25263538E+04</pdfrwt>
<pdfrwt beam="2">  1       -2 0.15626375E+00 0.25263538E+04</pdfrwt>
<totfact> 0.12216773E+00</totfact>
</mgrwt>
</event>
<event>
12    5  0.5246737E-008  0.1333882E+04  0.7818608E-02  0.9003120E-01
          1   -1    0    0  501    0  0.00000000000E+00  0.00000000000E+00  0.11116979475E+04  0.11116979475E+04  0.00000000000E+00 0. -1.
         -2   -1    0    0    0  501 -0.00000000000E+00 -0.00000000000E+00 -0.40011777446E+03  0.40011777446E+03  0.00000000000E+00 0.  1.
        -24    2    1    2    0    0  0.21770956008E+03  0.22567874299E+03  0.39305983993E+03  0.50916800646E+03  0.80172772453E+02 0.  0.
        254    2    1    2    0    0 -0.21770956008E+03 -0.22567874299E+03  0.31852033309E+03  0.10026477155E+04  0.89750704242E+03 0.  0.
         23    2    4    4    0    0 -0.18861505821E+03 -0.43291319281E+03 -0.13069888618E+03  0.49843456048E+03  0.91462230132E+02 0.  0.
         23    2    4    4    0    0 -0.29094501874E+02  0.20723444981E+03  0.44921921927E+03  0.50421315501E+03  0.92953706195E+02 0.  0.
          3    1    3    3  502    0  0.90189344119E+01  0.38741709868E+02  0.26498814319E+02  0.47795903818E+02  0.00000000000E+00 0. -1.
         -4    1    3    3    0  502  0.20869062567E+03  0.18693703313E+03  0.36656102561E+03  0.46137210264E+03  0.00000000000E+00 0.  1.
         13    1    5    5    0    0 -0.86393874296E+02 -0.98712512313E+02 -0.43932091712E+02  0.13834048679E+03  0.00000000000E+00 0.  1.
        -13    1    5    5    0    0 -0.10222118391E+03 -0.33420068049E+03 -0.86766794464E+02  0.36009407369E+03  0.00000000000E+00 0. -1.
          3    1    6    6  503    0 -0.15504143238E+01  0.19492054321E+03  0.35136443236E+03  0.40181262583E+03  0.00000000000E+00 0. -1.
         -3    1    6    6    0  503 -0.27544087550E+02  0.12313906600E+02  0.97854786907E+02  0.10240052918E+03  0.00000000000E+00 0.  1.
<mgrwt>
<rscale>  0 0.13338817E+04</rscale>
<asrwt>0</asrwt>
<pdfrwt beam="1">  1        1 0.17103045E+00 0.13338817E+04</pdfrwt>
<pdfrwt beam="2">  1       -2 0.61556581E-01 0.13338817E+04</pdfrwt>
<totfact> 0.26190245E+01</totfact>
</mgrwt>
</event>
<event>
12    5  0.5246737E-008  0.1518031E+04  0.7818608E-02  0.8872550E-01
         -2   -1    0    0    0  501 -0.00000000000E+00  0.00000000000E+00  0.90606529247E+03  0.90606529247E+03  0.00000000000E+00 0.  1.
          1   -1    0    0  501    0  0.00000000000E+00 -0.00000000000E+00 -0.63583154703E+03  0.63583154703E+03  0.00000000000E+00 0. -1.
        -24    2    1    2    0    0 -0.22511075876E+03  0.25534786726E+03 -0.28654786175E+03  0.45188327408E+03  0.78812621444E+02 0.  0.
        254    2    1    2    0    0  0.22511075876E+03 -0.25534786726E+03  0.55678160719E+03  0.10900135654E+04  0.87306725266E+03 0.  0.
         23    2    4    4    0    0  0.28033724302E+03 -0.14272999440E+03  0.76424602869E+03  0.83157202092E+03  0.92082639461E+02 0.  0.
         23    2    4    4    0    0 -0.55226484262E+02 -0.11261787286E+03 -0.20746442149E+03  0.25844154450E+03  0.89542145867E+02 0.  0.
          3    1    3    3  502    0 -0.21305242921E+03  0.23230043785E+03 -0.23177333678E+03  0.39124635546E+03  0.00000000000E+00 0. -1.
         -4    1    3    3    0  502 -0.12058329543E+02  0.23047429402E+02 -0.54774524975E+02  0.60636918619E+02  0.00000000000E+00 0.  1.
         13    1    5    5    0    0  0.23921890856E+03 -0.78980420594E+02  0.58811818246E+03  0.63980199249E+03  0.00000000000E+00 0.  1.
        -13    1    5    5    0    0  0.41118334455E+02 -0.63749573803E+02  0.17612784622E+03  0.19177002843E+03  0.00000000000E+00 0. -1.
          1    1    6    6  503    0  0.70117680769E+01 -0.35376137463E+02 -0.12293128595E+03  0.12811220495E+03  0.00000000000E+00 0. -1.
         -1    1    6    6    0  503 -0.62238252338E+02 -0.77241735395E+02 -0.84533135543E+02  0.13032933954E+03  0.00000000000E+00 0.  1.
<mgrwt>
<rscale>  0 0.15180315E+04</rscale>
<asrwt>0</asrwt>
<pdfrwt beam="1">  1        1 0.97820237E-01 0.15180315E+04</pdfrwt>
<pdfrwt beam="2">  1       -2 0.13939466E+00 0.15180315E+04</pdfrwt>
<totfact> 0.96583134E+00</totfact>
</mgrwt>
</event>
<event>
12    5  0.5246737E-008  0.2928146E+04  0.7818608E-02  0.8264552E-01
          1   -1    0    0  501    0  0.00000000000E+00  0.00000000000E+00  0.16532970478E+04  0.16532970478E+04  0.00000000000E+00 0. -1.
         -2   -1    0    0    0  501 -0.00000000000E+00 -0.00000000000E+00 -0.12965061558E+04  0.12965061558E+04  0.00000000000E+00 0.  1.
        -24    2    1    2    0    0  0.27317579750E+03 -0.28320982922E+03 -0.11067529346E+04  0.11773065969E+04  0.79472895464E+02 0.  0.
        254    2    1    2    0    0 -0.27317579750E+03  0.28320982922E+03  0.14635438266E+04  0.17724966067E+04  0.91921208908E+03 0.  0.
         23    2    4    4    0    0 -0.29979908291E+02  0.51737390275E+03  0.42426341803E+03  0.67594413365E+03  0.91249513887E+02 0.  0.
         23    2    4    4    0    0 -0.24319588921E+03 -0.23416407353E+03  0.10392804086E+04  0.10965524731E+04  0.91359206880E+02 0.  0.
          1    1    3    3  502    0  0.14578128878E+03 -0.14298535101E+03 -0.68857980089E+03  0.71821942118E+03  0.00000000000E+00 0. -1.
         -2    1    3    3    0  502  0.12739450872E+03 -0.14022447822E+03 -0.41817313373E+03  0.45908717572E+03  0.00000000000E+00 0.  1.
         13    1    5    5    0    0  0.13728187110E+02  0.11873788947E+03  0.14164172271E+03  0.18533625422E+03  0.00000000000E+00 0. -1.
        -13    1    5    5    0    0 -0.43708095400E+02  0.39863601328E+03  0.28262169532E+03  0.49060787942E+03  0.00000000000E+00 0.  1.
          4    1    6    6  503    0 -0.16308112863E+03 -0.17357778689E+03  0.84390273696E+03  0.87686745411E+03  0.00000000000E+00 0.  1.
         -4    1    6    6    0  503 -0.80114760576E+02 -0.60586286641E+02  0.19537767160E+03  0.21968501895E+03  0.00000000000E+00 0. -1.
<mgrwt>
<rscale>  0 0.29281460E+04</rscale>
<asrwt>0</asrwt>
<pdfrwt beam="1">  1        1 0.25435339E+00 0.29281460E+04</pdfrwt>
<pdfrwt beam="2">  1       -2 0.19946249E+00 0.29281460E+04</pdfrwt>
<totfact> 0.51746328E-01</totfact>
</mgrwt>
</event>
<event>
12    5  0.5246737E-008  0.1669713E+04  0.7818608E-02  0.8778829E-01
         -4   -1    0    0    0  501 -0.00000000000E+00  0.00000000000E+00  0.15592211864E+04  0.15592211864E+04  0.00000000000E+00 0.  1.
          3   -1    0    0  501    0  0.00000000000E+00 -0.00000000000E+00 -0.44700880390E+03  0.44700880390E+03  0.00000000000E+00 0. -1.
        -24    2    1    2    0    0  0.15315763671E+00  0.44261423349E+02  0.11123811666E+04  0.11159306161E+04  0.77137430227E+02 0.  0.
        254    2    1    2    0    0 -0.15315763671E+00 -0.44261423349E+02 -0.16878413309E+00  0.89029937415E+03  0.88919843121E+03 0.  0.
         23    2    4    4    0    0  0.10003937815E+03  0.39902999010E+03 -0.49390813187E+02  0.42417322684E+03  0.90833164453E+02 0.  0.
         23    2    4    4    0    0 -0.10019253578E+03 -0.44329141345E+03  0.49222029054E+02  0.46612614730E+03  0.91131529095E+02 0.  0.
          1    1    3    3  502    0  0.28551210152E+02  0.11292728561E+02  0.18510785755E+03  0.18763692666E+03  0.00000000000E+00 0. -1.
         -2    1    3    3    0  502 -0.28398052515E+02  0.32968694787E+02  0.92727330905E+03  0.92829368946E+03  0.00000000000E+00 0.  1.
         13    1    5    5    0    0  0.81414759419E+02  0.21617346940E+03  0.94279085959E+01  0.23118870514E+03  0.00000000000E+00 0.  1.
        -13    1    5    5    0    0  0.18624618729E+02  0.18285652070E+03 -0.58818721783E+02  0.19298452170E+03  0.00000000000E+00 0. -1.
          1    1    6    6  503    0 -0.10548379245E+02 -0.96910778938E-01 -0.29578132293E+01  0.10955654043E+02  0.00000000000E+00 0. -1.
         -1    1    6    6    0  503 -0.89644156540E+02 -0.44319450267E+03  0.52179842283E+02  0.45517049326E+03  0.00000000000E+00 0.  1.
<mgrwt>
<rscale>  0 0.16697133E+04</rscale>
<asrwt>0</asrwt>
<pdfrwt beam="1">  1        3 0.68770586E-01 0.16697133E+04</pdfrwt>
<pdfrwt beam="2">  1       -4 0.23988018E+00 0.16697133E+04</pdfrwt>
<totfact> 0.32334685E-01</totfact>
</mgrwt>
</event>
<event>
12    5  0.5246737E-008  0.2346617E+04  0.7818608E-02  0.8459764E-01
          1   -1    0    0  501    0  0.00000000000E+00  0.00000000000E+00  0.17787409010E+04  0.17787409010E+04  0.00000000000E+00 0. -1.
         -2   -1    0    0    0  501 -0.00000000000E+00 -0.00000000000E+00 -0.77394768526E+03  0.77394768526E+03  0.00000000000E+00 0.  1.
        -24    2    1    2    0    0 -0.92600307491E+03 -0.34634109243E+03  0.57912360022E+03  0.11488819859E+04  0.84331643951E+02 0.  0.
        254    2    1    2    0    0  0.92600307491E+03  0.34634109243E+03  0.42566961549E+03  0.14038066003E+04  0.90113511886E+03 0.  0.
         23    2    4    4    0    0  0.46196642095E+03  0.61833471185E+03  0.14541429411E+03  0.79061267537E+03  0.90400749760E+02 0.  0.
         23    2    4    4    0    0  0.46403665397E+03 -0.27199361942E+03  0.28025532138E+03  0.61319392493E+03  0.90295067327E+02 0.  0.
          1    1    3    3  502    0 -0.20845990140E+03 -0.51057494005E+02  0.15371950527E+03  0.26399258415E+03  0.00000000000E+00 0. -1.
         -2    1    3    3    0  502 -0.71754317351E+03 -0.29528359842E+03  0.42540409495E+03  0.88488940176E+03  0.00000000000E+00 0.  1.
         13    1    5    5    0    0  0.58955635263E+02  0.64295822303E+02  0.45081890742E+02  0.98194177871E+02  0.00000000000E+00 0. -1.
        -13    1    5    5    0    0  0.40301078568E+03  0.55403888955E+03  0.10033240337E+03  0.69241849750E+03  0.00000000000E+00 0.  1.
          1    1    6    6  503    0  0.11746664421E+03 -0.52052655250E+02  0.10877782167E+03  0.16834638668E+03  0.00000000000E+00 0.  1.
         -1    1    6    6    0  503  0.34657000976E+03 -0.21994096417E+03  0.17147749970E+03  0.44484753825E+03  0.00000000000E+00 0. -1.
<mgrwt>
<rscale>  0 0.23466166E+04</rscale>
<asrwt>0</asrwt>
<pdfrwt beam="1">  1        1 0.27365245E+00 0.23466166E+04</pdfrwt>
<pdfrwt beam="2">  1       -2 0.11906887E+00 0.23466166E+04</pdfrwt>
<totfact> 0.18031887E+00</totfact>
</mgrwt>
</event>
<event>
12    5  0.5246737E-008  0.2285441E+04  0.7818608E-02  0.8483684E-01
         -2   -1    0    0    0  501 -0.00000000000E+00  0.00000000000E+00  0.13891758908E+04  0.13891758908E+04  0.00000000000E+00 0.  1.
          1   -1    0    0  501    0  0.00000000000E+00 -0.00000000000E+00 -0.93998909119E+03  0.93998909119E+03  0.00000000000E+00 0. -1.
        -24    2    1    2    0    0  0.62722078051E+03  0.49380043456E+03  0.75714457429E+03  0.11031291316E+04  0.79882400219E+02 0.  0.
        254    2    1    2    0    0 -0.62722078051E+03 -0.49380043456E+03 -0.30795777471E+03  0.12260358504E+04  0.87811225865E+03 0.  0.
         23    2    4    4    0    0 -0.34350016308E+03  0.63406735364E+02  0.20370084149E+03  0.41309504262E+03  0.84502693984E+02 0.  0.
         23    2    4    4    0    0 -0.28372061743E+03 -0.55720716992E+03 -0.51165861620E+03  0.81294080778E+03  0.90005546767E+02 0.  0.
          1    1    3    3  502    0  0.11504370888E+03  0.11770266656E+03  0.12364033114E+03  0.20585408462E+03  0.00000000000E+00 0. -1.
         -2    1    3    3    0  502  0.51217707162E+03  0.37609776800E+03  0.63350424315E+03  0.89727504695E+03  0.00000000000E+00 0.  1.
         13    1    5    5    0    0 -0.32130221024E+03  0.37123945976E+02  0.17207522310E+03  0.36636481828E+03  0.00000000000E+00 0.  1.
        -13    1    5    5    0    0 -0.22197952840E+02  0.26282789388E+02  0.31625618397E+02  0.46730224345E+02  0.00000000000E+00 0. -1.
          2    1    6    6  503    0 -0.80728228395E+02 -0.11127542419E+03 -0.74802337974E+02  0.15650768880E+03  0.00000000000E+00 0. -1.
         -2    1    6    6    0  503 -0.20299238904E+03 -0.44593174573E+03 -0.43685627823E+03  0.65643311897E+03  0.00000000000E+00 0.  1.
<mgrwt>
<rscale>  0 0.22854410E+04</rscale>
<asrwt>0</asrwt>
<pdfrwt beam="1">  1        1 0.14461371E+00 0.22854410E+04</pdfrwt>
<pdfrwt beam="2">  1       -2 0.21371937E+00 0.22854410E+04</pdfrwt>
<totfact> 0.14516550E+00</totfact>
</mgrwt>
</event>
<event>
12    5  0.5246737E-008  0.1790046E+04  0.7818608E-02  0.8711611E-01
          3   -1    0    0  501    0  0.00000000000E+00  0.00000000000E+00  0.14682320730E+04  0.14682320730E+04  0.00000000000E+00 0. -1.
         -4   -1    0    0    0  501 -0.00000000000E+00 -0.00000000000E+00 -0.54559913922E+03  0.54559913922E+03  0.00000000000E+00 0.  1.
        -24    2    1    2    0    0 -0.20646798633E+03 -0.57681329602E+03  0.36711025217E+02  0.61901017279E+03  0.80518859936E+02 0.  0.
        254    2    1    2    0    0  0.20646798633E+03  0.57681329602E+03  0.88592190860E+03  0.13948210395E+04  0.88618592641E+03 0.  0.
         23    2    4    4    0    0  0.51655191016E+03  0.16040117748E+03  0.42041147476E+03  0.69124982190E+03  0.92336853670E+02 0.  0.
         23    2    4    4    0    0 -0.31008392384E+03  0.41641211854E+03  0.46551043384E+03  0.70357121756E+03  0.93602360460E+02 0.  0.
          1    1    3    3  502    0 -0.39308438926E+01 -0.24711770757E+02 -0.14131380592E+02  0.28737067789E+02  0.00000000000E+00 0. -1.
         -2    1    3    3    0  502 -0.20253714243E+03 -0.55210152526E+03  0.50842405809E+02  0.59027310500E+03  0.00000000000E+00 0.  1.
         13    1    5    5    0    0  0.17626568249E+03  0.15308208165E+02  0.10996674987E+03  0.20831854968E+03  0.00000000000E+00 0. -1.
        -13    1    5    5    0    0  0.34028622767E+03  0.14509296932E+03  0.31044472488E+03  0.48293127223E+03  0.00000000000E+00 0.  1.
          2    1    6    6  503    0 -0.18082891162E+03  0.26737437081E+03  0.34472088772E+03  0.47225061130E+03  0.00000000000E+00 0. -1.
         -2    1    6    6    0  503 -0.12925501221E+03  0.14903774773E+03  0.12078954613E+03  0.23132060626E+03  0.00000000000E+00 0.  1.
<mgrwt>
<rscale>  0 0.17900460E+04</rscale>
<asrwt>0</asrwt>
<pdfrwt beam="1">  1        3 0.22588186E+00 0.17900460E+04</pdfrwt>
<pdfrwt beam="2">  1       -4 0.83938330E-01 0.17900460E+04</pdfrwt>
<totfact> 0.27540495E-01</totfact>
</mgrwt>
</event>
<event>
12    5  0.5246737E-008  0.2059011E+04  0.7818608E-02  0.8579518E-01
          1   -1    0    0  501    0  0.00000000000E+00  0.00000000000E+00  0.13233061196E+04  0.13233061196E+04  0.00000000000E+00 0. -1.
         -2   -1    0    0    0  501 -0.00000000000E+00 -0.00000000000E+00 -0.80093423815E+03  0.80093423815E+03  0.00000000000E+00 0.  1.
        -24    2    1    2    0    0 -0.50914450288E+03 -0.25578232298E+03 -0.39605541803E+03  0.69856228812E+03  0.80477665691E+02 0.  0.
        254    2    1    2    0    0  0.50914450288E+03  0.25578232298E+03  0.91842729945E+03  0.14256780696E+04  0.92972927898E+03 0.  0.
         23    2    4    4    0    0  0.48320308011E+02 -0.32520706384E+03  0.23812820784E+03  0.41530467517E+03  0.87626727132E+02 0.  0.
         23    2    4    4    0    0  0.46082419487E+03  0.58098938681E+03  0.68029909161E+03  0.10103733944E+04  0.90221593677E+02 0.  0.
          1    1    3    3  502    0 -0.11168739975E+03 -0.22912562097E+02 -0.93341672047E+02  0.14734900239E+03  0.00000000000E+00 0. -1.
         -2    1    3    3    0  502 -0.39745710313E+03 -0.23286976088E+03 -0.30271374598E+03  0.55121328573E+03  0.00000000000E+00 0.  1.
         13    1    5    5    0    0  0.28613620598E+02 -0.26054401353E+03  0.14293306292E+03  0.29854946448E+03  0.00000000000E+00 0. -1.
        -13    1    5    5    0    0  0.19706687413E+02 -0.64663050312E+02  0.95195144923E+02  0.11675521068E+03  0.00000000000E+00 0.  1.
          2    1    6    6  503    0  0.38302600715E+03  0.45904457478E+03  0.58938561669E+03  0.83952739618E+03  0.00000000000E+00 0. -1.
         -2    1    6    6    0  503  0.77798187719E+02  0.12194481204E+03  0.90913474922E+02  0.17084599825E+03  0.00000000000E+00 0.  1.
<mgrwt>
<rscale>  0 0.20590106E+04</rscale>
<asrwt>0</asrwt>
<pdfrwt beam="1">  1        1 0.20358556E+00 0.20590106E+04</pdfrwt>
<pdfrwt beam="2">  1       -2 0.12322065E+00 0.20590106E+04</pdfrwt>
<totfact> 0.35043678E+00</totfact>
</mgrwt>
</event>
<event>
12    5  0.5246737E-008  0.1416568E+04  0.7818608E-02  0.8941912E-01
          1   -1    0    0  501    0  0.00000000000E+00  0.00000000000E+00  0.14641705378E+04  0.14641705378E+04  0.00000000000E+00 0. -1.
         -2   -1    0    0    0  501 -0.00000000000E+00 -0.00000000000E+00 -0.34262850197E+03  0.34262850197E+03  0.00000000000E+00 0.  1.
        -24    2    1    2    0    0 -0.42035688181E+02 -0.32269386654E+03 -0.72025689908E+01  0.33525107472E+03  0.80268770517E+02 0.  0.
        254    2    1    2    0    0  0.42035688181E+02  0.32269386654E+03  0.11287446048E+04  0.14715479651E+04  0.88627913208E+03 0.  0.
         23    2    4    4    0    0 -0.11288997543E+03  0.38930639112E+03  0.10321233728E+03  0.42818150768E+03  0.91558747480E+02 0.  0.
         23    2    4    4    0    0  0.15492566361E+03 -0.66612524577E+02  0.10255322675E+04  0.10433664574E+04  0.91967075151E+02 0.  0.
          3    1    3    3  502    0 -0.18896145166E+02 -0.21000201788E+03  0.32935153864E+02  0.21340720741E+03  0.00000000000E+00 0. -1.
         -4    1    3    3    0  502 -0.23139543015E+02 -0.11269184866E+03 -0.40137722855E+02  0.12184386731E+03  0.00000000000E+00 0.  1.
         13    1    5    5    0    0 -0.30540050666E+02  0.20898393525E+03  0.16616053204E+02  0.21185625577E+03  0.00000000000E+00 0. -1.
        -13    1    5    5    0    0 -0.82349924764E+02  0.18032245587E+03  0.86596284074E+02  0.21632525191E+03  0.00000000000E+00 0.  1.
          2    1    6    6  503    0  0.93275418181E+02 -0.50729033942E+02  0.85075932953E+03  0.85735942014E+03  0.00000000000E+00 0. -1.
         -2    1    6    6    0  503  0.61650245430E+02 -0.15883490636E+02  0.17477293802E+03  0.18600703723E+03  0.00000000000E+00 0.  1.
<mgrwt>
<rscale>  0 0.14165685E+04</rscale>
<asrwt>0</asrwt>
<pdfrwt beam="1">  1        1 0.22525700E+00 0.14165685E+04</pdfrwt>
<pdfrwt beam="2">  1       -2 0.52712078E-01 0.14165685E+04</pdfrwt>
<totfact> 0.20097028E+01</totfact>
</mgrwt>
</event>
<event>
12    5  0.5246737E-008  0.1537713E+04  0.7818608E-02  0.8859755E-01
          1   -1    0    0  501    0  0.00000000000E+00  0.00000000000E+00  0.22596827226E+04  0.22596827226E+04  0.00000000000E+00 0. -1.
         -2   -1    0    0    0  501 -0.00000000000E+00 -0.00000000000E+00 -0.26160307288E+03  0.26160307288E+03  0.00000000000E+00 0.  1.
        -24    2    1    2    0    0  0.49449351437E+03 -0.57471897981E+02  0.53350426704E+03  0.73410648329E+03  0.80365857494E+02 0.  0.
        254    2    1    2    0    0 -0.49449351437E+03  0.57471897981E+02  0.14645753827E+04  0.17871793122E+04  0.89509887026E+03 0.  0.
         23    2    4    4    0    0 -0.21715653127E+03  0.20503261732E+03  0.28046721859E+02  0.31386760366E+03  0.92362983836E+02 0.  0.
         23    2    4    4    0    0 -0.27733698311E+03 -0.14756071934E+03  0.14365286608E+04  0.14733117085E+04  0.91339088225E+02 0.  0.
          3    1    3    3  502    0  0.35745770801E+02  0.16513886018E+02  0.47637688624E+02  0.61804675705E+02  0.00000000000E+00 0. -1.
         -4    1    3    3    0  502  0.45874774357E+03 -0.73985783999E+02  0.48586657841E+03  0.67230180759E+03  0.00000000000E+00 0.  1.
         13    1    5    5    0    0 -0.20993286449E+02  0.66449434889E+02 -0.10958966195E+02  0.70543209546E+02  0.00000000000E+00 0. -1.
        -13    1    5    5    0    0 -0.19616324482E+03  0.13858318244E+03  0.39005688054E+02  0.24332439412E+03  0.00000000000E+00 0.  1.
          3    1    6    6  503    0 -0.18914526583E+03 -0.57274707850E+02  0.77129980685E+03  0.79621587261E+03  0.00000000000E+00 0. -1.
         -3    1    6    6    0  503 -0.88191717277E+02 -0.90286011493E+02  0.66522885395E+03  0.67709583590E+03  0.00000000000E+00 0.  1.
<mgrwt>
<rscale>  0 0.15377125E+04</rscale>
<asrwt>0</asrwt>
<pdfrwt beam="1">  1        1 0.34764348E+00 0.15377125E+04</pdfrwt>
<pdfrwt beam="2">  1       -2 0.40246628E-01 0.15377125E+04</pdfrwt>
<totfact> 0.98263927E+00</totfact>
</mgrwt>
</event>
<event>
12    5  0.5246737E-008  0.2147157E+04  0.7818608E-02  0.8540750E-01
         -2   -1    0    0    0  501 -0.00000000000E+00  0.00000000000E+00  0.54929198307E+03  0.54929198307E+03  0.00000000000E+00 0.  1.
          1   -1    0    0  501    0  0.00000000000E+00 -0.00000000000E+00 -0.20982848165E+04  0.20982848165E+04  0.00000000000E+00 0. -1.
        -24    2    1    2    0    0 -0.16020764607E+03  0.80178585419E+03 -0.22288211967E+03  0.85129288847E+03  0.80598367593E+02 0.  0.
        254    2    1    2    0    0  0.16020764607E+03 -0.80178585419E+03 -0.13261107138E+04  0.17962839111E+04  0.89416956911E+03 0.  0.
         23    2    4    4    0    0 -0.13368411516E+03 -0.76786614020E+03 -0.12522956201E+04  0.14775891401E+04  0.86807227386E+02 0.  0.
         23    2    4    4    0    0  0.29389176123E+03 -0.33919713981E+02 -0.73815093641E+02  0.31869477105E+03  0.92708007884E+02 0.  0.
          1    1    3    3  502    0 -0.61300700550E+02  0.31836062241E+03 -0.12938975910E+03  0.34907444987E+03  0.00000000000E+00 0. -1.
         -2    1    3    3    0  502 -0.98906945522E+02  0.48342523177E+03 -0.93492360573E+02  0.50221843860E+03  0.00000000000E+00 0.  1.
         13    1    5    5    0    0 -0.27161855702E+02 -0.29987250287E+03 -0.54854695590E+03  0.62575158586E+03  0.00000000000E+00 0. -1.
        -13    1    5    5    0    0 -0.10652225946E+03 -0.46799363734E+03 -0.70374866424E+03  0.85183755421E+03  0.00000000000E+00 0.  1.
          3    1    6    6  503    0  0.36377829030E+02  0.25468191414E+01  0.20745609951E+02  0.41954893218E+02  0.00000000000E+00 0. -1.
         -3    1    6    6    0  503  0.25751393220E+03 -0.36466533122E+02 -0.94560703592E+02  0.27673987783E+03  0.00000000000E+00 0.  1.
<mgrwt>
<rscale>  0 0.21471572E+04</rscale>
<asrwt>0</asrwt>
<pdfrwt beam="1">  1        1 0.32281305E+00 0.21471572E+04</pdfrwt>
<pdfrwt beam="2">  1       -2 0.84506458E-01 0.21471572E+04</pdfrwt>
<totfact> 0.25102125E+00</totfact>
</mgrwt>
</event>
<event>
12    5  0.5246737E-008  0.1270270E+04  0.7818608E-02  0.9053480E-01
         -2   -1    0    0    0  501 -0.00000000000E+00  0.00000000000E+00  0.53341914606E+03  0.53341914606E+03  0.00000000000E+00 0.  1.
          1   -1    0    0  501    0  0.00000000000E+00 -0.00000000000E+00 -0.75624633761E+03  0.75624633761E+03  0.00000000000E+00 0. -1.
        -24    2    1    2    0    0 -0.99106533433E+02  0.22418037135E+03 -0.25957451193E+03  0.36607447962E+03  0.80948462116E+02 0.  0.
        254    2    1    2    0    0  0.99106533433E+02 -0.22418037135E+03  0.36747320381E+02  0.92359100405E+03  0.88971401773E+03 0.  0.
         23    2    4    4    0    0 -0.83018414505E+02 -0.20593824472E+03  0.42294630154E+03  0.48658549527E+03  0.92624254059E+02 0.  0.
         23    2    4    4    0    0  0.18212494794E+03 -0.18242126626E+02 -0.38619898116E+03  0.43700550877E+03  0.91224392605E+02 0.  0.
          3    1    3    3  502    0 -0.25990504243E+02  0.15065590191E+03 -0.13465415320E+03  0.20372640493E+03  0.00000000000E+00 0. -1.
         -4    1    3    3    0  502 -0.73116029191E+02  0.73524469435E+02 -0.12492035873E+03  0.16234807469E+03  0.00000000000E+00 0.  1.
         13    1    5    5    0    0 -0.43356507086E+02 -0.12945399307E+03  0.16237973021E+03  0.21214452577E+03  0.00000000000E+00 0. -1.
        -13    1    5    5    0    0 -0.39661907419E+02 -0.76484251645E+02  0.26056657133E+03  0.27444096951E+03  0.00000000000E+00 0.  1.
          3    1    6    6  503    0  0.16309333414E+03 -0.66616348589E+01 -0.38046452495E+03  0.41400128957E+03  0.00000000000E+00 0. -1.
         -3    1    6    6    0  503  0.19031613793E+02 -0.11580491767E+02 -0.57344562092E+01  0.23004219204E+02  0.00000000000E+00 0.  1.
<mgrwt>
<rscale>  0 0.12702697E+04</rscale>
<asrwt>0</asrwt>
<pdfrwt beam="1">  1        1 0.11634559E+00 0.12702697E+04</pdfrwt>
<pdfrwt beam="2">  1       -2 0.82064484E-01 0.12702697E+04</pdfrwt>
<totfact> 0.27219229E+01</totfact>
</mgrwt>
</event>
<event>
12    5  0.5246737E-008  0.1930074E+04  0.7818608E-02  0.8640030E-01
          1   -1    0    0  501    0  0.00000000000E+00  0.00000000000E+00  0.21453529071E+04  0.21453529071E+04  0.00000000000E+00 0. -1.
         -2   -1    0    0    0  501 -0.00000000000E+00 -0.00000000000E+00 -0.43409922934E+03  0.43409922934E+03  0.00000000000E+00 0.  1.
        -24    2    1    2    0    0 -0.68854221071E+03  0.19061529298E+03  0.97475210700E+03  0.12111370795E+04  0.79289276334E+02 0.  0.
        254    2    1    2    0    0  0.68854221071E+03 -0.19061529298E+03  0.73650157071E+03  0.13683150569E+04  0.90522205314E+03 0.  0.
         23    2    4    4    0    0  0.66609339053E+03  0.23852891874E+03  0.42953059349E+03  0.83238790357E+03  0.88298591659E+02 0.  0.
         23    2    4    4    0    0  0.22448820179E+02 -0.42914421172E+03  0.30697097722E+03  0.53592715335E+03  0.91203228334E+02 0.  0.
          1    1    3    3  502    0 -0.41509579139E+03  0.11028934139E+03  0.64975799542E+03  0.77887977728E+03  0.00000000000E+00 0. -1.
         -2    1    3    3    0  502 -0.27344641932E+03  0.80325951589E+02  0.32499411159E+03  0.43225730219E+03  0.00000000000E+00 0.  1.
         13    1    5    5    0    0  0.63418016249E+03  0.23943514996E+03  0.42514070992E+03  0.80016141669E+03  0.00000000000E+00 0. -1.
        -13    1    5    5    0    0  0.31913228039E+02 -0.90623122399E+00  0.43898835737E+01  0.32226486881E+02  0.00000000000E+00 0.  1.
          4    1    6    6  503    0  0.21986871128E+02 -0.75186412755E+02  0.21598616862E+02  0.81258349819E+02  0.00000000000E+00 0.  1.
         -4    1    6    6    0  503  0.46194905159E+00 -0.35395779897E+03  0.28537236035E+03  0.45466880353E+03  0.00000000000E+00 0. -1.
<mgrwt>
<rscale>  0 0.19300736E+04</rscale>
<asrwt>0</asrwt>
<pdfrwt beam="1">  1        1 0.33005429E+00 0.19300736E+04</pdfrwt>
<pdfrwt beam="2">  1       -2 0.66784498E-01 0.19300736E+04</pdfrwt>
<totfact> 0.40065031E+00</totfact>
</mgrwt>
</event>
<event>
12    5  0.5246737E-008  0.1236530E+04  0.7818608E-02  0.9081470E-01
         -2   -1    0    0    0  501 -0.00000000000E+00  0.00000000000E+00  0.15537741092E+03  0.15537741092E+03  0.00000000000E+00 0.  1.
          1   -1    0    0  501    0  0.00000000000E+00 -0.00000000000E+00 -0.24601481579E+04  0.24601481579E+04  0.00000000000E+00 0. -1.
        -24    2    1    2    0    0  0.27062797098E+03 -0.40739920198E+02 -0.67547458998E+03  0.73290584604E+03  0.77368066237E+02 0.  0.
        254    2    1    2    0    0 -0.27062797098E+03  0.40739920198E+02 -0.16292961570E+04  0.18826197228E+04  0.90263603606E+03 0.  0.
         23    2    4    4    0    0 -0.39598464957E+03  0.77038294109E+02 -0.22828063797E+03  0.47259440706E+03  0.92166601603E+02 0.  0.
         23    2    4    4    0    0  0.12535667860E+03 -0.36298373911E+02 -0.14010155190E+04  0.14100253157E+04  0.91077096950E+02 0.  0.
          3    1    3    3  502    0  0.19339539868E+03 -0.39940778708E+02 -0.56160747465E+03  0.59531504400E+03  0.00000000000E+00 0. -1.
         -4    1    3    3    0  502  0.77232572295E+02 -0.79914149019E+00 -0.11386711533E+03  0.13759080204E+03  0.00000000000E+00 0.  1.
         13    1    5    5    0    0 -0.67373191931E+02 -0.18201411645E+02 -0.56301089363E+02  0.89667446938E+02  0.00000000000E+00 0.  1.
        -13    1    5    5    0    0 -0.32861145764E+03  0.95239705754E+02 -0.17197954861E+03  0.38292696012E+03  0.00000000000E+00 0. -1.
          4    1    6    6  503    0  0.11620330418E+03 -0.33478122136E+02 -0.13907035308E+04  0.13959513971E+04  0.00000000000E+00 0. -1.
         -4    1    6    6    0  503  0.91533744143E+01 -0.28202517752E+01 -0.10311988229E+02  0.14073918590E+02  0.00000000000E+00 0.  1.
<mgrwt>
<rscale>  0 0.12365297E+04</rscale>
<asrwt>0</asrwt>
<pdfrwt beam="1">  1        1 0.37848430E+00 0.12365297E+04</pdfrwt>
<pdfrwt beam="2">  1       -2 0.23904219E-01 0.12365297E+04</pdfrwt>
<totfact> 0.19569213E+01</totfact>
</mgrwt>
</event>
<event>
12    5  0.5246737E-008  0.1298073E+04  0.7818608E-02  0.9031095E-01
          1   -1    0    0  501    0  0.00000000000E+00  0.00000000000E+00  0.70032320614E+03  0.70032320614E+03  0.00000000000E+00 0. -1.
         -2   -1    0    0    0  501 -0.00000000000E+00 -0.00000000000E+00 -0.60150531458E+03  0.60150531458E+03  0.00000000000E+00 0.  1.
        -24    2    1    2    0    0  0.76110122910E+02 -0.12212787665E+03 -0.29821871216E+03  0.34026716801E+03  0.78354172042E+02 0.  0.
        254    2    1    2    0    0 -0.76110122910E+02  0.12212787665E+03  0.39703660371E+03  0.96156135271E+03  0.86386005885E+03 0.  0.
         23    2    4    4    0    0 -0.83141336507E+02  0.20065391137E+03 -0.22634277276E+03  0.32658943607E+03  0.90857773393E+02 0.  0.
         23    2    4    4    0    0  0.70312135967E+01 -0.78526034719E+02  0.62337937648E+03  0.63497191664E+03  0.91497059067E+02 0.  0.
          3    1    3    3  502    0  0.11918211674E+02  0.10479817163E+02 -0.39019376660E+02  0.42123415012E+02  0.00000000000E+00 0. -1.
         -4    1    3    3    0  502  0.64191911236E+02 -0.13260769381E+03 -0.25919933550E+03  0.29814375300E+03  0.00000000000E+00 0.  1.
         13    1    5    5    0    0 -0.68390624779E+02  0.14319123126E+03 -0.21328934668E+03  0.26584460061E+03  0.00000000000E+00 0.  1.
        -13    1    5    5    0    0 -0.14750711727E+02  0.57462680113E+02 -0.13053426080E+02  0.60744835457E+02  0.00000000000E+00 0. -1.
          2    1    6    6  503    0 -0.26101011368E+02 -0.68053545664E+02  0.53606363990E+03  0.54099609415E+03  0.00000000000E+00 0.  1.
         -2    1    6    6    0  503  0.33132224964E+02 -0.10472489055E+02  0.87315736579E+02  0.93975822489E+02  0.00000000000E+00 0. -1.
<mgrwt>
<rscale>  0 0.12980726E+04</rscale>
<asrwt>0</asrwt>
<pdfrwt beam="1">  1        1 0.10774203E+00 0.12980726E+04</pdfrwt>
<pdfrwt beam="2">  1       -2 0.92539279E-01 0.12980726E+04</pdfrwt>
<totfact> 0.23215470E+01</totfact>
</mgrwt>
</event>
<event>
12    5  0.5246737E-008  0.1243628E+04  0.7818608E-02  0.9075503E-01
          1   -1    0    0  501    0  0.00000000000E+00  0.00000000000E+00  0.22991054495E+03  0.22991054495E+03  0.00000000000E+00 0. -1.
         -2   -1    0    0    0  501 -0.00000000000E+00 -0.00000000000E+00 -0.16817524081E+04  0.16817524081E+04  0.00000000000E+00 0.  1.
        -24    2    1    2    0    0 -0.84524220109E+02 -0.16636241406E+03 -0.17604992084E+02  0.20450364024E+03  0.81798572899E+02 0.  0.
        254    2    1    2    0    0  0.84524220109E+02  0.16636241406E+03 -0.14342368711E+04  0.17071593129E+04  0.90693810176E+03 0.  0.
         23    2    4    4    0    0 -0.21544886737E+03  0.57695946551E+02 -0.65145285847E+01  0.24140870129E+03  0.92134061444E+02 0.  0.
         23    2    4    4    0    0  0.29997308748E+03  0.10866646751E+03 -0.14277223425E+04  0.14657506116E+04  0.90782782491E+02 0.  0.
          3    1    3    3  502    0 -0.92795881450E+02 -0.17011040225E+03 -0.12719428065E+02  0.19419167958E+03  0.00000000000E+00 0. -1.
         -4    1    3    3    0  502  0.82716613415E+01  0.37479881919E+01 -0.48855640195E+01  0.10311960659E+02  0.00000000000E+00 0.  1.
         13    1    5    5    0    0 -0.18024668777E+02 -0.11725044955E+02 -0.23000589943E+02  0.31486385970E+02  0.00000000000E+00 0. -1.
        -13    1    5    5    0    0 -0.19742419859E+03  0.69420991505E+02  0.16486061359E+02  0.20992231532E+03  0.00000000000E+00 0.  1.
          4    1    6    6  503    0  0.55491462330E+02  0.59439084689E+02 -0.30402237207E+03  0.31470924660E+03  0.00000000000E+00 0. -1.
         -4    1    6    6    0  503  0.24448162515E+03  0.49227382817E+02 -0.11236999705E+04  0.11510413650E+04  0.00000000000E+00 0.  1.
<mgrwt>
<rscale>  0 0.12436279E+04</rscale>
<asrwt>0</asrwt>
<pdfrwt beam="1">  1        1 0.35370854E-01 0.12436279E+04</pdfrwt>
<pdfrwt beam="2">  1       -2 0.25873114E+00 0.12436279E+04</pdfrwt>
<totfact> 0.60804829E+00</totfact>
</mgrwt>
</event>
<event>
12    5  0.5246737E-008  0.1445002E+04  0.7818608E-02  0.8921873E-01
          1   -1    0    0  501    0  0.00000000000E+00  0.00000000000E+00  0.72599509814E+03  0.72599509814E+03  0.00000000000E+00 0. -1.
         -2   -1    0    0    0  501 -0.00000000000E+00 -0.00000000000E+00 -0.71902345967E+03  0.71902345967E+03  0.00000000000E+00 0.  1.
        -24    2    1    2    0    0  0.84848265730E+02 -0.10588092013E+02  0.43199315782E+03  0.44760792391E+03  0.80146299083E+02 0.  0.
        254    2    1    2    0    0 -0.84848265730E+02  0.10588092013E+02 -0.42502151935E+03  0.99741063389E+03  0.89826128982E+03 0.  0.
         23    2    4    4    0    0  0.63604746493E+02  0.35358807635E+03 -0.48379046233E+03  0.60932625564E+03  0.90306051059E+02 0.  0.
         23    2    4    4    0    0 -0.14845301222E+03 -0.34299998434E+03  0.58768942980E+02  0.38808437825E+03  0.86419962340E+02 0.  0.
          3    1    3    3  502    0  0.67442788208E+02  0.76153382878E+01  0.40516451394E+03  0.41080993952E+03  0.00000000000E+00 0. -1.
         -4    1    3    3    0  502  0.17405477522E+02 -0.18203430300E+02  0.26828643884E+02  0.36797984389E+02  0.00000000000E+00 0.  1.
         13    1    5    5    0    0  0.59362066829E+02  0.34847622449E+03 -0.48714156999E+03  0.60188573934E+03  0.00000000000E+00 0. -1.
        -13    1    5    5    0    0  0.42426796641E+01  0.51118518604E+01  0.33511076622E+01  0.74405162951E+01  0.00000000000E+00 0.  1.
          3    1    6    6  503    0 -0.49453948246E+02 -0.36368360693E+02  0.86837721987E+01  0.61998052842E+02  0.00000000000E+00 0.  1.
         -3    1    6    6    0  503 -0.98999063976E+02 -0.30663162364E+03  0.50085170781E+02  0.32608632541E+03  0.00000000000E+00 0. -1.
<mgrwt>
<rscale>  0 0.14450017E+04</rscale>
<asrwt>0</asrwt>
<pdfrwt beam="1">  1        1 0.11169155E+00 0.14450017E+04</pdfrwt>
<pdfrwt beam="2">  1       -2 0.11061899E+00 0.14450017E+04</pdfrwt>
<totfact> 0.14206444E+01</totfact>
</mgrwt>
</event>
<event>
12    5  0.5246737E-008  0.1533796E+04  0.7818608E-02  0.8862285E-01
          1   -1    0    0  501    0  0.00000000000E+00  0.00000000000E+00  0.27802896462E+04  0.27802896462E+04  0.00000000000E+00 0. -1.
         -2   -1    0    0    0  501 -0.00000000000E+00 -0.00000000000E+00 -0.21153644810E+03  0.21153644810E+03  0.00000000000E+00 0.  1.
        -24    2    1    2    0    0  0.84866764090E+02 -0.19213966204E+03  0.17443741022E+04  0.17587120448E+04  0.78147493072E+02 0.  0.
        254    2    1    2    0    0 -0.84866764090E+02  0.19213966204E+03  0.82437909593E+03  0.12331140495E+04  0.89266418545E+03 0.  0.
         23    2    4    4    0    0 -0.33038851392E+03  0.18674467939E+03  0.23708261294E+02  0.39072396491E+03  0.89849817392E+02 0.  0.
         23    2    4    4    0    0  0.24552174983E+03  0.53949826486E+01  0.80067083464E+03  0.84239008463E+03  0.90759207642E+02 0.  0.
          1    1    3    3  502    0  0.70850392446E+02 -0.88393315304E+02  0.11090178563E+04  0.11147886624E+04  0.00000000000E+00 0. -1.
         -2    1    3    3    0  502  0.14016371644E+02 -0.10374634674E+03  0.63535624592E+03  0.64392338237E+03  0.00000000000E+00 0.  1.
         13    1    5    5    0    0 -0.26495380003E+03  0.18374372008E+03  0.34740362450E+02  0.32429795498E+03  0.00000000000E+00 0. -1.
        -13    1    5    5    0    0 -0.65434713890E+02  0.30009593081E+01 -0.11032101156E+02  0.66426009925E+02  0.00000000000E+00 0.  1.
          1    1    6    6  503    0  0.13467625932E+03 -0.33556102539E+02  0.34638508343E+03  0.37315724951E+03  0.00000000000E+00 0. -1.
         -1    1    6    6    0  503  0.11084549051E+03  0.38951085187E+02  0.45428575121E+03  0.46923283512E+03  0.00000000000E+00 0.  1.
<mgrwt>
<rscale>  0 0.15337961E+04</rscale>
<asrwt>0</asrwt>
<pdfrwt beam="1">  1        1 0.42773684E+00 0.15337961E+04</pdfrwt>
<pdfrwt beam="2">  1       -2 0.32544071E-01 0.15337961E+04</pdfrwt>
<totfact> 0.64427540E+00</totfact>
</mgrwt>
</event>
<event>
12    5  0.5246737E-008  0.1063162E+04  0.7818608E-02  0.9241859E-01
         -4   -1    0    0    0  501 -0.00000000000E+00  0.00000000000E+00  0.68500262817E+03  0.68500262817E+03  0.00000000000E+00 0.  1.
          3   -1    0    0  501    0  0.00000000000E+00 -0.00000000000E+00 -0.41252172646E+03  0.41252172646E+03  0.00000000000E+00 0. -1.
        -24    2    1    2    0    0 -0.13140257536E+03 -0.37273477346E+02  0.79463504000E+02  0.17501123479E+03  0.75223233855E+02 0.  0.
        254    2    1    2    0    0  0.13140257536E+03  0.37273477346E+02  0.19301739771E+03  0.92251311985E+03  0.89169433751E+03 0.  0.
         23    2    4    4    0    0 -0.26863271427E+03  0.14387384775E+03  0.34790928763E+03  0.47143569209E+03  0.91364764075E+02 0.  0.
         23    2    4    4    0    0  0.40003528963E+03 -0.10660037041E+03 -0.15489188992E+03  0.45107742775E+03  0.89930397228E+02 0.  0.
          1    1    3    3  502    0 -0.30150985178E+02  0.22573126821E+02  0.12590008192E+02  0.39713174992E+02  0.00000000000E+00 0. -1.
         -2    1    3    3    0  502 -0.10125159018E+03 -0.59846604167E+02  0.66873495808E+02  0.13529805980E+03  0.00000000000E+00 0.  1.
         13    1    5    5    0    0 -0.27268059611E+03  0.14246771785E+03  0.32266419874E+03  0.44582950023E+03  0.00000000000E+00 0. -1.
        -13    1    5    5    0    0  0.40478818397E+01  0.14061299063E+01  0.25245088893E+02  0.25606191867E+02  0.00000000000E+00 0.  1.
          1    1    6    6  503    0  0.40099447995E+03 -0.11300221009E+03 -0.15523716369E+03  0.44459492736E+03  0.00000000000E+00 0. -1.
         -1    1    6    6    0  503 -0.95919032330E+00  0.64018396854E+01  0.34527377291E+00  0.64825003981E+01  0.00000000000E+00 0.  1.
<mgrwt>
<rscale>  0 0.10631622E+04</rscale>
<asrwt>0</asrwt>
<pdfrwt beam="1">  1        3 0.63464881E-01 0.10631622E+04</pdfrwt>
<pdfrwt beam="2">  1       -4 0.10538502E+00 0.10631622E+04</pdfrwt>
<totfact> 0.39860286E+00</totfact>
</mgrwt>
</event>
<event>
12    5  0.5246737E-008  0.1564984E+04  0.7818608E-02  0.8842353E-01
          1   -1    0    0  501    0  0.00000000000E+00  0.00000000000E+00  0.26349327118E+04  0.26349327118E+04  0.00000000000E+00 0. -1.
         -2   -1    0    0    0  501 -0.00000000000E+00 -0.00000000000E+00 -0.23237559490E+03  0.23237559490E+03  0.00000000000E+00 0.  1.
        -24    2    1    2    0    0 -0.16042136506E+03  0.17452882003E+03  0.15283599040E+04  0.15486793121E+04  0.79550562503E+02 0.  0.
        254    2    1    2    0    0  0.16042136506E+03 -0.17452882003E+03  0.87419721287E+03  0.13186289946E+04  0.95831431957E+03 0.  0.
         23    2    4    4    0    0  0.15294785344E+03 -0.50453566795E+03  0.21599388085E+03  0.57687535025E+03  0.90457321712E+02 0.  0.
         23    2    4    4    0    0  0.74735116179E+01  0.33000684792E+03  0.65820333202E+03  0.74175364438E+03  0.89478878046E+02 0.  0.
          3    1    3    3  502    0 -0.14056051903E+03  0.16736116079E+03  0.12071017713E+04  0.12267280481E+04  0.00000000000E+00 0. -1.
         -4    1    3    3    0  502 -0.19860846030E+02  0.71676592377E+01  0.32125813270E+03  0.32195126397E+03  0.00000000000E+00 0.  1.
         13    1    5    5    0    0  0.55293099437E+01 -0.12196745350E+03  0.25199481855E+02  0.12466614163E+03  0.00000000000E+00 0.  1.
        -13    1    5    5    0    0  0.14741854350E+03 -0.38256821445E+03  0.19079439899E+03  0.45220920862E+03  0.00000000000E+00 0. -1.
          3    1    6    6  503    0  0.27421505439E+02  0.23318145781E+03  0.53148063044E+03  0.58103114526E+03  0.00000000000E+00 0. -1.
         -3    1    6    6    0  503 -0.19947993822E+02  0.96825390113E+02  0.12672270158E+03  0.16072249912E+03  0.00000000000E+00 0.  1.
<mgrwt>
<rscale>  0 0.15649844E+04</rscale>
<asrwt>0</asrwt>
<pdfrwt beam="1">  1        1 0.40537424E+00 0.15649844E+04</pdfrwt>
<pdfrwt beam="2">  1       -2 0.35750093E-01 0.15649844E+04</pdfrwt>
<totfact> 0.67981230E+00</totfact>
</mgrwt>
</event>
<event>
12    5  0.5246737E-008  0.2219821E+04  0.7818608E-02  0.8510223E-01
          1   -1    0    0  501    0  0.00000000000E+00  0.00000000000E+00  0.31760421974E+04  0.31760421974E+04  0.00000000000E+00 0. -1.
         -2   -1    0    0    0  501 -0.00000000000E+00 -0.00000000000E+00 -0.38787321176E+03  0.38787321176E+03  0.00000000000E+00 0.  1.
        -24    2    1    2    0    0  0.51641658504E+03 -0.13482827497E+03  0.23857420767E+04  0.24458978511E+04  0.76067659233E+02 0.  0.
        254    2    1    2    0    0 -0.51641658504E+03  0.13482827497E+03  0.40242690894E+03  0.11180175580E+04  0.89618697262E+03 0.  0.
         23    2    4    4    0    0 -0.30739062687E+03  0.26243302160E+03  0.64173697973E+03  0.76401623581E+03  0.92381649282E+02 0.  0.
         23    2    4    4    0    0 -0.20902595817E+03 -0.12760474662E+03 -0.23931007079E+03  0.35400132218E+03  0.89848781692E+02 0.  0.
          3    1    3    3  502    0  0.44168037633E+03 -0.88377811621E+02  0.19480019043E+04  0.19994008131E+04  0.00000000000E+00 0. -1.
         -4    1    3    3    0  502  0.74736208717E+02 -0.46450463352E+02  0.43774017239E+03  0.44649703802E+03  0.00000000000E+00 0.  1.
         13    1    5    5    0    0 -0.14199592934E+03  0.73486488106E+02  0.29992952835E+03  0.33988355338E+03  0.00000000000E+00 0.  1.
        -13    1    5    5    0    0 -0.16539469753E+03  0.18894653349E+03  0.34180745138E+03  0.42413268244E+03  0.00000000000E+00 0. -1.
          4    1    6    6  503    0 -0.11026868264E+02  0.10888427478E+01 -0.50360788444E+02  0.51565360611E+02  0.00000000000E+00 0. -1.
         -4    1    6    6    0  503 -0.19799908991E+03 -0.12869358937E+03 -0.18894928234E+03  0.30243596157E+03  0.00000000000E+00 0.  1.
<mgrwt>
<rscale>  0 0.22198213E+04</rscale>
<asrwt>0</asrwt>
<pdfrwt beam="1">  1        1 0.48862186E+00 0.22198213E+04</pdfrwt>
<pdfrwt beam="2">  1       -2 0.59672804E-01 0.22198213E+04</pdfrwt>
<totfact> 0.92972271E-01</totfact>
</mgrwt>
</event>
<event>
12    5  0.5246737E-008  0.1888027E+04  0.7818608E-02  0.8660839E-01
         -2   -1    0    0    0  501 -0.00000000000E+00  0.00000000000E+00  0.77734072206E+03  0.77734072206E+03  0.00000000000E+00 0.  1.
          1   -1    0    0  501    0  0.00000000000E+00 -0.00000000000E+00 -0.11464231815E+04  0.11464231815E+04  0.00000000000E+00 0. -1.
        -24    2    1    2    0    0  0.92194159498E+02 -0.60472443588E+03 -0.54721062028E+03  0.82333867436E+03  0.65235752124E+02 0.  0.
        254    2    1    2    0    0 -0.92194159498E+02  0.60472443588E+03  0.17812816089E+03  0.11004252292E+04  0.89722607901E+03 0.  0.
         23    2    4    4    0    0 -0.29364228966E+03  0.40167560464E+02 -0.21502292816E+03  0.37773861078E+03  0.92802862290E+02 0.  0.
         23    2    4    4    0    0  0.20144813016E+03  0.56455687542E+03  0.39315108905E+03  0.72268661837E+03  0.91664359626E+02 0.  0.
          3    1    3    3  502    0  0.75682605668E+02 -0.46174979754E+03 -0.38047452072E+03  0.60307677227E+03  0.00000000000E+00 0. -1.
         -4    1    3    3    0  502  0.16511553830E+02 -0.14297463834E+03 -0.16673609956E+03  0.22026190209E+03  0.00000000000E+00 0.  1.
         13    1    5    5    0    0 -0.13592243196E+03  0.60418165535E+02 -0.78669522711E+02  0.16826810762E+03  0.00000000000E+00 0. -1.
        -13    1    5    5    0    0 -0.15771985770E+03 -0.20250605071E+02 -0.13635340545E+03  0.20947050317E+03  0.00000000000E+00 0.  1.
          3    1    6    6  503    0  0.12733254063E+03  0.31345623858E+03  0.16980467134E+03  0.37855252716E+03  0.00000000000E+00 0. -1.
         -3    1    6    6    0  503  0.74115589527E+02  0.25110063684E+03  0.22334641771E+03  0.34413409121E+03  0.00000000000E+00 0.  1.
<mgrwt>
<rscale>  0 0.18880269E+04</rscale>
<asrwt>0</asrwt>
<pdfrwt beam="1">  1        1 0.17637280E+00 0.18880269E+04</pdfrwt>
<pdfrwt beam="2">  1       -2 0.11959088E+00 0.18880269E+04</pdfrwt>
<totfact> 0.51483574E+00</totfact>
</mgrwt>
</event>
<event>
12    5  0.5246737E-008  0.1625824E+04  0.7818608E-02  0.8804838E-01
          1   -1    0    0  501    0  0.00000000000E+00  0.00000000000E+00  0.51336398246E+03  0.51336398246E+03  0.00000000000E+00 0. -1.
         -2   -1    0    0    0  501 -0.00000000000E+00 -0.00000000000E+00 -0.12872468573E+04  0.12872468573E+04  0.00000000000E+00 0.  1.
        -24    2    1    2    0    0 -0.20356937477E+03  0.43910195078E+03 -0.57751208277E+03  0.75833095800E+03  0.85408562801E+02 0.  0.
        254    2    1    2    0    0  0.20356937477E+03 -0.43910195078E+03 -0.19637079209E+03  0.10422798818E+04  0.90196166795E+03 0.  0.
         23    2    4    4    0    0  0.47901578909E+03 -0.51385619123E+03 -0.53510318511E+02  0.71045061663E+03  0.91500890844E+02 0.  0.
         23    2    4    4    0    0 -0.27544641431E+03  0.74754240449E+02 -0.14286047358E+03  0.33182926515E+03  0.90788890689E+02 0.  0.
          3    1    3    3  502    0  0.50397527317E+01  0.88767450239E+01 -0.25166206644E+01  0.10513281571E+02  0.00000000000E+00 0. -1.
         -4    1    3    3    0  502 -0.20860912750E+03  0.43022520576E+03 -0.57499546210E+03  0.74781767643E+03  0.00000000000E+00 0.  1.
         13    1    5    5    0    0  0.21810624813E+03 -0.16943078053E+03 -0.28196171492E+02  0.27761871146E+03  0.00000000000E+00 0. -1.
        -13    1    5    5    0    0  0.26090954096E+03 -0.34442541070E+03 -0.25314147019E+02  0.43283190517E+03  0.00000000000E+00 0.  1.
          1    1    6    6  503    0 -0.23043143289E+02 -0.90333723694E+01 -0.39270988852E+02  0.46419810797E+02  0.00000000000E+00 0. -1.
         -1    1    6    6    0  503 -0.25240327103E+03  0.83787612819E+02 -0.10358948473E+03  0.28540945435E+03  0.00000000000E+00 0.  1.
<mgrwt>
<rscale>  0 0.16258243E+04</rscale>
<asrwt>0</asrwt>
<pdfrwt beam="1">  1        1 0.78979075E-01 0.16258243E+04</pdfrwt>
<pdfrwt beam="2">  1       -2 0.19803797E+00 0.16258243E+04</pdfrwt>
<totfact> 0.48996474E+00</totfact>
</mgrwt>
</event>
<event>
12    5  0.5246737E-008  0.2410451E+04  0.7818608E-02  0.8435601E-01
         -2   -1    0    0    0  501 -0.00000000000E+00  0.00000000000E+00  0.87380535444E+03  0.87380535444E+03  0.00000000000E+00 0.  1.
          1   -1    0    0  501    0  0.00000000000E+00 -0.00000000000E+00 -0.16623472715E+04  0.16623472715E+04  0.00000000000E+00 0. -1.
        -24    2    1    2    0    0  0.89685566649E+03  0.51228504520E+03 -0.23174700006E+03  0.10598580902E+04  0.52975894080E+02 0.  0.
        254    2    1    2    0    0 -0.89685566649E+03 -0.51228504520E+03 -0.55679491704E+03  0.14762945358E+04  0.89590117903E+03 0.  0.
         23    2    4    4    0    0  0.22624220916E+02  0.17557160782E+03 -0.10116061875E+02  0.20115990552E+03  0.95003831688E+02 0.  0.
         23    2    4    4    0    0 -0.91947988740E+03 -0.68785665302E+03 -0.54667885517E+03  0.12751346302E+04  0.92306641651E+02 0.  0.
          1    1    3    3  502    0  0.69865374649E+02  0.37584715486E+02 -0.32406495454E+02  0.85696921535E+02  0.00000000000E+00 0. -1.
         -2    1    3    3    0  502  0.82699029184E+03  0.47470032972E+03 -0.19934050460E+03  0.97416116870E+03  0.00000000000E+00 0.  1.
         13    1    5    5    0    0  0.50489551250E+02  0.90568462285E+02 -0.33017477897E+02  0.10882093086E+03  0.00000000000E+00 0.  1.
        -13    1    5    5    0    0 -0.27865330334E+02  0.85003145533E+02  0.22901416022E+02  0.92338974658E+02  0.00000000000E+00 0. -1.
          3    1    6    6  503    0 -0.43172182183E+03 -0.26963080364E+03 -0.22324262598E+03  0.55580731533E+03  0.00000000000E+00 0. -1.
         -3    1    6    6    0  503 -0.48775806557E+03 -0.41822584938E+03 -0.32343622919E+03  0.71932731491E+03  0.00000000000E+00 0.  1.
<mgrwt>
<rscale>  0 0.24104505E+04</rscale>
<asrwt>0</asrwt>
<pdfrwt beam="1">  1        1 0.25574573E+00 0.24104505E+04</pdfrwt>
<pdfrwt beam="2">  1       -2 0.13443159E+00 0.24104505E+04</pdfrwt>
<totfact> 0.15858383E+00</totfact>
</mgrwt>
</event>
<event>
12    5  0.5246737E-008  0.1863349E+04  0.7818608E-02  0.8673318E-01
         -2   -1    0    0    0  501 -0.00000000000E+00  0.00000000000E+00  0.74983357531E+03  0.74983357531E+03  0.00000000000E+00 0.  1.
          1   -1    0    0  501    0  0.00000000000E+00 -0.00000000000E+00 -0.11576128328E+04  0.11576128328E+04  0.00000000000E+00 0. -1.
        -24    2    1    2    0    0 -0.47591372967E+03 -0.11733979750E+03 -0.68592596235E+03  0.84685562932E+03  0.80047017006E+02 0.  0.
        254    2    1    2    0    0  0.47591372967E+03  0.11733979750E+03  0.27814670490E+03  0.10605907787E+04  0.89845684612E+03 0.  0.
         23    2    4    4    0    0 -0.21226338590E+03  0.22000588293E+03  0.12513110635E+03  0.34245923387E+03  0.90344892317E+02 0.  0.
         23    2    4    4    0    0  0.68817711557E+03 -0.10266608543E+03  0.15301559855E+03  0.71813154487E+03  0.90393997865E+02 0.  0.
          3    1    3    3  502    0 -0.38361741791E+03 -0.66763214987E+02 -0.56973573545E+03  0.69008583411E+03  0.00000000000E+00 0. -1.
         -4    1    3    3    0  502 -0.92296311755E+02 -0.50576582517E+02 -0.11619022690E+03  0.15676979521E+03  0.00000000000E+00 0.  1.
         13    1    5    5    0    0 -0.15410848836E+03  0.19326511439E+03  0.67272158486E+02  0.25617645078E+03  0.00000000000E+00 0. -1.
        -13    1    5    5    0    0 -0.58154897547E+02  0.26740768537E+02  0.57858947863E+02  0.86282783094E+02  0.00000000000E+00 0.  1.
          1    1    6    6  503    0  0.63607295596E+03 -0.74099177029E+02  0.15427828896E+03  0.65869665537E+03  0.00000000000E+00 0. -1.
         -1    1    6    6    0  503  0.52104159606E+02 -0.28566908397E+02 -0.12626904101E+01  0.59434889507E+02  0.00000000000E+00 0.  1.
<mgrwt>
<rscale>  0 0.18633486E+04</rscale>
<asrwt>0</asrwt>
<pdfrwt beam="1">  1        1 0.17809428E+00 0.18633486E+04</pdfrwt>
<pdfrwt beam="2">  1       -2 0.11535901E+00 0.18633486E+04</pdfrwt>
<totfact> 0.55308028E+00</totfact>
</mgrwt>
</event>
<event>
12    5  0.5246737E-008  0.1477006E+04  0.7818608E-02  0.8899889E-01
          1   -1    0    0  501    0  0.00000000000E+00  0.00000000000E+00  0.43488614847E+03  0.43488614847E+03  0.00000000000E+00 0. -1.
         -2   -1    0    0    0  501 -0.00000000000E+00 -0.00000000000E+00 -0.12540906679E+04  0.12540906679E+04  0.00000000000E+00 0.  1.
        -24    2    1    2    0    0  0.20748203172E+03  0.41735430733E+02  0.18512999446E+03  0.29236443788E+03  0.80082520094E+02 0.  0.
        254    2    1    2    0    0 -0.20748203172E+03 -0.41735430733E+02 -0.10043345139E+04  0.13966123785E+04  0.94712601080E+03 0.  0.
         23    2    4    4    0    0  0.23433836868E+03  0.30915840592E+03 -0.40309128172E+03  0.56711389313E+03  0.92963408908E+02 0.  0.
         23    2    4    4    0    0 -0.44182040040E+03 -0.35089383666E+03 -0.60124323218E+03  0.82949848538E+03  0.90788557560E+02 0.  0.
          1    1    3    3  502    0  0.20060836543E+03  0.51051884198E+02  0.18884966247E+03  0.28020386538E+03  0.00000000000E+00 0. -1.
         -2    1    3    3    0  502  0.68736662978E+01 -0.93164534646E+01 -0.37196680108E+01  0.12160572505E+02  0.00000000000E+00 0.  1.
         13    1    5    5    0    0  0.39954086062E+02  0.30384613127E+02 -0.17570236335E+02  0.53181452714E+02  0.00000000000E+00 0.  1.
        -13    1    5    5    0    0  0.19438428262E+03  0.27877379280E+03 -0.38552104538E+03  0.51393244042E+03  0.00000000000E+00 0. -1.
          3    1    6    6  503    0 -0.23652730357E+03 -0.23888604690E+03 -0.32542264652E+03  0.46787990725E+03  0.00000000000E+00 0. -1.
         -3    1    6    6    0  503 -0.20529309684E+03 -0.11200778975E+03 -0.27582058566E+03  0.36161857813E+03  0.00000000000E+00 0.  1.
<mgrwt>
<rscale>  0 0.14770060E+04</rscale>
<asrwt>0</asrwt>
<pdfrwt beam="1">  1        1 0.66905561E-01 0.14770060E+04</pdfrwt>
<pdfrwt beam="2">  1       -2 0.19293703E+00 0.14770060E+04</pdfrwt>
<totfact> 0.67237093E+00</totfact>
</mgrwt>
</event>
<event>
12    5  0.5246737E-008  0.1908771E+04  0.7818608E-02  0.8650503E-01
         -2   -1    0    0    0  501 -0.00000000000E+00  0.00000000000E+00  0.53797916732E+03  0.53797916732E+03  0.00000000000E+00 0.  1.
          1   -1    0    0  501    0  0.00000000000E+00 -0.00000000000E+00 -0.16930983423E+04  0.16930983423E+04  0.00000000000E+00 0. -1.
        -24    2    1    2    0    0  0.17673698829E+03 -0.67034610667E+03 -0.75810332161E+03  0.10303820485E+04  0.79791314306E+02 0.  0.
        254    2    1    2    0    0 -0.17673698829E+03  0.67034610667E+03 -0.39701585337E+03  0.12006954611E+04  0.89635268550E+03 0.  0.
         23    2    4    4    0    0 -0.45422394383E+03  0.69140591390E+03 -0.23161164334E+03  0.86402467878E+03  0.92375122693E+02 0.  0.
         23    2    4    4    0    0  0.27748695554E+03 -0.21059807223E+02 -0.16540421003E+03  0.33667078235E+03  0.92445319077E+02 0.  0.
          3    1    3    3  502    0  0.10006961388E+03 -0.49280802665E+03 -0.51572496312E+03  0.72030959756E+03  0.00000000000E+00 0. -1.
         -4    1    3    3    0  502  0.76667374405E+02 -0.17753808002E+03 -0.24237835848E+03  0.31007245092E+03  0.00000000000E+00 0.  1.
         13    1    5    5    0    0 -0.44830382504E+03  0.65320712271E+03 -0.20944503248E+03  0.81946512210E+03  0.00000000000E+00 0.  1.
        -13    1    5    5    0    0 -0.59201187893E+01  0.38198791189E+02 -0.22166610867E+02  0.44559556686E+02  0.00000000000E+00 0. -1.
          3    1    6    6  503    0 -0.69312846175E+01 -0.44910605769E+01 -0.34082056564E+01  0.89346626881E+01  0.00000000000E+00 0. -1.
         -3    1    6    6    0  503  0.28441824016E+03 -0.16568746646E+02 -0.16199600437E+03  0.32773611967E+03  0.00000000000E+00 0.  1.
<mgrwt>
<rscale>  0 0.19087710E+04</rscale>
<asrwt>0</asrwt>
<pdfrwt beam="1">  1        1 0.26047667E+00 0.19087710E+04</pdfrwt>
<pdfrwt beam="2">  1       -2 0.82766026E-01 0.19087710E+04</pdfrwt>
<totfact> 0.50618028E+00</totfact>
</mgrwt>
</event>
<event>
12    5  0.5246737E-008  0.1318962E+04  0.7818608E-02  0.9014662E-01
         -2   -1    0    0    0  501 -0.00000000000E+00  0.00000000000E+00  0.22053200884E+03  0.22053200884E+03  0.00000000000E+00 0.  1.
          1   -1    0    0  501    0  0.00000000000E+00 -0.00000000000E+00 -0.19721187638E+04  0.19721187638E+04  0.00000000000E+00 0. -1.
        -24    2    1    2    0    0 -0.51625073278E+02  0.28207118901E+03 -0.76698065469E+03  0.82275467499E+03  0.80228590261E+02 0.  0.
        254    2    1    2    0    0  0.51625073278E+02 -0.28207118901E+03 -0.98460610027E+03  0.13698960976E+04  0.90826033811E+03 0.  0.
         23    2    4    4    0    0  0.46114370102E+03 -0.10425129183E+03 -0.62734489701E+03  0.79069103895E+03  0.90049177784E+02 0.  0.
         23    2    4    4    0    0 -0.40951862775E+03 -0.17781989718E+03 -0.35726120326E+03  0.57920505870E+03  0.92290359003E+02 0.  0.
          1    1    3    3  502    0 -0.20929366333E+01  0.15335306600E+03 -0.48820128655E+03  0.51172457380E+03  0.00000000000E+00 0. -1.
         -2    1    3    3    0  502 -0.49532136645E+02  0.12871812301E+03 -0.27877936813E+03  0.31103010119E+03  0.00000000000E+00 0.  1.
         13    1    5    5    0    0  0.13508148506E+03 -0.64901528058E+02 -0.15716906797E+03  0.21716659936E+03  0.00000000000E+00 0.  1.
        -13    1    5    5    0    0  0.32606221596E+03 -0.39349763773E+02 -0.47017582905E+03  0.57352443959E+03  0.00000000000E+00 0. -1.
          1    1    6    6  503    0 -0.38456743392E+03 -0.17482264050E+03 -0.30443837162E+03  0.52070892922E+03  0.00000000000E+00 0. -1.
         -1    1    6    6    0  503 -0.24951193830E+02 -0.29972566820E+01 -0.52822831640E+02  0.58496129475E+02  0.00000000000E+00 0.  1.
<mgrwt>
<rscale>  0 0.13189622E+04</rscale>
<asrwt>0</asrwt>
<pdfrwt beam="1">  1        1 0.30340287E+00 0.13189622E+04</pdfrwt>
<pdfrwt beam="2">  1       -2 0.33928003E-01 0.13189622E+04</pdfrwt>
<totfact> 0.21819764E+01</totfact>
</mgrwt>
</event>
<event>
12    5  0.5246737E-008  0.1429173E+04  0.7818608E-02  0.8932968E-01
         -2   -1    0    0    0  501 -0.00000000000E+00  0.00000000000E+00  0.20674942360E+03  0.20674942360E+03  0.00000000000E+00 0.  1.
          1   -1    0    0  501    0  0.00000000000E+00 -0.00000000000E+00 -0.24698195294E+04  0.24698195294E+04  0.00000000000E+00 0. -1.
        -24    2    1    2    0    0 -0.10005413404E+03  0.39771627868E+03 -0.92785808292E+03  0.10176524491E+04  0.80664843472E+02 0.  0.
        254    2    1    2    0    0  0.10005413404E+03 -0.39771627868E+03 -0.13352120229E+04  0.16589165040E+04  0.89499930334E+03 0.  0.
         23    2    4    4    0    0  0.43272401075E+03 -0.45414236438E+03 -0.83236590726E+03  0.10464251745E+04  0.93151949831E+02 0.  0.
         23    2    4    4    0    0 -0.33266987671E+03  0.56426085705E+02 -0.50284611567E+03  0.61249132944E+03  0.91860016210E+02 0.  0.
          1    1    3    3  502    0 -0.11081061804E+03  0.30384069290E+03 -0.72521583508E+03  0.79406307507E+03  0.00000000000E+00 0. -1.
         -2    1    3    3    0  502  0.10756483998E+02  0.93875585781E+02 -0.20264224784E+03  0.22358937399E+03  0.00000000000E+00 0.  1.
         13    1    5    5    0    0  0.16836181014E+03 -0.24347718941E+03 -0.37853467608E+03  0.48053651461E+03  0.00000000000E+00 0. -1.
        -13    1    5    5    0    0  0.26436220061E+03 -0.21066517497E+03 -0.45383123118E+03  0.56588865994E+03  0.00000000000E+00 0.  1.
          1    1    6    6  503    0 -0.13630295144E+03  0.41658605997E+02 -0.14074324224E+03  0.20030625117E+03  0.00000000000E+00 0. -1.
         -1    1    6    6    0  503 -0.19636692527E+03  0.14767479707E+02 -0.36210287343E+03  0.41218507827E+03  0.00000000000E+00 0.  1.
<mgrwt>
<rscale>  0 0.14291729E+04</rscale>
<asrwt>0</asrwt>
<pdfrwt beam="1">  1        1 0.37997224E+00 0.14291729E+04</pdfrwt>
<pdfrwt beam="2">  1       -2 0.31807603E-01 0.14291729E+04</pdfrwt>
<totfact> 0.11191398E+01</totfact>
</mgrwt>
</event>
<event>
12    5  0.5246737E-008  0.1580296E+04  0.7818608E-02  0.8832745E-01
          1   -1    0    0  501    0  0.00000000000E+00  0.00000000000E+00  0.54337028614E+03  0.54337028614E+03  0.00000000000E+00 0. -1.
         -2   -1    0    0    0  501 -0.00000000000E+00 -0.00000000000E+00 -0.11490026219E+04  0.11490026219E+04  0.00000000000E+00 0.  1.
        -24    2    1    2    0    0 -0.42657157003E+02  0.18822501747E+03 -0.70652629093E+03  0.73653137499E+03  0.77786736163E+02 0.  0.
        254    2    1    2    0    0  0.42657157003E+02 -0.18822501747E+03  0.10089395515E+03  0.95584153308E+03  0.93070143221E+03 0.  0.
         23    2    4    4    0    0  0.74405773700E+02  0.18143636454E+03  0.41056563812E+03  0.46354356517E+03  0.88617831550E+02 0.  0.
         23    2    4    4    0    0 -0.31748616698E+02 -0.36966138201E+03 -0.30967168297E+03  0.49229796791E+03  0.93825508028E+02 0.  0.
          1    1    3    3  502    0 -0.18496173002E+02  0.12543751129E+01 -0.45084682298E+02  0.48747414809E+02  0.00000000000E+00 0. -1.
         -2    1    3    3    0  502 -0.24160984001E+02  0.18697064236E+03 -0.66144160863E+03  0.68778396018E+03  0.00000000000E+00 0.  1.
         13    1    5    5    0    0  0.64469802945E+01  0.88334312784E+02  0.10743007679E+03  0.13923266775E+03  0.00000000000E+00 0. -1.
        -13    1    5    5    0    0  0.67958793406E+02  0.93102051752E+02  0.30313556133E+03  0.32431089742E+03  0.00000000000E+00 0.  1.
          4    1    6    6  503    0 -0.29634118403E+02 -0.24267420010E+03 -0.14465969294E+03  0.28406931395E+03  0.00000000000E+00 0. -1.
         -4    1    6    6    0  503 -0.21144982943E+01 -0.12698718191E+03 -0.16501199004E+03  0.20822865396E+03  0.00000000000E+00 0.  1.
<mgrwt>
<rscale>  0 0.15802960E+04</rscale>
<asrwt>0</asrwt>
<pdfrwt beam="1">  1        1 0.83595429E-01 0.15802960E+04</pdfrwt>
<pdfrwt beam="2">  1       -2 0.17676963E+00 0.15802960E+04</pdfrwt>
<totfact> 0.63299591E+00</totfact>
</mgrwt>
</event>
<event>
12    5  0.5246737E-008  0.1587632E+04  0.7818608E-02  0.8828182E-01
         -2   -1    0    0    0  501 -0.00000000000E+00  0.00000000000E+00  0.21817961637E+03  0.21817961637E+03  0.00000000000E+00 0.  1.
          1   -1    0    0  501    0  0.00000000000E+00 -0.00000000000E+00 -0.28881880830E+04  0.28881880830E+04  0.00000000000E+00 0. -1.
        -24    2    1    2    0    0  0.12007606783E+02  0.50724863385E+03 -0.11997776113E+04  0.13051421931E+04  0.80526198158E+02 0.  0.
        254    2    1    2    0    0 -0.12007606783E+02 -0.50724863385E+03 -0.14702308554E+04  0.18012255063E+04  0.90850932697E+03 0.  0.
         23    2    4    4    0    0  0.22008888972E+03 -0.58539598262E+03 -0.52845794974E+03  0.82387965465E+03  0.91554928100E+02 0.  0.
         23    2    4    4    0    0 -0.23209649650E+03  0.78147348764E+02 -0.94177290564E+03  0.97734585163E+03  0.91065449480E+02 0.  0.
          3    1    3    3  502    0  0.33934929949E+02  0.24473821476E+03 -0.50782328623E+03  0.56474141275E+03  0.00000000000E+00 0. -1.
         -4    1    3    3    0  502 -0.21927323166E+02  0.26251041909E+03 -0.69195432505E+03  0.74040078038E+03  0.00000000000E+00 0.  1.
         13    1    5    5    0    0  0.16021311824E+03 -0.36493078258E+03 -0.28463752827E+03  0.48975630862E+03  0.00000000000E+00 0. -1.
        -13    1    5    5    0    0  0.59875771480E+02 -0.22046520004E+03 -0.24382042147E+03  0.33412334603E+03  0.00000000000E+00 0.  1.
          3    1    6    6  503    0 -0.21475669863E+02 -0.15069233459E+02 -0.51977273793E+02  0.58223046846E+02  0.00000000000E+00 0. -1.
         -3    1    6    6    0  503 -0.21062082664E+03  0.93216582223E+02 -0.88979563185E+03  0.91912280478E+03  0.00000000000E+00 0.  1.
<mgrwt>
<rscale>  0 0.15876319E+04</rscale>
<asrwt>0</asrwt>
<pdfrwt beam="1">  1        1 0.44433659E+00 0.15876319E+04</pdfrwt>
<pdfrwt beam="2">  1       -2 0.33566098E-01 0.15876319E+04</pdfrwt>
<totfact> 0.50645112E+00</totfact>
</mgrwt>
</event>
<event>
12    5  0.5246737E-008  0.1204975E+04  0.7818608E-02  0.9108513E-01
          1   -1    0    0  501    0  0.00000000000E+00  0.00000000000E+00  0.21054568883E+04  0.21054568883E+04  0.00000000000E+00 0. -1.
         -2   -1    0    0    0  501 -0.00000000000E+00 -0.00000000000E+00 -0.17240504906E+03  0.17240504906E+03  0.00000000000E+00 0.  1.
        -24    2    1    2    0    0 -0.23794738143E+03 -0.48431214007E+02  0.25184396571E+03  0.36099008263E+03  0.89016391029E+02 0.  0.
        254    2    1    2    0    0  0.23794738143E+03  0.48431214007E+02  0.16812078735E+04  0.19168718547E+04  0.88824166453E+03 0.  0.
         23    2    4    4    0    0 -0.25013273010E+03 -0.58494919945E+02  0.16672421546E+03  0.31938395545E+03  0.90670329489E+02 0.  0.
         23    2    4    4    0    0  0.48808011153E+03  0.10692613395E+03  0.15144836580E+04  0.15974878993E+04  0.93013141094E+02 0.  0.
          3    1    3    3  502    0 -0.46856091766E+01 -0.12967286890E+02 -0.25531916475E+01  0.14022276927E+02  0.00000000000E+00 0. -1.
         -4    1    3    3    0  502 -0.23326177225E+03 -0.35463927117E+02  0.25439715736E+03  0.34696780570E+03  0.00000000000E+00 0.  1.
         13    1    5    5    0    0 -0.10206135103E+03 -0.16614676497E+02  0.17205651686E+02  0.10482652956E+03  0.00000000000E+00 0. -1.
        -13    1    5    5    0    0 -0.14807137907E+03 -0.41880243448E+02  0.14951856378E+03  0.21455742589E+03  0.00000000000E+00 0.  1.
          3    1    6    6  503    0  0.45265119666E+03  0.73046506243E+02  0.13915112769E+04  0.14651049559E+04  0.00000000000E+00 0. -1.
         -3    1    6    6    0  503  0.35428914867E+02  0.33879627709E+02  0.12297238110E+03  0.13238294337E+03  0.00000000000E+00 0.  1.
<mgrwt>
<rscale>  0 0.12049753E+04</rscale>
<asrwt>0</asrwt>
<pdfrwt beam="1">  1        1 0.32391643E+00 0.12049753E+04</pdfrwt>
<pdfrwt beam="2">  1       -2 0.26523855E-01 0.12049753E+04</pdfrwt>
<totfact> 0.28337199E+01</totfact>
</mgrwt>
</event>
<event>
12    5  0.5246737E-008  0.1447081E+04  0.7818608E-02  0.8920426E-01
          1   -1    0    0  501    0  0.00000000000E+00  0.00000000000E+00  0.19518489173E+04  0.19518489173E+04  0.00000000000E+00 0. -1.
         -2   -1    0    0    0  501 -0.00000000000E+00 -0.00000000000E+00 -0.26821296854E+03  0.26821296854E+03  0.00000000000E+00 0.  1.
        -24    2    1    2    0    0  0.35180344640E+03  0.12567269498E+02  0.11447362019E+03  0.37881768695E+03  0.80467565290E+02 0.  0.
        254    2    1    2    0    0 -0.35180344640E+03 -0.12567269498E+02  0.15691623286E+04  0.18412441989E+04  0.89665276745E+03 0.  0.
         23    2    4    4    0    0 -0.13758698457E+02  0.28544222963E+03  0.12344198838E+03  0.32441639582E+03  0.91331840782E+02 0.  0.
         23    2    4    4    0    0 -0.33804474795E+03 -0.29800949913E+03  0.14457203402E+04  0.15168278031E+04  0.87036595287E+02 0.  0.
          1    1    3    3  502    0  0.51645551758E+02 -0.59761717418E+01  0.48147764987E+02  0.70860319774E+02  0.00000000000E+00 0. -1.
         -2    1    3    3    0  502  0.30015789464E+03  0.18543441240E+02  0.66325855202E+02  0.30795736718E+03  0.00000000000E+00 0.  1.
         13    1    5    5    0    0 -0.52979761763E+02  0.17231930402E+03  0.75043100576E+02  0.19527484384E+03  0.00000000000E+00 0. -1.
        -13    1    5    5    0    0  0.39221063305E+02  0.11312292562E+03  0.48398887802E+02  0.12914155198E+03  0.00000000000E+00 0.  1.
          2    1    6    6  503    0 -0.25783466950E+03 -0.24032328743E+03  0.12310154034E+04  0.12804815199E+04  0.00000000000E+00 0. -1.
         -2    1    6    6    0  503 -0.80210078446E+02 -0.57686211705E+02  0.21470493679E+03  0.23634628321E+03  0.00000000000E+00 0.  1.
<mgrwt>
<rscale>  0 0.14470815E+04</rscale>
<asrwt>0</asrwt>
<pdfrwt beam="1">  1        1 0.30028444E+00 0.14470815E+04</pdfrwt>
<pdfrwt beam="2">  1       -2 0.41263535E-01 0.14470815E+04</pdfrwt>
<totfact> 0.15253450E+01</totfact>
</mgrwt>
</event>
<event>
12    5  0.5246737E-008  0.1292309E+04  0.7818608E-02  0.9035686E-01
          3   -1    0    0  501    0  0.00000000000E+00  0.00000000000E+00  0.37598276382E+04  0.37598276382E+04  0.00000000000E+00 0. -1.
         -4   -1    0    0    0  501 -0.00000000000E+00 -0.00000000000E+00 -0.11104649549E+03  0.11104649549E+03  0.00000000000E+00 0.  1.
        -24    2    1    2    0    0  0.12607593236E+03  0.29593701214E+03  0.74933859662E+03  0.81930150158E+03  0.79200771732E+02 0.  0.
        254    2    1    2    0    0 -0.12607593236E+03 -0.29593701214E+03  0.28994425461E+04  0.30515726321E+04  0.89546334101E+03 0.  0.
         23    2    4    4    0    0  0.10297160940E+03 -0.35005554705E+03  0.43767331796E+03  0.57686566185E+03  0.89855551848E+02 0.  0.
         23    2    4    4    0    0 -0.22904754177E+03  0.54118534914E+02  0.24617692281E+04  0.24747069702E+04  0.92061196488E+02 0.  0.
          1    1    3    3  502    0  0.34813484193E+01  0.66892815984E+02  0.21434112130E+03  0.22456376577E+03  0.00000000000E+00 0. -1.
         -2    1    3    3    0  502  0.12259458394E+03  0.22904419616E+03  0.53499747532E+03  0.59473773581E+03  0.00000000000E+00 0.  1.
         13    1    5    5    0    0  0.88494161530E+02 -0.32963467829E+03  0.36367552515E+03  0.49874855925E+03  0.00000000000E+00 0.  1.
        -13    1    5    5    0    0  0.14477447873E+02 -0.20420868763E+02  0.73997792813E+02  0.78117102604E+02  0.00000000000E+00 0. -1.
          3    1    6    6  503    0  0.87018510956E+01 -0.12785500370E+00  0.70292671183E+02  0.70829359601E+02  0.00000000000E+00 0. -1.
         -3    1    6    6    0  503 -0.23774939286E+03  0.54246389918E+02  0.23914765569E+04  0.24038776106E+04  0.00000000000E+00 0.  1.
<mgrwt>
<rscale>  0 0.12923091E+04</rscale>
<asrwt>0</asrwt>
<pdfrwt beam="1">  1        3 0.57843492E+00 0.12923091E+04</pdfrwt>
<pdfrwt beam="2">  1       -4 0.17084079E-01 0.12923091E+04</pdfrwt>
<totfact> 0.10236676E-01</totfact>
</mgrwt>
</event>
<event>
12    5  0.5246737E-008  0.1641316E+04  0.7818608E-02  0.8795560E-01
         -2   -1    0    0    0  501 -0.00000000000E+00  0.00000000000E+00  0.89354754376E+03  0.89354754376E+03  0.00000000000E+00 0.  1.
          1   -1    0    0  501    0  0.00000000000E+00 -0.00000000000E+00 -0.75371424355E+03  0.75371424355E+03  0.00000000000E+00 0. -1.
        -24    2    1    2    0    0 -0.27205108814E+03 -0.48883487705E+03 -0.39465857568E+02  0.56657663988E+03  0.80499710337E+02 0.  0.
        254    2    1    2    0    0  0.27205108814E+03  0.48883487705E+03  0.17929915777E+03  0.10806851474E+04  0.90706166732E+03 0.  0.
         23    2    4    4    0    0  0.10210858248E+03  0.67440266195E+03  0.34033788756E+03  0.76780399391E+03  0.91912906055E+02 0.  0.
         23    2    4    4    0    0  0.16994250566E+03 -0.18556778490E+03 -0.16103872979E+03  0.31288115352E+03  0.92980028578E+02 0.  0.
          3    1    3    3  502    0 -0.24012814825E+03 -0.40978033224E+03 -0.60422502837E+02  0.47878212908E+03  0.00000000000E+00 0. -1.
         -4    1    3    3    0  502 -0.31922939887E+02 -0.79054544810E+02  0.20956645268E+02  0.87794510803E+02  0.00000000000E+00 0.  1.
         13    1    5    5    0    0  0.80283455288E+02  0.59239830569E+03  0.26343720614E+03  0.65328427759E+03  0.00000000000E+00 0.  1.
        -13    1    5    5    0    0  0.21825127190E+02  0.82004356264E+02  0.76900681417E+02  0.11451971632E+03  0.00000000000E+00 0. -1.
          2    1    6    6  503    0  0.32927425747E+02 -0.12375587203E+00 -0.42080986561E+02  0.53432575380E+02  0.00000000000E+00 0. -1.
         -2    1    6    6    0  503  0.13701507991E+03 -0.18544402902E+03 -0.11895774322E+03  0.25944857814E+03  0.00000000000E+00 0.  1.
<mgrwt>
<rscale>  0 0.16413159E+04</rscale>
<asrwt>0</asrwt>
<pdfrwt beam="1">  1        1 0.11595604E+00 0.16413159E+04</pdfrwt>
<pdfrwt beam="2">  1       -2 0.13746885E+00 0.16413159E+04</pdfrwt>
<totfact> 0.76623469E+00</totfact>
</mgrwt>
</event>
<event>
12    5  0.5246737E-008  0.2532103E+04  0.7818608E-02  0.8391637E-01
         -2   -1    0    0    0  501 -0.00000000000E+00  0.00000000000E+00  0.12208816882E+04  0.12208816882E+04  0.00000000000E+00 0.  1.
          1   -1    0    0  501    0  0.00000000000E+00 -0.00000000000E+00 -0.13128926407E+04  0.13128926407E+04  0.00000000000E+00 0. -1.
        -24    2    1    2    0    0 -0.46802393116E+03 -0.99439602203E+03 -0.11359688530E+03  0.11077926483E+04  0.80190089501E+02 0.  0.
        254    2    1    2    0    0  0.46802393116E+03  0.99439602203E+03  0.21585932853E+02  0.14259816806E+04  0.90834352102E+03 0.  0.
         23    2    4    4    0    0  0.71281140423E+03  0.87776812894E+03 -0.30074682594E+02  0.11346747607E+04  0.89472565132E+02 0.  0.
         23    2    4    4    0    0 -0.24478747306E+03  0.11662789309E+03  0.51660615446E+02  0.29130691989E+03  0.93101718424E+02 0.  0.
          3    1    3    3  502    0 -0.30685383627E+03 -0.62531936530E+03 -0.10904152858E+03  0.70503449590E+03  0.00000000000E+00 0. -1.
         -4    1    3    3    0  502 -0.16117009490E+03 -0.36907665673E+03 -0.45553567174E+01  0.40275815238E+03  0.00000000000E+00 0.  1.
         13    1    5    5    0    0  0.15203856305E+03  0.24787776739E+03 -0.15559727472E+02  0.29120648574E+03  0.00000000000E+00 0. -1.
        -13    1    5    5    0    0  0.56077284117E+03  0.62989036155E+03 -0.14514955122E+02  0.84346827498E+03  0.00000000000E+00 0.  1.
          3    1    6    6  503    0 -0.20286431168E+03  0.86621401654E+02  0.77289921867E+02  0.23373259978E+03  0.00000000000E+00 0. -1.
         -3    1    6    6    0  503 -0.41923161379E+02  0.30006491434E+02 -0.25629306421E+02  0.57574320107E+02  0.00000000000E+00 0.  1.
<mgrwt>
<rscale>  0 0.25321031E+04</rscale>
<asrwt>0</asrwt>
<pdfrwt beam="1">  1        1 0.20198348E+00 0.25321031E+04</pdfrwt>
<pdfrwt beam="2">  1       -2 0.18782795E+00 0.25321031E+04</pdfrwt>
<totfact> 0.11039467E+00</totfact>
</mgrwt>
</event>
<event>
12    5  0.5246737E-008  0.1857032E+04  0.7818608E-02  0.8676545E-01
          1   -1    0    0  501    0  0.00000000000E+00  0.00000000000E+00  0.18216239408E+04  0.18216239408E+04  0.00000000000E+00 0. -1.
         -2   -1    0    0    0  501 -0.00000000000E+00 -0.00000000000E+00 -0.47328213356E+03  0.47328213356E+03  0.00000000000E+00 0.  1.
        -24    2    1    2    0    0 -0.37691163017E+03 -0.51746164264E+03  0.14369424041E+03  0.66095498230E+03  0.79903224827E+02 0.  0.
        254    2    1    2    0    0  0.37691163017E+03  0.51746164264E+03  0.12046475669E+04  0.16339510921E+04  0.89932835076E+03 0.  0.
         23    2    4    4    0    0 -0.27849080305E+01  0.12049378553E+03 -0.12291377751E+03  0.19476013518E+03  0.91088997635E+02 0.  0.
         23    2    4    4    0    0  0.37969653820E+03  0.39696785710E+03  0.13275613444E+04  0.14391909569E+04  0.84252873555E+02 0.  0.
          3    1    3    3  502    0 -0.20129629580E+03 -0.32283108741E+03  0.11382804558E+03  0.39711073225E+03  0.00000000000E+00 0. -1.
         -4    1    3    3    0  502 -0.17561533437E+03 -0.19463055522E+03  0.29866194834E+02  0.26384425005E+03  0.00000000000E+00 0.  1.
         13    1    5    5    0    0 -0.55781216310E+01  0.12536310178E+03 -0.13322560060E+03  0.18301935248E+03  0.00000000000E+00 0.  1.
        -13    1    5    5    0    0  0.27932136005E+01 -0.48693162439E+01  0.10311823092E+02  0.11740782699E+02  0.00000000000E+00 0. -1.
          3    1    6    6  503    0  0.12864496565E+03  0.93316305927E+02  0.31878832266E+03  0.35620703924E+03  0.00000000000E+00 0. -1.
         -3    1    6    6    0  503  0.25105157255E+03  0.30365155118E+03  0.10087730217E+04  0.10829839177E+04  0.00000000000E+00 0.  1.
<mgrwt>
<rscale>  0 0.18570321E+04</rscale>
<asrwt>0</asrwt>
<pdfrwt beam="1">  1        1 0.28024983E+00 0.18570321E+04</pdfrwt>
<pdfrwt beam="2">  1       -2 0.72812637E-01 0.18570321E+04</pdfrwt>
<totfact> 0.55355593E+00</totfact>
</mgrwt>
</event>
<event>
12    5  0.5246737E-008  0.1542281E+04  0.7818608E-02  0.8856813E-01
          1   -1    0    0  501    0  0.00000000000E+00  0.00000000000E+00  0.15641990458E+04  0.15641990458E+04  0.00000000000E+00 0. -1.
         -2   -1    0    0    0  501 -0.00000000000E+00 -0.00000000000E+00 -0.38016760388E+03  0.38016760388E+03  0.00000000000E+00 0.  1.
        -24    2    1    2    0    0  0.37480764516E+03  0.17958987300E+03  0.28188806182E+02  0.42437421124E+03  0.81028198922E+02 0.  0.
        254    2    1    2    0    0 -0.37480764516E+03 -0.17958987300E+03  0.11558426358E+04  0.15199924385E+04  0.89536111206E+03 0.  0.
         23    2    4    4    0    0 -0.44787810253E+03 -0.18041617585E+02  0.12270452492E+04  0.13094621441E+04  0.90170773927E+02 0.  0.
         23    2    4    4    0    0  0.73070457371E+02 -0.16154825541E+03 -0.71202613420E+02  0.21053029441E+03  0.88408495867E+02 0.  0.
          3    1    3    3  502    0  0.22888681974E+03  0.14198374794E+03  0.43771583168E+02  0.27288186532E+03  0.00000000000E+00 0. -1.
         -2    1    3    3    0  502  0.14592082542E+03  0.37606125055E+02 -0.15582776986E+02  0.15149234592E+03  0.00000000000E+00 0.  1.
         13    1    5    5    0    0 -0.20265055174E+02  0.14147180530E+02  0.11443763266E+03  0.11707598792E+03  0.00000000000E+00 0. -1.
        -13    1    5    5    0    0 -0.42761304736E+03 -0.32188798116E+02  0.11126076165E+04  0.11923861561E+04  0.00000000000E+00 0.  1.
          1    1    6    6  503    0 -0.17017686675E+02 -0.29155808752E+02  0.32835958831E+01  0.33918208173E+02  0.00000000000E+00 0. -1.
         -1    1    6    6    0  503  0.90088144046E+02 -0.13239244666E+03 -0.74486209303E+02  0.17661208624E+03  0.00000000000E+00 0.  1.
<mgrwt>
<rscale>  0 0.15422812E+04</rscale>
<asrwt>0</asrwt>
<pdfrwt beam="1">  1        1 0.24064600E+00 0.15422812E+04</pdfrwt>
<pdfrwt beam="2">  1       -2 0.58487324E-01 0.15422812E+04</pdfrwt>
<totfact> 0.13657184E+01</totfact>
</mgrwt>
</event>
<event>
12    5  0.5246737E-008  0.1624282E+04  0.7818608E-02  0.8805768E-01
         -2   -1    0    0    0  501 -0.00000000000E+00  0.00000000000E+00  0.65591951727E+03  0.65591951727E+03  0.00000000000E+00 0.  1.
          1   -1    0    0  501    0  0.00000000000E+00 -0.00000000000E+00 -0.10055705248E+04  0.10055705248E+04  0.00000000000E+00 0. -1.
        -24    2    1    2    0    0 -0.22697896731E+03 -0.39728239487E+03  0.19856814664E+03  0.50534778799E+03  0.81205449856E+02 0.  0.
        254    2    1    2    0    0  0.22697896731E+03  0.39728239487E+03 -0.54821915421E+03  0.11561422541E+04  0.90926779216E+03 0.  0.
         23    2    4    4    0    0 -0.16153514510E+03  0.23291808256E+03 -0.64786325955E+03  0.71329917208E+03  0.93404868810E+02 0.  0.
         23    2    4    4    0    0  0.38851411241E+03  0.16436431231E+03  0.99644105345E+02  0.44284308205E+03  0.90676374472E+02 0.  0.
          1    1    3    3  502    0 -0.17948390068E+01 -0.21355819629E+01 -0.60270686162E+01  0.66413638271E+01  0.00000000000E+00 0. -1.
         -2    1    3    3    0  502 -0.22518412830E+03 -0.39514681291E+03  0.20459521526E+03  0.49870642416E+03  0.00000000000E+00 0.  1.
         13    1    5    5    0    0 -0.93038667303E+02  0.10179834552E+03 -0.21102754127E+03  0.25209466464E+03  0.00000000000E+00 0.  1.
        -13    1    5    5    0    0 -0.68496477799E+02  0.13111973704E+03 -0.43683571829E+03  0.46120450744E+03  0.00000000000E+00 0. -1.
          4    1    6    6  503    0  0.39289730349E+03  0.16626197000E+03  0.97610585038E+02  0.43765187086E+03  0.00000000000E+00 0. -1.
         -4    1    6    6    0  503 -0.43831910813E+01 -0.18976576883E+01  0.20335203074E+01  0.51912111879E+01  0.00000000000E+00 0.  1.
<mgrwt>
<rscale>  0 0.16242824E+04</rscale>
<asrwt>0</asrwt>
<pdfrwt beam="1">  1        1 0.15470316E+00 0.16242824E+04</pdfrwt>
<pdfrwt beam="2">  1       -2 0.10091070E+00 0.16242824E+04</pdfrwt>
<totfact> 0.10166227E+01</totfact>
</mgrwt>
</event>
<event>
12    5  0.5246737E-008  0.1358243E+04  0.7818608E-02  0.8984612E-01
          1   -1    0    0  501    0  0.00000000000E+00  0.00000000000E+00  0.22527967024E+03  0.22527967024E+03  0.00000000000E+00 0. -1.
         -2   -1    0    0    0  501 -0.00000000000E+00 -0.00000000000E+00 -0.20472594172E+04  0.20472594172E+04  0.00000000000E+00 0.  1.
        -24    2    1    2    0    0 -0.69403971955E+02  0.30496339388E+03 -0.84492118491E+03  0.90448050720E+03  0.79834806144E+02 0.  0.
        254    2    1    2    0    0  0.69403971955E+02 -0.30496339388E+03 -0.97705856205E+03  0.13680585802E+04  0.90505318205E+03 0.  0.
         23    2    4    4    0    0  0.24158427050E+03 -0.52609722650E+03 -0.88250581643E+03  0.10584343645E+04  0.79533241390E+02 0.  0.
         23    2    4    4    0    0 -0.17218029854E+03  0.22113383262E+03 -0.94552745622E+02  0.30962421571E+03  0.91546196609E+02 0.  0.
          3    1    3    3  502    0 -0.20613075052E+02  0.18625248528E+02 -0.39563848448E+02  0.48343529556E+02  0.00000000000E+00 0. -1.
         -4    1    3    3    0  502 -0.48790896902E+02  0.28633814535E+03 -0.80535733646E+03  0.85613697765E+03  0.00000000000E+00 0.  1.
         13    1    5    5    0    0  0.15150426695E+03 -0.38142779868E+03 -0.67422590556E+03  0.78931697070E+03  0.00000000000E+00 0. -1.
        -13    1    5    5    0    0  0.90080003545E+02 -0.14466942782E+03 -0.20827991087E+03  0.26911739382E+03  0.00000000000E+00 0.  1.
          1    1    6    6  503    0 -0.84960856372E+01  0.25409646040E+02 -0.40903165087E+02  0.48896855698E+02  0.00000000000E+00 0. -1.
         -1    1    6    6    0  503 -0.16368421290E+03  0.19572418658E+03 -0.53649580535E+02  0.26072736001E+03  0.00000000000E+00 0.  1.
<mgrwt>
<rscale>  0 0.13582429E+04</rscale>
<asrwt>0</asrwt>
<pdfrwt beam="1">  1        1 0.34658412E-01 0.13582429E+04</pdfrwt>
<pdfrwt beam="2">  1       -2 0.31496298E+00 0.13582429E+04</pdfrwt>
<totfact> 0.28143970E+00</totfact>
</mgrwt>
</event>
<event>
12    5  0.5246737E-008  0.1715795E+04  0.7818608E-02  0.8752407E-01
          1   -1    0    0  501    0  0.00000000000E+00  0.00000000000E+00  0.13589169953E+04  0.13589169953E+04  0.00000000000E+00 0. -1.
         -2   -1    0    0    0  501 -0.00000000000E+00 -0.00000000000E+00 -0.54159901363E+03  0.54159901363E+03  0.00000000000E+00 0.  1.
        -24    2    1    2    0    0 -0.14869854972E+03 -0.48113013008E+03  0.65138534228E+03  0.82737958768E+03  0.81588339944E+02 0.  0.
        254    2    1    2    0    0  0.14869854972E+03  0.48113013008E+03  0.16593263942E+03  0.10731364213E+04  0.93300089875E+03 0.  0.
         23    2    4    4    0    0 -0.15102601745E+03 -0.39578617884E+02 -0.27005541358E+03  0.32518376297E+03  0.91865272823E+02 0.  0.
         23    2    4    4    0    0  0.29972456717E+03  0.52070874797E+03  0.43598805301E+03  0.74795265831E+03  0.91516011341E+02 0.  0.
          1    1    3    3  502    0 -0.10087451005E+03 -0.35812232590E+03  0.42077959598E+03  0.56167849832E+03  0.00000000000E+00 0. -1.
         -4    1    3    3    0  502 -0.47824039666E+02 -0.12300780418E+03  0.23060574630E+03  0.26570108936E+03  0.00000000000E+00 0.  1.
         13    1    5    5    0    0 -0.11209608568E+03 -0.59469868039E+02 -0.24196340206E+03  0.27321875040E+03  0.00000000000E+00 0. -1.
        -13    1    5    5    0    0 -0.38929931769E+02  0.19891250155E+02 -0.28092011520E+02  0.51965012571E+02  0.00000000000E+00 0.  1.
          2    1    6    6  503    0  0.22775626750E+03  0.44854331529E+03  0.33444698916E+03  0.60408510297E+03  0.00000000000E+00 0. -1.
         -2    1    6    6    0  503  0.71968299667E+02  0.72165432676E+02  0.10154106385E+03  0.14386755533E+03  0.00000000000E+00 0.  1.
<mgrwt>
<rscale>  0 0.17157950E+04</rscale>
<asrwt>0</asrwt>
<pdfrwt beam="1">  1        1 0.20906415E+00 0.17157950E+04</pdfrwt>
<pdfrwt beam="2">  1       -2 0.83322926E-01 0.17157950E+04</pdfrwt>
<totfact> 0.86338631E+00</totfact>
</mgrwt>
</event>
<event>
12    5  0.5246737E-008  0.1804696E+04  0.7818608E-02  0.8703806E-01
         -2   -1    0    0    0  501 -0.00000000000E+00  0.00000000000E+00  0.11512990188E+04  0.11512990188E+04  0.00000000000E+00 0.  1.
          1   -1    0    0  501    0  0.00000000000E+00 -0.00000000000E+00 -0.70722916997E+03  0.70722916997E+03  0.00000000000E+00 0. -1.
        -24    2    1    2    0    0  0.45754546991E+03  0.38959255213E+03 -0.14614498942E+03  0.62433770215E+03  0.85492658618E+02 0.  0.
        254    2    1    2    0    0 -0.45754546991E+03 -0.38959255213E+03  0.59021483823E+03  0.12341904866E+04  0.90207670860E+03 0.  0.
         23    2    4    4    0    0 -0.56961406120E+03 -0.38594568706E+02  0.62654677146E+03  0.85272408655E+03  0.92885905791E+02 0.  0.
         23    2    4    4    0    0  0.11206859129E+03 -0.35099798343E+03 -0.36331933237E+02  0.38146640004E+03  0.91856689788E+02 0.  0.
          3    1    3    3  502    0  0.38084698211E+03  0.33117096008E+03 -0.15382467674E+03  0.52761791076E+03  0.00000000000E+00 0. -1.
         -4    1    3    3    0  502  0.76698487796E+02  0.58421592056E+02  0.76796873136E+01  0.96719791386E+02  0.00000000000E+00 0.  1.
         13    1    5    5    0    0 -0.43557386325E+03 -0.66528976130E+02  0.45748470048E+03  0.63517158799E+03  0.00000000000E+00 0. -1.
        -13    1    5    5    0    0 -0.13404019795E+03  0.27934407424E+02  0.16906207098E+03  0.21755249856E+03  0.00000000000E+00 0.  1.
          3    1    6    6  503    0  0.11724105509E+03 -0.29199828574E+03 -0.55190752506E+01  0.31470450277E+03  0.00000000000E+00 0. -1.
         -3    1    6    6    0  503 -0.51724637953E+01 -0.58999697687E+02 -0.30812857987E+02  0.66761897263E+02  0.00000000000E+00 0.  1.
<mgrwt>
<rscale>  0 0.18046964E+04</rscale>
<asrwt>0</asrwt>
<pdfrwt beam="1">  1        1 0.10880449E+00 0.18046964E+04</pdfrwt>
<pdfrwt beam="2">  1       -2 0.17712293E+00 0.18046964E+04</pdfrwt>
<totfact> 0.42036909E+00</totfact>
</mgrwt>
</event>
<event>
12    5  0.5246737E-008  0.1370919E+04  0.7818608E-02  0.8975142E-01
          1   -1    0    0  501    0  0.00000000000E+00  0.00000000000E+00  0.36091720265E+03  0.36091720265E+03  0.00000000000E+00 0. -1.
         -2   -1    0    0    0  501 -0.00000000000E+00 -0.00000000000E+00 -0.13018346845E+04  0.13018346845E+04  0.00000000000E+00 0.  1.
        -24    2    1    2    0    0 -0.95183168180E+02 -0.45691568899E+02  0.20318376201E+03  0.24253895035E+03  0.79962155535E+02 0.  0.
        254    2    1    2    0    0  0.95183168180E+02  0.45691568899E+02 -0.11441012438E+04  0.14202129368E+04  0.83479912233E+03 0.  0.
         23    2    4    4    0    0  0.45465697323E+03 -0.30638147222E+01 -0.56886831438E+03  0.73384134941E+03  0.90496501242E+02 0.  0.
         23    2    4    4    0    0 -0.35947380505E+03  0.48755383621E+02 -0.57523292946E+03  0.68637158736E+03  0.92814486209E+02 0.  0.
          1    1    3    3  502    0 -0.51849555813E+02 -0.36731990370E+02  0.18334740653E+03  0.19404609513E+03  0.00000000000E+00 0. -1.
         -2    1    3    3    0  502 -0.43333612367E+02 -0.89595785286E+01  0.19836355479E+02  0.48492855215E+02  0.00000000000E+00 0.  1.
         13    1    5    5    0    0  0.21311937265E+03  0.99882472616E+01 -0.33640575230E+03  0.39835720436E+03  0.00000000000E+00 0. -1.
        -13    1    5    5    0    0  0.24153760058E+03 -0.13052061984E+02 -0.23246256207E+03  0.33548414505E+03  0.00000000000E+00 0.  1.
          2    1    6    6  503    0 -0.46422475364E+02  0.39020705356E+02 -0.10832255328E+03  0.12414280976E+03  0.00000000000E+00 0. -1.
         -2    1    6    6    0  503 -0.31305132969E+03  0.97346782647E+01 -0.46691037618E+03  0.56222877760E+03  0.00000000000E+00 0.  1.
<mgrwt>
<rscale>  0 0.13709187E+04</rscale>
<asrwt>0</asrwt>
<pdfrwt beam="1">  1        1 0.55525724E-01 0.13709187E+04</pdfrwt>
<pdfrwt beam="2">  1       -2 0.20028226E+00 0.13709187E+04</pdfrwt>
<totfact> 0.77683973E+00</totfact>
</mgrwt>
</event>
<event>
12    5  0.5246737E-008  0.1518182E+04  0.7818608E-02  0.8872451E-01
          3   -1    0    0  501    0  0.00000000000E+00  0.00000000000E+00  0.38638866330E+03  0.38638866330E+03  0.00000000000E+00 0. -1.
         -4   -1    0    0    0  501 -0.00000000000E+00 -0.00000000000E+00 -0.14912945420E+04  0.14912945420E+04  0.00000000000E+00 0.  1.
        -24    2    1    2    0    0 -0.22698484707E+03  0.12102331246E+03 -0.87461574401E+03  0.91491532505E+03  0.77127098893E+02 0.  0.
        254    2    1    2    0    0  0.22698484707E+03 -0.12102331246E+03 -0.23029013471E+03  0.96276788028E+03  0.89873226391E+03 0.  0.
         23    2    4    4    0    0  0.40915046315E+03 -0.35064892421E+03  0.49730392153E+02  0.54740748292E+03  0.82601881955E+02 0.  0.
         23    2    4    4    0    0 -0.18216561609E+03  0.22962561175E+03 -0.28002052686E+03  0.41536039736E+03  0.90556783120E+02 0.  0.
          1    1    3    3  502    0 -0.10479889043E+02  0.23715118564E+02 -0.15523080005E+03  0.15738118123E+03  0.00000000000E+00 0. -1.
         -4    1    3    3    0  502 -0.21650495802E+03  0.97308193898E+02 -0.71938494396E+03  0.75753414381E+03  0.00000000000E+00 0.  1.
         13    1    5    5    0    0  0.33071766554E+03 -0.24357152698E+03  0.19030167126E+02  0.41117321207E+03  0.00000000000E+00 0. -1.
        -13    1    5    5    0    0  0.78432797610E+02 -0.10707739723E+03  0.30700225027E+02  0.13623427086E+03  0.00000000000E+00 0.  1.
          1    1    6    6  503    0 -0.19062656813E+03  0.22460115330E+03 -0.27851239151E+03  0.40540512918E+03  0.00000000000E+00 0. -1.
         -1    1    6    6    0  503  0.84609520441E+01  0.50244584484E+01 -0.15081353584E+01  0.99552681758E+01  0.00000000000E+00 0.  1.
<mgrwt>
<rscale>  0 0.15181822E+04</rscale>
<asrwt>0</asrwt>
<pdfrwt beam="1">  1        3 0.59444410E-01 0.15181822E+04</pdfrwt>
<pdfrwt beam="2">  1       -4 0.22942993E+00 0.15181822E+04</pdfrwt>
<totfact> 0.51988065E-01</totfact>
</mgrwt>
</event>
<event>
12    5  0.5246737E-008  0.1329224E+04  0.7818608E-02  0.9006706E-01
          1   -1    0    0  501    0  0.00000000000E+00  0.00000000000E+00  0.56323588427E+03  0.56323588427E+03  0.00000000000E+00 0. -1.
         -4   -1    0    0    0  501 -0.00000000000E+00 -0.00000000000E+00 -0.78423523606E+03  0.78423523606E+03  0.00000000000E+00 0.  1.
        -24    2    1    2    0    0  0.13398771174E+03 -0.13806950096E+03  0.24696283338E+03  0.32179634776E+03  0.74473850230E+02 0.  0.
        254    2    1    2    0    0 -0.13398771174E+03  0.13806950096E+03 -0.46796218517E+03  0.10256747726E+04  0.89219069619E+03 0.  0.
         23    2    4    4    0    0 -0.32223295229E+03  0.35340732086E+03 -0.52553826944E+03  0.71649778078E+03  0.91911844984E+02 0.  0.
         23    2    4    4    0    0  0.18824524055E+03 -0.21533781990E+03  0.57576084265E+02  0.30917699180E+03  0.10231695611E+03 0.  0.
          1    1    3    3  502    0  0.10293208247E+03 -0.11892278402E+03  0.23617025755E+03  0.28374994751E+03  0.00000000000E+00 0. -1.
         -2    1    3    3    0  502  0.31055629263E+02 -0.19146716940E+02  0.10792575824E+02  0.38046400242E+02  0.00000000000E+00 0.  1.
         13    1    5    5    0    0 -0.12261244356E+03  0.19868509977E+03 -0.27513624488E+03  0.36084558115E+03  0.00000000000E+00 0.  1.
        -13    1    5    5    0    0 -0.19962050873E+03  0.15472222109E+03 -0.25040202455E+03  0.35565219963E+03  0.00000000000E+00 0. -1.
          1    1    6    6  503    0 -0.28661107097E+01 -0.78612088979E+01 -0.15649427036E+02  0.17745922419E+02  0.00000000000E+00 0. -1.
         -1    1    6    6    0  503  0.19111135126E+03 -0.20747661100E+03  0.73225511302E+02  0.29143106938E+03  0.00000000000E+00 0.  1.
<mgrwt>
<rscale>  0 0.13292245E+04</rscale>
<asrwt>0</asrwt>
<pdfrwt beam="1">  1        1 0.86651674E-01 0.13292245E+04</pdfrwt>
<pdfrwt beam="2">  1       -4 0.12065158E+00 0.13292245E+04</pdfrwt>
<totfact> 0.92310070E+00</totfact>
</mgrwt>
</event>
<event>
12    5  0.5246737E-008  0.1149879E+04  0.7818608E-02  0.9157895E-01
          1   -1    0    0  501    0  0.00000000000E+00  0.00000000000E+00  0.37771793440E+03  0.37771793440E+03  0.00000000000E+00 0. -1.
         -2   -1    0    0    0  501 -0.00000000000E+00 -0.00000000000E+00 -0.87513846456E+03  0.87513846456E+03  0.00000000000E+00 0.  1.
        -24    2    1    2    0    0  0.13937651034E+03 -0.20941768595E+03 -0.20661039667E+03  0.33630799398E+03  0.84460831085E+02 0.  0.
        254    2    1    2    0    0 -0.13937651034E+03  0.20941768595E+03 -0.29081013350E+03  0.91654840498E+03  0.83199090506E+03 0.  0.
         23    2    4    4    0    0 -0.44457826259E+03  0.29226350372E+03 -0.15959262972E+03  0.56273991490E+03  0.90214284798E+02 0.  0.
         23    2    4    4    0    0  0.30520175226E+03 -0.82845817773E+02 -0.13121750378E+03  0.35380849008E+03  0.89167680544E+02 0.  0.
          1    1    3    3  502    0  0.10492004724E+03 -0.10209838993E+03 -0.15208465745E+03  0.21109723013E+03  0.00000000000E+00 0. -1.
         -2    1    3    3    0  502  0.34456463092E+02 -0.10731929602E+03 -0.54525739219E+02  0.12521076385E+03  0.00000000000E+00 0.  1.
         13    1    5    5    0    0 -0.35018547363E+03  0.19488831354E+03 -0.91890602897E+02  0.41116323230E+03  0.00000000000E+00 0. -1.
        -13    1    5    5    0    0 -0.94392788959E+02  0.97375190178E+02 -0.67702026823E+02  0.15157668259E+03  0.00000000000E+00 0.  1.
          2    1    6    6  503    0  0.28513519631E+03 -0.89571841006E+02 -0.14103493004E+03  0.33047851121E+03  0.00000000000E+00 0. -1.
         -2    1    6    6    0  503  0.20066555941E+02  0.67260232329E+01  0.98174262615E+01  0.23329978874E+02  0.00000000000E+00 0.  1.
<mgrwt>
<rscale>  0 0.11498791E+04</rscale>
<asrwt>0</asrwt>
<pdfrwt beam="1">  1        1 0.58110452E-01 0.11498791E+04</pdfrwt>
<pdfrwt beam="2">  1       -2 0.13463669E+00 0.11498791E+04</pdfrwt>
<totfact> 0.22296359E+01</totfact>
</mgrwt>
</event>
<event>
12    5  0.5246737E-008  0.1345773E+04  0.7818608E-02  0.8994034E-01
          1   -1    0    0  501    0  0.00000000000E+00  0.00000000000E+00  0.22766827194E+04  0.22766827194E+04  0.00000000000E+00 0. -1.
         -2   -1    0    0    0  501 -0.00000000000E+00 -0.00000000000E+00 -0.19887527771E+03  0.19887527771E+03  0.00000000000E+00 0.  1.
        -24    2    1    2    0    0 -0.28153052919E+03  0.13723088681E+03  0.96245924693E+03  0.10156014080E+04  0.83825191458E+02 0.  0.
        254    2    1    2    0    0  0.28153052919E+03 -0.13723088681E+03  0.11153481948E+04  0.14599565892E+04  0.88847053494E+03 0.  0.
         23    2    4    4    0    0 -0.24283670162E+03 -0.28747608209E+03  0.43345339236E+03  0.58152203961E+03  0.93133655440E+02 0.  0.
         23    2    4    4    0    0  0.52436723081E+03  0.15024519528E+03  0.68189480242E+03  0.87843454954E+03  0.95562151597E+02 0.  0.
          1    1    3    3  502    0 -0.23207352857E+03  0.12347591092E+03  0.88040013784E+03  0.91880837281E+03  0.00000000000E+00 0. -1.
         -2    1    3    3    0  502 -0.49457000615E+02  0.13754975892E+02  0.82059109090E+02  0.96793035165E+02  0.00000000000E+00 0.  1.
         13    1    5    5    0    0 -0.22409360469E+03 -0.28115010427E+03  0.43148455239E+03  0.56164245187E+03  0.00000000000E+00 0.  1.
        -13    1    5    5    0    0 -0.18743096928E+02 -0.63259778238E+01  0.19688399725E+01  0.19879587740E+02  0.00000000000E+00 0. -1.
          1    1    6    6  503    0  0.12953233676E+03  0.72405233232E+02  0.22556934751E+03  0.27000495292E+03  0.00000000000E+00 0. -1.
         -1    1    6    6    0  503  0.39483489405E+03  0.77839962050E+02  0.45632545491E+03  0.60842959662E+03  0.00000000000E+00 0.  1.
<mgrwt>
<rscale>  0 0.13457725E+04</rscale>
<asrwt>0</asrwt>
<pdfrwt beam="1">  1        1 0.35025886E+00 0.13457725E+04</pdfrwt>
<pdfrwt beam="2">  1       -2 0.30596198E-01 0.13457725E+04</pdfrwt>
<totfact> 0.16447540E+01</totfact>
</mgrwt>
</event>
<event>
12    5  0.5246737E-008  0.1403091E+04  0.7818608E-02  0.8951584E-01
          1   -1    0    0  501    0  0.00000000000E+00  0.00000000000E+00  0.12886830017E+04  0.12886830017E+04  0.00000000000E+00 0. -1.
         -2   -1    0    0    0  501 -0.00000000000E+00 -0.00000000000E+00 -0.38191426069E+03  0.38191426069E+03  0.00000000000E+00 0.  1.
        -24    2    1    2    0    0 -0.15903122883E+02 -0.32740324321E+02  0.75109613367E+03  0.75644753629E+03  0.82113549370E+02 0.  0.
        254    2    1    2    0    0  0.15903122883E+02  0.32740324321E+02  0.15567260731E+03  0.91414972607E+03  0.90006162169E+03 0.  0.
         23    2    4    4    0    0 -0.33975730780E+03 -0.21627099155E+03  0.21681472576E+03  0.46620513311E+03  0.90168901789E+02 0.  0.
         23    2    4    4    0    0  0.35566043068E+03  0.24901131587E+03 -0.61142118447E+02  0.44794459295E+03  0.91733430810E+02 0.  0.
          1    1    3    3  502    0 -0.47438886985E+02 -0.32050178342E+02  0.42721746527E+03  0.43103645387E+03  0.00000000000E+00 0. -1.
         -2    1    3    3    0  502  0.31535764103E+02 -0.69014597878E+00  0.32387866840E+03  0.32541108242E+03  0.00000000000E+00 0.  1.
         13    1    5    5    0    0 -0.17531639779E+03 -0.15731069183E+03  0.14954389561E+03  0.27900872713E+03  0.00000000000E+00 0. -1.
        -13    1    5    5    0    0 -0.16444091000E+03 -0.58960299719E+02  0.67270830148E+02  0.18719640599E+03  0.00000000000E+00 0.  1.
          1    1    6    6  503    0  0.22295555740E+03  0.19564768099E+03 -0.12579476099E+02  0.29689297545E+03  0.00000000000E+00 0. -1.
         -1    1    6    6    0  503  0.13270487328E+03  0.53363634881E+02 -0.48562642348E+02  0.15105161751E+03  0.00000000000E+00 0.  1.
<mgrwt>
<rscale>  0 0.14030915E+04</rscale>
<asrwt>0</asrwt>
<pdfrwt beam="1">  1        1 0.19825892E+00 0.14030915E+04</pdfrwt>
<pdfrwt beam="2">  1       -2 0.58756041E-01 0.14030915E+04</pdfrwt>
<totfact> 0.21333510E+01</totfact>
</mgrwt>
</event>
<event>
12    5  0.5246737E-008  0.2589080E+04  0.7818608E-02  0.8371920E-01
         -2   -1    0    0    0  501 -0.00000000000E+00  0.00000000000E+00  0.17202694787E+04  0.17202694787E+04  0.00000000000E+00 0.  1.
          1   -1    0    0  501    0  0.00000000000E+00 -0.00000000000E+00 -0.97416958057E+03  0.97416958057E+03  0.00000000000E+00 0. -1.
        -24    2    1    2    0    0 -0.37287109709E+03 -0.34095817020E+03 -0.72883949953E+03  0.89041019060E+03  0.79611321846E+02 0.  0.
        254    2    1    2    0    0  0.37287109709E+03  0.34095817020E+03  0.14749393976E+04  0.18040288686E+04  0.90762800934E+03 0.  0.
         23    2    4    4    0    0  0.23381213181E+03  0.64497432216E+03  0.99766633634E+03  0.12142922142E+04  0.92235966900E+02 0.  0.
         23    2    4    4    0    0  0.13905896528E+03 -0.30401615196E+03  0.47727306130E+03  0.58973665445E+03  0.90755330850E+02 0.  0.
          3    1    3    3  502    0 -0.31618140273E+03 -0.24755974745E+03 -0.59106334962E+03  0.71457147386E+03  0.00000000000E+00 0. -1.
         -4    1    3    3    0  502 -0.56689694362E+02 -0.93398422747E+02 -0.13777614991E+03  0.17583871674E+03  0.00000000000E+00 0.  1.
         13    1    5    5    0    0  0.15707935601E+03  0.31780367369E+03  0.55419366825E+03  0.65787819619E+03  0.00000000000E+00 0. -1.
        -13    1    5    5    0    0  0.76732775802E+02  0.32717064846E+03  0.44347266809E+03  0.55641401801E+03  0.00000000000E+00 0.  1.
          4    1    6    6  503    0  0.14872357318E+02 -0.11499681145E+03  0.11979471728E+03  0.16672200798E+03  0.00000000000E+00 0. -1.
         -4    1    6    6    0  503  0.12418660796E+03 -0.18901934051E+03  0.35747834402E+03  0.42301464647E+03  0.00000000000E+00 0.  1.
<mgrwt>
<rscale>  0 0.25890803E+04</rscale>
<asrwt>0</asrwt>
<pdfrwt beam="1">  1        1 0.14987224E+00 0.25890803E+04</pdfrwt>
<pdfrwt beam="2">  1       -2 0.26465684E+00 0.25890803E+04</pdfrwt>
<totfact> 0.64062878E-01</totfact>
</mgrwt>
</event>
<event>
12    5  0.5246737E-008  0.3226553E+04  0.7818608E-02  0.8181840E-01
         -2   -1    0    0    0  501 -0.00000000000E+00  0.00000000000E+00  0.10271079371E+04  0.10271079371E+04  0.00000000000E+00 0.  1.
          1   -1    0    0  501    0  0.00000000000E+00 -0.00000000000E+00 -0.25339704003E+04  0.25339704003E+04  0.00000000000E+00 0. -1.
        -24    2    1    2    0    0 -0.34490457376E+03  0.13482131790E+04 -0.12673257761E+04  0.18839665496E+04  0.81101148959E+02 0.  0.
        254    2    1    2    0    0  0.34490457376E+03 -0.13482131790E+04 -0.23953668716E+03  0.16771117878E+04  0.90481389417E+03 0.  0.
         23    2    4    4    0    0  0.17354416767E+02 -0.87636218467E+03 -0.52884890886E+03  0.10276894378E+04  0.90291514724E+02 0.  0.
         23    2    4    4    0    0  0.32755015699E+03 -0.47185099435E+03  0.28931222170E+03  0.64942234998E+03  0.90085297463E+02 0.  0.
          3    1    3    3  502    0 -0.31383778588E+03  0.12133623537E+04 -0.11070344783E+04  0.16722044413E+04  0.00000000000E+00 0. -1.
         -4    1    3    3    0  502 -0.31066787882E+02  0.13485082528E+03 -0.16029129783E+03  0.21176210838E+03  0.00000000000E+00 0.  1.
         13    1    5    5    0    0  0.53095267903E+02 -0.55273892722E+03 -0.34623059457E+03  0.65438142834E+03  0.00000000000E+00 0.  1.
        -13    1    5    5    0    0 -0.35740851136E+02 -0.32362325745E+03 -0.18261831428E+03  0.37330800944E+03  0.00000000000E+00 0. -1.
          3    1    6    6  503    0  0.24560516792E+03 -0.28671332392E+03  0.16640202994E+03  0.41257249568E+03  0.00000000000E+00 0. -1.
         -3    1    6    6    0  503  0.81944989074E+02 -0.18513767043E+03  0.12291019176E+03  0.23684985430E+03  0.00000000000E+00 0.  1.
<mgrwt>
<rscale>  0 0.32265530E+04</rscale>
<asrwt>0</asrwt>
<pdfrwt beam="1">  1        1 0.38984160E+00 0.32265530E+04</pdfrwt>
<pdfrwt beam="2">  1       -2 0.15801661E+00 0.32265530E+04</pdfrwt>
<totfact> 0.24551124E-01</totfact>
</mgrwt>
</event>
<event>
12    5  0.5246737E-008  0.1655196E+04  0.7818608E-02  0.8787338E-01
          1   -1    0    0  501    0  0.00000000000E+00  0.00000000000E+00  0.18176479693E+04  0.18176479693E+04  0.00000000000E+00 0. -1.
         -2   -1    0    0    0  501 -0.00000000000E+00 -0.00000000000E+00 -0.37681583408E+03  0.37681583408E+03  0.00000000000E+00 0.  1.
        -24    2    1    2    0    0 -0.66899150361E+02  0.45528787576E+03  0.96550976753E+03  0.10726269564E+04  0.80974873798E+02 0.  0.
        254    2    1    2    0    0  0.66899150361E+02 -0.45528787576E+03  0.47532236765E+03  0.11218368470E+04  0.90599338402E+03 0.  0.
         23    2    4    4    0    0 -0.36541411808E+03 -0.38558946355E+01  0.24895448162E+03  0.45059838088E+03  0.86707677399E+02 0.  0.
         23    2    4    4    0    0  0.43231326844E+03 -0.45143198113E+03  0.22636788603E+03  0.67123846608E+03  0.92914276995E+02 0.  0.
          3    1    3    3  502    0 -0.42370488428E+02  0.10908248909E+03  0.30079312447E+03  0.32275494023E+03  0.00000000000E+00 0. -1.
         -2    1    3    3    0  502 -0.24528661934E+02  0.34620538667E+03  0.66471664306E+03  0.74987201613E+03  0.00000000000E+00 0.  1.
         13    1    5    5    0    0 -0.14109405620E+02  0.18423194952E+02  0.20404137629E+02  0.30900133844E+02  0.00000000000E+00 0.  1.
        -13    1    5    5    0    0 -0.35130471246E+03 -0.22279089587E+02  0.22855034399E+03  0.41969824704E+03  0.00000000000E+00 0. -1.
          2    1    6    6  503    0  0.30463411415E+02 -0.68063118106E+02  0.10191905883E+02  0.75262755908E+02  0.00000000000E+00 0.  1.
         -2    1    6    6    0  503  0.40184985703E+03 -0.38336886302E+03  0.21617598015E+03  0.59597571018E+03  0.00000000000E+00 0. -1.
<mgrwt>
<rscale>  0 0.16551961E+04</rscale>
<asrwt>0</asrwt>
<pdfrwt beam="1">  1        1 0.27963814E+00 0.16551961E+04</pdfrwt>
<pdfrwt beam="2">  1       -2 0.57971668E-01 0.16551961E+04</pdfrwt>
<totfact> 0.92547654E+00</totfact>
</mgrwt>
</event>
<event>
12    5  0.5246737E-008  0.2226572E+04  0.7818608E-02  0.8507449E-01
          1   -1    0    0  501    0  0.00000000000E+00  0.00000000000E+00  0.27564368549E+04  0.27564368549E+04  0.00000000000E+00 0. -1.
         -2   -1    0    0    0  501 -0.00000000000E+00 -0.00000000000E+00 -0.44964065204E+03  0.44964065204E+03  0.00000000000E+00 0.  1.
        -24    2    1    2    0    0 -0.66521346788E+03  0.27129089924E+03  0.18414348045E+04  0.19781715801E+04  0.78568132266E+02 0.  0.
        254    2    1    2    0    0  0.66521346788E+03 -0.27129089924E+03  0.46536139841E+03  0.12279059268E+04  0.88038856432E+03 0.  0.
         23    2    4    4    0    0  0.73948497312E+03  0.20146902981E+02  0.52020178313E+03  0.90882869523E+03  0.90087618146E+02 0.  0.
         23    2    4    4    0    0 -0.74271505239E+02 -0.29143780222E+03 -0.54840384720E+02  0.31907723161E+03  0.91381414309E+02 0.  0.
          1    1    3    3  502    0 -0.21852742595E+03  0.77509555801E+02  0.69375348198E+03  0.73147512664E+03  0.00000000000E+00 0. -1.
         -2    1    3    3    0  502 -0.44668604193E+03  0.19378134344E+03  0.11476813225E+04  0.12466964535E+04  0.00000000000E+00 0.  1.
         13    1    5    5    0    0  0.30910975371E+02 -0.16557298474E+02  0.16925907682E+02  0.38937371277E+02  0.00000000000E+00 0.  1.
        -13    1    5    5    0    0  0.70857399774E+03  0.36704201455E+02  0.50327587545E+03  0.86989132396E+03  0.00000000000E+00 0. -1.
          1    1    6    6  503    0 -0.42964210348E+02 -0.22524836639E+03 -0.29393865287E+01  0.22932812720E+03  0.00000000000E+00 0. -1.
         -1    1    6    6    0  503 -0.31307294891E+02 -0.66189435836E+02 -0.51900998191E+02  0.89749104413E+02  0.00000000000E+00 0.  1.
<mgrwt>
<rscale>  0 0.22265723E+04</rscale>
<asrwt>0</asrwt>
<pdfrwt beam="1">  1        1 0.42406720E+00 0.22265723E+04</pdfrwt>
<pdfrwt beam="2">  1       -2 0.69175487E-01 0.22265723E+04</pdfrwt>
<totfact> 0.13654236E+00</totfact>
</mgrwt>
</event>
<event>
12    5  0.5246737E-008  0.1431593E+04  0.7818608E-02  0.8931262E-01
         -2   -1    0    0    0  501 -0.00000000000E+00  0.00000000000E+00  0.13932728856E+03  0.13932728856E+03  0.00000000000E+00 0.  1.
          1   -1    0    0  501    0  0.00000000000E+00 -0.00000000000E+00 -0.36774152317E+04  0.36774152317E+04  0.00000000000E+00 0. -1.
        -24    2    1    2    0    0 -0.29402930392E+03 -0.30355314901E+03 -0.12667733803E+04  0.13379117575E+04  0.81824984469E+02 0.  0.
        254    2    1    2    0    0  0.29402930392E+03  0.30355314901E+03 -0.22713145629E+04  0.24788307627E+04  0.89840656774E+03 0.  0.
         23    2    4    4    0    0  0.20457986864E+03  0.24473869295E+01 -0.44970142385E+02  0.22855831866E+03  0.91420342213E+02 0.  0.
         23    2    4    4    0    0  0.89449435283E+02  0.30110576208E+03 -0.22263444205E+04  0.22502724441E+04  0.91927757096E+02 0.  0.
          1    1    3    3  502    0 -0.25450466118E+03 -0.23454401916E+03 -0.94273764291E+03  0.10042598184E+04  0.00000000000E+00 0. -1.
         -2    1    3    3    0  502 -0.39524642735E+02 -0.69009129848E+02 -0.32403573739E+03  0.33365193914E+03  0.00000000000E+00 0.  1.
         13    1    5    5    0    0  0.10301825328E+03  0.43066544247E+02 -0.39222099896E+01  0.11172677152E+03  0.00000000000E+00 0. -1.
        -13    1    5    5    0    0  0.10156161535E+03 -0.40619157317E+02 -0.41047932396E+02  0.11683154715E+03  0.00000000000E+00 0.  1.
          1    1    6    6  503    0  0.18688076013E+02  0.10285344902E+02 -0.30604908037E+03  0.30679157762E+03  0.00000000000E+00 0. -1.
         -1    1    6    6    0  503  0.70761359270E+02  0.29082041718E+03 -0.19202953401E+04  0.19434808664E+04  0.00000000000E+00 0.  1.
<mgrwt>
<rscale>  0 0.14315925E+04</rscale>
<asrwt>0</asrwt>
<pdfrwt beam="1">  1        1 0.56575622E+00 0.14315925E+04</pdfrwt>
<pdfrwt beam="2">  1       -2 0.21434966E-01 0.14315925E+04</pdfrwt>
<totfact> 0.29557702E+00</totfact>
</mgrwt>
</event>
<event>
12    5  0.5246737E-008  0.1175408E+04  0.7818608E-02  0.9134658E-01
         -2   -1    0    0    0  501 -0.00000000000E+00  0.00000000000E+00  0.10923495256E+03  0.10923495256E+03  0.00000000000E+00 0.  1.
          1   -1    0    0  501    0  0.00000000000E+00 -0.00000000000E+00 -0.31619543541E+04  0.31619543541E+04  0.00000000000E+00 0. -1.
        -24    2    1    2    0    0 -0.23178749034E+03  0.38399062020E+02 -0.51828976377E+03  0.57440535777E+03  0.78213216069E+02 0.  0.
        254    2    1    2    0    0  0.23178749034E+03 -0.38399062020E+02 -0.25344296378E+04  0.26967839489E+04  0.89112858191E+03 0.  0.
         23    2    4    4    0    0  0.27576608828E+02 -0.71421236271E+02  0.26188153217E+02  0.12619536428E+03  0.96840013687E+02 0.  0.
         23    2    4    4    0    0  0.20421088151E+03  0.33022174251E+02 -0.25606177910E+04  0.25705885847E+04  0.91485800267E+02 0.  0.
          1    1    3    3  502    0 -0.43478132966E+02  0.10088721330E+02 -0.41302460443E+02  0.60811377084E+02  0.00000000000E+00 0. -1.
         -2    1    3    3    0  502 -0.18830935738E+03  0.28310340690E+02 -0.47698730333E+03  0.51359398069E+03  0.00000000000E+00 0.  1.
         13    1    5    5    0    0 -0.91783541327E+01 -0.28703738852E+02  0.55141670748E+02  0.62839085460E+02  0.00000000000E+00 0. -1.
        -13    1    5    5    0    0  0.36754962961E+02 -0.42717497419E+02 -0.28953517530E+02  0.63356278816E+02  0.00000000000E+00 0.  1.
          1    1    6    6  503    0  0.20778453677E+03  0.27855681191E+02 -0.25467516326E+04  0.25553657724E+04  0.00000000000E+00 0. -1.
         -1    1    6    6    0  503 -0.35736552594E+01  0.51664930601E+01 -0.13866158412E+02  0.15222812209E+02  0.00000000000E+00 0.  1.
<mgrwt>
<rscale>  0 0.11754079E+04</rscale>
<asrwt>0</asrwt>
<pdfrwt beam="1">  1        1 0.48645447E+00 0.11754079E+04</pdfrwt>
<pdfrwt beam="2">  1       -2 0.16805379E-01 0.11754079E+04</pdfrwt>
<totfact> 0.11623527E+01</totfact>
</mgrwt>
</event>
<event>
12    5  0.5246737E-008  0.2188511E+04  0.7818608E-02  0.8523226E-01
         -2   -1    0    0    0  501 -0.00000000000E+00  0.00000000000E+00  0.15981993976E+04  0.15981993976E+04  0.00000000000E+00 0.  1.
          1   -1    0    0  501    0  0.00000000000E+00 -0.00000000000E+00 -0.74921475869E+03  0.74921475869E+03  0.00000000000E+00 0. -1.
        -24    2    1    2    0    0  0.75115427317E+01 -0.87826011009E+03  0.13236685265E+03  0.89174497868E+03  0.79315062040E+02 0.  0.
        254    2    1    2    0    0 -0.75115427317E+01  0.87826011009E+03  0.71661778630E+03  0.14556691776E+04  0.91325487069E+03 0.  0.
         23    2    4    4    0    0  0.95384051153E+02  0.90097622697E+03  0.21631947150E+03  0.93613675781E+03  0.93282564283E+02 0.  0.
         23    2    4    4    0    0 -0.10289559388E+03 -0.22716116873E+02  0.50029831480E+03  0.51953241983E+03  0.92260534692E+02 0.  0.
          3    1    3    3  502    0  0.33181493093E+02 -0.73685117226E+03  0.12234809485E+03  0.74767621191E+03  0.00000000000E+00 0. -1.
         -4    1    3    3    0  502 -0.25669950361E+02 -0.14140893783E+03  0.10018757804E+02  0.14406876677E+03  0.00000000000E+00 0.  1.
         13    1    5    5    0    0 -0.17770538101E+01  0.27611152797E+02 -0.87497188864E+01  0.29018808722E+02  0.00000000000E+00 0. -1.
        -13    1    5    5    0    0  0.97161104963E+02  0.87336507417E+03  0.22506919039E+03  0.90711794909E+03  0.00000000000E+00 0.  1.
          1    1    6    6  503    0 -0.15785515294E+02  0.15703081880E+02  0.20129698944E+02  0.30016229830E+02  0.00000000000E+00 0. -1.
         -1    1    6    6    0  503 -0.87110078591E+02 -0.38419198753E+02  0.48016861585E+03  0.48951619000E+03  0.00000000000E+00 0.  1.
<mgrwt>
<rscale>  0 0.21885105E+04</rscale>
<asrwt>0</asrwt>
<pdfrwt beam="1">  1        1 0.11526381E+00 0.21885105E+04</pdfrwt>
<pdfrwt beam="2">  1       -2 0.24587683E+00 0.21885105E+04</pdfrwt>
<totfact> 0.13364756E+00</totfact>
</mgrwt>
</event>
<event>
12    5  0.5246737E-008  0.1636703E+04  0.7818608E-02  0.8798312E-01
         -2   -1    0    0    0  501 -0.00000000000E+00  0.00000000000E+00  0.68062529573E+03  0.68062529573E+03  0.00000000000E+00 0.  1.
          1   -1    0    0  501    0  0.00000000000E+00 -0.00000000000E+00 -0.98394688016E+03  0.98394688016E+03  0.00000000000E+00 0. -1.
        -24    2    1    2    0    0  0.39961756179E+03  0.51104150385E+02  0.28531694435E+03  0.49964918553E+03  0.77056602527E+02 0.  0.
        254    2    1    2    0    0 -0.39961756179E+03 -0.51104150385E+02 -0.58863852878E+03  0.11649229904E+04  0.92100185994E+03 0.  0.
         23    2    4    4    0    0 -0.68452639988E+03 -0.10620724733E+03 -0.44277338923E+03  0.82730575518E+03  0.92358902339E+02 0.  0.
         23    2    4    4    0    0  0.28490883809E+03  0.55103096948E+02 -0.14586513955E+03  0.33761723517E+03  0.92191980307E+02 0.  0.
          3    1    3    3  502    0  0.43236232109E+02  0.30930956926E+02  0.39938444591E+02  0.66491918454E+02  0.00000000000E+00 0. -1.
         -4    1    3    3    0  502  0.35638132968E+03  0.20173193460E+02  0.24537849976E+03  0.43315726708E+03  0.00000000000E+00 0.  1.
         13    1    5    5    0    0 -0.66853758340E+03 -0.94804580987E+02 -0.41261295332E+03  0.79131527107E+03  0.00000000000E+00 0.  1.
        -13    1    5    5    0    0 -0.15988816478E+02 -0.11402666346E+02 -0.30160435910E+02  0.35990484110E+02  0.00000000000E+00 0. -1.
          3    1    6    6  503    0  0.26133790664E+03  0.67460290476E+02 -0.10662239864E+03  0.29020118561E+03  0.00000000000E+00 0. -1.
         -3    1    6    6    0  503  0.23570931447E+02 -0.12357193528E+02 -0.39242740917E+02  0.47416049560E+02  0.00000000000E+00 0.  1.
<mgrwt>
<rscale>  0 0.16367029E+04</rscale>
<asrwt>0</asrwt>
<pdfrwt beam="1">  1        1 0.15137644E+00 0.16367029E+04</pdfrwt>
<pdfrwt beam="2">  1       -2 0.10471158E+00 0.16367029E+04</pdfrwt>
<totfact> 0.96657235E+00</totfact>
</mgrwt>
</event>
<event>
12    5  0.5246737E-008  0.1681495E+04  0.7818608E-02  0.8771989E-01
          1   -1    0    0  501    0  0.00000000000E+00  0.00000000000E+00  0.98090837371E+03  0.98090837371E+03  0.00000000000E+00 0. -1.
         -2   -1    0    0    0  501 -0.00000000000E+00 -0.00000000000E+00 -0.72061423368E+03  0.72061423368E+03  0.00000000000E+00 0.  1.
        -24    2    1    2    0    0 -0.42563360332E+03 -0.30001541204E+03 -0.17997888507E+03  0.55515678022E+03  0.68069375036E+02 0.  0.
        254    2    1    2    0    0  0.42563360332E+03  0.30001541204E+03  0.44027302510E+03  0.11463658272E+04  0.92148850308E+03 0.  0.
         23    2    4    4    0    0  0.68816297877E+03  0.23638138366E+03  0.16312164463E+03  0.75010552311E+03  0.81272264450E+02 0.  0.
         23    2    4    4    0    0 -0.26252937544E+03  0.63634028382E+02  0.27715138047E+03  0.39626030405E+03  0.85078659666E+02 0.  0.
          1    1    3    3  502    0 -0.14127706406E+03 -0.96086212784E+02 -0.25876324132E+02  0.17280437861E+03  0.00000000000E+00 0. -1.
         -2    1    3    3    0  502 -0.28435653926E+03 -0.20392919925E+03 -0.15410256094E+03  0.38235240161E+03  0.00000000000E+00 0.  1.
         13    1    5    5    0    0  0.63141636298E+03  0.19282981177E+03  0.13957533150E+03  0.67479717909E+03  0.00000000000E+00 0.  1.
        -13    1    5    5    0    0  0.56746615792E+02  0.43551571885E+02  0.23546313130E+02  0.75308344023E+02  0.00000000000E+00 0. -1.
          1    1    6    6  503    0 -0.48375549354E+02  0.24649800726E+02  0.10696053331E+03  0.11995149910E+03  0.00000000000E+00 0. -1.
         -1    1    6    6    0  503 -0.21415382609E+03  0.38984227656E+02  0.17019084717E+03  0.27630880495E+03  0.00000000000E+00 0.  1.
<mgrwt>
<rscale>  0 0.16814952E+04</rscale>
<asrwt>0</asrwt>
<pdfrwt beam="1">  1        1 0.15090898E+00 0.16814952E+04</pdfrwt>
<pdfrwt beam="2">  1       -2 0.11086373E+00 0.16814952E+04</pdfrwt>
<totfact> 0.84359219E+00</totfact>
</mgrwt>
</event>
<event>
12    5  0.5246737E-008  0.1853704E+04  0.7818608E-02  0.8678250E-01
         -2   -1    0    0    0  501 -0.00000000000E+00  0.00000000000E+00  0.13008148770E+04  0.13008148770E+04  0.00000000000E+00 0.  1.
          1   -1    0    0  501    0  0.00000000000E+00 -0.00000000000E+00 -0.66039742178E+03  0.66039742178E+03  0.00000000000E+00 0. -1.
        -24    2    1    2    0    0 -0.85833783173E+01  0.23129385839E+03 -0.45434932837E+03  0.51653363643E+03  0.82481283125E+02 0.  0.
        254    2    1    2    0    0  0.85833783173E+01 -0.23129385839E+03  0.10947667835E+04  0.14446786623E+04  0.91378969334E+03 0.  0.
         23    2    4    4    0    0 -0.16827457160E+03  0.20122163923E+02 -0.93610540218E+02  0.21386997514E+03  0.90863634620E+02 0.  0.
         23    2    4    4    0    0  0.17685794992E+03 -0.25141602231E+03  0.11883773238E+04  0.12308086872E+04  0.90336094935E+02 0.  0.
          3    1    3    3  502    0  0.83667118509E+01  0.22666265238E+03 -0.40556838814E+03  0.46468449222E+03  0.00000000000E+00 0. -1.
         -4    1    3    3    0  502 -0.16950090168E+02  0.46312060029E+01 -0.48780940229E+02  0.51849144211E+02  0.00000000000E+00 0.  1.
         13    1    5    5    0    0 -0.76445734334E+02 -0.99042614533E+01 -0.88153277738E+02  0.11710271162E+03  0.00000000000E+00 0. -1.
        -13    1    5    5    0    0 -0.91828837267E+02  0.30026425376E+02 -0.54572624801E+01  0.96767263516E+02  0.00000000000E+00 0.  1.
          4    1    6    6  503    0  0.91555295194E+02 -0.19857443932E+03  0.86573233304E+03  0.89292029460E+03  0.00000000000E+00 0. -1.
         -4    1    6    6    0  503  0.85302654725E+02 -0.52841582989E+02  0.32264499071E+03  0.33788839256E+03  0.00000000000E+00 0.  1.
<mgrwt>
<rscale>  0 0.18537042E+04</rscale>
<asrwt>0</asrwt>
<pdfrwt beam="1">  1        1 0.10159960E+00 0.18537042E+04</pdfrwt>
<pdfrwt beam="2">  1       -2 0.20012536E+00 0.18537042E+04</pdfrwt>
<totfact> 0.32455065E+00</totfact>
</mgrwt>
</event>
<event>
12    5  0.5246737E-008  0.5235078E+04  0.7818608E-02  0.7793233E-01
          1   -1    0    0  501    0  0.00000000000E+00  0.00000000000E+00  0.49542919930E+04  0.49542919930E+04  0.00000000000E+00 0. -1.
         -2   -1    0    0    0  501 -0.00000000000E+00 -0.00000000000E+00 -0.13829446484E+04  0.13829446484E+04  0.00000000000E+00 0.  1.
        -24    2    1    2    0    0  0.13250049186E+04 -0.90923026380E+03 -0.64533151949E+03  0.17335527611E+04  0.80091813626E+02 0.  0.
        254    2    1    2    0    0 -0.13250049186E+04  0.90923026380E+03  0.42166788641E+04  0.46036838803E+04  0.91169453238E+03 0.  0.
         23    2    4    4    0    0 -0.23455613995E+03  0.35356070130E+03  0.38561613681E+03  0.58083971834E+03  0.93022691525E+02 0.  0.
         23    2    4    4    0    0 -0.10904487786E+04  0.55566956250E+03  0.38310627273E+04  0.40228441620E+04  0.91576906993E+02 0.  0.
          1    1    3    3  502    0  0.19448365387E+03 -0.11889446782E+03 -0.64775002998E+02  0.23697170108E+03  0.00000000000E+00 0. -1.
         -2    1    3    3    0  502  0.11305212647E+04 -0.79033579598E+03 -0.58055651649E+03  0.14965810600E+04  0.00000000000E+00 0.  1.
         13    1    5    5    0    0 -0.29633128618E+02  0.35896408000E+02  0.93588740376E+01  0.47479078995E+02  0.00000000000E+00 0. -1.
        -13    1    5    5    0    0 -0.20492301134E+03  0.31766429330E+03  0.37625726278E+03  0.53336063935E+03  0.00000000000E+00 0.  1.
          2    1    6    6  503    0 -0.13268816388E+03  0.82357995031E+02  0.40443614318E+03  0.43354075021E+03  0.00000000000E+00 0. -1.
         -2    1    6    6    0  503 -0.95776061475E+03  0.47331156747E+03  0.34266265841E+04  0.35893034118E+04  0.00000000000E+00 0.  1.
<mgrwt>
<rscale>  0 0.52350785E+04</rscale>
<asrwt>0</asrwt>
<pdfrwt beam="1">  1        1 0.76219876E+00 0.52350785E+04</pdfrwt>
<pdfrwt beam="2">  1       -2 0.21276072E+00 0.52350785E+04</pdfrwt>
<totfact> 0.66920828E-04</totfact>
</mgrwt>
</event>
<event>
12    5  0.5246737E-008  0.1254742E+04  0.7818608E-02  0.9066246E-01
          1   -1    0    0  501    0  0.00000000000E+00  0.00000000000E+00  0.19946869835E+04  0.19946869835E+04  0.00000000000E+00 0. -1.
         -2   -1    0    0    0  501 -0.00000000000E+00 -0.00000000000E+00 -0.19732130930E+03  0.19732130930E+03  0.00000000000E+00 0.  1.
        -24    2    1    2    0    0  0.12456169179E+03 -0.18456942651E+03  0.11198942246E+03  0.26297723163E+03  0.83868381102E+02 0.  0.
        254    2    1    2    0    0 -0.12456169179E+03  0.18456942651E+03  0.16853762518E+04  0.19290310612E+04  0.91163931288E+03 0.  0.
         23    2    4    4    0    0  0.22433501228E+02 -0.26144325461E+03  0.14164043106E+03  0.31284412805E+03  0.94623461076E+02 0.  0.
         23    2    4    4    0    0 -0.14699519302E+03  0.44601268113E+03  0.15437358207E+04  0.16161869331E+04  0.91678897464E+02 0.  0.
          1    1    3    3  502    0  0.41170364603E+01 -0.44767165648E+02 -0.38170155912E+01  0.45117831479E+02  0.00000000000E+00 0. -1.
         -2    1    3    3    0  502  0.12044465533E+03 -0.13980226086E+03  0.11580643805E+03  0.21785940015E+03  0.00000000000E+00 0.  1.
         13    1    5    5    0    0  0.53007346460E+02 -0.19060991565E+03  0.77379689114E+02  0.21243713190E+03  0.00000000000E+00 0. -1.
        -13    1    5    5    0    0 -0.30573845232E+02 -0.70833338968E+02  0.64260741947E+02  0.10040699616E+03  0.00000000000E+00 0.  1.
          1    1    6    6  503    0 -0.29754709537E+02  0.20742858935E+03  0.77272794730E+03  0.80063752283E+03  0.00000000000E+00 0. -1.
         -1    1    6    6    0  503 -0.11724048348E+03  0.23858409177E+03  0.77100787340E+03  0.81554941031E+03  0.00000000000E+00 0.  1.
<mgrwt>
<rscale>  0 0.12547418E+04</rscale>
<asrwt>0</asrwt>
<pdfrwt beam="1">  1        1 0.30687491E+00 0.12547418E+04</pdfrwt>
<pdfrwt beam="2">  1       -2 0.30357126E-01 0.12547418E+04</pdfrwt>
<totfact> 0.26120918E+01</totfact>
</mgrwt>
</event>
<event>
12    5  0.5246737E-008  0.2526036E+04  0.7818608E-02  0.8393769E-01
          1   -1    0    0  501    0  0.00000000000E+00  0.00000000000E+00  0.11640039678E+04  0.11640039678E+04  0.00000000000E+00 0. -1.
         -2   -1    0    0    0  501 -0.00000000000E+00 -0.00000000000E+00 -0.13704540331E+04  0.13704540331E+04  0.00000000000E+00 0.  1.
        -24    2    1    2    0    0 -0.40498589797E+03 -0.62998943904E+03  0.71908994735E+03  0.10412077118E+04  0.78248807948E+02 0.  0.
        254    2    1    2    0    0  0.40498589797E+03  0.62998943904E+03 -0.92554001272E+03  0.14932502891E+04  0.90126124950E+03 0.  0.
         23    2    4    4    0    0 -0.98378709485E+02 -0.15755902711E+03 -0.56646654061E+02  0.21368639098E+03  0.89161722570E+02 0.  0.
         23    2    4    4    0    0  0.50336460745E+03  0.78754846615E+03 -0.86889335866E+03  0.12795638981E+04  0.93271571371E+02 0.  0.
          3    1    3    3  502    0 -0.28917539890E+03 -0.49640244877E+03  0.51911785088E+03  0.77428750834E+03  0.00000000000E+00 0. -1.
         -4    1    3    3    0  502 -0.11581049907E+03 -0.13358699026E+03  0.19997209647E+03  0.26692020349E+03  0.00000000000E+00 0.  1.
         13    1    5    5    0    0  0.34267452270E+01 -0.55778102655E+01 -0.27723595370E+02  0.28486001657E+02  0.00000000000E+00 0. -1.
        -13    1    5    5    0    0 -0.10180545471E+03 -0.15198121684E+03 -0.28923058691E+02  0.18520038933E+03  0.00000000000E+00 0.  1.
          4    1    6    6  503    0  0.28417628237E+03  0.48318119300E+03 -0.57537267209E+03  0.80328944754E+03  0.00000000000E+00 0.  1.
         -4    1    6    6    0  503  0.21918832508E+03  0.30436727315E+03 -0.29352068656E+03  0.47627445056E+03  0.00000000000E+00 0. -1.
<mgrwt>
<rscale>  0 0.25260356E+04</rscale>
<asrwt>0</asrwt>
<pdfrwt beam="1">  1        1 0.17907753E+00 0.25260356E+04</pdfrwt>
<pdfrwt beam="2">  1       -2 0.21083908E+00 0.25260356E+04</pdfrwt>
<totfact> 0.99892198E-01</totfact>
</mgrwt>
</event>
<event>
12    5  0.5246737E-008  0.1158553E+04  0.7818608E-02  0.9149929E-01
         -4   -1    0    0    0  501 -0.00000000000E+00  0.00000000000E+00  0.14106968670E+03  0.14106968670E+03  0.00000000000E+00 0.  1.
          3   -1    0    0  501    0  0.00000000000E+00 -0.00000000000E+00 -0.23786908383E+04  0.23786908383E+04  0.00000000000E+00 0. -1.
        -24    2    1    2    0    0  0.88736577377E+01 -0.19041942975E+03 -0.47824202823E+03  0.52081149594E+03  0.78682118143E+02 0.  0.
        254    2    1    2    0    0 -0.88736577377E+01  0.19041942975E+03 -0.17593791234E+04  0.19989490291E+04  0.92953968178E+03 0.  0.
         23    2    4    4    0    0  0.25499433056E+03  0.43533526175E+02 -0.16381865226E+04  0.16611346319E+04  0.93786491113E+02 0.  0.
         23    2    4    4    0    0 -0.26386798830E+03  0.14688590358E+03 -0.12119260077E+03  0.33781439717E+03  0.90714588311E+02 0.  0.
          1    1    3    3  502    0  0.34089599608E+02 -0.94681511791E+02 -0.30625845621E+03  0.32236769608E+03  0.00000000000E+00 0. -1.
         -2    1    3    3    0  502 -0.25215941870E+02 -0.95737917962E+02 -0.17198357201E+03  0.19844379986E+03  0.00000000000E+00 0.  1.
         13    1    5    5    0    0  0.11741479630E+03  0.39705912508E+02 -0.52297141561E+03  0.53745873835E+03  0.00000000000E+00 0.  1.
        -13    1    5    5    0    0  0.13757953426E+03  0.38276136670E+01 -0.11152151070E+04  0.11236758936E+04  0.00000000000E+00 0. -1.
          2    1    6    6  503    0 -0.13977274146E+03  0.44076578851E+02 -0.20994292698E+02  0.14805378882E+03  0.00000000000E+00 0. -1.
         -2    1    6    6    0  503 -0.12409524684E+03  0.10280932473E+03 -0.10019830807E+03  0.18976060834E+03  0.00000000000E+00 0.  1.
<mgrwt>
<rscale>  0 0.11585528E+04</rscale>
<asrwt>0</asrwt>
<pdfrwt beam="1">  1        3 0.36595242E+00 0.11585528E+04</pdfrwt>
<pdfrwt beam="2">  1       -4 0.21703030E-01 0.11585528E+04</pdfrwt>
<totfact> 0.77563434E-01</totfact>
</mgrwt>
</event>
<event>
12    5  0.5246737E-008  0.1957899E+04  0.7818608E-02  0.8626561E-01
         -2   -1    0    0    0  501 -0.00000000000E+00  0.00000000000E+00  0.12639996596E+04  0.12639996596E+04  0.00000000000E+00 0.  1.
          1   -1    0    0  501    0  0.00000000000E+00 -0.00000000000E+00 -0.75818198758E+03  0.75818198758E+03  0.00000000000E+00 0. -1.
        -24    2    1    2    0    0  0.31057159907E+03 -0.49599187987E+03 -0.31726532365E+03  0.67062403624E+03  0.81342789166E+02 0.  0.
        254    2    1    2    0    0 -0.31057159907E+03  0.49599187987E+03  0.82308299564E+03  0.13515576109E+04  0.89820915986E+03 0.  0.
         23    2    4    4    0    0 -0.60155875507E+03  0.43849708516E+03  0.66976951945E+03  0.10055897366E+04  0.92015648768E+02 0.  0.
         23    2    4    4    0    0  0.29098715600E+03  0.57494794715E+02  0.15331347619E+03  0.34596787435E+03  0.90606686952E+02 0.  0.
          3    1    3    3  502    0  0.14101573018E+03 -0.24918673013E+03 -0.11130749615E+03  0.30719508676E+03  0.00000000000E+00 0. -1.
         -4    1    3    3    0  502  0.16955586889E+03 -0.24680514975E+03 -0.20595782750E+03  0.36342894948E+03  0.00000000000E+00 0.  1.
         13    1    5    5    0    0 -0.83481917651E+02  0.27143763508E+02  0.93672065434E+02  0.12837628408E+03  0.00000000000E+00 0.  1.
        -13    1    5    5    0    0 -0.51807683742E+03  0.41135332165E+03  0.57609745401E+03  0.87721345248E+03  0.00000000000E+00 0. -1.
          3    1    6    6  503    0  0.13892873256E+03  0.69108031712E+02  0.55506319147E+02  0.16479703954E+03  0.00000000000E+00 0. -1.
         -3    1    6    6    0  503  0.15205842344E+03 -0.11613236997E+02  0.97807157045E+02  0.18117083480E+03  0.00000000000E+00 0.  1.
<mgrwt>
<rscale>  0 0.19578986E+04</rscale>
<asrwt>0</asrwt>
<pdfrwt beam="1">  1        1 0.11664338E+00 0.19578986E+04</pdfrwt>
<pdfrwt beam="2">  1       -2 0.19446149E+00 0.19578986E+04</pdfrwt>
<totfact> 0.28403853E+00</totfact>
</mgrwt>
</event>
<event>
12    5  0.5246737E-008  0.1447007E+04  0.7818608E-02  0.8920478E-01
          1   -1    0    0  501    0  0.00000000000E+00  0.00000000000E+00  0.61030752553E+03  0.61030752553E+03  0.00000000000E+00 0. -1.
         -2   -1    0    0    0  501 -0.00000000000E+00 -0.00000000000E+00 -0.85769399605E+03  0.85769399605E+03  0.00000000000E+00 0.  1.
        -24    2    1    2    0    0  0.31929403005E+03 -0.25349721145E+03 -0.24978966981E+03  0.48467863713E+03  0.79429140130E+02 0.  0.
        254    2    1    2    0    0 -0.31929403005E+03  0.25349721145E+03  0.24031992971E+01  0.98332288445E+03  0.89482322605E+03 0.  0.
         23    2    4    4    0    0 -0.48364879769E+03  0.34022930473E+03 -0.25706235353E+03  0.65098713608E+03  0.89616172807E+02 0.  0.
         23    2    4    4    0    0  0.16435476764E+03 -0.86732093288E+02  0.25946555283E+03  0.33233574837E+03  0.92680801076E+02 0.  0.
          3    1    3    3  502    0 -0.13276537196E+01 -0.16629402362E+02 -0.11422967234E+02  0.20218404184E+02  0.00000000000E+00 0. -1.
         -4    1    3    3    0  502  0.32062168377E+03 -0.23686780908E+03 -0.23836670258E+03  0.46446023294E+03  0.00000000000E+00 0.  1.
         13    1    5    5    0    0 -0.41965063809E+03  0.25409483621E+03 -0.21722357192E+03  0.53652299488E+03  0.00000000000E+00 0.  1.
        -13    1    5    5    0    0 -0.63998159606E+02  0.86134468522E+02 -0.39838781615E+02  0.11446414120E+03  0.00000000000E+00 0. -1.
          2    1    6    6  503    0  0.30617827765E+02 -0.18216612563E+02  0.38641318918E+01  0.35836125148E+02  0.00000000000E+00 0. -1.
         -2    1    6    6    0  503  0.13373693987E+03 -0.68515480725E+02  0.25560142094E+03  0.29649962323E+03  0.00000000000E+00 0.  1.
<mgrwt>
<rscale>  0 0.14470067E+04</rscale>
<asrwt>0</asrwt>
<pdfrwt beam="1">  1        1 0.93893466E-01 0.14470067E+04</pdfrwt>
<pdfrwt beam="2">  1       -2 0.13195292E+00 0.14470067E+04</pdfrwt>
<totfact> 0.11873166E+01</totfact>
</mgrwt>
</event>
<event>
12    5  0.5246737E-008  0.2829180E+04  0.7818608E-02  0.8294266E-01
         -2   -1    0    0    0  501 -0.00000000000E+00  0.00000000000E+00  0.85617572301E+03  0.85617572301E+03  0.00000000000E+00 0.  1.
          1   -1    0    0  501    0  0.00000000000E+00 -0.00000000000E+00 -0.23372128490E+04  0.23372128490E+04  0.00000000000E+00 0. -1.
        -24    2    1    2    0    0  0.85125899433E+03 -0.76179623996E+03 -0.12780720485E+04  0.17160749514E+04  0.80434390110E+02 0.  0.
        254    2    1    2    0    0 -0.85125899433E+03  0.76179623996E+03 -0.20296507753E+03  0.14773136206E+04  0.91448637184E+03 0.  0.
         23    2    4    4    0    0 -0.27586301346E+03  0.60020784525E+03  0.26105344739E+03  0.71616058809E+03  0.91581798659E+02 0.  0.
         23    2    4    4    0    0 -0.57539598087E+03  0.16158839471E+03 -0.46401852492E+03  0.76115303251E+03  0.82761122097E+02 0.  0.
          3    1    3    3  502    0  0.42377577124E+03 -0.36770305491E+03 -0.68656548793E+03  0.88665867734E+03  0.00000000000E+00 0. -1.
         -4    1    3    3    0  502  0.42748322308E+03 -0.39409318506E+03 -0.59150656054E+03  0.82941627407E+03  0.00000000000E+00 0.  1.
         13    1    5    5    0    0 -0.13351259678E+03  0.38924939480E+03  0.17911102820E+03  0.44880002816E+03  0.00000000000E+00 0.  1.
        -13    1    5    5    0    0 -0.14235041668E+03  0.21095845045E+03  0.81942419197E+02  0.26736055993E+03  0.00000000000E+00 0. -1.
          3    1    6    6  503    0 -0.13112419719E+03  0.10324125231E+02 -0.73920547101E+02  0.15087872592E+03  0.00000000000E+00 0. -1.
         -3    1    6    6    0  503 -0.44427178368E+03  0.15126426948E+03 -0.39009797782E+03  0.61027430660E+03  0.00000000000E+00 0.  1.
<mgrwt>
<rscale>  0 0.28291800E+04</rscale>
<asrwt>0</asrwt>
<pdfrwt beam="1">  1        1 0.35957121E+00 0.28291800E+04</pdfrwt>
<pdfrwt beam="2">  1       -2 0.13171934E+00 0.28291800E+04</pdfrwt>
<totfact> 0.55970588E-01</totfact>
</mgrwt>
</event>
<event>
12    5  0.5246737E-008  0.1789593E+04  0.7818608E-02  0.8711853E-01
         -2   -1    0    0    0  501 -0.00000000000E+00  0.00000000000E+00  0.44197162795E+03  0.44197162795E+03  0.00000000000E+00 0.  1.
          1   -1    0    0  501    0  0.00000000000E+00 -0.00000000000E+00 -0.18115668943E+04  0.18115668943E+04  0.00000000000E+00 0. -1.
        -24    2    1    2    0    0 -0.61256394649E+03 -0.22088375558E+02 -0.87092122545E+03  0.10680864705E+04  0.81132254568E+02 0.  0.
        254    2    1    2    0    0  0.61256394649E+03  0.22088375558E+02 -0.49867404091E+03  0.11854520517E+04  0.88368449289E+03 0.  0.
         23    2    4    4    0    0  0.42677306556E+03 -0.39044350680E+03 -0.14085233325E+03  0.60214799765E+03  0.90340742771E+02 0.  0.
         23    2    4    4    0    0  0.18579088094E+03  0.41253188236E+03 -0.35782170766E+03  0.58330405407E+03  0.86639711519E+02 0.  0.
          1    1    3    3  502    0 -0.61107910148E+03 -0.26033250015E+02 -0.87044193950E+03  0.10638442407E+04  0.00000000000E+00 0. -1.
         -2    1    3    3    0  502 -0.14848450126E+01  0.39448744567E+01 -0.47928594592E+00  0.42422298628E+01  0.00000000000E+00 0.  1.
         13    1    5    5    0    0  0.27930638324E+03 -0.21809667194E+03 -0.50329717439E+02  0.35792638138E+03  0.00000000000E+00 0.  1.
        -13    1    5    5    0    0  0.14746668231E+03 -0.17234683486E+03 -0.90522615816E+02  0.24422161627E+03  0.00000000000E+00 0. -1.
          4    1    6    6  503    0  0.85278145867E+02  0.11129184472E+03 -0.80380153791E+02  0.16161437432E+03  0.00000000000E+00 0. -1.
         -4    1    6    6    0  503  0.10051273507E+03  0.30124003764E+03 -0.27744155387E+03  0.42168967974E+03  0.00000000000E+00 0.  1.
<mgrwt>
<rscale>  0 0.17895934E+04</rscale>
<asrwt>0</asrwt>
<pdfrwt beam="1">  1        1 0.27870260E+00 0.17895934E+04</pdfrwt>
<pdfrwt beam="2">  1       -2 0.67995635E-01 0.17895934E+04</pdfrwt>
<totfact> 0.65697515E+00</totfact>
</mgrwt>
</event>
<event>
12    5  0.5246737E-008  0.1573122E+04  0.7818608E-02  0.8837233E-01
         -2   -1    0    0    0  501 -0.00000000000E+00  0.00000000000E+00  0.80618419172E+03  0.80618419172E+03  0.00000000000E+00 0.  1.
          1   -1    0    0  501    0  0.00000000000E+00 -0.00000000000E+00 -0.76741536708E+03  0.76741536708E+03  0.00000000000E+00 0. -1.
        -24    2    1    2    0    0  0.18832100203E+03 -0.48282889184E+03  0.22932053933E+02  0.52506339145E+03  0.81099613707E+02 0.  0.
        254    2    1    2    0    0 -0.18832100203E+03  0.48282889184E+03  0.15836770707E+02  0.10485361674E+04  0.91136642046E+03 0.  0.
         23    2    4    4    0    0  0.17968864869E+03  0.61416937101E+03 -0.12237571822E+02  0.64598348383E+03  0.87480720528E+02 0.  0.
         23    2    4    4    0    0 -0.36800965073E+03 -0.13134047917E+03  0.28074342529E+02  0.40255268353E+03  0.92623268185E+02 0.  0.
          1    1    3    3  502    0  0.86429753151E+01 -0.65935664673E+02 -0.19014177443E+02  0.69164671922E+02  0.00000000000E+00 0. -1.
         -2    1    3    3    0  502  0.17967802672E+03 -0.41689322716E+03  0.41946231376E+02  0.45589871953E+03  0.00000000000E+00 0.  1.
         13    1    5    5    0    0  0.10037164256E+03  0.47430163553E+03 -0.17259328190E+02  0.48511276268E+03  0.00000000000E+00 0. -1.
        -13    1    5    5    0    0  0.79317006128E+02  0.13986773547E+03  0.50217563680E+01  0.16087072115E+03  0.00000000000E+00 0.  1.
          3    1    6    6  503    0 -0.30338949514E+03 -0.10940868720E+03 -0.13229851132E+02  0.32278549465E+03  0.00000000000E+00 0. -1.
         -3    1    6    6    0  503 -0.64620155588E+02 -0.21931791970E+02  0.41304193661E+02  0.79767188876E+02  0.00000000000E+00 0.  1.
<mgrwt>
<rscale>  0 0.15731219E+04</rscale>
<asrwt>0</asrwt>
<pdfrwt beam="1">  1        1 0.11806390E+00 0.15731219E+04</pdfrwt>
<pdfrwt beam="2">  1       -2 0.12402834E+00 0.15731219E+04</pdfrwt>
<totfact> 0.97277590E+00</totfact>
</mgrwt>
</event>
<event>
12    5  0.5246737E-008  0.1878483E+04  0.7818608E-02  0.8665642E-01
         -2   -1    0    0    0  501 -0.00000000000E+00  0.00000000000E+00  0.67228558778E+03  0.67228558778E+03  0.00000000000E+00 0.  1.
          1   -1    0    0  501    0  0.00000000000E+00 -0.00000000000E+00 -0.13122016293E+04  0.13122016293E+04  0.00000000000E+00 0. -1.
        -24    2    1    2    0    0  0.27451901404E+03  0.11198654165E+03 -0.94021999448E+03  0.98941170991E+03  0.83786747773E+02 0.  0.
        254    2    1    2    0    0 -0.27451901404E+03 -0.11198654165E+03  0.30030395298E+03  0.99507550714E+03  0.90116098792E+03 0.  0.
         23    2    4    4    0    0 -0.14101585330E+03  0.36467924566E+03 -0.13508996902E+02  0.40235859955E+03  0.93986842391E+02 0.  0.
         23    2    4    4    0    0 -0.13350316074E+03 -0.47666578730E+03  0.31381294988E+03  0.59271690759E+03  0.88325524695E+02 0.  0.
          1    1    3    3  502    0  0.15023337121E+03  0.92883325953E+02 -0.63989737142E+03  0.66382680272E+03  0.00000000000E+00 0. -1.
         -2    1    3    3    0  502  0.12428564283E+03  0.19103215693E+02 -0.30032262307E+03  0.32558490719E+03  0.00000000000E+00 0.  1.
         13    1    5    5    0    0 -0.11217531308E+03  0.35395021219E+03 -0.14317319183E+02  0.37157642445E+03  0.00000000000E+00 0. -1.
        -13    1    5    5    0    0 -0.28840540224E+02  0.10729033464E+02  0.80832228099E+00  0.30782175108E+02  0.00000000000E+00 0.  1.
          1    1    6    6  503    0 -0.91315461577E+02 -0.16907583602E+03  0.11192032451E+03  0.22237650705E+03  0.00000000000E+00 0. -1.
         -1    1    6    6    0  503 -0.42187699164E+02 -0.30758995128E+03  0.20189262538E+03  0.37034040054E+03  0.00000000000E+00 0.  1.
<mgrwt>
<rscale>  0 0.18784826E+04</rscale>
<asrwt>0</asrwt>
<pdfrwt beam="1">  1        1 0.20187717E+00 0.18784826E+04</pdfrwt>
<pdfrwt beam="2">  1       -2 0.10342855E+00 0.18784826E+04</pdfrwt>
<totfact> 0.55571006E+00</totfact>
</mgrwt>
</event>
<event>
12    5  0.5246737E-008  0.2693105E+04  0.7818608E-02  0.8337245E-01
         -2   -1    0    0    0  501 -0.00000000000E+00  0.00000000000E+00  0.16697626465E+04  0.16697626465E+04  0.00000000000E+00 0.  1.
          1   -1    0    0  501    0  0.00000000000E+00 -0.00000000000E+00 -0.10859053107E+04  0.10859053107E+04  0.00000000000E+00 0. -1.
        -24    2    1    2    0    0 -0.31618231902E+03 -0.41892199337E+03 -0.83959677763E+03  0.99334823013E+03  0.79693549921E+02 0.  0.
        254    2    1    2    0    0  0.31618231902E+03  0.41892199337E+03  0.14234541135E+04  0.17623197271E+04  0.89670636897E+03 0.  0.
         23    2    4    4    0    0  0.21929062848E+03 -0.13605599805E+03  0.10364303300E+04  0.10719566470E+04  0.91124144542E+02 0.  0.
         23    2    4    4    0    0  0.96891690540E+02  0.55497799142E+03  0.38702378342E+03  0.69036308012E+03  0.97083483729E+02 0.  0.
          1    1    3    3  502    0 -0.31543755224E+03 -0.40030782092E+03 -0.78760607712E+03  0.93812074573E+03  0.00000000000E+00 0. -1.
         -2    1    3    3    0  502 -0.74476678725E+00 -0.18614172452E+02 -0.51990700507E+02  0.55227484397E+02  0.00000000000E+00 0.  1.
         13    1    5    5    0    0  0.21874555224E+03 -0.13605006496E+03  0.10384193003E+04  0.10698943313E+04  0.00000000000E+00 0.  1.
        -13    1    5    5    0    0  0.54507623999E+00 -0.59330856483E-02 -0.19889703023E+01  0.20623157305E+01  0.00000000000E+00 0. -1.
          1    1    6    6  503    0 -0.45351020297E+01  0.88037155547E+01  0.26055313976E+02  0.27873857723E+02  0.00000000000E+00 0. -1.
         -1    1    6    6    0  503  0.10142679257E+03  0.54617427586E+03  0.36096846944E+03  0.66248922240E+03  0.00000000000E+00 0.  1.
<mgrwt>
<rscale>  0 0.26931054E+04</rscale>
<asrwt>0</asrwt>
<pdfrwt beam="1">  1        1 0.16706236E+00 0.26931054E+04</pdfrwt>
<pdfrwt beam="2">  1       -2 0.25688656E+00 0.26931054E+04</pdfrwt>
<totfact> 0.58063417E-01</totfact>
</mgrwt>
</event>
<event>
12    5  0.6513499E-008  0.2943134E+04  0.7818608E-02  0.8260158E-01
          1   -1    0    0  501    0  0.00000000000E+00  0.00000000000E+00  0.16880000033E+04  0.16880000033E+04  0.00000000000E+00 0. -1.
         -2   -1    0    0    0  501 -0.00000000000E+00 -0.00000000000E+00 -0.12828845175E+04  0.12828845175E+04  0.00000000000E+00 0.  1.
        -24    2    1    2    0    0 -0.76886775108E+03  0.36575436683E+03 -0.84554144886E+03  0.12024565204E+04  0.77636758721E+02 0.  0.
        254    2    1    2    0    0  0.76886775108E+03 -0.36575436683E+03  0.12506569347E+04  0.17684280003E+04  0.91556591709E+03 0.  0.
         23    2    4    4    0    0  0.30118994687E+02  0.16602511072E+03  0.63999012987E+03  0.66851602996E+03  0.94100078399E+02 0.  0.
         23    2    4    4    0    0  0.73874875639E+03 -0.53177947755E+03  0.61066680479E+03  0.10999119703E+04  0.91396160789E+02 0.  0.
          3    1    3    3  502    0 -0.31027057897E+02  0.62564322132E+01 -0.51589022940E+02  0.60524776362E+02  0.00000000000E+00 0. -1.
         -4    1    3    3    0  502 -0.73784069318E+03  0.35949793462E+03 -0.79395242592E+03  0.11419317441E+04  0.00000000000E+00 0.  1.
         13    1    5    5    0    0  0.49405785033E+02  0.16206502680E+03  0.60595772471E+03  0.62919851291E+03  0.00000000000E+00 0.  1.
        -13    1    5    5    0    0 -0.19286790346E+02  0.39600839180E+01  0.34032405158E+02  0.39317517054E+02  0.00000000000E+00 0. -1.
          3    1    6    6  503    0  0.80604649974E+02 -0.30475424800E+02  0.75663018811E+02  0.11467673491E+03  0.00000000000E+00 0. -1.
         -3    1    6    6    0  503  0.65814410642E+03 -0.50130405275E+03  0.53500378597E+03  0.98523523542E+03  0.00000000000E+00 0.  1.
<mgrwt>
<rscale>  0 0.29431338E+04</rscale>
<asrwt>0</asrwt>
<pdfrwt beam="1">  1        1 0.25969231E+00 0.29431338E+04</pdfrwt>
<pdfrwt beam="2">  1       -2 0.19736685E+00 0.29431338E+04</pdfrwt>
<totfact> 0.50518077E-01</totfact>
</mgrwt>
</event>
<event>
12    5  0.5246737E-008  0.2164635E+04  0.7818608E-02  0.8533294E-01
          1   -1    0    0  501    0  0.00000000000E+00  0.00000000000E+00  0.93690540948E+03  0.93690540948E+03  0.00000000000E+00 0. -1.
         -2   -1    0    0    0  501 -0.00000000000E+00 -0.00000000000E+00 -0.12502979039E+04  0.12502979039E+04  0.00000000000E+00 0.  1.
        -24    2    1    2    0    0  0.77990097951E+03  0.32251350245E+03 -0.41384412900E+03  0.94337823753E+03  0.80218693736E+02 0.  0.
        254    2    1    2    0    0 -0.77990097951E+03 -0.32251350245E+03  0.10045163456E+03  0.12438250759E+04  0.90815736046E+03 0.  0.
         23    2    4    4    0    0 -0.94515452255E+03 -0.11104375673E+03  0.82435291477E+02  0.95955380274E+03  0.91105080321E+02 0.  0.
         23    2    4    4    0    0  0.16525354304E+03 -0.21146974573E+03  0.18016343086E+02  0.28427127313E+03  0.91964021562E+02 0.  0.
          3    1    3    3  502    0  0.88472828325E+02  0.62854241761E+02 -0.65663953664E+02  0.12684577987E+03  0.00000000000E+00 0. -1.
         -4    1    3    3    0  502  0.69142815119E+03  0.25965926069E+03 -0.34818017534E+03  0.81653245766E+03  0.00000000000E+00 0.  1.
         13    1    5    5    0    0 -0.33523160990E+03 -0.13780781991E+02  0.64536122405E+02  0.34166511868E+03  0.00000000000E+00 0. -1.
        -13    1    5    5    0    0 -0.60992291265E+03 -0.97262974736E+02  0.17899169072E+02  0.61788868406E+03  0.00000000000E+00 0.  1.
          2    1    6    6  503    0  0.17448633527E+03 -0.21049993456E+03  0.13010966845E+02  0.27372429359E+03  0.00000000000E+00 0. -1.
         -2    1    6    6    0  503 -0.92327922257E+01 -0.96981116579E+00  0.50053762406E+01  0.10546979534E+02  0.00000000000E+00 0.  1.
<mgrwt>
<rscale>  0 0.21646347E+04</rscale>
<asrwt>0</asrwt>
<pdfrwt beam="1">  1        1 0.14413929E+00 0.21646347E+04</pdfrwt>
<pdfrwt beam="2">  1       -2 0.19235352E+00 0.21646347E+04</pdfrwt>
<totfact> 0.20344304E+00</totfact>
</mgrwt>
</event>
<event>
12    5  0.5246737E-008  0.2256710E+04  0.7818608E-02  0.8495188E-01
          1   -1    0    0  501    0  0.00000000000E+00  0.00000000000E+00  0.27265865315E+04  0.27265865315E+04  0.00000000000E+00 0. -1.
         -2   -1    0    0    0  501 -0.00000000000E+00 -0.00000000000E+00 -0.46695180530E+03  0.46695180530E+03  0.00000000000E+00 0.  1.
        -24    2    1    2    0    0 -0.41159590415E+03  0.61800605667E+03  0.18041442488E+04  0.19525992063E+04  0.79777914787E+02 0.  0.
        254    2    1    2    0    0  0.41159590415E+03 -0.61800605667E+03  0.45549047746E+03  0.12409391305E+04  0.88380748823E+03 0.  0.
         23    2    4    4    0    0  0.36071418202E+03 -0.15993864266E+03  0.62228218076E+03  0.74235029885E+03  0.90298190374E+02 0.  0.
         23    2    4    4    0    0  0.50881722126E+02 -0.45806741401E+03 -0.16679170330E+03  0.49858883169E+03  0.91414689026E+02 0.  0.
          1    1    3    3  502    0 -0.21011895805E+03  0.30832207480E+03  0.80268940160E+03  0.88516820649E+03  0.00000000000E+00 0. -1.
         -2    1    3    3    0  502 -0.20147694609E+03  0.30968398186E+03  0.10014548472E+04  0.10674309998E+04  0.00000000000E+00 0.  1.
         13    1    5    5    0    0  0.14293766440E+03 -0.10795435309E+03  0.31127639454E+03  0.35913550653E+03  0.00000000000E+00 0. -1.
        -13    1    5    5    0    0  0.21777651762E+03 -0.51984289574E+02  0.31100578622E+03  0.38321479232E+03  0.00000000000E+00 0.  1.
          3    1    6    6  503    0  0.39007709126E+02 -0.17494024260E+03 -0.22656075033E+02  0.18066263473E+03  0.00000000000E+00 0. -1.
         -3    1    6    6    0  503  0.11874012999E+02 -0.28312717141E+03 -0.14413562827E+03  0.31792619696E+03  0.00000000000E+00 0.  1.
<mgrwt>
<rscale>  0 0.22567096E+04</rscale>
<asrwt>0</asrwt>
<pdfrwt beam="1">  1        1 0.41947484E+00 0.22567096E+04</pdfrwt>
<pdfrwt beam="2">  1       -2 0.71838741E-01 0.22567096E+04</pdfrwt>
<totfact> 0.13163009E+00</totfact>
</mgrwt>
</event>
<event>
12    5  0.5246737E-008  0.2024139E+04  0.7818608E-02  0.8595417E-01
         -4   -1    0    0    0  501 -0.00000000000E+00  0.00000000000E+00  0.25515909570E+03  0.25515909570E+03  0.00000000000E+00 0.  1.
          1   -1    0    0  501    0  0.00000000000E+00 -0.00000000000E+00 -0.40142967974E+04  0.40142967974E+04  0.00000000000E+00 0. -1.
        -24    2    1    2    0    0  0.30831032493E+03  0.47122725852E+03 -0.28526899946E+03  0.63638958335E+03  0.80640647983E+02 0.  0.
        254    2    1    2    0    0 -0.30831032493E+03 -0.47122725852E+03 -0.34738687023E+04  0.36330663098E+04  0.90238387895E+03 0.  0.
         23    2    4    4    0    0 -0.93655208765E+02 -0.39011772744E+03 -0.49429698062E+03  0.64326592209E+03  0.92186778245E+02 0.  0.
         23    2    4    4    0    0 -0.21465511616E+03 -0.81109531082E+02 -0.29795717216E+04  0.29898003877E+04  0.91668635914E+02 0.  0.
          1    1    3    3  502    0  0.45705103993E+02  0.85289280043E+02 -0.17808282297E+02  0.98388783607E+02  0.00000000000E+00 0. -1.
         -2    1    3    3    0  502  0.26260522093E+03  0.38593797848E+03 -0.26746071716E+03  0.53800079974E+03  0.00000000000E+00 0.  1.
         13    1    5    5    0    0 -0.29646003189E+02 -0.25641299620E+02 -0.29009356605E+02  0.48763762385E+02  0.00000000000E+00 0.  1.
        -13    1    5    5    0    0 -0.64009205576E+02 -0.36447642782E+03 -0.46528762402E+03  0.59450215971E+03  0.00000000000E+00 0. -1.
          1    1    6    6  503    0 -0.83850046382E+02  0.14478922667E+02 -0.10268542529E+04  0.10303737798E+04  0.00000000000E+00 0. -1.
         -1    1    6    6    0  503 -0.13080506978E+03 -0.95588453749E+02 -0.19527174687E+04  0.19594266078E+04  0.00000000000E+00 0.  1.
<mgrwt>
<rscale>  0 0.20241387E+04</rscale>
<asrwt>0</asrwt>
<pdfrwt beam="1">  1        1 0.61758404E+00 0.20241387E+04</pdfrwt>
<pdfrwt beam="2">  1       -4 0.39255251E-01 0.20241387E+04</pdfrwt>
<totfact> 0.27602828E-01</totfact>
</mgrwt>
</event>
<event>
12    5  0.5246737E-008  0.2259300E+04  0.7818608E-02  0.8494144E-01
          1   -1    0    0  501    0  0.00000000000E+00  0.00000000000E+00  0.95993273863E+03  0.95993273863E+03  0.00000000000E+00 0. -1.
         -2   -1    0    0    0  501 -0.00000000000E+00 -0.00000000000E+00 -0.13293733543E+04  0.13293733543E+04  0.00000000000E+00 0.  1.
        -24    2    1    2    0    0 -0.60042162487E+03  0.63366293864E+02 -0.90221857215E+03  0.10885862642E+04  0.80624362292E+02 0.  0.
        254    2    1    2    0    0  0.60042162487E+03 -0.63366293864E+02  0.53277795651E+03  0.12007198287E+04  0.89070440740E+03 0.  0.
         23    2    4    4    0    0 -0.12703438583E+03  0.11216824504E+03  0.38783943927E+03  0.43298294694E+03  0.91298145141E+02 0.  0.
         23    2    4    4    0    0  0.72745601070E+03 -0.17553453890E+03  0.14493851724E+03  0.76773688180E+03  0.91695823471E+02 0.  0.
          3    1    3    3  502    0 -0.13854490487E+03 -0.87466517985E+01 -0.16477364785E+03  0.21545660725E+03  0.00000000000E+00 0. -1.
         -4    1    3    3    0  502 -0.46187672000E+03  0.72112945662E+02 -0.73744492430E+03  0.87312965692E+03  0.00000000000E+00 0.  1.
         13    1    5    5    0    0 -0.14147348579E+03  0.10249098374E+03  0.36026133234E+03  0.40038403629E+03  0.00000000000E+00 0.  1.
        -13    1    5    5    0    0  0.14439099963E+02  0.96772612981E+01  0.27578106926E+02  0.32598910650E+02  0.00000000000E+00 0. -1.
          3    1    6    6  503    0  0.16418010795E+03 -0.69768863489E+02  0.84526820040E+01  0.17858961334E+03  0.00000000000E+00 0. -1.
         -3    1    6    6    0  503  0.56327590274E+03 -0.10576567542E+03  0.13648583524E+03  0.58914726846E+03  0.00000000000E+00 0.  1.
<mgrwt>
<rscale>  0 0.22592999E+04</rscale>
<asrwt>0</asrwt>
<pdfrwt beam="1">  1        1 0.14768196E+00 0.22592999E+04</pdfrwt>
<pdfrwt beam="2">  1       -2 0.20451898E+00 0.22592999E+04</pdfrwt>
<totfact> 0.16078523E+00</totfact>
</mgrwt>
</event>
<event>
12    5  0.5246737E-008  0.1348485E+04  0.7818608E-02  0.8991976E-01
         -2   -1    0    0    0  501 -0.00000000000E+00  0.00000000000E+00  0.44584353988E+03  0.44584353988E+03  0.00000000000E+00 0.  1.
          1   -1    0    0  501    0  0.00000000000E+00 -0.00000000000E+00 -0.10196467914E+04  0.10196467914E+04  0.00000000000E+00 0. -1.
        -24    2    1    2    0    0 -0.17275095120E+02 -0.35109090073E+03 -0.43202913561E+02  0.36284057146E+03  0.78889410404E+02 0.  0.
        254    2    1    2    0    0  0.17275095120E+02  0.35109090073E+03 -0.53060033793E+03  0.11026497598E+04  0.90040908739E+03 0.  0.
         23    2    4    4    0    0  0.15331390903E+03  0.55702445361E+03 -0.92903915453E+02  0.59242523345E+03  0.92493908475E+02 0.  0.
         23    2    4    4    0    0 -0.13603881391E+03 -0.20593355288E+03 -0.43769642248E+03  0.51022452634E+03  0.88519613270E+02 0.  0.
          3    1    3    3  502    0 -0.25157108535E+02 -0.34690807632E+03 -0.50302494657E+02  0.35143766801E+03  0.00000000000E+00 0. -1.
         -4    1    3    3    0  502  0.78820134155E+01 -0.41828244106E+01  0.70995810959E+01  0.11402903458E+02  0.00000000000E+00 0.  1.
         13    1    5    5    0    0  0.56804829216E+02  0.81045066845E+02 -0.69598833052E+01  0.99214572809E+02  0.00000000000E+00 0.  1.
        -13    1    5    5    0    0  0.96509079815E+02  0.47597938676E+03 -0.85944032148E+02  0.49321066064E+03  0.00000000000E+00 0. -1.
          2    1    6    6  503    0 -0.12795390991E+03 -0.21474298338E+03 -0.42218685818E+03  0.49064090248E+03  0.00000000000E+00 0. -1.
         -2    1    6    6    0  503 -0.80849040056E+01  0.88094304987E+01 -0.15509564296E+02  0.19583623851E+02  0.00000000000E+00 0.  1.
<mgrwt>
<rscale>  0 0.13484850E+04</rscale>
<asrwt>0</asrwt>
<pdfrwt beam="1">  1        1 0.15686873E+00 0.13484850E+04</pdfrwt>
<pdfrwt beam="2">  1       -2 0.68591316E-01 0.13484850E+04</pdfrwt>
<totfact> 0.24362053E+01</totfact>
</mgrwt>
</event>
<event>
12    5  0.5246737E-008  0.2136804E+04  0.7818608E-02  0.8545202E-01
          3   -1    0    0  501    0  0.00000000000E+00  0.00000000000E+00  0.10684383762E+04  0.10684383762E+04  0.00000000000E+00 0. -1.
         -4   -1    0    0    0  501 -0.00000000000E+00 -0.00000000000E+00 -0.10683654007E+04  0.10683654007E+04  0.00000000000E+00 0.  1.
        -24    2    1    2    0    0 -0.20994858946E+02 -0.79230407626E+03 -0.36577822350E+03  0.87754054021E+03  0.89984207252E+02 0.  0.
        254    2    1    2    0    0  0.20994858946E+02  0.79230407626E+03  0.36585119904E+03  0.12592632367E+04  0.90758485335E+03 0.  0.
         23    2    4    4    0    0 -0.93598090771E+02  0.90818098238E+03  0.48360684084E+03  0.10372726508E+04  0.92226223060E+02 0.  0.
         23    2    4    4    0    0  0.11459294972E+03 -0.11587690611E+03 -0.11775564180E+03  0.22199058588E+03  0.94097967829E+02 0.  0.
          3    1    3    3  502    0 -0.17226499769E+02 -0.46830361021E+03 -0.26422075028E+03  0.53797549062E+03  0.00000000000E+00 0. -1.
         -4    1    3    3    0  502 -0.37683591776E+01 -0.32400046606E+03 -0.10155747322E+03  0.33956504959E+03  0.00000000000E+00 0.  1.
         13    1    5    5    0    0 -0.94064662825E+01  0.45450336582E+03  0.20926675154E+03  0.50045415818E+03  0.00000000000E+00 0.  1.
        -13    1    5    5    0    0 -0.84191624488E+02  0.45367761656E+03  0.27434008930E+03  0.53681849260E+03  0.00000000000E+00 0. -1.
          4    1    6    6  503    0 -0.51570695706E+01 -0.51888532633E+02 -0.38038106549E+02  0.64543882245E+02  0.00000000000E+00 0. -1.
         -4    1    6    6    0  503  0.11975001929E+03 -0.63988373480E+02 -0.79717535249E+02  0.15744670364E+03  0.00000000000E+00 0.  1.
<mgrwt>
<rscale>  0 0.21368038E+04</rscale>
<asrwt>0</asrwt>
<pdfrwt beam="1">  1        3 0.16437513E+00 0.21368038E+04</pdfrwt>
<pdfrwt beam="2">  1       -4 0.16436391E+00 0.21368038E+04</pdfrwt>
<totfact> 0.12405759E-01</totfact>
</mgrwt>
</event>
<event>
12    5  0.5246737E-008  0.1587320E+04  0.7818608E-02  0.8828376E-01
         -2   -1    0    0    0  501 -0.00000000000E+00  0.00000000000E+00  0.29418350790E+03  0.29418350790E+03  0.00000000000E+00 0.  1.
          1   -1    0    0  501    0  0.00000000000E+00 -0.00000000000E+00 -0.21411684204E+04  0.21411684204E+04  0.00000000000E+00 0. -1.
        -24    2    1    2    0    0  0.66926925657E+02 -0.20692798210E+03 -0.14013296647E+04  0.14203926801E+04  0.80573775483E+02 0.  0.
        254    2    1    2    0    0 -0.66926925657E+02  0.20692798210E+03 -0.44565524781E+03  0.10149592482E+04  0.88557059150E+03 0.  0.
         23    2    4    4    0    0  0.34137710718E+03  0.27484723850E+03 -0.37701877953E+03  0.58571124861E+03  0.93995599960E+02 0.  0.
         23    2    4    4    0    0 -0.40830403284E+03 -0.67919256407E+02 -0.68636468281E+02  0.42924799962E+03  0.90651374929E+02 0.  0.
          3    1    3    3  502    0  0.62852878239E+02 -0.21270865373E+03 -0.13842447497E+04  0.14019019162E+04  0.00000000000E+00 0. -1.
         -4    1    3    3    0  502  0.40740474172E+01  0.57806716348E+01 -0.17084915024E+02  0.18490763864E+02  0.00000000000E+00 0.  1.
         13    1    5    5    0    0  0.42532970695E+02  0.28918940623E+02 -0.90777193501E+02  0.10433531321E+03  0.00000000000E+00 0.  1.
        -13    1    5    5    0    0  0.29884413649E+03  0.24592829788E+03 -0.28624158603E+03  0.48137593540E+03  0.00000000000E+00 0. -1.
          3    1    6    6  503    0 -0.33628848702E+03 -0.61516245292E+02 -0.90628803616E+02  0.35367750138E+03  0.00000000000E+00 0. -1.
         -3    1    6    6    0  503 -0.72015545822E+02 -0.64030111156E+01  0.21992335335E+02  0.75570498244E+02  0.00000000000E+00 0.  1.
<mgrwt>
<rscale>  0 0.15873203E+04</rscale>
<asrwt>0</asrwt>
<pdfrwt beam="1">  1        1 0.32941054E+00 0.15873203E+04</pdfrwt>
<pdfrwt beam="2">  1       -2 0.45259000E-01 0.15873203E+04</pdfrwt>
<totfact> 0.93358914E+00</totfact>
</mgrwt>
</event>
<event>
12    5  0.5246737E-008  0.2154122E+04  0.7818608E-02  0.8537770E-01
         -2   -1    0    0    0  501 -0.00000000000E+00  0.00000000000E+00  0.89717421000E+03  0.89717421000E+03  0.00000000000E+00 0.  1.
          1   -1    0    0  501    0  0.00000000000E+00 -0.00000000000E+00 -0.12930163337E+04  0.12930163337E+04  0.00000000000E+00 0. -1.
        -24    2    1    2    0    0 -0.76949816352E+03 -0.43411831727E+03 -0.14153952042E+03  0.89899419213E+03  0.87011404948E+02 0.  0.
        254    2    1    2    0    0  0.76949816352E+03  0.43411831727E+03 -0.25430260332E+03  0.12911963516E+04  0.90660469187E+03 0.  0.
         23    2    4    4    0    0  0.87014707490E+03  0.54529075289E+03 -0.35299003682E+03  0.10897274266E+04  0.91684028140E+02 0.  0.
         23    2    4    4    0    0 -0.10064891138E+03 -0.11117243561E+03  0.98687433503E+02  0.20146892503E+03  0.91438528087E+02 0.  0.
          1    1    3    3  502    0 -0.99443191820E+02 -0.91609874579E+02 -0.25131497349E+02  0.13752421488E+03  0.00000000000E+00 0. -1.
         -4    1    3    3    0  502 -0.67005497170E+03 -0.34250844270E+03 -0.11640802307E+03  0.76146997725E+03  0.00000000000E+00 0.  1.
         13    1    5    5    0    0  0.28765676592E+03  0.22277073443E+03 -0.15124356602E+03  0.39401501413E+03  0.00000000000E+00 0. -1.
        -13    1    5    5    0    0  0.58249030898E+03  0.32252001845E+03 -0.20174647080E+03  0.69571241245E+03  0.00000000000E+00 0.  1.
          3    1    6    6  503    0 -0.17144632040E+02 -0.85633224812E+02  0.60016310989E+02  0.10596671734E+03  0.00000000000E+00 0. -1.
         -3    1    6    6    0  503 -0.83504279342E+02 -0.25539210801E+02  0.38671122514E+02  0.95502207688E+02  0.00000000000E+00 0.  1.
<mgrwt>
<rscale>  0 0.21541225E+04</rscale>
<asrwt>0</asrwt>
<pdfrwt beam="1">  1        1 0.19892559E+00 0.21541225E+04</pdfrwt>
<pdfrwt beam="2">  1       -2 0.13802680E+00 0.21541225E+04</pdfrwt>
<totfact> 0.27388814E+00</totfact>
</mgrwt>
</event>
<event>
12    5  0.5246737E-008  0.2520838E+04  0.7818608E-02  0.8395599E-01
          1   -1    0    0  501    0  0.00000000000E+00  0.00000000000E+00  0.16465066630E+04  0.16465066630E+04  0.00000000000E+00 0. -1.
         -2   -1    0    0    0  501 -0.00000000000E+00 -0.00000000000E+00 -0.96486475296E+03  0.96486475296E+03  0.00000000000E+00 0.  1.
        -24    2    1    2    0    0  0.48428650476E+03 -0.97638014513E+01  0.13166494280E+04  0.14051108769E+04  0.78371612588E+02 0.  0.
        254    2    1    2    0    0 -0.48428650476E+03  0.97638014513E+01 -0.63500751797E+03  0.12062605390E+04  0.90399180839E+03 0.  0.
         23    2    4    4    0    0 -0.22259040410E+03  0.40110178793E+03 -0.54464796578E+03  0.71805742510E+03  0.92390079759E+02 0.  0.
         23    2    4    4    0    0 -0.26169610066E+03 -0.39133798648E+03 -0.90359552183E+02  0.48820311393E+03  0.92450868127E+02 0.  0.
          1    1    3    3  502    0  0.38897139443E+03  0.22820528711E+02  0.10659700873E+04  0.11349501087E+04  0.00000000000E+00 0. -1.
         -2    1    3    3    0  502  0.95315110336E+02 -0.32584330162E+02  0.25067934066E+03  0.27016076819E+03  0.00000000000E+00 0.  1.
         13    1    5    5    0    0  0.22971764353E+01  0.22913856246E+02 -0.55741813268E+02  0.60311454750E+02  0.00000000000E+00 0. -1.
        -13    1    5    5    0    0 -0.22488758053E+03  0.37818793168E+03 -0.48890615252E+03  0.65774597035E+03  0.00000000000E+00 0.  1.
          3    1    6    6  503    0 -0.23418753637E+02 -0.53209342763E+02  0.17517456556E+02  0.60716830149E+02  0.00000000000E+00 0. -1.
         -3    1    6    6    0  503 -0.23827734703E+03 -0.33812864371E+03 -0.10787700874E+03  0.42748628378E+03  0.00000000000E+00 0.  1.
<mgrwt>
<rscale>  0 0.25208381E+04</rscale>
<asrwt>0</asrwt>
<pdfrwt beam="1">  1        1 0.25330872E+00 0.25208381E+04</pdfrwt>
<pdfrwt beam="2">  1       -2 0.14844073E+00 0.25208381E+04</pdfrwt>
<totfact> 0.12440382E+00</totfact>
</mgrwt>
</event>
<event>
12    5  0.5246737E-008  0.1413476E+04  0.7818608E-02  0.8944121E-01
         -4   -1    0    0    0  501 -0.00000000000E+00  0.00000000000E+00  0.76675666970E+03  0.76675666970E+03  0.00000000000E+00 0.  1.
          1   -1    0    0  501    0  0.00000000000E+00 -0.00000000000E+00 -0.65141758378E+03  0.65141758378E+03  0.00000000000E+00 0. -1.
        -24    2    1    2    0    0 -0.22394639699E+03  0.14859417620E+03 -0.27986059554E+03  0.39617335740E+03  0.79994738912E+02 0.  0.
        254    2    1    2    0    0  0.22394639699E+03 -0.14859417620E+03  0.39519968146E+03  0.10220008961E+04  0.90336638494E+03 0.  0.
         23    2    4    4    0    0  0.27307845679E+03  0.18583681002E+03 -0.14906181526E+03  0.37482128535E+03  0.95730912788E+02 0.  0.
         23    2    4    4    0    0 -0.49132059797E+02 -0.33443098621E+03  0.54426149671E+03  0.64717961073E+03  0.91448498636E+02 0.  0.
          1    1    3    3  502    0 -0.21150308180E+03  0.12201395723E+03 -0.21644807301E+03  0.32629852540E+03  0.00000000000E+00 0. -1.
         -2    1    3    3    0  502 -0.12443315188E+02  0.26580218968E+02 -0.63412522524E+02  0.69874831994E+02  0.00000000000E+00 0.  1.
         13    1    5    5    0    0  0.24306314468E+03  0.17701102999E+03 -0.16130957758E+03  0.34122335333E+03  0.00000000000E+00 0.  1.
        -13    1    5    5    0    0  0.30015312105E+02  0.88257800251E+01  0.12247762320E+02  0.33597932015E+02  0.00000000000E+00 0. -1.
          3    1    6    6  503    0 -0.32500406767E+02 -0.17657034494E+03  0.20424769669E+03  0.27193838412E+03  0.00000000000E+00 0. -1.
         -3    1    6    6    0  503 -0.16631653030E+02 -0.15786064127E+03  0.34001380002E+03  0.37524122661E+03  0.00000000000E+00 0.  1.
<mgrwt>
<rscale>  0 0.14134762E+04</rscale>
<asrwt>0</asrwt>
<pdfrwt beam="1">  1        1 0.10021809E+00 0.14134762E+04</pdfrwt>
<pdfrwt beam="2">  1       -4 0.11796256E+00 0.14134762E+04</pdfrwt>
<totfact> 0.78749205E+00</totfact>
</mgrwt>
</event>
<event>
12    5  0.5246737E-008  0.1400669E+04  0.7818608E-02  0.8953335E-01
         -2   -1    0    0    0  501 -0.00000000000E+00  0.00000000000E+00  0.25905323918E+03  0.25905323918E+03  0.00000000000E+00 0.  1.
          1   -1    0    0  501    0  0.00000000000E+00 -0.00000000000E+00 -0.18933109586E+04  0.18933109586E+04  0.00000000000E+00 0. -1.
        -24    2    1    2    0    0  0.23210056830E+03 -0.27134519959E+02 -0.10735390239E+04  0.11016296594E+04  0.80591033099E+02 0.  0.
        254    2    1    2    0    0 -0.23210056830E+03  0.27134519959E+02 -0.56071869549E+03  0.10507345384E+04  0.85733929028E+03 0.  0.
         23    2    4    4    0    0 -0.13192323062E+02  0.38026924037E+02  0.21573804188E+03  0.23851217462E+03  0.93408085237E+02 0.  0.
         23    2    4    4    0    0 -0.21890824524E+03 -0.10892404078E+02 -0.77645673737E+03  0.81222236374E+03  0.93705063083E+02 0.  0.
          3    1    3    3  502    0  0.16787073919E+03  0.16808286020E+02 -0.69635275217E+03  0.71649861061E+03  0.00000000000E+00 0. -1.
         -4    1    3    3    0  502  0.64229829114E+02 -0.43942805979E+02 -0.37718627177E+03  0.38513104881E+03  0.00000000000E+00 0.  1.
         13    1    5    5    0    0 -0.47386649602E+02  0.31642865724E+02  0.17929969135E+03  0.18813597432E+03  0.00000000000E+00 0.  1.
        -13    1    5    5    0    0  0.34194326540E+02  0.63840583130E+01  0.36438350529E+02  0.50376200307E+02  0.00000000000E+00 0. -1.
          2    1    6    6  503    0 -0.16555448073E+03 -0.33767948960E+02 -0.45063537909E+03  0.48126999216E+03  0.00000000000E+00 0. -1.
         -2    1    6    6    0  503 -0.53353764512E+02  0.22875544882E+02 -0.32582135828E+03  0.33095237158E+03  0.00000000000E+00 0.  1.
<mgrwt>
<rscale>  0 0.14006689E+04</rscale>
<asrwt>0</asrwt>
<pdfrwt beam="1">  1        1 0.29127860E+00 0.14006689E+04</pdfrwt>
<pdfrwt beam="2">  1       -2 0.39854345E-01 0.14006689E+04</pdfrwt>
<totfact> 0.17959736E+01</totfact>
</mgrwt>
</event>
<event>
12    5  0.5246737E-008  0.1502367E+04  0.7818608E-02  0.8882880E-01
          1   -1    0    0  501    0  0.00000000000E+00  0.00000000000E+00  0.15167526203E+04  0.15167526203E+04  0.00000000000E+00 0. -1.
         -2   -1    0    0    0  501 -0.00000000000E+00 -0.00000000000E+00 -0.37202955989E+03  0.37202955989E+03  0.00000000000E+00 0.  1.
        -24    2    1    2    0    0  0.34430043921E+03  0.32761725102E+03  0.24514622800E+03  0.54105180024E+03  0.82246713229E+02 0.  0.
        254    2    1    2    0    0 -0.34430043921E+03 -0.32761725102E+03  0.89957683241E+03  0.13477303799E+04  0.88389074212E+03 0.  0.
         23    2    4    4    0    0  0.17299622005E+03  0.18203130160E+03  0.18458164424E+03  0.32428557608E+03  0.89597235166E+02 0.  0.
         23    2    4    4    0    0 -0.51729665927E+03 -0.50964855261E+03  0.71499518818E+03  0.10234448039E+04  0.94253204611E+02 0.  0.
          3    1    3    3  502    0  0.15720884225E+03  0.12458013300E+03  0.62836650547E+02  0.21019817856E+03  0.00000000000E+00 0. -1.
         -4    1    3    3    0  502  0.18709159697E+03  0.20303711802E+03  0.18230957745E+03  0.33085362168E+03  0.00000000000E+00 0.  1.
         13    1    5    5    0    0  0.13974111781E+03  0.18552719149E+03  0.16985732687E+03  0.28774890144E+03  0.00000000000E+00 0. -1.
        -13    1    5    5    0    0  0.33255102248E+02 -0.34958898953E+01  0.14724317365E+02  0.36536674637E+02  0.00000000000E+00 0.  1.
          2    1    6    6  503    0 -0.27421549926E+03 -0.21187629725E+03  0.37001985640E+03  0.50695206825E+03  0.00000000000E+00 0.  1.
         -2    1    6    6    0  503 -0.24308116001E+03 -0.29777225536E+03  0.34497533178E+03  0.51649273562E+03  0.00000000000E+00 0. -1.
<mgrwt>
<rscale>  0 0.15023672E+04</rscale>
<asrwt>0</asrwt>
<pdfrwt beam="1">  1        1 0.23334655E+00 0.15023672E+04</pdfrwt>
<pdfrwt beam="2">  1       -2 0.57235318E-01 0.15023672E+04</pdfrwt>
<totfact> 0.15462001E+01</totfact>
</mgrwt>
</event>
<event>
12    5  0.5246737E-008  0.1475630E+04  0.7818608E-02  0.8900822E-01
         -2   -1    0    0    0  501 -0.00000000000E+00  0.00000000000E+00  0.44718760675E+03  0.44718760675E+03  0.00000000000E+00 0.  1.
          1   -1    0    0  501    0  0.00000000000E+00 -0.00000000000E+00 -0.12173213872E+04  0.12173213872E+04  0.00000000000E+00 0. -1.
        -24    2    1    2    0    0 -0.43789811465E+03  0.11925068806E+03 -0.29383175961E+03  0.54670226256E+03  0.81060320259E+02 0.  0.
        254    2    1    2    0    0  0.43789811465E+03 -0.11925068806E+03 -0.47630202085E+03  0.11178067314E+04  0.90368843538E+03 0.  0.
         23    2    4    4    0    0 -0.96015222903E+02 -0.51062193581E+02  0.20148437239E+03  0.24700145626E+03  0.92668745720E+02 0.  0.
         23    2    4    4    0    0  0.53391333755E+03 -0.68188494481E+02 -0.67778639324E+03  0.87080527512E+03  0.95886962224E+02 0.  0.
          1    1    3    3  502    0 -0.26182462570E+03  0.85588229888E+02 -0.22121728638E+03  0.35329105213E+03  0.00000000000E+00 0. -1.
         -2    1    3    3    0  502 -0.17607348895E+03  0.33662458173E+02 -0.72614473228E+02  0.19341121044E+03  0.00000000000E+00 0.  1.
         13    1    5    5    0    0  0.14940139418E+02 -0.14329285818E+02  0.10802931732E+02  0.23350364706E+02  0.00000000000E+00 0.  1.
        -13    1    5    5    0    0 -0.11095536232E+03 -0.36732907762E+02  0.19068144066E+03  0.22365109155E+03  0.00000000000E+00 0. -1.
          2    1    6    6  503    0  0.49007086698E+03 -0.53415476421E+02 -0.57059873105E+03  0.75405940062E+03  0.00000000000E+00 0. -1.
         -2    1    6    6    0  503  0.43842470576E+02 -0.14773018060E+02 -0.10718766219E+03  0.11674587451E+03  0.00000000000E+00 0.  1.
<mgrwt>
<rscale>  0 0.14756301E+04</rscale>
<asrwt>0</asrwt>
<pdfrwt beam="1">  1        1 0.18728021E+00 0.14756301E+04</pdfrwt>
<pdfrwt beam="2">  1       -2 0.68798093E-01 0.14756301E+04</pdfrwt>
<totfact> 0.17033300E+01</totfact>
</mgrwt>
</event>
<event>
12    5  0.5246737E-008  0.2031096E+04  0.7818608E-02  0.8592219E-01
         -2   -1    0    0    0  501 -0.00000000000E+00  0.00000000000E+00  0.75958431773E+03  0.75958431773E+03  0.00000000000E+00 0.  1.
          1   -1    0    0  501    0  0.00000000000E+00 -0.00000000000E+00 -0.13577660819E+04  0.13577660819E+04  0.00000000000E+00 0. -1.
        -24    2    1    2    0    0 -0.75064785004E+03 -0.23792675186E+03 -0.41943924950E+03  0.89580772216E+03  0.80379456534E+02 0.  0.
        254    2    1    2    0    0  0.75064785004E+03  0.23792675186E+03 -0.17874251471E+03  0.12215426775E+04  0.91658948958E+03 0.  0.
         23    2    4    4    0    0  0.29362848571E+03  0.36675576338E+03  0.28084410849E+03  0.55474294020E+03  0.90215513304E+02 0.  0.
         23    2    4    4    0    0  0.45701936433E+03 -0.12882901151E+03 -0.45958662319E+03  0.66679973732E+03  0.89097765910E+02 0.  0.
          3    1    3    3  502    0 -0.89511529396E+02 -0.30711637556E+02 -0.22359528486E+02  0.97239226088E+02  0.00000000000E+00 0. -1.
         -4    1    3    3    0  502 -0.66113632064E+03 -0.20721511431E+03 -0.39707972102E+03  0.79856849607E+03  0.00000000000E+00 0.  1.
         13    1    5    5    0    0  0.83583750320E+01  0.30053277433E+02 -0.83691942861E+00  0.31205165466E+02  0.00000000000E+00 0. -1.
        -13    1    5    5    0    0  0.28527011068E+03  0.33670248594E+03  0.28168102791E+03  0.52353777474E+03  0.00000000000E+00 0.  1.
          4    1    6    6  503    0  0.43982505319E+01 -0.28729566289E+01  0.41247800630E+01  0.66792438270E+01  0.00000000000E+00 0. -1.
         -4    1    6    6    0  503  0.45262111380E+03 -0.12595605488E+03 -0.46371140326E+03  0.66012049349E+03  0.00000000000E+00 0.  1.
<mgrwt>
<rscale>  0 0.20310961E+04</rscale>
<asrwt>0</asrwt>
<pdfrwt beam="1">  1        1 0.20888709E+00 0.20310961E+04</pdfrwt>
<pdfrwt beam="2">  1       -2 0.11685913E+00 0.20310961E+04</pdfrwt>
<totfact> 0.37875842E+00</totfact>
</mgrwt>
</event>
<event>
12    5  0.5246737E-008  0.1198703E+04  0.7818608E-02  0.9113992E-01
         -2   -1    0    0    0  501 -0.00000000000E+00  0.00000000000E+00  0.27571851890E+03  0.27571851890E+03  0.00000000000E+00 0.  1.
          1   -1    0    0  501    0  0.00000000000E+00 -0.00000000000E+00 -0.13028594272E+04  0.13028594272E+04  0.00000000000E+00 0. -1.
        -24    2    1    2    0    0 -0.12432992959E+03 -0.17199276946E+03 -0.41215350177E+03  0.47039536674E+03  0.79761192901E+02 0.  0.
        254    2    1    2    0    0  0.12432992959E+03  0.17199276946E+03 -0.61498740657E+03  0.11081825794E+04  0.89711742538E+03 0.  0.
         23    2    4    4    0    0  0.17268132402E+03  0.39871995189E+03  0.44584213444E+00  0.44417845068E+03  0.92183824878E+02 0.  0.
         23    2    4    4    0    0 -0.48351394436E+02 -0.22672718243E+03 -0.61543324870E+03  0.66400412873E+03  0.91653296499E+02 0.  0.
          3    1    3    3  502    0 -0.13512461767E+03 -0.15386181151E+03 -0.36051783192E+03  0.41461455169E+03  0.00000000000E+00 0. -1.
         -4    1    3    3    0  502  0.10794688080E+02 -0.18130957949E+02 -0.51635669855E+02  0.55780815056E+02  0.00000000000E+00 0.  1.
         13    1    5    5    0    0  0.13066486308E+03  0.35973129390E+03  0.20955854709E+02  0.38330021928E+03  0.00000000000E+00 0. -1.
        -13    1    5    5    0    0  0.42016460947E+02  0.38988657995E+02 -0.20510012575E+02  0.60878231401E+02  0.00000000000E+00 0.  1.
          1    1    6    6  503    0  0.22428933187E+02 -0.82003527304E+02 -0.26520774955E+03  0.27850096222E+03  0.00000000000E+00 0. -1.
         -1    1    6    6    0  503 -0.70780327622E+02 -0.14472365513E+03 -0.35022549915E+03  0.38550316651E+03  0.00000000000E+00 0.  1.
<mgrwt>
<rscale>  0 0.11987034E+04</rscale>
<asrwt>0</asrwt>
<pdfrwt beam="1">  1        1 0.20043991E+00 0.11987034E+04</pdfrwt>
<pdfrwt beam="2">  1       -2 0.42418234E-01 0.11987034E+04</pdfrwt>
<totfact> 0.41171358E+01</totfact>
</mgrwt>
</event>
<event>
12    5  0.5246737E-008  0.1607448E+04  0.7818608E-02  0.8815986E-01
         -4   -1    0    0    0  501 -0.00000000000E+00  0.00000000000E+00  0.39982689788E+03  0.39982689788E+03  0.00000000000E+00 0.  1.
          3   -1    0    0  501    0  0.00000000000E+00 -0.00000000000E+00 -0.16156292672E+04  0.16156292672E+04  0.00000000000E+00 0. -1.
        -24    2    1    2    0    0  0.23491242933E+03 -0.25173457023E+03 -0.94994176262E+03  0.10133416721E+04  0.76927554518E+02 0.  0.
        254    2    1    2    0    0 -0.23491242933E+03  0.25173457023E+03 -0.26586060667E+03  0.10021144930E+04  0.90277209284E+03 0.  0.
         23    2    4    4    0    0  0.10071923305E+03  0.51276770465E+03 -0.13197287489E+03  0.54690565570E+03  0.92810956715E+02 0.  0.
         23    2    4    4    0    0 -0.33563166239E+03 -0.26103313442E+03 -0.13388773177E+03  0.45520883731E+03  0.92207650327E+02 0.  0.
          3    1    3    3  502    0  0.10212195693E+03 -0.13693308694E+03 -0.37230601506E+03  0.40962340416E+03  0.00000000000E+00 0. -1.
         -2    1    3    3    0  502  0.13279047241E+03 -0.11480148328E+03 -0.57763574756E+03  0.60371826789E+03  0.00000000000E+00 0.  1.
         13    1    5    5    0    0  0.58993670629E+01 -0.94027256715E+00  0.39059218989E+01  0.71374274164E+01  0.00000000000E+00 0. -1.
        -13    1    5    5    0    0  0.94819865989E+02  0.51370797722E+03 -0.13587879679E+03  0.53976822828E+03  0.00000000000E+00 0.  1.
          4    1    6    6  503    0 -0.10727456493E+02 -0.54940162988E+00 -0.21254954223E+02  0.23814979404E+02  0.00000000000E+00 0. -1.
         -4    1    6    6    0  503 -0.32490420589E+03 -0.26048373279E+03 -0.11263277755E+03  0.43139385790E+03  0.00000000000E+00 0.  1.
<mgrwt>
<rscale>  0 0.16074477E+04</rscale>
<asrwt>0</asrwt>
<pdfrwt beam="1">  1        3 0.24855835E+00 0.16074477E+04</pdfrwt>
<pdfrwt beam="2">  1       -4 0.61511831E-01 0.16074477E+04</pdfrwt>
<totfact> 0.41174213E-01</totfact>
</mgrwt>
</event>
<event>
12    5  0.5246737E-008  0.1890624E+04  0.7818608E-02  0.8659537E-01
          1   -1    0    0  501    0  0.00000000000E+00  0.00000000000E+00  0.32971122203E+04  0.32971122203E+04  0.00000000000E+00 0. -1.
         -2   -1    0    0    0  501 -0.00000000000E+00 -0.00000000000E+00 -0.27102956592E+03  0.27102956592E+03  0.00000000000E+00 0.  1.
        -24    2    1    2    0    0 -0.59490968664E+03  0.30820310369E+03  0.64605760271E+03  0.93399833873E+03  0.77818907463E+02 0.  0.
        254    2    1    2    0    0  0.59490968664E+03 -0.30820310369E+03  0.23800250517E+04  0.26341434475E+04  0.90845240215E+03 0.  0.
         23    2    4    4    0    0  0.39755400382E+03 -0.60613518983E+03  0.18428938798E+04  0.19824944946E+04  0.92614871060E+02 0.  0.
         23    2    4    4    0    0  0.19735568282E+03  0.29793208614E+03  0.53713117184E+03  0.65164895292E+03  0.91780545839E+02 0.  0.
          1    1    3    3  502    0 -0.15527979617E+03  0.47034481477E+02  0.17678456993E+03  0.23995174872E+03  0.00000000000E+00 0. -1.
         -2    1    3    3    0  502 -0.43962989046E+03  0.26116862222E+03  0.46927303278E+03  0.69404659002E+03  0.00000000000E+00 0.  1.
         13    1    5    5    0    0  0.48034383884E+02 -0.50985957184E+02  0.12022464216E+03  0.13914321560E+03  0.00000000000E+00 0. -1.
        -13    1    5    5    0    0  0.34951961994E+03 -0.55514923265E+03  0.17226692377E+04  0.18433512790E+04  0.00000000000E+00 0.  1.
          3    1    6    6  503    0  0.32800281794E+01  0.64140290515E+02  0.77331650021E+02  0.10052322889E+03  0.00000000000E+00 0. -1.
         -3    1    6    6    0  503  0.19407565464E+03  0.23379179562E+03  0.45979952181E+03  0.55112572403E+03  0.00000000000E+00 0.  1.
<mgrwt>
<rscale>  0 0.18906241E+04</rscale>
<asrwt>0</asrwt>
<pdfrwt beam="1">  1        1 0.50724800E+00 0.18906241E+04</pdfrwt>
<pdfrwt beam="2">  1       -2 0.41696859E-01 0.18906241E+04</pdfrwt>
<totfact> 0.16157680E+00</totfact>
</mgrwt>
</event>
<event>
12    5  0.5246737E-008  0.2091743E+04  0.7818608E-02  0.8564890E-01
         -2   -1    0    0    0  501 -0.00000000000E+00  0.00000000000E+00  0.90083991107E+03  0.90083991107E+03  0.00000000000E+00 0.  1.
          1   -1    0    0  501    0  0.00000000000E+00 -0.00000000000E+00 -0.12142522135E+04  0.12142522135E+04  0.00000000000E+00 0. -1.
        -24    2    1    2    0    0 -0.11918311378E+03 -0.38496159794E+03  0.62515667422E+03  0.74811832689E+03  0.80374854260E+02 0.  0.
        254    2    1    2    0    0  0.11918311378E+03  0.38496159794E+03 -0.93856897669E+03  0.13669737977E+04  0.90846331415E+03 0.  0.
         23    2    4    4    0    0  0.16634415302E+03  0.35861004419E+02 -0.98207735835E+03  0.10005314943E+04  0.87355277098E+02 0.  0.
         23    2    4    4    0    0 -0.47161039247E+02  0.34910059353E+03  0.43508381669E+02  0.36644230341E+03  0.91058192543E+02 0.  0.
          3    1    3    3  502    0  0.11362371136E+02 -0.50954736941E+02  0.73863157123E+02  0.90450288417E+02  0.00000000000E+00 0. -1.
         -4    1    3    3    0  502 -0.13054548491E+03 -0.33400686100E+03  0.55129351710E+03  0.65766803847E+03  0.00000000000E+00 0.  1.
         13    1    5    5    0    0  0.15616934891E+03  0.57908212696E+02 -0.87802665443E+03  0.89368508577E+03  0.00000000000E+00 0. -1.
        -13    1    5    5    0    0  0.10174804112E+02 -0.22047208277E+02 -0.10405070392E+03  0.10684640854E+03  0.00000000000E+00 0.  1.
          4    1    6    6  503    0 -0.50916513719E+02  0.14618507342E+03  0.52042867202E+02  0.16331266664E+03  0.00000000000E+00 0. -1.
         -4    1    6    6    0  503  0.37554744721E+01  0.20291552011E+03 -0.85344855335E+01  0.20312963677E+03  0.00000000000E+00 0.  1.
<mgrwt>
<rscale>  0 0.20917427E+04</rscale>
<asrwt>0</asrwt>
<pdfrwt beam="1">  1        1 0.18680803E+00 0.20917427E+04</pdfrwt>
<pdfrwt beam="2">  1       -2 0.13859076E+00 0.20917427E+04</pdfrwt>
<totfact> 0.31057410E+00</totfact>
</mgrwt>
</event>
<event>
12    5  0.5246737E-008  0.1609598E+04  0.7818608E-02  0.8814673E-01
          1   -1    0    0  501    0  0.00000000000E+00  0.00000000000E+00  0.71504704607E+03  0.71504704607E+03  0.00000000000E+00 0. -1.
         -2   -1    0    0    0  501 -0.00000000000E+00 -0.00000000000E+00 -0.90581631390E+03  0.90581631390E+03  0.00000000000E+00 0.  1.
        -24    2    1    2    0    0  0.26986774502E+03  0.46810672113E+03  0.46788059421E+02  0.54838192833E+03  0.81124069448E+02 0.  0.
        254    2    1    2    0    0 -0.26986774502E+03 -0.46810672113E+03 -0.23755732726E+03  0.10724814316E+04  0.89544985081E+03 0.  0.
         23    2    4    4    0    0  0.27117114466E+03 -0.25985157045E+03  0.94816570095E+02  0.39803436634E+03  0.91567169096E+02 0.  0.
         23    2    4    4    0    0 -0.54103888969E+03 -0.20825515068E+03 -0.33237389735E+03  0.67444706530E+03  0.91176467993E+02 0.  0.
          3    1    3    3  502    0  0.22085520120E+03  0.42352227719E+03  0.58089592167E+02  0.48116789158E+03  0.00000000000E+00 0. -1.
         -4    1    3    3    0  502  0.49012543822E+02  0.44584443943E+02 -0.11301532746E+02  0.67214036748E+02  0.00000000000E+00 0.  1.
         13    1    5    5    0    0  0.21758266641E+03 -0.25110582392E+03  0.82877139296E+02  0.34243973447E+03  0.00000000000E+00 0. -1.
        -13    1    5    5    0    0  0.53588478258E+02 -0.87457465303E+01  0.11939430800E+02  0.55594631865E+02  0.00000000000E+00 0.  1.
          3    1    6    6  503    0 -0.23113498740E+03 -0.50432149790E+02 -0.16543437377E+03  0.28867856893E+03  0.00000000000E+00 0. -1.
         -3    1    6    6    0  503 -0.30990390229E+03 -0.15782300089E+03 -0.16693952358E+03  0.38576849638E+03  0.00000000000E+00 0.  1.
<mgrwt>
<rscale>  0 0.16095978E+04</rscale>
<asrwt>0</asrwt>
<pdfrwt beam="1">  1        1 0.11000724E+00 0.16095978E+04</pdfrwt>
<pdfrwt beam="2">  1       -2 0.13935636E+00 0.16095978E+04</pdfrwt>
<totfact> 0.80446934E+00</totfact>
</mgrwt>
</event>
<event>
12    5  0.5246737E-008  0.1793297E+04  0.7818608E-02  0.8709872E-01
         -4   -1    0    0    0  501 -0.00000000000E+00  0.00000000000E+00  0.52919189817E+03  0.52919189817E+03  0.00000000000E+00 0.  1.
          3   -1    0    0  501    0  0.00000000000E+00 -0.00000000000E+00 -0.15192573049E+04  0.15192573049E+04  0.00000000000E+00 0. -1.
        -24    2    1    2    0    0  0.10653166867E+03  0.18215225061E+03  0.34882374935E+03  0.41569315747E+03  0.81205629292E+02 0.  0.
        254    2    1    2    0    0 -0.10653166867E+03 -0.18215225061E+03 -0.13388891560E+04  0.16327560456E+04  0.91035141200E+03 0.  0.
         23    2    4    4    0    0  0.20731382162E+03  0.16702534530E+03 -0.90011001192E+02  0.29545095640E+03  0.91174561675E+02 0.  0.
         23    2    4    4    0    0 -0.31384549029E+03 -0.34917759592E+03 -0.12488781548E+04  0.13373050892E+04  0.90908033577E+02 0.  0.
          3    1    3    3  502    0  0.70683848177E+02  0.15265226408E+03  0.20857262832E+03  0.26795794708E+03  0.00000000000E+00 0. -1.
         -4    1    3    3    0  502  0.35847820490E+02  0.29499986538E+02  0.14025112103E+03  0.14773521039E+03  0.00000000000E+00 0.  1.
         13    1    5    5    0    0  0.20371882985E+03  0.17683480324E+03 -0.81018286890E+02  0.28166624236E+03  0.00000000000E+00 0.  1.
        -13    1    5    5    0    0  0.35949917679E+01 -0.98094579375E+01 -0.89927143021E+01  0.13784714047E+02  0.00000000000E+00 0. -1.
          4    1    6    6  503    0 -0.19470689786E+02 -0.26238064056E+02 -0.17325841670E+03  0.17631228750E+03  0.00000000000E+00 0. -1.
         -4    1    6    6    0  503 -0.29437480050E+03 -0.32293953186E+03 -0.10756197381E+04  0.11609928017E+04  0.00000000000E+00 0.  1.
<mgrwt>
<rscale>  0 0.17932971E+04</rscale>
<asrwt>0</asrwt>
<pdfrwt beam="1">  1        3 0.23373190E+00 0.17932971E+04</pdfrwt>
<pdfrwt beam="2">  1       -4 0.81414137E-01 0.17932971E+04</pdfrwt>
<totfact> 0.26531461E-01</totfact>
</mgrwt>
</event>
<event>
12    5  0.5246737E-008  0.1285651E+04  0.7818608E-02  0.9041022E-01
          1   -1    0    0  501    0  0.00000000000E+00  0.00000000000E+00  0.30152400925E+03  0.30152400925E+03  0.00000000000E+00 0. -1.
         -2   -1    0    0    0  501 -0.00000000000E+00 -0.00000000000E+00 -0.13704541336E+04  0.13704541336E+04  0.00000000000E+00 0.  1.
        -24    2    1    2    0    0  0.20921016374E+03  0.21659552136E+03 -0.10638892745E+03  0.32911896963E+03  0.79486978821E+02 0.  0.
        254    2    1    2    0    0 -0.20921016374E+03 -0.21659552136E+03 -0.96254119687E+03  0.13428591732E+04  0.88662432341E+03 0.  0.
         23    2    4    4    0    0 -0.28066508130E+03 -0.42847792471E+03 -0.22463730069E+03  0.56706853439E+03  0.93480404422E+02 0.  0.
         23    2    4    4    0    0  0.71454917555E+02  0.21188240335E+03 -0.73790389618E+03  0.77579063880E+03  0.85726292128E+02 0.  0.
          1    1    3    3  502    0  0.20829420273E+03  0.22032334319E+03 -0.11121585739E+03  0.32295172609E+03  0.00000000000E+00 0. -1.
         -2    1    3    3    0  502  0.91596100928E+00 -0.37278218376E+01  0.48269299433E+01  0.61672435415E+01  0.00000000000E+00 0.  1.
         13    1    5    5    0    0 -0.20226187381E+03 -0.28943511986E+03 -0.19923793755E+03  0.40543595051E+03  0.00000000000E+00 0. -1.
        -13    1    5    5    0    0 -0.78403207484E+02 -0.13904280485E+03 -0.25399363145E+02  0.16163258388E+03  0.00000000000E+00 0.  1.
          4    1    6    6  503    0  0.51650976615E+02  0.78980363102E+02 -0.19685755281E+03  0.21830853680E+03  0.00000000000E+00 0. -1.
         -4    1    6    6    0  503  0.19803940940E+02  0.13290204025E+03 -0.54104634337E+03  0.55748210200E+03  0.00000000000E+00 0.  1.
<mgrwt>
<rscale>  0 0.12856513E+04</rscale>
<asrwt>0</asrwt>
<pdfrwt beam="1">  1        1 0.46388310E-01 0.12856513E+04</pdfrwt>
<pdfrwt beam="2">  1       -2 0.21083910E+00 0.12856513E+04</pdfrwt>
<totfact> 0.84532851E+00</totfact>
</mgrwt>
</event>
<event>
12    5  0.5246737E-008  0.1220921E+04  0.7818608E-02  0.9094739E-01
         -2   -1    0    0    0  501 -0.00000000000E+00  0.00000000000E+00  0.30118582791E+03  0.30118582791E+03  0.00000000000E+00 0.  1.
          1   -1    0    0  501    0  0.00000000000E+00 -0.00000000000E+00 -0.12373161130E+04  0.12373161130E+04  0.00000000000E+00 0. -1.
        -24    2    1    2    0    0  0.45549757464E+02  0.76684355465E+02  0.10910857101E+03  0.16072551400E+03  0.77283502801E+02 0.  0.
        254    2    1    2    0    0 -0.45549757464E+02 -0.76684355465E+02 -0.10452388561E+04  0.13777764269E+04  0.89318998286E+03 0.  0.
         23    2    4    4    0    0 -0.24125249083E+03 -0.32820714698E+03 -0.18570273419E+03  0.45681839736E+03  0.90966186131E+02 0.  0.
         23    2    4    4    0    0  0.19570273337E+03  0.25152279152E+03 -0.85953612192E+03  0.92095802956E+03  0.88306697523E+02 0.  0.
          3    1    3    3  502    0  0.23737463827E+02  0.49979353258E+02  0.10572971434E+02  0.56331080816E+02  0.00000000000E+00 0. -1.
         -4    1    3    3    0  502  0.21812293637E+02  0.26705002207E+02  0.98535599571E+02  0.10439443318E+03  0.00000000000E+00 0.  1.
         13    1    5    5    0    0 -0.80030320124E+01 -0.53805567837E+02 -0.43374265634E+02  0.69573087979E+02  0.00000000000E+00 0. -1.
        -13    1    5    5    0    0 -0.23324945882E+03 -0.27440157915E+03 -0.14232846856E+03  0.38724530938E+03  0.00000000000E+00 0.  1.
          3    1    6    6  503    0  0.83992710322E+02  0.78258422014E+02 -0.20790889526E+03  0.23749792574E+03  0.00000000000E+00 0. -1.
         -3    1    6    6    0  503  0.11171002305E+03  0.17326436950E+03 -0.65162722666E+03  0.68346010382E+03  0.00000000000E+00 0.  1.
<mgrwt>
<rscale>  0 0.12209211E+04</rscale>
<asrwt>0</asrwt>
<pdfrwt beam="1">  1        1 0.19035632E+00 0.12209211E+04</pdfrwt>
<pdfrwt beam="2">  1       -2 0.46336282E-01 0.12209211E+04</pdfrwt>
<totfact> 0.38410520E+01</totfact>
</mgrwt>
</event>
<event>
12    5  0.5246737E-008  0.2034015E+04  0.7818608E-02  0.8590880E-01
         -2   -1    0    0    0  501 -0.00000000000E+00  0.00000000000E+00  0.11343400755E+04  0.11343400755E+04  0.00000000000E+00 0.  1.
          1   -1    0    0  501    0  0.00000000000E+00 -0.00000000000E+00 -0.91181180576E+03  0.91181180576E+03  0.00000000000E+00 0. -1.
        -24    2    1    2    0    0 -0.10129831234E+03  0.34430652599E+03 -0.64342485617E+03  0.74113120615E+03  0.80446176268E+02 0.  0.
        254    2    1    2    0    0  0.10129831234E+03 -0.34430652599E+03  0.86595312594E+03  0.13050206751E+04  0.90796245203E+03 0.  0.
         23    2    4    4    0    0  0.31138871738E+03 -0.97367433543E+02 -0.37517643179E+02  0.34074109324E+03  0.90849153239E+02 0.  0.
         23    2    4    4    0    0 -0.21009040504E+03 -0.24693909244E+03  0.90347076912E+03  0.96427958190E+03  0.91971668191E+02 0.  0.
          3    1    3    3  502    0 -0.10738088423E+03  0.30849667019E+03 -0.53557259539E+03  0.62732675278E+03  0.00000000000E+00 0. -1.
         -4    1    3    3    0  502  0.60825718931E+01  0.35809855802E+02 -0.10785226078E+03  0.11380445338E+03  0.00000000000E+00 0.  1.
         13    1    5    5    0    0  0.32893187834E+02 -0.26742608388E+02 -0.32447892643E+02  0.53385341118E+02  0.00000000000E+00 0.  1.
        -13    1    5    5    0    0  0.27849552955E+03 -0.70624825155E+02 -0.50697505356E+01  0.28735575212E+03  0.00000000000E+00 0. -1.
          2    1    6    6  503    0 -0.21696151853E+03 -0.22963346742E+03  0.81986071139E+03  0.87862131545E+03  0.00000000000E+00 0. -1.
         -2    1    6    6    0  503  0.68711134844E+01 -0.17305625022E+02  0.83610057727E+02  0.85658266449E+02  0.00000000000E+00 0.  1.
<mgrwt>
<rscale>  0 0.20340154E+04</rscale>
<asrwt>0</asrwt>
<pdfrwt beam="1">  1        1 0.14027874E+00 0.20340154E+04</pdfrwt>
<pdfrwt beam="2">  1       -2 0.17451386E+00 0.20340154E+04</pdfrwt>
<totfact> 0.28561463E+00</totfact>
</mgrwt>
</event>
<event>
12    5  0.5246737E-008  0.1503069E+04  0.7818608E-02  0.8882415E-01
          1   -1    0    0  501    0  0.00000000000E+00  0.00000000000E+00  0.99960470541E+03  0.99960470541E+03  0.00000000000E+00 0. -1.
         -2   -1    0    0    0  501 -0.00000000000E+00 -0.00000000000E+00 -0.56502743660E+03  0.56502743660E+03  0.00000000000E+00 0.  1.
        -24    2    1    2    0    0  0.14070731277E+03 -0.39336231685E+03 -0.88540809651E+02  0.43468542576E+03  0.81114019808E+02 0.  0.
        254    2    1    2    0    0 -0.14070731277E+03  0.39336231685E+03  0.52311807846E+03  0.11299467163E+04  0.91027171623E+03 0.  0.
         23    2    4    4    0    0 -0.69860295429E+01 -0.27603519279E+03  0.26623905213E+03  0.39486809062E+03  0.93772831072E+02 0.  0.
         23    2    4    4    0    0 -0.13372128323E+03  0.66939750964E+03  0.25687902633E+03  0.73507862563E+03  0.91538757861E+02 0.  0.
          3    1    3    3  502    0 -0.69343477621E+01 -0.20508824025E+02 -0.16557432322E+02  0.27255194127E+02  0.00000000000E+00 0. -1.
         -4    1    3    3    0  502  0.14764166054E+03 -0.37285349283E+03 -0.71983377328E+02  0.40743023164E+03  0.00000000000E+00 0.  1.
         13    1    5    5    0    0  0.32534952850E+02 -0.38817245197E+02  0.38043854903E+02  0.63345375344E+02  0.00000000000E+00 0. -1.
        -13    1    5    5    0    0 -0.39520982393E+02 -0.23721794759E+03  0.22819519723E+03  0.33152271528E+03  0.00000000000E+00 0.  1.
          2    1    6    6  503    0 -0.13443130221E+02  0.16061012752E+03  0.24788450684E+02  0.16306685163E+03  0.00000000000E+00 0. -1.
         -2    1    6    6    0  503 -0.12027815301E+03  0.50878738211E+03  0.23209057565E+03  0.57201177400E+03  0.00000000000E+00 0.  1.
<mgrwt>
<rscale>  0 0.15030690E+04</rscale>
<asrwt>0</asrwt>
<pdfrwt beam="1">  1        1 0.15378534E+00 0.15030690E+04</pdfrwt>
<pdfrwt beam="2">  1       -2 0.86927298E-01 0.15030690E+04</pdfrwt>
<totfact> 0.14696229E+01</totfact>
</mgrwt>
</event>
<event>
12    5  0.5246737E-008  0.1390937E+04  0.7818608E-02  0.8960405E-01
          1   -1    0    0  501    0  0.00000000000E+00  0.00000000000E+00  0.75983611901E+03  0.75983611901E+03  0.00000000000E+00 0. -1.
         -2   -1    0    0    0  501 -0.00000000000E+00 -0.00000000000E+00 -0.63655368567E+03  0.63655368567E+03  0.00000000000E+00 0.  1.
        -24    2    1    2    0    0  0.18105828481E+03 -0.34198265216E+03 -0.29492880653E+02  0.39755628905E+03  0.86295631885E+02 0.  0.
        254    2    1    2    0    0 -0.18105828481E+03  0.34198265216E+03  0.15277531399E+03  0.99883351563E+03  0.90807150518E+03 0.  0.
         23    2    4    4    0    0 -0.47386338170E+03  0.43295964170E+03  0.19162442101E+03  0.67627180774E+03  0.92860558726E+02 0.  0.
         23    2    4    4    0    0  0.29280509689E+03 -0.90976989541E+02 -0.38849107021E+02  0.32256170789E+03  0.92331819468E+02 0.  0.
          3    1    3    3  502    0  0.15812254088E+03 -0.29134812869E+03  0.61056593582E+01  0.33154750655E+03  0.00000000000E+00 0. -1.
         -4    1    3    3    0  502  0.22935743929E+02 -0.50634523471E+02 -0.35598540011E+02  0.66008782504E+02  0.00000000000E+00 0.  1.
         13    1    5    5    0    0 -0.14702396272E+03  0.14902663889E+03  0.10711011767E+03  0.23515433660E+03  0.00000000000E+00 0.  1.
        -13    1    5    5    0    0 -0.32683941898E+03  0.28393300281E+03  0.84514303337E+02  0.44111747115E+03  0.00000000000E+00 0. -1.
          3    1    6    6  503    0  0.20459948544E+03 -0.29118755495E+02 -0.54424313632E+02  0.21370741044E+03  0.00000000000E+00 0. -1.
         -3    1    6    6    0  503  0.88205611452E+02 -0.61858234046E+02  0.15575206611E+02  0.10885429744E+03  0.00000000000E+00 0.  1.
<mgrwt>
<rscale>  0 0.13909371E+04</rscale>
<asrwt>0</asrwt>
<pdfrwt beam="1">  1        1 0.11689787E+00 0.13909371E+04</pdfrwt>
<pdfrwt beam="2">  1       -2 0.97931335E-01 0.13909371E+04</pdfrwt>
<totfact> 0.17799679E+01</totfact>
</mgrwt>
</event>
<event>
12    5  0.5246737E-008  0.1434035E+04  0.7818608E-02  0.8929544E-01
          1   -1    0    0  501    0  0.00000000000E+00  0.00000000000E+00  0.67280046325E+03  0.67280046325E+03  0.00000000000E+00 0. -1.
         -2   -1    0    0    0  501 -0.00000000000E+00 -0.00000000000E+00 -0.76414042064E+03  0.76414042064E+03  0.00000000000E+00 0.  1.
        -24    2    1    2    0    0 -0.67595015540E+02 -0.41231671222E+03 -0.10841334409E+03  0.43914452930E+03  0.80748418782E+02 0.  0.
        254    2    1    2    0    0  0.67595015540E+02  0.41231671222E+03  0.17073386694E+02  0.99779635458E+03  0.90594255192E+03 0.  0.
         23    2    4    4    0    0 -0.33250480983E+03  0.38280132671E+03 -0.17466782366E+03  0.54398953426E+03  0.91211076515E+02 0.  0.
         23    2    4    4    0    0  0.40009982537E+03  0.29515385512E+02  0.19174121035E+03  0.45380682032E+03  0.90691290542E+02 0.  0.
          3    1    3    3  502    0  0.15877686098E+02 -0.11216100100E+03 -0.40340922777E+02  0.12024799837E+03  0.00000000000E+00 0. -1.
         -4    1    3    3    0  502 -0.83472701638E+02 -0.30015571122E+03 -0.68072421309E+02  0.31889653093E+03  0.00000000000E+00 0.  1.
         13    1    5    5    0    0 -0.33709805775E+03  0.38338878315E+03 -0.17374785677E+03  0.53926837226E+03  0.00000000000E+00 0.  1.
        -13    1    5    5    0    0  0.45932479251E+01 -0.58745644565E+00 -0.91996688448E+00  0.47211620017E+01  0.00000000000E+00 0. -1.
          1    1    6    6  503    0  0.58012430780E+02  0.36696972938E+02  0.40568986106E+02  0.79736770573E+02  0.00000000000E+00 0. -1.
         -1    1    6    6    0  503  0.34208739459E+03 -0.71815874253E+01  0.15117222424E+03  0.37407004975E+03  0.00000000000E+00 0.  1.
<mgrwt>
<rscale>  0 0.14340349E+04</rscale>
<asrwt>0</asrwt>
<pdfrwt beam="1">  1        1 0.10350776E+00 0.14340349E+04</pdfrwt>
<pdfrwt beam="2">  1       -2 0.11756006E+00 0.14340349E+04</pdfrwt>
<totfact> 0.13756833E+01</totfact>
</mgrwt>
</event>
<event>
12    5  0.5246737E-008  0.1184791E+04  0.7818608E-02  0.9126274E-01
          1   -1    0    0  501    0  0.00000000000E+00  0.00000000000E+00  0.37123332884E+03  0.37123332884E+03  0.00000000000E+00 0. -1.
         -2   -1    0    0    0  501 -0.00000000000E+00 -0.00000000000E+00 -0.94531561924E+03  0.94531561924E+03  0.00000000000E+00 0.  1.
        -24    2    1    2    0    0  0.14353369051E+03 -0.10419264214E+03 -0.30409688515E+03  0.36079570598E+03  0.78997461408E+02 0.  0.
        254    2    1    2    0    0 -0.14353369051E+03  0.10419264214E+03 -0.26998540525E+03  0.95575324209E+03  0.89950770633E+03 0.  0.
         23    2    4    4    0    0 -0.18820382309E+03  0.26329925898E+02 -0.58120366889E+03  0.61843383040E+03  0.92459471233E+02 0.  0.
         23    2    4    4    0    0  0.44670132588E+02  0.77862716246E+02  0.31121826364E+03  0.33731941170E+03  0.94178312568E+02 0.  0.
          1    1    3    3  502    0  0.16388658457E+01 -0.37215506329E+02 -0.58974736078E+02  0.69754564640E+02  0.00000000000E+00 0. -1.
         -2    1    3    3    0  502  0.14189482466E+03 -0.66977135815E+02 -0.24512214907E+03  0.29104114134E+03  0.00000000000E+00 0.  1.
         13    1    5    5    0    0 -0.17658279823E+03 -0.43840112554E+01 -0.51658797395E+03  0.54595223144E+03  0.00000000000E+00 0. -1.
        -13    1    5    5    0    0 -0.11621024863E+02  0.30713937154E+02 -0.64615694945E+02  0.72481598958E+02  0.00000000000E+00 0.  1.
          3    1    6    6  503    0  0.16400379595E+02  0.94736077939E+02  0.21203479399E+03  0.23281462750E+03  0.00000000000E+00 0. -1.
         -3    1    6    6    0  503  0.28269752993E+02 -0.16873361692E+02  0.99183469648E+02  0.10450478420E+03  0.00000000000E+00 0.  1.
<mgrwt>
<rscale>  0 0.11847914E+04</rscale>
<asrwt>0</asrwt>
<pdfrwt beam="1">  1        1 0.57112819E-01 0.11847914E+04</pdfrwt>
<pdfrwt beam="2">  1       -2 0.14543317E+00 0.11847914E+04</pdfrwt>
<totfact> 0.18622484E+01</totfact>
</mgrwt>
</event>
<event>
12    5  0.5246737E-008  0.2286461E+04  0.7818608E-02  0.8483279E-01
         -2   -1    0    0    0  501 -0.00000000000E+00  0.00000000000E+00  0.13993371765E+04  0.13993371765E+04  0.00000000000E+00 0.  1.
          1   -1    0    0  501    0  0.00000000000E+00 -0.00000000000E+00 -0.93399613180E+03  0.93399613180E+03  0.00000000000E+00 0. -1.
        -24    2    1    2    0    0 -0.20353624096E+03  0.12149828223E+03  0.11517785448E+04  0.11786237442E+04  0.79820298485E+02 0.  0.
        254    2    1    2    0    0  0.20353624096E+03 -0.12149828223E+03 -0.68643750007E+03  0.11547095642E+04  0.89775770791E+03 0.  0.
         23    2    4    4    0    0  0.23038572211E+03  0.20314516457E+03 -0.74817332639E+03  0.81306642516E+03  0.83475424959E+02 0.  0.
         23    2    4    4    0    0 -0.26849481156E+02 -0.32464344680E+03  0.61735826319E+02  0.34164313901E+03  0.82428514431E+02 0.  0.
          1    1    3    3  502    0 -0.10055523600E+03  0.45922173516E+02  0.71690626023E+03  0.72537906467E+03  0.00000000000E+00 0. -1.
         -2    1    3    3    0  502 -0.10298100496E+03  0.75576108716E+02  0.43487228458E+03  0.45324467949E+03  0.00000000000E+00 0.  1.
         13    1    5    5    0    0  0.41696076713E+02  0.24915873124E+02 -0.57720992989E+02  0.75439224402E+02  0.00000000000E+00 0.  1.
        -13    1    5    5    0    0  0.18868964540E+03  0.17822929144E+03 -0.69045233340E+03  0.73762720076E+03  0.00000000000E+00 0. -1.
          2    1    6    6  503    0  0.11388306191E+01 -0.18283211240E+02 -0.16016989478E+02  0.24333448181E+02  0.00000000000E+00 0.  1.
         -2    1    6    6    0  503 -0.27988311775E+02 -0.30636023556E+03  0.77752815797E+02  0.31730969082E+03  0.00000000000E+00 0. -1.
<mgrwt>
<rscale>  0 0.22864606E+04</rscale>
<asrwt>0</asrwt>
<pdfrwt beam="1">  1        1 0.14369171E+00 0.22864606E+04</pdfrwt>
<pdfrwt beam="2">  1       -2 0.21528264E+00 0.22864606E+04</pdfrwt>
<totfact> 0.14343217E+00</totfact>
</mgrwt>
</event>
<event>
12    5  0.5246737E-008  0.1031183E+04  0.7818608E-02  0.9274990E-01
         -2   -1    0    0    0  501 -0.00000000000E+00  0.00000000000E+00  0.45745360271E+03  0.45745360271E+03  0.00000000000E+00 0.  1.
          1   -1    0    0  501    0  0.00000000000E+00 -0.00000000000E+00 -0.58111856629E+03  0.58111856629E+03  0.00000000000E+00 0. -1.
        -24    2    1    2    0    0  0.22406635486E+02  0.36507400284E+02 -0.96588233053E+02  0.13482755108E+03  0.83751621937E+02 0.  0.
        254    2    1    2    0    0 -0.22406635486E+02 -0.36507400284E+02 -0.27076730531E+02  0.90374461792E+03  0.90232274575E+03 0.  0.
         23    2    4    4    0    0 -0.21818536819E+03  0.36442849706E+03 -0.91502383487E+02  0.44394382828E+03  0.91106817097E+02 0.  0.
         23    2    4    4    0    0  0.19577873270E+03 -0.40093589734E+03  0.64425652956E+02  0.45980078965E+03  0.90483122428E+02 0.  0.
          1    1    3    3  502    0 -0.47625532716E+00  0.12142230269E+02 -0.10044731280E+03  0.10117965816E+03  0.00000000000E+00 0. -1.
         -2    1    3    3    0  502  0.22882890813E+02  0.24365170015E+02  0.38590797514E+01  0.33647892925E+02  0.00000000000E+00 0.  1.
         13    1    5    5    0    0 -0.15983731678E+03  0.26046611116E+03 -0.23036691686E+02  0.30646574370E+03  0.00000000000E+00 0. -1.
        -13    1    5    5    0    0 -0.58348051404E+02  0.10396238590E+03 -0.68465691801E+02  0.13747808458E+03  0.00000000000E+00 0.  1.
          4    1    6    6  503    0  0.11871897337E+03 -0.27425782120E+03  0.83518700908E+02  0.31030133826E+03  0.00000000000E+00 0. -1.
         -4    1    6    6    0  503  0.77059759331E+02 -0.12667807615E+03 -0.19093047952E+02  0.14949945139E+03  0.00000000000E+00 0.  1.
<mgrwt>
<rscale>  0 0.10311834E+04</rscale>
<asrwt>0</asrwt>
<pdfrwt beam="1">  1        1 0.89402856E-01 0.10311834E+04</pdfrwt>
<pdfrwt beam="2">  1       -2 0.70377478E-01 0.10311834E+04</pdfrwt>
<totfact> 0.57741036E+01</totfact>
</mgrwt>
</event>
<event>
12    5  0.5246737E-008  0.1624246E+04  0.7818608E-02  0.8805790E-01
          1   -1    0    0  501    0  0.00000000000E+00  0.00000000000E+00  0.25439143256E+04  0.25439143256E+04  0.00000000000E+00 0. -1.
         -2   -1    0    0    0  501 -0.00000000000E+00 -0.00000000000E+00 -0.25926330543E+03  0.25926330543E+03  0.00000000000E+00 0.  1.
        -24    2    1    2    0    0  0.13428096011E+02 -0.13028000697E+02  0.17514409462E+04  0.17534186807E+04  0.81127301879E+02 0.  0.
        254    2    1    2    0    0 -0.13428096011E+02  0.13028000697E+02  0.53321007395E+03  0.10497589504E+04  0.90406350901E+03 0.  0.
         23    2    4    4    0    0  0.10087419879E+03  0.62585529558E+02  0.75998561273E+03  0.77537236172E+03  0.97629991706E+02 0.  0.
         23    2    4    4    0    0 -0.11430229480E+03 -0.49557528861E+02 -0.22677553878E+03  0.27438658863E+03  0.91323007871E+02 0.  0.
          3    1    3    3  502    0 -0.31501622122E+02 -0.58850988190E+01  0.10590434134E+04  0.10595281676E+04  0.00000000000E+00 0. -1.
         -4    1    3    3    0  502  0.44929718133E+02 -0.71429018779E+01  0.69239753286E+03  0.69389051307E+03  0.00000000000E+00 0.  1.
         13    1    5    5    0    0 -0.16349960331E+02 -0.61274399955E+01  0.10488768060E+03  0.10633105033E+03  0.00000000000E+00 0.  1.
        -13    1    5    5    0    0  0.11722415912E+03  0.68712969554E+02  0.65509793213E+03  0.66904131139E+03  0.00000000000E+00 0. -1.
          2    1    6    6  503    0 -0.27636185938E+02  0.22082928724E+02 -0.93767438388E+02  0.10021849638E+03  0.00000000000E+00 0.  1.
         -2    1    6    6    0  503 -0.86666108866E+02 -0.71640457586E+02 -0.13300810039E+03  0.17416809225E+03  0.00000000000E+00 0. -1.
<mgrwt>
<rscale>  0 0.16242458E+04</rscale>
<asrwt>0</asrwt>
<pdfrwt beam="1">  1        1 0.39137142E+00 0.16242458E+04</pdfrwt>
<pdfrwt beam="2">  1       -2 0.39886664E-01 0.16242458E+04</pdfrwt>
<totfact> 0.63284759E+00</totfact>
</mgrwt>
</event>
<event>
12    5  0.5246737E-008  0.1444745E+04  0.7818608E-02  0.8922052E-01
          1   -1    0    0  501    0  0.00000000000E+00  0.00000000000E+00  0.15093796576E+04  0.15093796576E+04  0.00000000000E+00 0. -1.
         -2   -1    0    0    0  501 -0.00000000000E+00 -0.00000000000E+00 -0.34571967003E+03  0.34571967003E+03  0.00000000000E+00 0.  1.
        -24    2    1    2    0    0 -0.20655383684E+03 -0.33509713454E+03  0.11441253304E+03  0.41694578966E+03  0.76151078179E+02 0.  0.
        254    2    1    2    0    0  0.20655383684E+03  0.33509713454E+03  0.10492474545E+04  0.14381535380E+04  0.90133833871E+03 0.  0.
         23    2    4    4    0    0  0.20315953263E+03 -0.27300675664E+03  0.25657524792E+03  0.43589388824E+03  0.91466600969E+02 0.  0.
         23    2    4    4    0    0  0.33943042125E+01  0.60810389118E+03  0.79267220661E+03  0.10022596497E+04  0.79958205071E+02 0.  0.
          1    1    3    3  502    0  0.60485034883E+01 -0.79911043013E+01  0.72501995360E+01  0.12369621486E+02  0.00000000000E+00 0. -1.
         -2    1    3    3    0  502 -0.21260234033E+03 -0.32710603024E+03  0.10716233350E+03  0.40457616818E+03  0.00000000000E+00 0.  1.
         13    1    5    5    0    0  0.10184397017E+03 -0.19687133210E+03  0.19396257684E+03  0.29453691938E+03  0.00000000000E+00 0. -1.
        -13    1    5    5    0    0  0.10131556246E+03 -0.76135424536E+02  0.62612671075E+02  0.14135696886E+03  0.00000000000E+00 0.  1.
          4    1    6    6  503    0  0.13442009116E+02  0.13003063799E+03  0.12381465124E+03  0.18005199885E+03  0.00000000000E+00 0. -1.
         -4    1    6    6    0  503 -0.10047704904E+02  0.47807325319E+03  0.66885755537E+03  0.82220765088E+03  0.00000000000E+00 0.  1.
<mgrwt>
<rscale>  0 0.14447453E+04</rscale>
<asrwt>0</asrwt>
<pdfrwt beam="1">  1        1 0.23221225E+00 0.14447453E+04</pdfrwt>
<pdfrwt beam="2">  1       -2 0.53187643E-01 0.14447453E+04</pdfrwt>
<totfact> 0.18311368E+01</totfact>
</mgrwt>
</event>
<event>
12    5  0.5246737E-008  0.1542185E+04  0.7818608E-02  0.8856875E-01
          1   -1    0    0  501    0  0.00000000000E+00  0.00000000000E+00  0.74483146557E+03  0.74483146557E+03  0.00000000000E+00 0. -1.
         -2   -1    0    0    0  501 -0.00000000000E+00 -0.00000000000E+00 -0.79827908855E+03  0.79827908855E+03  0.00000000000E+00 0.  1.
        -24    2    1    2    0    0  0.46801624565E+03 -0.39645689889E+02 -0.20557259829E+03  0.51897847474E+03  0.80421248139E+02 0.  0.
        254    2    1    2    0    0 -0.46801624565E+03  0.39645689889E+02  0.15212497531E+03  0.10241320794E+04  0.89727003794E+03 0.  0.
         23    2    4    4    0    0  0.14836331256E+03  0.14242000651E+03 -0.20024721992E+03  0.30109976780E+03  0.90922991124E+02 0.  0.
         23    2    4    4    0    0 -0.61637955821E+03 -0.10277431662E+03  0.35237219523E+03  0.72303231158E+03  0.90129016884E+02 0.  0.
          3    1    3    3  502    0  0.86715950996E+01 -0.13302830991E+02 -0.25736648324E+01  0.16086815241E+02  0.00000000000E+00 0. -1.
         -4    1    3    3    0  502  0.45934465056E+03 -0.26342858899E+02 -0.20299893346E+03  0.50289165950E+03  0.00000000000E+00 0.  1.
         13    1    5    5    0    0  0.53596663796E+01  0.56045305576E+02 -0.36051254911E+02  0.66854283943E+02  0.00000000000E+00 0. -1.
        -13    1    5    5    0    0  0.14300364618E+03  0.86374700937E+02 -0.16419596501E+03  0.23424548386E+03  0.00000000000E+00 0.  1.
          1    1    6    6  503    0 -0.59902501319E+02 -0.34710664942E+02  0.55014759961E+02  0.88429428012E+02  0.00000000000E+00 0. -1.
         -1    1    6    6    0  503 -0.55647705689E+03 -0.68063651683E+02  0.29735743527E+03  0.63460288357E+03  0.00000000000E+00 0.  1.
<mgrwt>
<rscale>  0 0.15421847E+04</rscale>
<asrwt>0</asrwt>
<pdfrwt beam="1">  1        1 0.11458946E+00 0.15421847E+04</pdfrwt>
<pdfrwt beam="2">  1       -2 0.12281217E+00 0.15421847E+04</pdfrwt>
<totfact> 0.10474415E+01</totfact>
</mgrwt>
</event>
<event>
12    5  0.5246737E-008  0.1601657E+04  0.7818608E-02  0.8819530E-01
         -2   -1    0    0    0  501 -0.00000000000E+00  0.00000000000E+00  0.24732603341E+03  0.24732603341E+03  0.00000000000E+00 0.  1.
          1   -1    0    0  501    0  0.00000000000E+00 -0.00000000000E+00 -0.25930413913E+04  0.25930413913E+04  0.00000000000E+00 0. -1.
        -24    2    1    2    0    0 -0.18778602456E+03 -0.11678826298E+03  0.84621506028E+02  0.25023099150E+03  0.80942327818E+02 0.  0.
        254    2    1    2    0    0  0.18778602456E+03  0.11678826298E+03 -0.24303368639E+04  0.25901364332E+04  0.86796680878E+03 0.  0.
         23    2    4    4    0    0 -0.23241082490E+03 -0.14489904257E+03 -0.37109928147E+03  0.47017698726E+03  0.91330162444E+02 0.  0.
         23    2    4    4    0    0  0.42019684946E+03  0.26168730555E+03 -0.20592375824E+04  0.21199594459E+04  0.93396966452E+02 0.  0.
          1    1    3    3  502    0 -0.12796001155E+03 -0.76327529275E+02  0.95816178098E+02  0.17714512769E+03  0.00000000000E+00 0. -1.
         -2    1    3    3    0  502 -0.59826013015E+02 -0.40460733707E+02 -0.11194672069E+02  0.73085863805E+02  0.00000000000E+00 0.  1.
         13    1    5    5    0    0 -0.62716876537E+02 -0.16313282946E+02 -0.14914589281E+03  0.16261619582E+03  0.00000000000E+00 0.  1.
        -13    1    5    5    0    0 -0.16969394836E+03 -0.12858575963E+03 -0.22195338866E+03  0.30756079144E+03  0.00000000000E+00 0. -1.
          2    1    6    6  503    0  0.17058657742E+03  0.10920723902E+03 -0.10420209396E+04  0.10615242061E+04  0.00000000000E+00 0. -1.
         -2    1    6    6    0  503  0.24961027204E+03  0.15248006653E+03 -0.10172166428E+04  0.10584352398E+04  0.00000000000E+00 0.  1.
<mgrwt>
<rscale>  0 0.16016574E+04</rscale>
<asrwt>0</asrwt>
<pdfrwt beam="1">  1        1 0.39892945E+00 0.16016574E+04</pdfrwt>
<pdfrwt beam="2">  1       -2 0.38050158E-01 0.16016574E+04</pdfrwt>
<totfact> 0.64255727E+00</totfact>
</mgrwt>
</event>
<event>
12    5  0.5246737E-008  0.1862143E+04  0.7818608E-02  0.8673933E-01
         -2   -1    0    0    0  501 -0.00000000000E+00  0.00000000000E+00  0.48253751711E+03  0.48253751711E+03  0.00000000000E+00 0.  1.
          1   -1    0    0  501    0  0.00000000000E+00 -0.00000000000E+00 -0.17965314013E+04  0.17965314013E+04  0.00000000000E+00 0. -1.
        -24    2    1    2    0    0  0.51509597284E+03  0.48436544597E+03 -0.50379525275E+03  0.87179342262E+03  0.79248776346E+02 0.  0.
        254    2    1    2    0    0 -0.51509597284E+03 -0.48436544597E+03 -0.81019863146E+03  0.14072754958E+04  0.90778232643E+03 0.  0.
         23    2    4    4    0    0  0.15452520252E+03  0.13349906614E+03 -0.85606145753E+02  0.23963790866E+03  0.91639926887E+02 0.  0.
         23    2    4    4    0    0 -0.66962117536E+03 -0.61786451211E+03 -0.72459248570E+03  0.11676375871E+04  0.90521769469E+02 0.  0.
          1    1    3    3  502    0  0.31772085267E+03  0.30661193452E+03 -0.36032241853E+03  0.56990320574E+03  0.00000000000E+00 0. -1.
         -2    1    3    3    0  502  0.19737512017E+03  0.17775351144E+03 -0.14347283422E+03  0.30189021688E+03  0.00000000000E+00 0.  1.
         13    1    5    5    0    0  0.87606240716E+02  0.10876286835E+03 -0.93185390377E+02  0.16789202460E+03  0.00000000000E+00 0. -1.
        -13    1    5    5    0    0  0.66918961808E+02  0.24736197793E+02  0.75792446233E+01  0.71745884061E+02  0.00000000000E+00 0.  1.
          4    1    6    6  503    0 -0.64298626140E+03 -0.58199316484E+03 -0.70940713451E+03  0.11204489541E+04  0.00000000000E+00 0.  1.
         -4    1    6    6    0  503 -0.26634913967E+02 -0.35871347261E+02 -0.15185351192E+02  0.47188633029E+02  0.00000000000E+00 0. -1.
<mgrwt>
<rscale>  0 0.18621426E+04</rscale>
<asrwt>0</asrwt>
<pdfrwt beam="1">  1        1 0.27638945E+00 0.18621426E+04</pdfrwt>
<pdfrwt beam="2">  1       -2 0.74236541E-01 0.18621426E+04</pdfrwt>
<totfact> 0.55135914E+00</totfact>
</mgrwt>
</event>
<event>
12    5  0.5246737E-008  0.2292004E+04  0.7818608E-02  0.8481081E-01
         -4   -1    0    0    0  501 -0.00000000000E+00  0.00000000000E+00  0.11865452380E+04  0.11865452380E+04  0.00000000000E+00 0.  1.
          3   -1    0    0  501    0  0.00000000000E+00 -0.00000000000E+00 -0.11068436824E+04  0.11068436824E+04  0.00000000000E+00 0. -1.
        -24    2    1    2    0    0  0.28709570006E+03 -0.59844788773E+03  0.73913778810E+03  0.99658699353E+03  0.79354587539E+02 0.  0.
        254    2    1    2    0    0 -0.28709570006E+03  0.59844788773E+03 -0.65943623252E+03  0.12968019268E+04  0.89792832528E+03 0.  0.
         23    2    4    4    0    0  0.14718580418E+03 -0.14922640018E+03 -0.24120082450E+03  0.33256133732E+03  0.92125055644E+02 0.  0.
         23    2    4    4    0    0 -0.43428150424E+03  0.74767428791E+03 -0.41823540802E+03  0.96424058951E+03  0.84981128510E+02 0.  0.
          3    1    3    3  502    0  0.68477353077E+01 -0.12968850016E+02  0.26819093537E+01  0.14908896249E+02  0.00000000000E+00 0. -1.
         -4    1    3    3    0  502  0.28024796475E+03 -0.58547903771E+03  0.73645587875E+03  0.98167809729E+03  0.00000000000E+00 0.  1.
         13    1    5    5    0    0  0.20829363399E+02  0.60781183970E+01 -0.38376626424E+01  0.22034826013E+02  0.00000000000E+00 0.  1.
        -13    1    5    5    0    0  0.12635644078E+03 -0.15530451858E+03 -0.23736316186E+03  0.31052651131E+03  0.00000000000E+00 0. -1.
          2    1    6    6  503    0 -0.98875034821E+02  0.22338243783E+03 -0.14870756597E+03  0.28598938130E+03  0.00000000000E+00 0.  1.
         -2    1    6    6    0  503 -0.33540646942E+03  0.52429185008E+03 -0.26952784205E+03  0.67825120821E+03  0.00000000000E+00 0. -1.
<mgrwt>
<rscale>  0 0.22920036E+04</rscale>
<asrwt>0</asrwt>
<pdfrwt beam="1">  1        3 0.17028364E+00 0.22920036E+04</pdfrwt>
<pdfrwt beam="2">  1       -4 0.18254542E+00 0.22920036E+04</pdfrwt>
<totfact> 0.82663155E-02</totfact>
</mgrwt>
</event>
<event>
12    5  0.5246737E-008  0.1669692E+04  0.7818608E-02  0.8778842E-01
          1   -1    0    0  501    0  0.00000000000E+00  0.00000000000E+00  0.44142964665E+04  0.44142964665E+04  0.00000000000E+00 0. -1.
         -2   -1    0    0    0  501 -0.00000000000E+00 -0.00000000000E+00 -0.15788869248E+03  0.15788869248E+03  0.00000000000E+00 0.  1.
        -24    2    1    2    0    0 -0.55665479086E+03 -0.18171923130E+03  0.12829422286E+04  0.14125328957E+04  0.80137283124E+02 0.  0.
        254    2    1    2    0    0  0.55665479086E+03  0.18171923130E+03  0.29734655454E+04  0.31596522633E+04  0.89387842585E+03 0.  0.
         23    2    4    4    0    0  0.37719304288E+03 -0.31330191245E+03  0.18416280300E+04  0.19079919045E+04  0.91687659064E+02 0.  0.
         23    2    4    4    0    0  0.17946174798E+03  0.49502114375E+03  0.11318375154E+04  0.12516603588E+04  0.91351194890E+02 0.  0.
          3    1    3    3  502    0 -0.48858247272E+02 -0.36741534583E+02  0.17001251142E+03  0.18066909733E+03  0.00000000000E+00 0. -1.
         -4    1    3    3    0  502 -0.50779654358E+03 -0.14497769672E+03  0.11129297172E+04  0.12318637983E+04  0.00000000000E+00 0.  1.
         13    1    5    5    0    0  0.25207002485E+03 -0.25497311525E+03  0.12448404622E+04  0.12954452375E+04  0.00000000000E+00 0. -1.
        -13    1    5    5    0    0  0.12512301803E+03 -0.58328797199E+02  0.59678756782E+03  0.61254666707E+03  0.00000000000E+00 0.  1.
          2    1    6    6  503    0  0.95453391821E+02  0.13944858124E+03  0.36689402124E+03  0.40394118340E+03  0.00000000000E+00 0. -1.
         -2    1    6    6    0  503  0.84008356160E+02  0.35557256251E+03  0.76494349412E+03  0.84771917538E+03  0.00000000000E+00 0.  1.
<mgrwt>
<rscale>  0 0.16696916E+04</rscale>
<asrwt>0</asrwt>
<pdfrwt beam="1">  1        1 0.67912244E+00 0.16696916E+04</pdfrwt>
<pdfrwt beam="2">  1       -2 0.24290571E-01 0.16696916E+04</pdfrwt>
<totfact> 0.50890032E-01</totfact>
</mgrwt>
</event>
<event>
12    5  0.5246737E-008  0.1803053E+04  0.7818608E-02  0.8704678E-01
          1   -1    0    0  501    0  0.00000000000E+00  0.00000000000E+00  0.13460134202E+04  0.13460134202E+04  0.00000000000E+00 0. -1.
         -2   -1    0    0    0  501 -0.00000000000E+00 -0.00000000000E+00 -0.60382007759E+03  0.60382007759E+03  0.00000000000E+00 0.  1.
        -24    2    1    2    0    0  0.25484588886E+03 -0.39409888692E+03 -0.24619165563E+03  0.53581308458E+03  0.78898482598E+02 0.  0.
        254    2    1    2    0    0 -0.25484588886E+03  0.39409888692E+03  0.98838499828E+03  0.14140204132E+04  0.89570556798E+03 0.  0.
         23    2    4    4    0    0 -0.11716952722E+03  0.63195044741E+03  0.89638850693E+03  0.11073252904E+04  0.97810415250E+02 0.  0.
         23    2    4    4    0    0 -0.13767636164E+03 -0.23785156049E+03  0.91996491351E+02  0.30669512284E+03  0.10035137553E+03 0.  0.
          1    1    3    3  502    0  0.28949836248E+02 -0.31505518326E+02 -0.77666764595E-01  0.42786642026E+02  0.00000000000E+00 0. -1.
         -2    1    3    3    0  502  0.22589605262E+03 -0.36259336860E+03 -0.24611398886E+03  0.49302644255E+03  0.00000000000E+00 0.  1.
         13    1    5    5    0    0 -0.91491027940E+02  0.29992280647E+03  0.37722754302E+03  0.49053533741E+03  0.00000000000E+00 0. -1.
        -13    1    5    5    0    0 -0.25678499282E+02  0.33202764094E+03  0.51916096391E+03  0.61678995300E+03  0.00000000000E+00 0.  1.
          3    1    6    6  503    0 -0.38766434250E+02 -0.12679069806E+03  0.14765034045E+01  0.13259297720E+03  0.00000000000E+00 0.  1.
         -3    1    6    6    0  503 -0.98909927392E+02 -0.11106086243E+03  0.90519987947E+02  0.17410214564E+03  0.00000000000E+00 0. -1.
<mgrwt>
<rscale>  0 0.18030529E+04</rscale>
<asrwt>0</asrwt>
<pdfrwt beam="1">  1        1 0.20707899E+00 0.18030529E+04</pdfrwt>
<pdfrwt beam="2">  1       -2 0.92895397E-01 0.18030529E+04</pdfrwt>
<totfact> 0.68177827E+00</totfact>
</mgrwt>
</event>
<event>
12    5  0.5246737E-008  0.3242552E+04  0.7818608E-02  0.8177669E-01
         -2   -1    0    0    0  501 -0.00000000000E+00  0.00000000000E+00  0.66804211396E+03  0.66804211396E+03  0.00000000000E+00 0.  1.
          1   -1    0    0  501    0  0.00000000000E+00 -0.00000000000E+00 -0.39346861021E+04  0.39346861021E+04  0.00000000000E+00 0. -1.
        -24    2    1    2    0    0 -0.87752637071E+03  0.10102194805E+04 -0.56811504767E+03  0.14558322909E+04  0.78083427703E+02 0.  0.
        254    2    1    2    0    0  0.87752637071E+03 -0.10102194805E+04 -0.26985289405E+04  0.31468959252E+04  0.91120776529E+03 0.  0.
         23    2    4    4    0    0  0.10494587037E+04 -0.93048786993E+03 -0.22879810776E+04  0.26853355757E+04  0.94860401762E+02 0.  0.
         23    2    4    4    0    0 -0.17193233301E+03 -0.79731610543E+02 -0.41054786283E+03  0.46156034946E+03  0.92577274029E+02 0.  0.
          3    1    3    3  502    0 -0.19706662710E+02  0.38141759369E+02 -0.85446105519E+01  0.43773927542E+02  0.00000000000E+00 0. -1.
         -4    1    3    3    0  502 -0.85781970800E+03  0.97207772110E+03 -0.55957043712E+03  0.14120583633E+04  0.00000000000E+00 0.  1.
         13    1    5    5    0    0  0.10239461127E+04 -0.92369965546E+03 -0.22525760035E+04  0.26411712074E+04  0.00000000000E+00 0.  1.
        -13    1    5    5    0    0  0.25512591060E+02 -0.67882144705E+01 -0.35405074076E+02  0.44164368315E+02  0.00000000000E+00 0. -1.
          4    1    6    6  503    0 -0.78534731417E+02 -0.18790170210E+02 -0.27184113214E+03  0.28358133870E+03  0.00000000000E+00 0. -1.
         -4    1    6    6    0  503 -0.93397601595E+02 -0.60941440333E+02 -0.13870673069E+03  0.17797901076E+03  0.00000000000E+00 0.  1.
<mgrwt>
<rscale>  0 0.32425521E+04</rscale>
<asrwt>0</asrwt>
<pdfrwt beam="1">  1        1 0.60533634E+00 0.32425521E+04</pdfrwt>
<pdfrwt beam="2">  1       -2 0.10277571E+00 0.32425521E+04</pdfrwt>
<totfact> 0.62053320E-02</totfact>
</mgrwt>
</event>
<event>
12    5  0.5246737E-008  0.2846955E+04  0.7818608E-02  0.8288837E-01
          1   -1    0    0  501    0  0.00000000000E+00  0.00000000000E+00  0.13488473207E+04  0.13488473207E+04  0.00000000000E+00 0. -1.
         -2   -1    0    0    0  501 -0.00000000000E+00 -0.00000000000E+00 -0.15022366910E+04  0.15022366910E+04  0.00000000000E+00 0.  1.
        -24    2    1    2    0    0  0.10682693091E+04 -0.61195464153E+03  0.27794052733E+03  0.12647010597E+04  0.80808623361E+02 0.  0.
        254    2    1    2    0    0 -0.10682693091E+04  0.61195464153E+03 -0.43132989766E+03  0.15863829520E+04  0.90270570487E+03 0.  0.
         23    2    4    4    0    0 -0.28473553428E+03  0.34545436297E+03  0.24135286666E+03  0.51579570685E+03  0.85912534504E+02 0.  0.
         23    2    4    4    0    0 -0.78353377485E+03  0.26650027856E+03 -0.67268276432E+03  0.10705872451E+04  0.93313306755E+02 0.  0.
          3    1    3    3  502    0  0.10023599725E+04 -0.55332785366E+03  0.24753403193E+03  0.11713967411E+04  0.00000000000E+00 0. -1.
         -4    1    3    3    0  502  0.65909336653E+02 -0.58626787862E+02  0.30406495402E+02  0.93304318633E+02  0.00000000000E+00 0.  1.
         13    1    5    5    0    0 -0.13127752454E+03  0.22025026372E+03  0.15599545016E+03  0.30013088410E+03  0.00000000000E+00 0.  1.
        -13    1    5    5    0    0 -0.15345800974E+03  0.12520409925E+03  0.85357416506E+02  0.21566482276E+03  0.00000000000E+00 0. -1.
          2    1    6    6  503    0 -0.70578097168E+03  0.26630839748E+03 -0.62261434861E+03  0.97810815846E+03  0.00000000000E+00 0. -1.
         -2    1    6    6    0  503 -0.77752803174E+02  0.19188107760E+00 -0.50068415714E+02  0.92479086673E+02  0.00000000000E+00 0.  1.
<mgrwt>
<rscale>  0 0.28469548E+04</rscale>
<asrwt>0</asrwt>
<pdfrwt beam="1">  1        1 0.20751497E+00 0.28469548E+04</pdfrwt>
<pdfrwt beam="2">  1       -2 0.23111334E+00 0.28469548E+04</pdfrwt>
<totfact> 0.53178702E-01</totfact>
</mgrwt>
</event>
<event>
12    5  0.5246737E-008  0.1405185E+04  0.7818608E-02  0.8950074E-01
          1   -1    0    0  501    0  0.00000000000E+00  0.00000000000E+00  0.42765765994E+03  0.42765765994E+03  0.00000000000E+00 0. -1.
         -2   -1    0    0    0  501 -0.00000000000E+00 -0.00000000000E+00 -0.11542783960E+04  0.11542783960E+04  0.00000000000E+00 0.  1.
        -24    2    1    2    0    0  0.23057038878E+03 -0.32514318058E+02 -0.60476467214E+03  0.65293364609E+03  0.79763102176E+02 0.  0.
        254    2    1    2    0    0 -0.23057038878E+03  0.32514318058E+02 -0.12185606395E+03  0.92900240987E+03  0.89105369769E+03 0.  0.
         23    2    4    4    0    0 -0.34458401840E+03  0.39341739115E+03 -0.55110628643E+02  0.53384705926E+03  0.91870081642E+02 0.  0.
         23    2    4    4    0    0  0.11401362961E+03 -0.36090307309E+03 -0.66745435305E+02  0.39515535061E+03  0.91883959850E+02 0.  0.
          3    1    3    3  502    0  0.49025755687E+02 -0.82841045844E+01 -0.23610998891E+03  0.24128837098E+03  0.00000000000E+00 0. -1.
         -4    1    3    3    0  502  0.18154463310E+03 -0.24230213474E+02 -0.36865468323E+03  0.41164527511E+03  0.00000000000E+00 0.  1.
         13    1    5    5    0    0 -0.30235428025E+03  0.37647254844E+03 -0.35072647821E+02  0.48412785619E+03  0.00000000000E+00 0.  1.
        -13    1    5    5    0    0 -0.42229738151E+02  0.16944842704E+02 -0.20037980823E+02  0.49719203071E+02  0.00000000000E+00 0. -1.
          1    1    6    6  503    0  0.39618071324E+02 -0.36571307791E+02 -0.26179961442E+02  0.59936987830E+02  0.00000000000E+00 0. -1.
         -1    1    6    6    0  503  0.74395558289E+02 -0.32433176530E+03 -0.40565473863E+02  0.33521836278E+03  0.00000000000E+00 0.  1.
<mgrwt>
<rscale>  0 0.14051847E+04</rscale>
<asrwt>0</asrwt>
<pdfrwt beam="1">  1        1 0.65793487E-01 0.14051847E+04</pdfrwt>
<pdfrwt beam="2">  1       -2 0.17758129E+00 0.14051847E+04</pdfrwt>
<totfact> 0.87978444E+00</totfact>
</mgrwt>
</event>
<event>
12    5  0.5246737E-008  0.1620385E+04  0.7818608E-02  0.8808121E-01
          1   -1    0    0  501    0  0.00000000000E+00  0.00000000000E+00  0.20692076927E+04  0.20692076927E+04  0.00000000000E+00 0. -1.
         -2   -1    0    0    0  501 -0.00000000000E+00 -0.00000000000E+00 -0.31722879987E+03  0.31722879987E+03  0.00000000000E+00 0.  1.
        -24    2    1    2    0    0  0.46441156076E+03 -0.89053640905E+02  0.17748392258E+03  0.51133534433E+03  0.79716013826E+02 0.  0.
        254    2    1    2    0    0 -0.46441156076E+03  0.89053640905E+02  0.15744949702E+04  0.18751011482E+04  0.90186543126E+03 0.  0.
         23    2    4    4    0    0 -0.42997069050E+03 -0.54599084324E+02  0.19350826107E+03  0.48299228284E+03  0.89332208561E+02 0.  0.
         23    2    4    4    0    0 -0.34440870260E+02  0.14365272523E+03  0.13809867092E+04  0.13921088654E+04  0.94976435020E+02 0.  0.
          3    1    3    3  502    0  0.44518632584E+02  0.14683424204E+02  0.13603166029E+02  0.48811450700E+02  0.00000000000E+00 0. -1.
         -4    1    3    3    0  502  0.41989292818E+03 -0.10373706511E+03  0.16388075655E+03  0.46252389363E+03  0.00000000000E+00 0.  1.
         13    1    5    5    0    0 -0.17422932853E+03 -0.65254453110E+02  0.69906163260E+02  0.19874826850E+03  0.00000000000E+00 0.  1.
        -13    1    5    5    0    0 -0.25574136197E+03  0.10655368786E+02  0.12360209781E+03  0.28424401434E+03  0.00000000000E+00 0. -1.
          1    1    6    6  503    0  0.32055500460E+02  0.60279811558E+02  0.60102715752E+03  0.60489243248E+03  0.00000000000E+00 0. -1.
         -1    1    6    6    0  503 -0.66496370720E+02  0.83372913671E+02  0.77995955164E+03  0.78721643291E+03  0.00000000000E+00 0.  1.
<mgrwt>
<rscale>  0 0.16203855E+04</rscale>
<asrwt>0</asrwt>
<pdfrwt beam="1">  1        1 0.31833964E+00 0.16203855E+04</pdfrwt>
<pdfrwt beam="2">  1       -2 0.48804432E-01 0.16203855E+04</pdfrwt>
<totfact> 0.89467851E+00</totfact>
</mgrwt>
</event>
<event>
12    5  0.5246737E-008  0.1760124E+04  0.7818608E-02  0.8727797E-01
         -2   -1    0    0    0  501 -0.00000000000E+00  0.00000000000E+00  0.24388651996E+03  0.24388651996E+03  0.00000000000E+00 0.  1.
          1   -1    0    0  501    0  0.00000000000E+00 -0.00000000000E+00 -0.31756936425E+04  0.31756936425E+04  0.00000000000E+00 0. -1.
        -24    2    1    2    0    0 -0.53949903928E+03 -0.26095393950E+03 -0.15376303127E+04  0.16521557104E+04  0.78455979402E+02 0.  0.
        254    2    1    2    0    0  0.53949903928E+03  0.26095393950E+03 -0.13941768098E+04  0.17674244521E+04  0.90603755164E+03 0.  0.
         23    2    4    4    0    0 -0.14768608670E+03  0.16831360627E+03 -0.42489634046E+02  0.24549943544E+03  0.91235703212E+02 0.  0.
         23    2    4    4    0    0  0.68718512598E+03  0.92640333231E+02 -0.13516871757E+04  0.15219250166E+04  0.91607349801E+02 0.  0.
          1    1    3    3  502    0 -0.47215034209E+03 -0.23374155210E+03 -0.12723763244E+04  0.13771356395E+04  0.00000000000E+00 0. -1.
         -2    1    3    3    0  502 -0.67348697186E+02 -0.27212387401E+02 -0.26525398837E+03  0.27502007088E+03  0.00000000000E+00 0.  1.
         13    1    5    5    0    0 -0.55343294664E+02  0.91353007818E+01  0.21681139337E+01  0.56134077909E+02  0.00000000000E+00 0. -1.
        -13    1    5    5    0    0 -0.92342792037E+02  0.15917830549E+03 -0.44657747979E+02  0.18936535753E+03  0.00000000000E+00 0.  1.
          3    1    6    6  503    0  0.43812388845E+01  0.78220945859E+01 -0.37023123558E+02  0.38093202751E+02  0.00000000000E+00 0. -1.
         -3    1    6    6    0  503  0.68280388709E+03  0.84818238645E+02 -0.13146640522E+04  0.14838318139E+04  0.00000000000E+00 0.  1.
<mgrwt>
<rscale>  0 0.17601237E+04</rscale>
<asrwt>0</asrwt>
<pdfrwt beam="1">  1        1 0.48856825E+00 0.17601237E+04</pdfrwt>
<pdfrwt beam="2">  1       -2 0.37521003E-01 0.17601237E+04</pdfrwt>
<totfact> 0.24812155E+00</totfact>
</mgrwt>
</event>
<event>
12    5  0.5246737E-008  0.1850248E+04  0.7818608E-02  0.8680025E-01
          1   -1    0    0  501    0  0.00000000000E+00  0.00000000000E+00  0.67345907494E+03  0.67345907494E+03  0.00000000000E+00 0. -1.
         -2   -1    0    0    0  501 -0.00000000000E+00 -0.00000000000E+00 -0.12708336025E+04  0.12708336025E+04  0.00000000000E+00 0.  1.
        -24    2    1    2    0    0 -0.39561100761E+03 -0.37196328548E+03 -0.58814893930E+03  0.80453538786E+03  0.80580769589E+02 0.  0.
        254    2    1    2    0    0  0.39561100761E+03  0.37196328548E+03 -0.92255882901E+01  0.11397572896E+04  0.10020463126E+04 0.  0.
         23    2    4    4    0    0  0.34344340726E+03  0.15810868323E+03  0.46685852712E+03  0.60777254519E+03  0.92080685510E+02 0.  0.
         23    2    4    4    0    0  0.52167600352E+02  0.21385460225E+03 -0.47608411541E+03  0.53198474442E+03  0.88861881119E+02 0.  0.
          3    1    3    3  502    0 -0.26479337582E+03 -0.26258112443E+03 -0.34848168941E+03  0.51039579410E+03  0.00000000000E+00 0. -1.
         -4    1    3    3    0  502 -0.13081763179E+03 -0.10938216105E+03 -0.23966724990E+03  0.29413959376E+03  0.00000000000E+00 0.  1.
         13    1    5    5    0    0  0.22716209287E+02  0.35610138336E+01  0.32299121307E+01  0.23219373727E+02  0.00000000000E+00 0. -1.
        -13    1    5    5    0    0  0.32072719797E+03  0.15454766940E+03  0.46362861499E+03  0.58455317147E+03  0.00000000000E+00 0.  1.
          2    1    6    6  503    0  0.54895596581E+02  0.57025017688E+02 -0.13354124304E+03  0.15523737552E+03  0.00000000000E+00 0. -1.
         -2    1    6    6    0  503 -0.27279962289E+01  0.15682958456E+03 -0.34254287237E+03  0.37674736890E+03  0.00000000000E+00 0.  1.
<mgrwt>
<rscale>  0 0.18502480E+04</rscale>
<asrwt>0</asrwt>
<pdfrwt beam="1">  1        1 0.10360909E+00 0.18502480E+04</pdfrwt>
<pdfrwt beam="2">  1       -2 0.19551286E+00 0.18502480E+04</pdfrwt>
<totfact> 0.33818613E+00</totfact>
</mgrwt>
</event>
<event>
12    5  0.5246737E-008  0.2176586E+04  0.7818608E-02  0.8528237E-01
          1   -1    0    0  501    0  0.00000000000E+00  0.00000000000E+00  0.11986671880E+04  0.11986671880E+04  0.00000000000E+00 0. -1.
         -2   -1    0    0    0  501 -0.00000000000E+00 -0.00000000000E+00 -0.98808258797E+03  0.98808258797E+03  0.00000000000E+00 0.  1.
        -24    2    1    2    0    0 -0.75573281759E+03 -0.48765688415E+03  0.11463195265E+03  0.91023087017E+03  0.80239791976E+02 0.  0.
        254    2    1    2    0    0  0.75573281759E+03  0.48765688415E+03  0.95952647405E+02  0.12765189058E+04  0.90075095235E+03 0.  0.
         23    2    4    4    0    0 -0.79315469225E+02  0.40928823293E+03  0.51660551374E+02  0.43148492559E+03  0.98501914544E+02 0.  0.
         23    2    4    4    0    0  0.83504828681E+03  0.78368651218E+02  0.44292096032E+02  0.84503398024E+03  0.93130828368E+02 0.  0.
          3    1    3    3  502    0 -0.19202995706E+02 -0.24120660425E+02 -0.67247521270E+01  0.31556038956E+02  0.00000000000E+00 0. -1.
         -4    1    3    3    0  502 -0.73652982188E+03 -0.46353622372E+03  0.12135670478E+03  0.87867483122E+03  0.00000000000E+00 0.  1.
         13    1    5    5    0    0 -0.22509001008E+02  0.31876933775E+03  0.20745535590E+02  0.32023573046E+03  0.00000000000E+00 0. -1.
        -13    1    5    5    0    0 -0.56806468217E+02  0.90518895175E+02  0.30915015784E+02  0.11124919513E+03  0.00000000000E+00 0.  1.
          1    1    6    6  503    0  0.67072784158E+03  0.27736883434E+02  0.48370225592E+02  0.67304149270E+03  0.00000000000E+00 0. -1.
         -1    1    6    6    0  503  0.16432044523E+03  0.50631767784E+02 -0.40781295602E+01  0.17199248754E+03  0.00000000000E+00 0.  1.
<mgrwt>
<rscale>  0 0.21765865E+04</rscale>
<asrwt>0</asrwt>
<pdfrwt beam="1">  1        1 0.18441034E+00 0.21765865E+04</pdfrwt>
<pdfrwt beam="2">  1       -2 0.15201271E+00 0.21765865E+04</pdfrwt>
<totfact> 0.24821788E+00</totfact>
</mgrwt>
</event>
<event>
12    5  0.5246737E-008  0.2484394E+04  0.7818608E-02  0.8408567E-01
          1   -1    0    0  501    0  0.00000000000E+00  0.00000000000E+00  0.28246373107E+04  0.28246373107E+04  0.00000000000E+00 0. -1.
         -2   -1    0    0    0  501 -0.00000000000E+00 -0.00000000000E+00 -0.54628352181E+03  0.54628352181E+03  0.00000000000E+00 0.  1.
        -24    2    1    2    0    0  0.20760231564E+03  0.70959359442E+03 -0.73029336514E+02  0.74726874381E+03  0.80346131110E+02 0.  0.
        254    2    1    2    0    0 -0.20760231564E+03 -0.70959359442E+03  0.23513831254E+04  0.26236520887E+04  0.89884697772E+03 0.  0.
         23    2    4    4    0    0  0.14206053613E+03 -0.12936533341E+03  0.15703106161E+04  0.15850210108E+04  0.97465829840E+02 0.  0.
         23    2    4    4    0    0 -0.34966285177E+03 -0.58022826101E+03  0.78107250926E+03  0.10386310779E+04  0.98748703922E+02 0.  0.
          3    1    3    3  502    0  0.17144872152E+02  0.12967457042E+02 -0.24429995107E+01  0.21634921536E+02  0.00000000000E+00 0. -1.
         -4    1    3    3    0  502  0.19045744349E+03  0.69662613738E+03 -0.70586337003E+02  0.72563382228E+03  0.00000000000E+00 0.  1.
         13    1    5    5    0    0  0.11591586864E+03 -0.71632333501E+02  0.13116608210E+04  0.13187197538E+04  0.00000000000E+00 0. -1.
        -13    1    5    5    0    0  0.26144667486E+02 -0.57732999909E+02  0.25864979516E+03  0.26630125695E+03  0.00000000000E+00 0.  1.
          1    1    6    6  503    0 -0.80464602074E+02 -0.21860575815E+03  0.29075351523E+03  0.37255957417E+03  0.00000000000E+00 0. -1.
         -1    1    6    6    0  503 -0.26919824969E+03 -0.36162250286E+03  0.49031899403E+03  0.66607150376E+03  0.00000000000E+00 0.  1.
<mgrwt>
<rscale>  0 0.24843935E+04</rscale>
<asrwt>0</asrwt>
<pdfrwt beam="1">  1        1 0.43455958E+00 0.24843935E+04</pdfrwt>
<pdfrwt beam="2">  1       -2 0.84043620E-01 0.24843935E+04</pdfrwt>
<totfact> 0.77382912E-01</totfact>
</mgrwt>
</event>
<event>
12    5  0.5246737E-008  0.1102514E+04  0.7818608E-02  0.9202745E-01
          1   -1    0    0  501    0  0.00000000000E+00  0.00000000000E+00  0.26735676713E+04  0.26735676713E+04  0.00000000000E+00 0. -1.
         -2   -1    0    0    0  501 -0.00000000000E+00 -0.00000000000E+00 -0.11366254864E+03  0.11366254864E+03  0.00000000000E+00 0.  1.
        -24    2    1    2    0    0 -0.10145603848E+03  0.19889154655E+02  0.13726685082E+04  0.13803491222E+04  0.10225438588E+03 0.  0.
        254    2    1    2    0    0  0.10145603848E+03 -0.19889154655E+02  0.11872366144E+04  0.14068810978E+04  0.74772637932E+03 0.  0.
         23    2    4    4    0    0 -0.15893849683E+03 -0.15633041488E+03  0.10352385288E+04  0.10628845100E+04  0.91126427489E+02 0.  0.
         23    2    4    4    0    0  0.26039453531E+03  0.13644126023E+03  0.15199808564E+03  0.34399658771E+03  0.93854689853E+02 0.  0.
          3    1    3    3  502    0 -0.34111416651E+02 -0.23490616960E+02  0.89907593775E+03  0.90002941044E+03  0.00000000000E+00 0. -1.
         -2    1    3    3    0  502 -0.67344621829E+02  0.43379771615E+02  0.47359257047E+03  0.48031971173E+03  0.00000000000E+00 0.  1.
         13    1    5    5    0    0 -0.93388823900E+02 -0.91579834294E+02  0.39606206490E+03  0.41710130392E+03  0.00000000000E+00 0. -1.
        -13    1    5    5    0    0 -0.65549672928E+02 -0.64750580590E+02  0.63917646391E+03  0.64578320613E+03  0.00000000000E+00 0.  1.
          1    1    6    6  503    0  0.48643073541E+02  0.44757625615E+02  0.76745136243E+02  0.10128775637E+03  0.00000000000E+00 0. -1.
         -1    1    6    6    0  503  0.21175146177E+03  0.91683634614E+02  0.75252949400E+02  0.24270883134E+03  0.00000000000E+00 0.  1.
<mgrwt>
<rscale>  0 0.11025144E+04</rscale>
<asrwt>0</asrwt>
<pdfrwt beam="1">  1        1 0.41131805E+00 0.11025144E+04</pdfrwt>
<pdfrwt beam="2">  1       -2 0.17486548E-01 0.11025144E+04</pdfrwt>
<totfact> 0.24483179E+01</totfact>
</mgrwt>
</event>
<event>
12    5  0.5246737E-008  0.1895345E+04  0.7818608E-02  0.8657177E-01
         -2   -1    0    0    0  501 -0.00000000000E+00  0.00000000000E+00  0.13286602955E+04  0.13286602955E+04  0.00000000000E+00 0.  1.
          1   -1    0    0  501    0  0.00000000000E+00 -0.00000000000E+00 -0.67593163992E+03  0.67593163992E+03  0.00000000000E+00 0. -1.
        -24    2    1    2    0    0  0.44174287143E+03  0.51937909114E+03 -0.15899413887E+02  0.68659858520E+03  0.79204930782E+02 0.  0.
        254    2    1    2    0    0 -0.44174287143E+03 -0.51937909114E+03  0.66862806949E+03  0.13179933503E+04  0.90837853961E+03 0.  0.
         23    2    4    4    0    0 -0.12689582477E+03  0.16108647780E+03 -0.97486525228E+02  0.24212360352E+03  0.84076233892E+02 0.  0.
         23    2    4    4    0    0 -0.31484704666E+03 -0.68046556894E+03  0.76611459472E+03  0.10758697467E+04  0.91662895397E+02 0.  0.
          3    1    3    3  502    0  0.75356390270E+02  0.57254336081E+02 -0.20508979147E+02  0.96836267897E+02  0.00000000000E+00 0. -1.
         -4    1    3    3    0  502  0.36638648116E+03  0.46212475506E+03  0.46095652595E+01  0.58976231730E+03  0.00000000000E+00 0.  1.
         13    1    5    5    0    0 -0.11521646789E+03  0.11533498985E+03 -0.40242654178E+02  0.16791803230E+03  0.00000000000E+00 0. -1.
        -13    1    5    5    0    0 -0.11679356877E+02  0.45751487957E+02 -0.57243871050E+02  0.74205571220E+02  0.00000000000E+00 0.  1.
          3    1    6    6  503    0 -0.22233211744E+03 -0.56175870554E+03  0.59437972240E+03  0.84752089537E+03  0.00000000000E+00 0. -1.
         -3    1    6    6    0  503 -0.92514929229E+02 -0.11870686341E+03  0.17173487232E+03  0.22834885137E+03  0.00000000000E+00 0.  1.
<mgrwt>
<rscale>  0 0.18953454E+04</rscale>
<asrwt>0</asrwt>
<pdfrwt beam="1">  1        1 0.10398948E+00 0.18953454E+04</pdfrwt>
<pdfrwt beam="2">  1       -2 0.20440928E+00 0.18953454E+04</pdfrwt>
<totfact> 0.29286407E+00</totfact>
</mgrwt>
</event>
<event>
12    5  0.5246737E-008  0.1163165E+04  0.7818608E-02  0.9145724E-01
          1   -1    0    0  501    0  0.00000000000E+00  0.00000000000E+00  0.11466016904E+04  0.11466016904E+04  0.00000000000E+00 0. -1.
         -2   -1    0    0    0  501 -0.00000000000E+00 -0.00000000000E+00 -0.29499186294E+03  0.29499186294E+03  0.00000000000E+00 0.  1.
        -24    2    1    2    0    0  0.26600596916E+02 -0.14438053380E+03 -0.30900786378E+02  0.16973958341E+03  0.79393559452E+02 0.  0.
        254    2    1    2    0    0 -0.26600596916E+02  0.14438053380E+03  0.88251061381E+03  0.12718539699E+04  0.90401007017E+03 0.  0.
         23    2    4    4    0    0 -0.56200235127E+02  0.81044704750E+02  0.10558113635E+04  0.10643184127E+04  0.91155568393E+02 0.  0.
         23    2    4    4    0    0  0.29599638211E+02  0.63335829050E+02 -0.17330074967E+03  0.20753555725E+03  0.90278966877E+02 0.  0.
          1    1    3    3  502    0 -0.21685575186E+02 -0.34494136670E+02 -0.28437295381E+02  0.49686913814E+02  0.00000000000E+00 0. -1.
         -2    1    3    3    0  502  0.48286172102E+02 -0.10988639713E+03 -0.24634909971E+01  0.12005266960E+03  0.00000000000E+00 0.  1.
         13    1    5    5    0    0 -0.85820270547E+01 -0.19731302505E+02  0.12252792330E+03  0.12440284352E+03  0.00000000000E+00 0.  1.
        -13    1    5    5    0    0 -0.47618208072E+02  0.10077600725E+03  0.93328344018E+03  0.93991556913E+03  0.00000000000E+00 0. -1.
          2    1    6    6  503    0  0.50756819425E+02  0.38837866380E+02 -0.53220041677E+02  0.83168548257E+02  0.00000000000E+00 0.  1.
         -2    1    6    6    0  503 -0.21157181214E+02  0.24497962670E+02 -0.12008070800E+03  0.12436700899E+03  0.00000000000E+00 0. -1.
<mgrwt>
<rscale>  0 0.11631649E+04</rscale>
<asrwt>0</asrwt>
<pdfrwt beam="1">  1        1 0.17640026E+00 0.11631649E+04</pdfrwt>
<pdfrwt beam="2">  1       -2 0.45383364E-01 0.11631649E+04</pdfrwt>
<totfact> 0.46865127E+01</totfact>
</mgrwt>
</event>
<event>
12    5  0.5246737E-008  0.2470275E+04  0.7818608E-02  0.8413652E-01
         -2   -1    0    0    0  501 -0.00000000000E+00  0.00000000000E+00  0.14231197491E+04  0.14231197491E+04  0.00000000000E+00 0.  1.
          1   -1    0    0  501    0  0.00000000000E+00 -0.00000000000E+00 -0.10719861159E+04  0.10719861159E+04  0.00000000000E+00 0. -1.
        -24    2    1    2    0    0  0.93592672318E+03  0.50373100065E+03  0.28959507800E+03  0.11045420103E+04  0.80274474350E+02 0.  0.
        254    2    1    2    0    0 -0.93592672318E+03 -0.50373100065E+03  0.61538555209E+02  0.13905638547E+04  0.89452618072E+03 0.  0.
         23    2    4    4    0    0 -0.10778232468E+04 -0.38215381199E+03  0.16512976337E+03  0.11584671505E+04  0.83867828531E+02 0.  0.
         23    2    4    4    0    0  0.14189652367E+03 -0.12157718865E+03 -0.10359120816E+03  0.23209670414E+03  0.90675826065E+02 0.  0.
          1    1    3    3  502    0  0.29236081592E+03  0.13833478514E+03  0.12244836647E+03  0.34583950312E+03  0.00000000000E+00 0. -1.
         -2    1    3    3    0  502  0.64356590725E+03  0.36539621550E+03  0.16714671153E+03  0.75870250722E+03  0.00000000000E+00 0.  1.
         13    1    5    5    0    0 -0.10036226768E+04 -0.34681479257E+03  0.13270782077E+03  0.10701169765E+04  0.00000000000E+00 0.  1.
        -13    1    5    5    0    0 -0.74200570089E+02 -0.35339019427E+02  0.32421942592E+02  0.88350174064E+02  0.00000000000E+00 0. -1.
          1    1    6    6  503    0  0.28338195076E+02 -0.83083475390E+02 -0.44772968677E+02  0.98542051466E+02  0.00000000000E+00 0. -1.
         -1    1    6    6    0  503  0.11355832860E+03 -0.38493713263E+02 -0.58818239480E+02  0.13355465267E+03  0.00000000000E+00 0.  1.
<mgrwt>
<rscale>  0 0.24702750E+04</rscale>
<asrwt>0</asrwt>
<pdfrwt beam="1">  1        1 0.16492094E+00 0.24702750E+04</pdfrwt>
<pdfrwt beam="2">  1       -2 0.21894150E+00 0.24702750E+04</pdfrwt>
<totfact> 0.10440035E+00</totfact>
</mgrwt>
</event>
<event>
12    5  0.5246737E-008  0.2181122E+04  0.7818608E-02  0.8526327E-01
          1   -1    0    0  501    0  0.00000000000E+00  0.00000000000E+00  0.19298079155E+04  0.19298079155E+04  0.00000000000E+00 0. -1.
         -2   -1    0    0    0  501 -0.00000000000E+00 -0.00000000000E+00 -0.61629074379E+03  0.61629074379E+03  0.00000000000E+00 0.  1.
        -24    2    1    2    0    0 -0.64814065924E+03  0.62855297753E+03  0.61563739099E+03  0.10955802748E+04  0.78240537630E+02 0.  0.
        254    2    1    2    0    0  0.64814065924E+03 -0.62855297753E+03  0.69787978071E+03  0.14505183844E+04  0.89543410451E+03 0.  0.
         23    2    4    4    0    0  0.83686335821E+03 -0.34171915508E+03  0.42899076538E+03  0.10047742291E+04  0.91792773943E+02 0.  0.
         23    2    4    4    0    0 -0.18872269897E+03 -0.28683382245E+03  0.26888901533E+03  0.44574415536E+03  0.92177278462E+02 0.  0.
          3    1    3    3  502    0 -0.55867571791E+03  0.52362926388E+03  0.49022394880E+03  0.90918957525E+03  0.00000000000E+00 0. -1.
         -4    1    3    3    0  502 -0.89464941332E+02  0.10492371365E+03  0.12541344219E+03  0.18639069959E+03  0.00000000000E+00 0.  1.
         13    1    5    5    0    0  0.98148021732E+02 -0.71291512994E+02  0.70222454367E+02  0.14016671178E+03  0.00000000000E+00 0.  1.
        -13    1    5    5    0    0  0.73871533648E+03 -0.27042764209E+03  0.35876831102E+03  0.86460751728E+03  0.00000000000E+00 0. -1.
          1    1    6    6  503    0 -0.19507344243E+03 -0.25811993812E+03  0.22988584895E+03  0.39689677996E+03  0.00000000000E+00 0. -1.
         -1    1    6    6    0  503  0.63507434544E+01 -0.28713884325E+02  0.39003166384E+02  0.48847375400E+02  0.00000000000E+00 0.  1.
<mgrwt>
<rscale>  0 0.21811215E+04</rscale>
<asrwt>0</asrwt>
<pdfrwt beam="1">  1        1 0.29689352E+00 0.21811215E+04</pdfrwt>
<pdfrwt beam="2">  1       -2 0.94813962E-01 0.21811215E+04</pdfrwt>
<totfact> 0.24974381E+00</totfact>
</mgrwt>
</event>
<event>
12    5  0.5246737E-008  0.1665242E+04  0.7818608E-02  0.8781440E-01
          1   -1    0    0  501    0  0.00000000000E+00  0.00000000000E+00  0.19435220195E+04  0.19435220195E+04  0.00000000000E+00 0. -1.
         -2   -1    0    0    0  501 -0.00000000000E+00 -0.00000000000E+00 -0.35670193294E+03  0.35670193294E+03  0.00000000000E+00 0.  1.
        -24    2    1    2    0    0 -0.46570539999E+03 -0.34320134176E+02  0.73090422257E+02  0.47833664164E+03  0.73514228011E+02 0.  0.
        254    2    1    2    0    0  0.46570539999E+03  0.34320134176E+02  0.15137296644E+04  0.18218873108E+04  0.89990915402E+03 0.  0.
         23    2    4    4    0    0  0.62112538526E+03 -0.18435235373E+03  0.69115215440E+03  0.95105118373E+03  0.83812403593E+02 0.  0.
         23    2    4    4    0    0 -0.15541998527E+03  0.21867248790E+03  0.82257750995E+03  0.87083612711E+03  0.98735867980E+02 0.  0.
          3    1    3    3  502    0 -0.11474543735E+03  0.20942621039E+02  0.61634098538E+01  0.11680366599E+03  0.00000000000E+00 0. -1.
         -4    1    3    3    0  502 -0.35095996264E+03 -0.55262755215E+02  0.66927012403E+02  0.36153297564E+03  0.00000000000E+00 0.  1.
         13    1    5    5    0    0  0.50187503647E+03 -0.11888714370E+03  0.51974798304E+03  0.73222310196E+03  0.00000000000E+00 0. -1.
        -13    1    5    5    0    0  0.11925034879E+03 -0.65465210023E+02  0.17140417136E+03  0.21882808177E+03  0.00000000000E+00 0.  1.
          2    1    6    6  503    0 -0.75337852056E+02  0.63320990847E+02  0.42986861360E+03  0.44099020941E+03  0.00000000000E+00 0. -1.
         -2    1    6    6    0  503 -0.80082133219E+02  0.15535149706E+03  0.39270889635E+03  0.42984591770E+03  0.00000000000E+00 0.  1.
<mgrwt>
<rscale>  0 0.16652424E+04</rscale>
<asrwt>0</asrwt>
<pdfrwt beam="1">  1        1 0.29900338E+00 0.16652424E+04</pdfrwt>
<pdfrwt beam="2">  1       -2 0.54877221E-01 0.16652424E+04</pdfrwt>
<totfact> 0.85206604E+00</totfact>
</mgrwt>
</event>
<event>
12    5  0.5246737E-008  0.2375958E+04  0.7818608E-02  0.8448560E-01
          1   -1    0    0  501    0  0.00000000000E+00  0.00000000000E+00  0.81154472205E+03  0.81154472205E+03  0.00000000000E+00 0. -1.
         -2   -1    0    0    0  501 -0.00000000000E+00 -0.00000000000E+00 -0.17390213491E+04  0.17390213491E+04  0.00000000000E+00 0.  1.
        -24    2    1    2    0    0 -0.79427462206E+03 -0.86249386772E+02  0.27563011206E+03  0.84879503503E+03  0.78548843755E+02 0.  0.
        254    2    1    2    0    0  0.79427462206E+03  0.86249386772E+02 -0.12031067391E+04  0.17017710361E+04  0.90013760155E+03 0.  0.
         23    2    4    4    0    0  0.15346795795E+03 -0.34113843297E+03 -0.20125780022E+03  0.43471135735E+03  0.92419789499E+02 0.  0.
         23    2    4    4    0    0  0.64080666411E+03  0.42738781974E+03 -0.10018489389E+04  0.12670596787E+04  0.91898879177E+02 0.  0.
          1    1    3    3  502    0 -0.27344374434E+03 -0.54613894730E+00  0.11895586799E+03  0.29819838717E+03  0.00000000000E+00 0. -1.
         -2    1    3    3    0  502 -0.52083087772E+03 -0.85703247825E+02  0.15667424407E+03  0.55059664786E+03  0.00000000000E+00 0.  1.
         13    1    5    5    0    0  0.15172079509E+03 -0.26897428930E+03 -0.13612707877E+03  0.33748622126E+03  0.00000000000E+00 0.  1.
        -13    1    5    5    0    0  0.17471628515E+01 -0.72164143670E+02 -0.65130721450E+02  0.97225136083E+02  0.00000000000E+00 0. -1.
          3    1    6    6  503    0  0.21410923639E+03  0.94576198698E+02 -0.28167584663E+03  0.36623585985E+03  0.00000000000E+00 0. -1.
         -3    1    6    6    0  503  0.42669742773E+03  0.33281162104E+03 -0.72017309223E+03  0.90082381890E+03  0.00000000000E+00 0.  1.
<mgrwt>
<rscale>  0 0.23759576E+04</rscale>
<asrwt>0</asrwt>
<pdfrwt beam="1">  1        1 0.12485304E+00 0.23759576E+04</pdfrwt>
<pdfrwt beam="2">  1       -2 0.26754174E+00 0.23759576E+04</pdfrwt>
<totfact> 0.85326268E-01</totfact>
</mgrwt>
</event>
<event>
12    5  0.5246737E-008  0.1430064E+04  0.7818608E-02  0.8932340E-01
         -2   -1    0    0    0  501 -0.00000000000E+00  0.00000000000E+00  0.33632743044E+03  0.33632743044E+03  0.00000000000E+00 0.  1.
          1   -1    0    0  501    0  0.00000000000E+00 -0.00000000000E+00 -0.15201573036E+04  0.15201573036E+04  0.00000000000E+00 0. -1.
        -24    2    1    2    0    0  0.17481571639E+03  0.29796805543E+03 -0.39977003362E+02  0.35833983456E+03  0.86393167989E+02 0.  0.
        254    2    1    2    0    0 -0.17481571639E+03 -0.29796805543E+03 -0.11438528698E+04  0.14981448995E+04  0.90371082506E+03 0.  0.
         23    2    4    4    0    0 -0.31170729624E+03 -0.24792286006E+03 -0.75697831555E+02  0.41624446998E+03  0.94351014931E+02 0.  0.
         23    2    4    4    0    0  0.13689157984E+03 -0.50045195372E+02 -0.10681550382E+04  0.10819004295E+04  0.91156609277E+02 0.  0.
          1    1    3    3  502    0  0.10440889113E+03  0.16962790810E+03 -0.65641804295E+02  0.20972288913E+03  0.00000000000E+00 0. -1.
         -2    1    3    3    0  502  0.70406825260E+02  0.12834014734E+03  0.25664800933E+02  0.14861694543E+03  0.00000000000E+00 0.  1.
         13    1    5    5    0    0 -0.31204582424E+03 -0.22997983736E+03 -0.83737850721E+02  0.39657956284E+03  0.00000000000E+00 0. -1.
        -13    1    5    5    0    0  0.33852799826E+00 -0.17943022699E+02  0.80400191663E+01  0.19664907144E+02  0.00000000000E+00 0.  1.
          3    1    6    6  503    0  0.78693156666E+02  0.18064794846E+02 -0.43370254715E+03  0.44115399706E+03  0.00000000000E+00 0. -1.
         -3    1    6    6    0  503  0.58198423179E+02 -0.68109990218E+02 -0.63445249108E+03  0.64074643243E+03  0.00000000000E+00 0.  1.
<mgrwt>
<rscale>  0 0.14300638E+04</rscale>
<asrwt>0</asrwt>
<pdfrwt beam="1">  1        1 0.23387036E+00 0.14300638E+04</pdfrwt>
<pdfrwt beam="2">  1       -2 0.51742681E-01 0.14300638E+04</pdfrwt>
<totfact> 0.19073665E+01</totfact>
</mgrwt>
</event>
<event>
12    5  0.5246737E-008  0.2193302E+04  0.7818608E-02  0.8521221E-01
          1   -1    0    0  501    0  0.00000000000E+00  0.00000000000E+00  0.33651658025E+04  0.33651658025E+04  0.00000000000E+00 0. -1.
         -2   -1    0    0    0  501 -0.00000000000E+00 -0.00000000000E+00 -0.35738025606E+03  0.35738025606E+03  0.00000000000E+00 0.  1.
        -24    2    1    2    0    0  0.28950208780E+03 -0.62006792202E+02 -0.20749065877E+03  0.37021851161E+03  0.79706158745E+02 0.  0.
        254    2    1    2    0    0 -0.28950208780E+03  0.62006792202E+02  0.32152762052E+04  0.33523275469E+04  0.90135598137E+03 0.  0.
         23    2    4    4    0    0 -0.94200484570E+02 -0.23478129452E+03  0.26047500670E+03  0.37485138873E+03  0.93114697903E+02 0.  0.
         23    2    4    4    0    0 -0.19530160323E+03  0.29678808672E+03  0.29548011985E+04  0.29774761582E+04  0.91039911277E+02 0.  0.
          1    1    3    3  502    0  0.23528632665E+02 -0.29155819732E+02 -0.36593589838E+02  0.52371263079E+02  0.00000000000E+00 0. -1.
         -2    1    3    3    0  502  0.26597345514E+03 -0.32850972470E+02 -0.17089706893E+03  0.31784724853E+03  0.00000000000E+00 0.  1.
         13    1    5    5    0    0 -0.14637367465E+02 -0.15837247601E+03  0.14652339066E+03  0.21625262471E+03  0.00000000000E+00 0. -1.
        -13    1    5    5    0    0 -0.79563117105E+02 -0.76408818513E+02  0.11395161604E+03  0.15859876402E+03  0.00000000000E+00 0.  1.
          1    1    6    6  503    0 -0.11884600057E+03  0.24706169802E+03  0.23241091597E+04  0.23402237586E+04  0.00000000000E+00 0.  1.
         -1    1    6    6    0  503 -0.76455602661E+02  0.49726388700E+02  0.63069203881E+03  0.63725239955E+03  0.00000000000E+00 0. -1.
<mgrwt>
<rscale>  0 0.21933024E+04</rscale>
<asrwt>0</asrwt>
<pdfrwt beam="1">  1        1 0.51771779E+00 0.21933024E+04</pdfrwt>
<pdfrwt beam="2">  1       -2 0.54981580E-01 0.21933024E+04</pdfrwt>
<totfact> 0.79573437E-01</totfact>
</mgrwt>
</event>
<event>
12    5  0.5246737E-008  0.1379838E+04  0.7818608E-02  0.8968543E-01
         -2   -1    0    0    0  501 -0.00000000000E+00  0.00000000000E+00  0.68273614941E+03  0.68273614941E+03  0.00000000000E+00 0.  1.
          1   -1    0    0  501    0  0.00000000000E+00 -0.00000000000E+00 -0.69717771360E+03  0.69717771360E+03  0.00000000000E+00 0. -1.
        -24    2    1    2    0    0 -0.37364447919E+03 -0.69987595239E+02 -0.12572618356E+03  0.40798372501E+03  0.78327430217E+02 0.  0.
        254    2    1    2    0    0  0.37364447919E+03  0.69987595239E+02  0.11128461936E+03  0.97193013800E+03  0.88755589476E+03 0.  0.
         23    2    4    4    0    0  0.59943741612E+03  0.10823724432E+03  0.27579168593E+03  0.67518046803E+03  0.93632758521E+02 0.  0.
         23    2    4    4    0    0 -0.22579293693E+03 -0.38249649076E+02 -0.16450706657E+03  0.29674966997E+03  0.92478676756E+02 0.  0.
          1    1    3    3  502    0 -0.23377009703E+03 -0.69934353187E+02 -0.50551953595E+02  0.24918822612E+03  0.00000000000E+00 0. -1.
         -2    1    3    3    0  502 -0.13987438216E+03 -0.53242052877E-01 -0.75174229964E+02  0.15879549890E+03  0.00000000000E+00 0.  1.
         13    1    5    5    0    0  0.60117958613E+03  0.11245911138E+03  0.27259588338E+03  0.66960619931E+03  0.00000000000E+00 0.  1.
        -13    1    5    5    0    0 -0.17421700060E+01 -0.42218670638E+01  0.31958025480E+01  0.55742687197E+01  0.00000000000E+00 0. -1.
          3    1    6    6  503    0 -0.48540039597E+02 -0.29282552921E+02 -0.85248995707E+02  0.10237672889E+03  0.00000000000E+00 0. -1.
         -3    1    6    6    0  503 -0.17725289733E+03 -0.89670961553E+01 -0.79258070860E+02  0.19437294108E+03  0.00000000000E+00 0.  1.
<mgrwt>
<rscale>  0 0.13798383E+04</rscale>
<asrwt>0</asrwt>
<pdfrwt beam="1">  1        1 0.10725811E+00 0.13798383E+04</pdfrwt>
<pdfrwt beam="2">  1       -2 0.10503633E+00 0.13798383E+04</pdfrwt>
<totfact> 0.17216393E+01</totfact>
</mgrwt>
</event>
<event>
12    5  0.5246737E-008  0.1089069E+04  0.7818608E-02  0.9215912E-01
         -2   -1    0    0    0  501 -0.00000000000E+00  0.00000000000E+00  0.88317649760E+02  0.88317649760E+02  0.00000000000E+00 0.  1.
          1   -1    0    0  501    0  0.00000000000E+00 -0.00000000000E+00 -0.33574028909E+04  0.33574028909E+04  0.00000000000E+00 0. -1.
        -24    2    1    2    0    0 -0.20267062887E+02  0.14704017927E+03 -0.40082867093E+03  0.43700003984E+03  0.90960668519E+02 0.  0.
        254    2    1    2    0    0  0.20267062887E+02 -0.14704017927E+03 -0.28682565703E+04  0.30087205009E+04  0.89636584685E+03 0.  0.
         23    2    4    4    0    0  0.90084574712E+02  0.20106237630E+02 -0.27875638739E+04  0.27906383066E+04  0.92899495153E+02 0.  0.
         23    2    4    4    0    0 -0.69817511825E+02 -0.16714641690E+03 -0.80692696393E+02  0.21808219424E+03  0.90753085638E+02 0.  0.
          1    1    3    3  502    0 -0.12997483371E+02 -0.10242556183E+02 -0.34257005875E+02  0.38044539459E+02  0.00000000000E+00 0. -1.
         -2    1    3    3    0  502 -0.72695795159E+01  0.15728273545E+03 -0.36657166506E+03  0.39895550038E+03  0.00000000000E+00 0.  1.
         13    1    5    5    0    0  0.70867528927E+02  0.16984296119E+02 -0.26979469305E+04  0.26989309574E+04  0.00000000000E+00 0. -1.
        -13    1    5    5    0    0  0.19217045784E+02  0.31219415105E+01 -0.89616943341E+02  0.91707349221E+02  0.00000000000E+00 0.  1.
          2    1    6    6  503    0 -0.70322641378E+02 -0.14197573868E+03 -0.29677156718E+02  0.16119279728E+03  0.00000000000E+00 0. -1.
         -2    1    6    6    0  503  0.50512955307E+00 -0.25170678219E+02 -0.51015539675E+02  0.56889396958E+02  0.00000000000E+00 0.  1.
<mgrwt>
<rscale>  0 0.10890692E+04</rscale>
<asrwt>0</asrwt>
<pdfrwt beam="1">  1        1 0.51652357E+00 0.10890692E+04</pdfrwt>
<pdfrwt beam="2">  1       -2 0.13587330E-01 0.10890692E+04</pdfrwt>
<totfact> 0.12025362E+01</totfact>
</mgrwt>
</event>
<event>
12    5  0.5246737E-008  0.1632982E+04  0.7818608E-02  0.8800539E-01
         -2   -1    0    0    0  501 -0.00000000000E+00  0.00000000000E+00  0.33164561479E+03  0.33164561479E+03  0.00000000000E+00 0.  1.
          1   -1    0    0  501    0  0.00000000000E+00 -0.00000000000E+00 -0.20101491371E+04  0.20101491371E+04  0.00000000000E+00 0. -1.
        -24    2    1    2    0    0 -0.13754595302E+03  0.54471461740E+03 -0.59693094994E+03  0.82373806503E+03  0.81147625874E+02 0.  0.
        254    2    1    2    0    0  0.13754595302E+03 -0.54471461740E+03 -0.10815725724E+04  0.15180566869E+04  0.90502153103E+03 0.  0.
         23    2    4    4    0    0 -0.17525413351E+03 -0.65119878243E+03 -0.90578815570E+03  0.11328022581E+04  0.89526014841E+02 0.  0.
         23    2    4    4    0    0  0.31280008653E+03  0.10648416503E+03 -0.17578441667E+03  0.38525442880E+03  0.91312880952E+02 0.  0.
          1    1    3    3  502    0 -0.46178328555E+02  0.29549841973E+03 -0.35911213297E+03  0.46734706390E+03  0.00000000000E+00 0. -1.
         -2    1    3    3    0  502 -0.91367624468E+02  0.24921619767E+03 -0.23781881697E+03  0.35639100113E+03  0.00000000000E+00 0.  1.
         13    1    5    5    0    0 -0.12140268023E+03 -0.51148190065E+03 -0.75770831027E+03  0.92221159660E+03  0.00000000000E+00 0. -1.
        -13    1    5    5    0    0 -0.53851453277E+02 -0.13971688178E+03 -0.14807984543E+03  0.21059066147E+03  0.00000000000E+00 0.  1.
          3    1    6    6  503    0  0.29549019047E+03  0.71879578735E+02 -0.15485646865E+03  0.34126478339E+03  0.00000000000E+00 0. -1.
         -3    1    6    6    0  503  0.17309896064E+02  0.34604586296E+02 -0.20927948027E+02  0.43989645408E+02  0.00000000000E+00 0.  1.
<mgrwt>
<rscale>  0 0.16329815E+04</rscale>
<asrwt>0</asrwt>
<pdfrwt beam="1">  1        1 0.30925372E+00 0.16329815E+04</pdfrwt>
<pdfrwt beam="2">  1       -2 0.51022402E-01 0.16329815E+04</pdfrwt>
<totfact> 0.89502410E+00</totfact>
</mgrwt>
</event>
<event>
12    5  0.5246737E-008  0.2694853E+04  0.7818608E-02  0.8336677E-01
         -2   -1    0    0    0  501 -0.00000000000E+00  0.00000000000E+00  0.12584006075E+04  0.12584006075E+04  0.00000000000E+00 0.  1.
          1   -1    0    0  501    0  0.00000000000E+00 -0.00000000000E+00 -0.14427501027E+04  0.14427501027E+04  0.00000000000E+00 0. -1.
        -24    2    1    2    0    0  0.12520925848E+03 -0.60853672595E+03 -0.11169872662E+04  0.12807603521E+04  0.81805998602E+02 0.  0.
        254    2    1    2    0    0 -0.12520925848E+03  0.60853672595E+03  0.93263777090E+03  0.14203903581E+04  0.87275497853E+03 0.  0.
         23    2    4    4    0    0 -0.46070007942E+03  0.15982838390E+03  0.35313771692E+03  0.60859176668E+03  0.88814502644E+02 0.  0.
         23    2    4    4    0    0  0.33549082094E+03  0.44870834206E+03  0.57950005397E+03  0.81179859146E+03  0.96453996159E+02 0.  0.
          3    1    3    3  502    0  0.92206588973E+02 -0.33355865937E+03 -0.55135680707E+03  0.65096679101E+03  0.00000000000E+00 0. -1.
         -4    1    3    3    0  502  0.33002669505E+02 -0.27497806658E+03 -0.56563045908E+03  0.62979356105E+03  0.00000000000E+00 0.  1.
         13    1    5    5    0    0 -0.40467735164E+03  0.16214267186E+03  0.28726773772E+03  0.52208884120E+03  0.00000000000E+00 0. -1.
        -13    1    5    5    0    0 -0.56022727778E+02 -0.23142879626E+01  0.65869979203E+02  0.86502925480E+02  0.00000000000E+00 0.  1.
          1    1    6    6  503    0  0.15586400478E+03  0.16353111400E+03  0.28919696467E+03  0.36697533651E+03  0.00000000000E+00 0. -1.
         -1    1    6    6    0  503  0.17962681616E+03  0.28517722805E+03  0.29030308930E+03  0.44482325495E+03  0.00000000000E+00 0.  1.
<mgrwt>
<rscale>  0 0.26948526E+04</rscale>
<asrwt>0</asrwt>
<pdfrwt beam="1">  1        1 0.22196156E+00 0.26948526E+04</pdfrwt>
<pdfrwt beam="2">  1       -2 0.19360009E+00 0.26948526E+04</pdfrwt>
<totfact> 0.80651254E-01</totfact>
</mgrwt>
</event>
<event>
12    5  0.5246737E-008  0.1824825E+04  0.7818608E-02  0.8693208E-01
         -2   -1    0    0    0  501 -0.00000000000E+00  0.00000000000E+00  0.55523737385E+03  0.55523737385E+03  0.00000000000E+00 0.  1.
          1   -1    0    0  501    0  0.00000000000E+00 -0.00000000000E+00 -0.14993517373E+04  0.14993517373E+04  0.00000000000E+00 0. -1.
        -24    2    1    2    0    0 -0.41411849756E+02  0.32981913134E+03  0.31976599801E+03  0.46808153128E+03  0.79714652029E+02 0.  0.
        254    2    1    2    0    0  0.41411849756E+02 -0.32981913134E+03 -0.12638803615E+04  0.15865075799E+04  0.89950938417E+03 0.  0.
         23    2    4    4    0    0  0.17889758173E+02 -0.60834687108E+03 -0.10715691907E+04  0.12355511911E+04  0.88995823388E+02 0.  0.
         23    2    4    4    0    0  0.23522091584E+02  0.27852773974E+03 -0.19231117083E+03  0.35095638875E+03  0.89754163031E+02 0.  0.
          1    1    3    3  502    0  0.66514018094E+01 -0.16801329070E+01  0.59870589349E+01  0.91054306491E+01  0.00000000000E+00 0. -1.
         -2    1    3    3    0  502 -0.48063251566E+02  0.33149926425E+03  0.31377893907E+03  0.45897610064E+03  0.00000000000E+00 0.  1.
         13    1    5    5    0    0 -0.69278390729E+01 -0.49047849463E+03 -0.91289255683E+03  0.10363348730E+04  0.00000000000E+00 0.  1.
        -13    1    5    5    0    0  0.24817597246E+02 -0.11786837644E+03 -0.15867663383E+03  0.19921631816E+03  0.00000000000E+00 0. -1.
          4    1    6    6  503    0 -0.27957297633E+02  0.58446190425E+02 -0.63923215812E+02  0.91015082189E+02  0.00000000000E+00 0. -1.
         -4    1    6    6    0  503  0.51479389217E+02  0.22008154931E+03 -0.12838795502E+03  0.25994130656E+03  0.00000000000E+00 0.  1.
<mgrwt>
<rscale>  0 0.18248245E+04</rscale>
<asrwt>0</asrwt>
<pdfrwt beam="1">  1        1 0.23066950E+00 0.18248245E+04</pdfrwt>
<pdfrwt beam="2">  1       -2 0.85421135E-01 0.18248245E+04</pdfrwt>
<totfact> 0.64470379E+00</totfact>
</mgrwt>
</event>
<event>
12    5  0.5246737E-008  0.1674664E+04  0.7818608E-02  0.8775948E-01
          1   -1    0    0  501    0  0.00000000000E+00  0.00000000000E+00  0.13588251613E+04  0.13588251613E+04  0.00000000000E+00 0. -1.
         -2   -1    0    0    0  501 -0.00000000000E+00 -0.00000000000E+00 -0.51597883748E+03  0.51597883748E+03  0.00000000000E+00 0.  1.
        -24    2    1    2    0    0  0.33768174675E+03  0.10936732548E+03 -0.23028457148E+03  0.43032785807E+03  0.78491449175E+02 0.  0.
        254    2    1    2    0    0 -0.33768174675E+03 -0.10936732548E+03  0.10731308953E+04  0.14444761407E+04  0.89939492365E+03 0.  0.
         23    2    4    4    0    0 -0.11800459602E+03 -0.49318277441E+03  0.53924972543E+03  0.74535805081E+03  0.87258374238E+02 0.  0.
         23    2    4    4    0    0 -0.21967715073E+03  0.38381544893E+03  0.53388116990E+03  0.69911808993E+03  0.90358456752E+02 0.  0.
          3    1    3    3  502    0  0.13683540464E+02  0.24039780368E+02 -0.10295753241E+02  0.29515298653E+02  0.00000000000E+00 0. -1.
         -4    1    3    3    0  502  0.32399820629E+03  0.85327545110E+02 -0.21998881824E+03  0.40081255942E+03  0.00000000000E+00 0.  1.
         13    1    5    5    0    0 -0.76547468185E+02 -0.18343127034E+03  0.16942434464E+03  0.26117265244E+03  0.00000000000E+00 0. -1.
        -13    1    5    5    0    0 -0.41457127839E+02 -0.30975150407E+03  0.36982538079E+03  0.48418539837E+03  0.00000000000E+00 0.  1.
          3    1    6    6  503    0 -0.93460994082E+02  0.11023999473E+03  0.22666134433E+03  0.26881811484E+03  0.00000000000E+00 0. -1.
         -3    1    6    6    0  503 -0.12621615665E+03  0.27357545420E+03  0.30721982556E+03  0.43029997509E+03  0.00000000000E+00 0.  1.
<mgrwt>
<rscale>  0 0.16746642E+04</rscale>
<asrwt>0</asrwt>
<pdfrwt beam="1">  1        1 0.20905002E+00 0.16746642E+04</pdfrwt>
<pdfrwt beam="2">  1       -2 0.79381360E-01 0.16746642E+04</pdfrwt>
<totfact> 0.96671890E+00</totfact>
</mgrwt>
</event>
<event>
12    5  0.5246737E-008  0.1345557E+04  0.7818608E-02  0.8994199E-01
         -2   -1    0    0    0  501 -0.00000000000E+00  0.00000000000E+00  0.16258940561E+03  0.16258940561E+03  0.00000000000E+00 0.  1.
          1   -1    0    0  501    0  0.00000000000E+00 -0.00000000000E+00 -0.27838876694E+04  0.27838876694E+04  0.00000000000E+00 0. -1.
        -24    2    1    2    0    0  0.10075948991E+03  0.24427399365E+03 -0.17399685362E+03  0.32590892620E+03  0.78227005113E+02 0.  0.
        254    2    1    2    0    0 -0.10075948991E+03 -0.24427399365E+03 -0.24473014102E+04  0.26205681488E+04  0.89903891550E+03 0.  0.
         23    2    4    4    0    0 -0.38587382807E+03 -0.36101441915E+03 -0.19830535873E+04  0.20542610288E+04  0.90867057433E+02 0.  0.
         23    2    4    4    0    0  0.28511433816E+03  0.11674042551E+03 -0.46424782284E+03  0.56630712004E+03  0.10128771108E+03 0.  0.
          1    1    3    3  502    0  0.58259151529E+02  0.75858759725E+02 -0.95963552112E+02  0.13549052918E+03  0.00000000000E+00 0. -1.
         -4    1    3    3    0  502  0.42500338381E+02  0.16841523392E+03 -0.78033301510E+02  0.19041839702E+03  0.00000000000E+00 0.  1.
         13    1    5    5    0    0 -0.38346507336E+03 -0.36633890399E+03 -0.19605752322E+04  0.20310354246E+04  0.00000000000E+00 0. -1.
        -13    1    5    5    0    0 -0.24087547095E+01  0.53244848358E+01 -0.22478355143E+02  0.23225604146E+02  0.00000000000E+00 0.  1.
          4    1    6    6  503    0  0.14829590939E+03  0.38347879498E+02 -0.14833221855E+03  0.21322449124E+03  0.00000000000E+00 0. -1.
         -4    1    6    6    0  503  0.13681842877E+03  0.78392546009E+02 -0.31591560430E+03  0.35308262880E+03  0.00000000000E+00 0.  1.
<mgrwt>
<rscale>  0 0.13455566E+04</rscale>
<asrwt>0</asrwt>
<pdfrwt beam="1">  1        1 0.42829041E+00 0.13455566E+04</pdfrwt>
<pdfrwt beam="2">  1       -2 0.25013755E-01 0.13455566E+04</pdfrwt>
<totfact> 0.10614389E+01</totfact>
</mgrwt>
</event>
<event>
12    5  0.5246737E-008  0.1397426E+04  0.7818608E-02  0.8955684E-01
         -2   -1    0    0    0  501 -0.00000000000E+00  0.00000000000E+00  0.15885341971E+04  0.15885341971E+04  0.00000000000E+00 0.  1.
          1   -1    0    0  501    0  0.00000000000E+00 -0.00000000000E+00 -0.30732734274E+03  0.30732734274E+03  0.00000000000E+00 0. -1.
        -24    2    1    2    0    0 -0.22022139912E+03 -0.20941725669E+03  0.16812536799E+02  0.31519092964E+03  0.81912201202E+02 0.  0.
        254    2    1    2    0    0  0.22022139912E+03  0.20941725669E+03  0.12643943175E+04  0.15806706102E+04  0.89859531249E+03 0.  0.
         23    2    4    4    0    0 -0.19323822119E+03 -0.15169907976E+03  0.84240000261E+03  0.88232058383E+03  0.92185830313E+02 0.  0.
         23    2    4    4    0    0  0.41345962030E+03  0.36111633645E+03  0.42199431489E+03  0.69835002633E+03  0.90882844379E+02 0.  0.
          3    1    3    3  502    0 -0.14088685645E+03 -0.11475875590E+03 -0.27897642688E+02  0.18383948663E+03  0.00000000000E+00 0. -1.
         -4    1    3    3    0  502 -0.79334542667E+02 -0.94658500785E+02  0.44710179487E+02  0.13135144301E+03  0.00000000000E+00 0.  1.
         13    1    5    5    0    0 -0.89301916378E+02 -0.76112182261E+02  0.25035614322E+03  0.27648886958E+03  0.00000000000E+00 0. -1.
        -13    1    5    5    0    0 -0.10393630481E+03 -0.75586897496E+02  0.59204385940E+03  0.60583171424E+03  0.00000000000E+00 0.  1.
          2    1    6    6  503    0  0.38683550867E+03  0.30713764669E+03  0.39467343536E+03  0.63225182116E+03  0.00000000000E+00 0. -1.
         -2    1    6    6    0  503  0.26624111627E+02  0.53978689754E+02  0.27320879535E+02  0.66098205165E+02  0.00000000000E+00 0.  1.
<mgrwt>
<rscale>  0 0.13974262E+04</rscale>
<asrwt>0</asrwt>
<pdfrwt beam="1">  1        1 0.47281130E-01 0.13974262E+04</pdfrwt>
<pdfrwt beam="2">  1       -2 0.24438987E+00 0.13974262E+04</pdfrwt>
<totfact> 0.50380650E+00</totfact>
</mgrwt>
</event>
<event>
12    5  0.5246737E-008  0.2045259E+04  0.7818608E-02  0.8585748E-01
          1   -1    0    0  501    0  0.00000000000E+00  0.00000000000E+00  0.90034109394E+03  0.90034109394E+03  0.00000000000E+00 0. -1.
         -2   -1    0    0    0  501 -0.00000000000E+00 -0.00000000000E+00 -0.11615278068E+04  0.11615278068E+04  0.00000000000E+00 0.  1.
        -24    2    1    2    0    0 -0.19126934014E+03 -0.29102380619E+03  0.63994548139E+03  0.73292770555E+03  0.79837247964E+02 0.  0.
        254    2    1    2    0    0  0.19126934014E+03  0.29102380619E+03 -0.90113219429E+03  0.13289411952E+04  0.91256049254E+03 0.  0.
         23    2    4    4    0    0 -0.17526226504E+03  0.34263648545E+03 -0.85723810437E+03  0.94401950419E+03  0.90548517360E+02 0.  0.
         23    2    4    4    0    0  0.36653160518E+03 -0.51612679256E+02 -0.43894089924E+02  0.38492169104E+03  0.96066283622E+02 0.  0.
          3    1    3    3  502    0 -0.10943478617E+03 -0.23141313419E+03  0.45262941394E+03  0.52000134372E+03  0.00000000000E+00 0. -1.
         -4    1    3    3    0  502 -0.81834553966E+02 -0.59610671998E+02  0.18731606745E+03  0.21292636183E+03  0.00000000000E+00 0.  1.
         13    1    5    5    0    0 -0.96937692410E+02  0.13968273652E+03 -0.28549707504E+03  0.33229017883E+03  0.00000000000E+00 0.  1.
        -13    1    5    5    0    0 -0.78324572632E+02  0.20295374893E+03 -0.57174102933E+03  0.61172932536E+03  0.00000000000E+00 0. -1.
          2    1    6    6  503    0  0.34565115360E+01  0.12997613328E+02 -0.37605031745E+01  0.13965199904E+02  0.00000000000E+00 0. -1.
         -2    1    6    6    0  503  0.36307509365E+03 -0.64610292584E+02 -0.40133586749E+02  0.37095649114E+03  0.00000000000E+00 0.  1.
<mgrwt>
<rscale>  0 0.20452591E+04</rscale>
<asrwt>0</asrwt>
<pdfrwt beam="1">  1        1 0.13851401E+00 0.20452591E+04</pdfrwt>
<pdfrwt beam="2">  1       -2 0.17869659E+00 0.20452591E+04</pdfrwt>
<totfact> 0.27258071E+00</totfact>
</mgrwt>
</event>
<event>
12    5  0.5246737E-008  0.2117244E+04  0.7818608E-02  0.8553685E-01
         -2   -1    0    0    0  501 -0.00000000000E+00  0.00000000000E+00  0.12303936381E+04  0.12303936381E+04  0.00000000000E+00 0.  1.
          1   -1    0    0  501    0  0.00000000000E+00 -0.00000000000E+00 -0.91083060779E+03  0.91083060779E+03  0.00000000000E+00 0. -1.
        -24    2    1    2    0    0  0.45327929127E+02 -0.57506918051E+03 -0.52295979235E+03  0.78283719540E+03  0.81166166289E+02 0.  0.
        254    2    1    2    0    0 -0.45327929127E+02  0.57506918051E+03  0.84252282269E+03  0.13583870505E+04  0.89588586816E+03 0.  0.
         23    2    4    4    0    0  0.85570343100E+02  0.30714282330E+03  0.96752820443E+03  0.10227089140E+04  0.90353189225E+02 0.  0.
         23    2    4    4    0    0 -0.13089827223E+03  0.26792635721E+03 -0.12500538174E+03  0.33567813657E+03  0.90191880722E+02 0.  0.
          1    1    3    3  502    0  0.65680380511E+02 -0.36856202648E+03 -0.35412356381E+03  0.51532065570E+03  0.00000000000E+00 0. -1.
         -2    1    3    3    0  502 -0.20352451383E+02 -0.20650715403E+03 -0.16883622854E+03  0.26751653969E+03  0.00000000000E+00 0.  1.
         13    1    5    5    0    0  0.94912554197E+02  0.24642829821E+03  0.85027761228E+03  0.89034112398E+03  0.00000000000E+00 0.  1.
        -13    1    5    5    0    0 -0.93422110973E+01  0.60714525089E+02  0.11725059215E+03  0.13236778998E+03  0.00000000000E+00 0. -1.
          1    1    6    6  503    0 -0.56852918240E+01  0.37787025058E+02  0.11959618972E+02  0.40040158489E+02  0.00000000000E+00 0. -1.
         -1    1    6    6    0  503 -0.12521298040E+03  0.23013933215E+03 -0.13696500071E+03  0.29563797808E+03  0.00000000000E+00 0.  1.
<mgrwt>
<rscale>  0 0.21172437E+04</rscale>
<asrwt>0</asrwt>
<pdfrwt beam="1">  1        1 0.14012779E+00 0.21172437E+04</pdfrwt>
<pdfrwt beam="2">  1       -2 0.18929133E+00 0.21172437E+04</pdfrwt>
<totfact> 0.22482740E+00</totfact>
</mgrwt>
</event>
<event>
12    5  0.5246737E-008  0.1564072E+04  0.7818608E-02  0.8842929E-01
          1   -1    0    0  501    0  0.00000000000E+00  0.00000000000E+00  0.10209748858E+04  0.10209748858E+04  0.00000000000E+00 0. -1.
         -2   -1    0    0    0  501 -0.00000000000E+00 -0.00000000000E+00 -0.59901610657E+03  0.59901610657E+03  0.00000000000E+00 0.  1.
        -24    2    1    2    0    0 -0.27908601315E+03  0.41215438720E+03  0.30141299757E+03  0.58745550442E+03  0.80584942371E+02 0.  0.
        254    2    1    2    0    0  0.27908601315E+03 -0.41215438720E+03  0.12054578170E+03  0.10325354880E+04  0.89657013494E+03 0.  0.
         23    2    4    4    0    0  0.51939739970E+03 -0.28999545897E+01  0.15128173697E+03  0.54808968051E+03  0.87943535226E+02 0.  0.
         23    2    4    4    0    0 -0.24031138655E+03 -0.40925443261E+03 -0.30735955265E+02  0.48444580749E+03  0.92218698410E+02 0.  0.
          1    1    3    3  502    0 -0.27267332586E+03  0.41261332012E+03  0.28733920162E+03  0.57198278939E+03  0.00000000000E+00 0. -1.
         -2    1    3    3    0  502 -0.64126872934E+01 -0.45893291603E+00  0.14073795950E+02  0.15472715023E+02  0.00000000000E+00 0.  1.
         13    1    5    5    0    0  0.39325908603E+03 -0.22837890912E+02  0.14654616009E+03  0.42029757915E+03  0.00000000000E+00 0.  1.
        -13    1    5    5    0    0  0.12613831367E+03  0.19937936322E+02  0.47355768825E+01  0.12779210135E+03  0.00000000000E+00 0. -1.
          3    1    6    6  503    0 -0.11598947909E+03 -0.11338111163E+03 -0.18885015752E+02  0.16329568137E+03  0.00000000000E+00 0. -1.
         -3    1    6    6    0  503 -0.12432190746E+03 -0.29587332098E+03 -0.11850939513E+02  0.32115012612E+03  0.00000000000E+00 0.  1.
<mgrwt>
<rscale>  0 0.15640721E+04</rscale>
<asrwt>0</asrwt>
<pdfrwt beam="1">  1        1 0.15707306E+00 0.15640721E+04</pdfrwt>
<pdfrwt beam="2">  1       -2 0.92156324E-01 0.15640721E+04</pdfrwt>
<totfact> 0.12299825E+01</totfact>
</mgrwt>
</event>
<event>
12    5  0.5246737E-008  0.2794954E+04  0.7818608E-02  0.8304837E-01
          1   -1    0    0  501    0  0.00000000000E+00  0.00000000000E+00  0.28392245639E+04  0.28392245639E+04  0.00000000000E+00 0. -1.
         -2   -1    0    0    0  501 -0.00000000000E+00 -0.00000000000E+00 -0.68784325020E+03  0.68784325020E+03  0.00000000000E+00 0.  1.
        -24    2    1    2    0    0  0.90857162585E+02 -0.10883948566E+04  0.17371409578E+04  0.20536461666E+04  0.83339561744E+02 0.  0.
        254    2    1    2    0    0 -0.90857162585E+02  0.10883948566E+04  0.41424035596E+03  0.14734216475E+04  0.89806341151E+03 0.  0.
         23    2    4    4    0    0 -0.38139010577E+03  0.98859707557E+03  0.44184678686E+03  0.11518327969E+04  0.93314619934E+02 0.  0.
         23    2    4    4    0    0  0.29053294318E+03  0.99797781011E+02 -0.27606430902E+02  0.32158885066E+03  0.91040022367E+02 0.  0.
          3    1    3    3  502    0  0.57130943386E+02 -0.91666947169E+03  0.15014807118E+04  0.17601111308E+04  0.00000000000E+00 0. -1.
         -4    1    3    3    0  502  0.33726219199E+02 -0.17172538489E+03  0.23566024598E+03  0.29353503575E+03  0.00000000000E+00 0.  1.
         13    1    5    5    0    0 -0.36369979273E+03  0.86135278311E+03  0.39664743395E+03  0.10156452841E+04  0.00000000000E+00 0. -1.
        -13    1    5    5    0    0 -0.17690313035E+02  0.12724429245E+03  0.45199352904E+02  0.13618751279E+03  0.00000000000E+00 0.  1.
          1    1    6    6  503    0  0.26004653353E+03  0.54386935931E+02 -0.24642242827E+02  0.26681337772E+03  0.00000000000E+00 0. -1.
         -1    1    6    6    0  503  0.30486409653E+02  0.45410845080E+02 -0.29641880744E+01  0.54775472936E+02  0.00000000000E+00 0.  1.
<mgrwt>
<rscale>  0 0.27949536E+04</rscale>
<asrwt>0</asrwt>
<pdfrwt beam="1">  1        1 0.43680377E+00 0.27949536E+04</pdfrwt>
<pdfrwt beam="2">  1       -2 0.10582204E+00 0.27949536E+04</pdfrwt>
<totfact> 0.42923406E-01</totfact>
</mgrwt>
</event>
<event>
12    5  0.5246737E-008  0.1571871E+04  0.7818608E-02  0.8838017E-01
          1   -1    0    0  501    0  0.00000000000E+00  0.00000000000E+00  0.88571451941E+03  0.88571451941E+03  0.00000000000E+00 0. -1.
         -2   -1    0    0    0  501 -0.00000000000E+00 -0.00000000000E+00 -0.69739737455E+03  0.69739737455E+03  0.00000000000E+00 0.  1.
        -24    2    1    2    0    0  0.16576016058E+03 -0.44601920150E+03  0.29311665217E+03  0.56417002359E+03  0.77206766510E+02 0.  0.
        254    2    1    2    0    0 -0.16576016058E+03  0.44601920150E+03 -0.10479950731E+03  0.10189418704E+04  0.89490225138E+03 0.  0.
         23    2    4    4    0    0  0.14560404929E+03 -0.10848342858E+03  0.22100454546E+03  0.29875754305E+03  0.86277847522E+02 0.  0.
         23    2    4    4    0    0 -0.31136420987E+03  0.55450263007E+03 -0.32580405276E+03  0.72018432732E+03  0.89979700929E+02 0.  0.
          1    1    3    3  502    0  0.11674911034E+03 -0.29682864937E+03  0.15320904660E+03  0.35385111815E+03  0.00000000000E+00 0. -1.
         -2    1    3    3    0  502  0.49011050240E+02 -0.14919055212E+03  0.13990760557E+03  0.21031890544E+03  0.00000000000E+00 0.  1.
         13    1    5    5    0    0  0.33208487105E+02  0.12675875910E+02  0.44614519260E+02  0.57043288603E+02  0.00000000000E+00 0.  1.
        -13    1    5    5    0    0  0.11239556218E+03 -0.12115930449E+03  0.17639002620E+03  0.24171425445E+03  0.00000000000E+00 0. -1.
          1    1    6    6  503    0 -0.28953803826E+03  0.49736603265E+03 -0.26378161196E+03  0.63307660266E+03  0.00000000000E+00 0. -1.
         -1    1    6    6    0  503 -0.21826171609E+02  0.57136597425E+02 -0.62022440799E+02  0.87107724658E+02  0.00000000000E+00 0.  1.
<mgrwt>
<rscale>  0 0.15718715E+04</rscale>
<asrwt>0</asrwt>
<pdfrwt beam="1">  1        1 0.13626377E+00 0.15718715E+04</pdfrwt>
<pdfrwt beam="2">  1       -2 0.10729190E+00 0.15718715E+04</pdfrwt>
<totfact> 0.10996020E+01</totfact>
</mgrwt>
</event>
<event>
12    5  0.5246737E-008  0.1880653E+04  0.7818608E-02  0.8664547E-01
          1   -1    0    0  501    0  0.00000000000E+00  0.00000000000E+00  0.26075068426E+04  0.26075068426E+04  0.00000000000E+00 0. -1.
         -2   -1    0    0    0  501 -0.00000000000E+00 -0.00000000000E+00 -0.33910320986E+03  0.33910320986E+03  0.00000000000E+00 0.  1.
        -24    2    1    2    0    0 -0.45822143732E+03  0.38627188185E+03  0.15106199332E+04  0.16271568278E+04  0.80584783011E+02 0.  0.
        254    2    1    2    0    0  0.45822143732E+03 -0.38627188185E+03  0.75778369949E+03  0.13194532246E+04  0.89863664763E+03 0.  0.
         23    2    4    4    0    0 -0.23649739450E+03 -0.22928191848E+03  0.36893516127E+03  0.50293937456E+03  0.91288802810E+02 0.  0.
         23    2    4    4    0    0  0.69471883182E+03 -0.15698996337E+03  0.38884853822E+03  0.81651385008E+03  0.90617756582E+02 0.  0.
          1    1    3    3  502    0 -0.25759874792E+03  0.22567237248E+03  0.96704609521E+03  0.10258963324E+04  0.00000000000E+00 0. -1.
         -2    1    3    3    0  502 -0.20062268940E+03  0.16059950937E+03  0.54357383802E+03  0.60126049537E+03  0.00000000000E+00 0.  1.
         13    1    5    5    0    0 -0.17603590482E+03 -0.21814662520E+03  0.30059983558E+03  0.41101928303E+03  0.00000000000E+00 0. -1.
        -13    1    5    5    0    0 -0.60461489677E+02 -0.11135293282E+02  0.68335325685E+02  0.91920091530E+02  0.00000000000E+00 0.  1.
          2    1    6    6  503    0  0.32866066792E+03 -0.75444671563E+02  0.13282499824E+03  0.36242545891E+03  0.00000000000E+00 0. -1.
         -2    1    6    6    0  503  0.36605816389E+03 -0.81545291808E+02  0.25602353998E+03  0.45408839116E+03  0.00000000000E+00 0.  1.
<mgrwt>
<rscale>  0 0.18806530E+04</rscale>
<asrwt>0</asrwt>
<pdfrwt beam="1">  1        1 0.40115489E+00 0.18806530E+04</pdfrwt>
<pdfrwt beam="2">  1       -2 0.52169726E-01 0.18806530E+04</pdfrwt>
<totfact> 0.32583169E+00</totfact>
</mgrwt>
</event>
<event>
12    5  0.5246737E-008  0.4004674E+04  0.7818608E-02  0.8003604E-01
         -2   -1    0    0    0  501 -0.00000000000E+00  0.00000000000E+00  0.28840180457E+04  0.28840180457E+04  0.00000000000E+00 0.  1.
          1   -1    0    0  501    0  0.00000000000E+00 -0.00000000000E+00 -0.13901971514E+04  0.13901971514E+04  0.00000000000E+00 0. -1.
        -24    2    1    2    0    0  0.99353455394E+03 -0.43169488312E+03 -0.95261889438E+03  0.14456800686E+04  0.95061668132E+02 0.  0.
        254    2    1    2    0    0 -0.99353455394E+03  0.43169488312E+03  0.24464397887E+04  0.28285351286E+04  0.91764478540E+03 0.  0.
         23    2    4    4    0    0 -0.54388618077E+03 -0.22336396250E+03  0.13100153800E+04  0.14389235032E+04  0.93042542901E+02 0.  0.
         23    2    4    4    0    0 -0.44964837318E+03  0.65505884562E+03  0.11364244087E+04  0.13896116254E+04  0.90963081392E+02 0.  0.
          3    1    3    3  502    0  0.14180413622E+03 -0.65244372783E+02 -0.18415955646E+03  0.24141247578E+03  0.00000000000E+00 0. -1.
         -4    1    3    3    0  502  0.85173041773E+03 -0.36645051034E+03 -0.76845933792E+03  0.12042675928E+04  0.00000000000E+00 0.  1.
         13    1    5    5    0    0 -0.35838995775E+03 -0.12215329823E+03  0.92970353325E+03  0.10038493163E+04  0.00000000000E+00 0.  1.
        -13    1    5    5    0    0 -0.18549622302E+03 -0.10121066427E+03  0.38031184675E+03  0.43507418689E+03  0.00000000000E+00 0. -1.
          2    1    6    6  503    0 -0.12932462588E+03  0.14449312407E+03  0.22651454303E+03  0.29818108586E+03  0.00000000000E+00 0. -1.
         -2    1    6    6    0  503 -0.32032374730E+03  0.51056572155E+03  0.90990986562E+03  0.10914305395E+04  0.00000000000E+00 0.  1.
<mgrwt>
<rscale>  0 0.40046741E+04</rscale>
<asrwt>0</asrwt>
<pdfrwt beam="1">  1        1 0.21387648E+00 0.40046741E+04</pdfrwt>
<pdfrwt beam="2">  1       -2 0.44369508E+00 0.40046741E+04</pdfrwt>
<totfact> 0.20479264E-02</totfact>
</mgrwt>
</event>
<event>
12    5  0.5246737E-008  0.1588466E+04  0.7818608E-02  0.8827665E-01
         -2   -1    0    0    0  501 -0.00000000000E+00  0.00000000000E+00  0.67045039602E+03  0.67045039602E+03  0.00000000000E+00 0.  1.
          1   -1    0    0  501    0  0.00000000000E+00 -0.00000000000E+00 -0.94086931202E+03  0.94086931202E+03  0.00000000000E+00 0. -1.
        -24    2    1    2    0    0  0.21787216795E+03 -0.48615505727E+03 -0.79579919418E+02  0.54459507079E+03  0.80223477073E+02 0.  0.
        254    2    1    2    0    0 -0.21787216795E+03  0.48615505727E+03 -0.19083899659E+03  0.10667246373E+04  0.90424936152E+03 0.  0.
         23    2    4    4    0    0 -0.36169878308E+03  0.66579718550E+03 -0.14526358566E+02  0.76322516744E+03  0.90497177953E+02 0.  0.
         23    2    4    4    0    0  0.14382661512E+03 -0.17964212823E+03 -0.17631263802E+03  0.30349946981E+03  0.89824230560E+02 0.  0.
          3    1    3    3  502    0  0.74146552907E+02 -0.15867588222E+03  0.11585213284E+02  0.17552767324E+03  0.00000000000E+00 0. -1.
         -4    1    3    3    0  502  0.14372561505E+03 -0.32747917506E+03 -0.91165132702E+02  0.36906739755E+03  0.00000000000E+00 0.  1.
         13    1    5    5    0    0 -0.18277110250E+03  0.25559299678E+03 -0.28248652966E+02  0.31548540744E+03  0.00000000000E+00 0. -1.
        -13    1    5    5    0    0 -0.17892768057E+03  0.41020418872E+03  0.13722294400E+02  0.44773976000E+03  0.00000000000E+00 0.  1.
          4    1    6    6  503    0  0.24909812845E+02 -0.67597341614E+02 -0.14381023063E+02  0.73462324994E+02  0.00000000000E+00 0. -1.
         -4    1    6    6    0  503  0.11891680228E+03 -0.11204478662E+03 -0.16193161496E+03  0.23003714481E+03  0.00000000000E+00 0.  1.
<mgrwt>
<rscale>  0 0.15884662E+04</rscale>
<asrwt>0</asrwt>
<pdfrwt beam="1">  1        1 0.14474913E+00 0.15884662E+04</pdfrwt>
<pdfrwt beam="2">  1       -2 0.10314621E+00 0.15884662E+04</pdfrwt>
<totfact> 0.10886294E+01</totfact>
</mgrwt>
</event>
<event>
12    5  0.5246737E-008  0.1111014E+04  0.7818608E-02  0.9194523E-01
          1   -1    0    0  501    0  0.00000000000E+00  0.00000000000E+00  0.71821400841E+03  0.71821400841E+03  0.00000000000E+00 0. -1.
         -2   -1    0    0    0  501 -0.00000000000E+00 -0.00000000000E+00 -0.42966046163E+03  0.42966046163E+03  0.00000000000E+00 0.  1.
        -24    2    1    2    0    0 -0.48544974252E+02  0.30764472433E+02  0.22201007877E+03  0.24374905530E+03  0.82595760144E+02 0.  0.
        254    2    1    2    0    0  0.48544974252E+02 -0.30764472433E+02  0.66543468011E+02  0.90412541474E+03  0.89983979972E+03 0.  0.
         23    2    4    4    0    0  0.43494987563E+03 -0.16139724219E+03 -0.35977274960E+02  0.47379431660E+03  0.89197679520E+02 0.  0.
         23    2    4    4    0    0 -0.38640490138E+03  0.13063276975E+03  0.10252074297E+03  0.43033109814E+03  0.91108083865E+02 0.  0.
          3    1    3    3  502    0 -0.46779890237E+02  0.26170698788E+02  0.22900596414E+03  0.23519565305E+03  0.00000000000E+00 0. -1.
         -4    1    3    3    0  502 -0.17650840144E+01  0.45937736458E+01 -0.69958853658E+01  0.85534022435E+01  0.00000000000E+00 0.  1.
         13    1    5    5    0    0  0.73399521204E+01  0.76676730176E+01  0.57752610025E+01  0.12083945808E+02  0.00000000000E+00 0. -1.
        -13    1    5    5    0    0  0.42760992351E+03 -0.16906491521E+03 -0.41752535962E+02  0.46171037079E+03  0.00000000000E+00 0.  1.
          4    1    6    6  503    0 -0.21751594315E+02 -0.12803274027E+02  0.12978016040E+02  0.28381060258E+02  0.00000000000E+00 0. -1.
         -4    1    6    6    0  503 -0.36465330706E+03  0.14343604378E+03  0.89542726930E+02  0.40195003788E+03  0.00000000000E+00 0.  1.
<mgrwt>
<rscale>  0 0.11110142E+04</rscale>
<asrwt>0</asrwt>
<pdfrwt beam="1">  1        1 0.11049446E+00 0.11110142E+04</pdfrwt>
<pdfrwt beam="2">  1       -2 0.66101610E-01 0.11110142E+04</pdfrwt>
<totfact> 0.48113487E+01</totfact>
</mgrwt>
</event>
<event>
12    5  0.5246737E-008  0.1635199E+04  0.7818608E-02  0.8799211E-01
         -2   -1    0    0    0  501 -0.00000000000E+00  0.00000000000E+00  0.89283630063E+03  0.89283630063E+03  0.00000000000E+00 0.  1.
          1   -1    0    0  501    0  0.00000000000E+00 -0.00000000000E+00 -0.74870270150E+03  0.74870270150E+03  0.00000000000E+00 0. -1.
        -24    2    1    2    0    0  0.38992046026E+02  0.16017542900E+02  0.61749699543E+03  0.62405775453E+03  0.79803510458E+02 0.  0.
        254    2    1    2    0    0 -0.38992046026E+02 -0.16017542900E+02 -0.47336339630E+03  0.10174812476E+04  0.89967674358E+03 0.  0.
         23    2    4    4    0    0  0.50721526852E+02 -0.43237302404E+03 -0.13087020623E+03  0.46329469281E+03  0.89419552141E+02 0.  0.
         23    2    4    4    0    0 -0.89713572878E+02  0.41635548114E+03 -0.34249319006E+03  0.55418655479E+03  0.91764592496E+02 0.  0.
          3    1    3    3  502    0  0.29199518329E+01 -0.30663195092E+02  0.18300886977E+03  0.18558287655E+03  0.00000000000E+00 0. -1.
         -4    1    3    3    0  502  0.36072094193E+02  0.46680737992E+02  0.43448812566E+03  0.43847487798E+03  0.00000000000E+00 0.  1.
         13    1    5    5    0    0  0.62437147042E+02 -0.41805199884E+03 -0.11291172396E+03  0.43750991814E+03  0.00000000000E+00 0. -1.
        -13    1    5    5    0    0 -0.11715620190E+02 -0.14321025199E+02 -0.17958482275E+02  0.25784774671E+02  0.00000000000E+00 0.  1.
          2    1    6    6  503    0 -0.43427222692E+02  0.35496660954E+03 -0.29692704656E+03  0.46481489707E+03  0.00000000000E+00 0. -1.
         -2    1    6    6    0  503 -0.46286350186E+02  0.61388871600E+02 -0.45566143504E+02  0.89371657720E+02  0.00000000000E+00 0.  1.
<mgrwt>
<rscale>  0 0.16351990E+04</rscale>
<asrwt>0</asrwt>
<pdfrwt beam="1">  1        1 0.11518503E+00 0.16351990E+04</pdfrwt>
<pdfrwt beam="2">  1       -2 0.13735943E+00 0.16351990E+04</pdfrwt>
<totfact> 0.77624277E+00</totfact>
</mgrwt>
</event>
<event>
12    5  0.5246737E-008  0.1790563E+04  0.7818608E-02  0.8711334E-01
         -2   -1    0    0    0  501 -0.00000000000E+00  0.00000000000E+00  0.13165461824E+04  0.13165461824E+04  0.00000000000E+00 0.  1.
          1   -1    0    0  501    0  0.00000000000E+00 -0.00000000000E+00 -0.60881197362E+03  0.60881197362E+03  0.00000000000E+00 0. -1.
        -24    2    1    2    0    0  0.71394659000E+02 -0.52319357974E+03  0.70167829156E+03  0.88122457567E+03  0.73318542729E+02 0.  0.
        254    2    1    2    0    0 -0.71394659000E+02  0.52319357974E+03  0.60559172606E+01  0.10441335804E+04  0.90074943262E+03 0.  0.
         23    2    4    4    0    0  0.29836465540E+03  0.44643799340E+02  0.23260609845E+03  0.39183512266E+03  0.91731291831E+02 0.  0.
         23    2    4    4    0    0 -0.36975931440E+03  0.47854978039E+03 -0.22655018119E+03  0.65229845774E+03  0.91850152298E+02 0.  0.
          1    1    3    3  502    0 -0.70427743367E+01 -0.17939261230E+03  0.26188647652E+03  0.31751509665E+03  0.00000000000E+00 0. -1.
         -2    1    3    3    0  502  0.78437433337E+02 -0.34380096743E+03  0.43979181504E+03  0.56370947902E+03  0.00000000000E+00 0.  1.
         13    1    5    5    0    0  0.29166384656E+03  0.60386841774E+02  0.21544207710E+03  0.36759986212E+03  0.00000000000E+00 0.  1.
        -13    1    5    5    0    0  0.67008088406E+01 -0.15743042434E+02  0.17164021352E+02  0.24235260534E+02  0.00000000000E+00 0. -1.
          4    1    6    6  503    0 -0.36823370117E+02  0.10425816458E+03 -0.47153588003E+02  0.12020476833E+03  0.00000000000E+00 0. -1.
         -4    1    6    6    0  503 -0.33293594428E+03  0.37429161581E+03 -0.17939659319E+03  0.53209368941E+03  0.00000000000E+00 0.  1.
<mgrwt>
<rscale>  0 0.17905631E+04</rscale>
<asrwt>0</asrwt>
<pdfrwt beam="1">  1        1 0.93663381E-01 0.17905631E+04</pdfrwt>
<pdfrwt beam="2">  1       -2 0.20254557E+00 0.17905631E+04</pdfrwt>
<totfact> 0.35452380E+00</totfact>
</mgrwt>
</event>
<event>
12    5  0.5246737E-008  0.1390019E+04  0.7818608E-02  0.8961075E-01
         -2   -1    0    0    0  501 -0.00000000000E+00  0.00000000000E+00  0.27521493875E+03  0.27521493875E+03  0.00000000000E+00 0.  1.
          1   -1    0    0  501    0  0.00000000000E+00 -0.00000000000E+00 -0.17551317616E+04  0.17551317616E+04  0.00000000000E+00 0. -1.
        -24    2    1    2    0    0 -0.77339044488E+02 -0.25570802612E+03 -0.91931790378E+03  0.96078462162E+03  0.81201961293E+02 0.  0.
        254    2    1    2    0    0  0.77339044488E+02  0.25570802612E+03 -0.56059891911E+03  0.10695620788E+04  0.87081798891E+03 0.  0.
         23    2    4    4    0    0 -0.29914803337E+03  0.71875184743E+02  0.48516094152E+02  0.32462829481E+03  0.91510274554E+02 0.  0.
         23    2    4    4    0    0  0.37648707785E+03  0.18383284138E+03 -0.60911501326E+03  0.74493378396E+03  0.91477919437E+02 0.  0.
          3    1    3    3  502    0 -0.78848982572E+02 -0.21373942310E+03 -0.84752832672E+03  0.87761379184E+03  0.00000000000E+00 0. -1.
         -4    1    3    3    0  502  0.15099380844E+01 -0.41968603018E+02 -0.71789577060E+02  0.83170829782E+02  0.00000000000E+00 0.  1.
         13    1    5    5    0    0 -0.19561743958E+03  0.83933080998E+02  0.56070112652E+02  0.22012451541E+03  0.00000000000E+00 0. -1.
        -13    1    5    5    0    0 -0.10353059379E+03 -0.12057896255E+02 -0.75540184997E+01  0.10450377940E+03  0.00000000000E+00 0.  1.
          3    1    6    6  503    0  0.27714486198E+03  0.10200004574E+03 -0.47284453923E+03  0.55749012739E+03  0.00000000000E+00 0. -1.
         -3    1    6    6    0  503  0.99342215872E+02  0.81832795642E+02 -0.13627047403E+03  0.18744365657E+03  0.00000000000E+00 0.  1.
<mgrwt>
<rscale>  0 0.13900194E+04</rscale>
<asrwt>0</asrwt>
<pdfrwt beam="1">  1        1 0.27002027E+00 0.13900194E+04</pdfrwt>
<pdfrwt beam="2">  1       -2 0.42340760E-01 0.13900194E+04</pdfrwt>
<totfact> 0.19798187E+01</totfact>
</mgrwt>
</event>
<event>
12    5  0.5246737E-008  0.1369916E+04  0.7818608E-02  0.8975888E-01
         -2   -1    0    0    0  501 -0.00000000000E+00  0.00000000000E+00  0.43843658680E+03  0.43843658680E+03  0.00000000000E+00 0.  1.
          1   -1    0    0  501    0  0.00000000000E+00 -0.00000000000E+00 -0.10700913479E+04  0.10700913479E+04  0.00000000000E+00 0. -1.
        -24    2    1    2    0    0 -0.18645040024E+02 -0.31311322369E+03 -0.31154350969E+03  0.44930523765E+03  0.80176740936E+02 0.  0.
        254    2    1    2    0    0  0.18645040024E+02  0.31311322369E+03 -0.32011125141E+03  0.10592226970E+04  0.95973641188E+03 0.  0.
         23    2    4    4    0    0 -0.27213806023E+03 -0.14566696432E+03  0.13091258426E+03  0.34719351131E+03  0.90151213282E+02 0.  0.
         23    2    4    4    0    0  0.29078310025E+03  0.45878018801E+03 -0.45102383567E+03  0.71202918574E+03  0.92352524046E+02 0.  0.
          3    1    3    3  502    0 -0.18350336101E+02 -0.20969460591E+03 -0.25759220779E+03  0.33265944763E+03  0.00000000000E+00 0. -1.
         -4    1    3    3    0  502 -0.29470392387E+00 -0.10341861778E+03 -0.53951301896E+02  0.11664579002E+03  0.00000000000E+00 0.  1.
         13    1    5    5    0    0 -0.94756319848E+01 -0.23482028632E+02 -0.71122833941E+01  0.26301670009E+02  0.00000000000E+00 0. -1.
        -13    1    5    5    0    0 -0.26266242824E+03 -0.12218493569E+03  0.13802486766E+03  0.32089184130E+03  0.00000000000E+00 0.  1.
          4    1    6    6  503    0  0.17415484344E+03  0.19895466865E+03 -0.18882360686E+03  0.32491110196E+03  0.00000000000E+00 0. -1.
         -4    1    6    6    0  503  0.11662825681E+03  0.25982551936E+03 -0.26220022881E+03  0.38711808377E+03  0.00000000000E+00 0.  1.
<mgrwt>
<rscale>  0 0.13699156E+04</rscale>
<asrwt>0</asrwt>
<pdfrwt beam="1">  1        1 0.16462944E+00 0.13699156E+04</pdfrwt>
<pdfrwt beam="2">  1       -2 0.67451782E-01 0.13699156E+04</pdfrwt>
<totfact> 0.23070294E+01</totfact>
</mgrwt>
</event>
<event>
12    5  0.5246737E-008  0.1193395E+04  0.7818608E-02  0.9118658E-01
          1   -1    0    0  501    0  0.00000000000E+00  0.00000000000E+00  0.24289847221E+04  0.24289847221E+04  0.00000000000E+00 0. -1.
         -2   -1    0    0    0  501 -0.00000000000E+00 -0.00000000000E+00 -0.14658292387E+03  0.14658292387E+03  0.00000000000E+00 0.  1.
        -24    2    1    2    0    0  0.14651031522E+03  0.37484692946E+01  0.94488476247E+03  0.95943079002E+03  0.78872701254E+02 0.  0.
        254    2    1    2    0    0 -0.14651031522E+03 -0.37484692946E+01  0.13375170357E+04  0.16161368559E+04  0.89524700096E+03 0.  0.
         23    2    4    4    0    0 -0.25344799290E+03  0.17255134516E+03  0.71573353267E+02  0.33017973097E+03  0.99428657969E+02 0.  0.
         23    2    4    4    0    0  0.10693767768E+03 -0.17629981445E+03  0.12659436825E+04  0.12859571250E+04  0.92493397485E+02 0.  0.
          1    1    3    3  502    0  0.14471349703E+03  0.21425374877E+02  0.88337001550E+03  0.89540137771E+03  0.00000000000E+00 0. -1.
         -2    1    3    3    0  502  0.17968181859E+01 -0.17676905583E+02  0.61514746964E+02  0.64029412308E+02  0.00000000000E+00 0.  1.
         13    1    5    5    0    0 -0.39307459704E+02  0.15631413313E+01  0.36948675710E+02  0.53969662181E+02  0.00000000000E+00 0.  1.
        -13    1    5    5    0    0 -0.21414053319E+03  0.17098820382E+03  0.34624677557E+02  0.27621006878E+03  0.00000000000E+00 0. -1.
          4    1    6    6  503    0  0.47765093490E+02 -0.35469231597E+02  0.18653266248E+03  0.19579071662E+03  0.00000000000E+00 0.  1.
         -4    1    6    6    0  503  0.59172584186E+02 -0.14083058285E+03  0.10794110200E+04  0.10901664084E+04  0.00000000000E+00 0. -1.
<mgrwt>
<rscale>  0 0.11933946E+04</rscale>
<asrwt>0</asrwt>
<pdfrwt beam="1">  1        1 0.37368993E+00 0.11933946E+04</pdfrwt>
<pdfrwt beam="2">  1       -2 0.22551221E-01 0.11933946E+04</pdfrwt>
<totfact> 0.22914707E+01</totfact>
</mgrwt>
</event>
<event>
12    5  0.5246737E-008  0.1446974E+04  0.7818608E-02  0.8920501E-01
         -2   -1    0    0    0  501 -0.00000000000E+00  0.00000000000E+00  0.23260095002E+03  0.23260095002E+03  0.00000000000E+00 0.  1.
          1   -1    0    0  501    0  0.00000000000E+00 -0.00000000000E+00 -0.22503504571E+04  0.22503504571E+04  0.00000000000E+00 0. -1.
        -24    2    1    2    0    0 -0.31792491249E+03  0.32142997046E+03 -0.46250579548E+03  0.65159999691E+03  0.79230481628E+02 0.  0.
        254    2    1    2    0    0  0.31792491249E+03 -0.32142997046E+03 -0.15552437116E+04  0.18313514102E+04  0.85479325533E+03 0.  0.
         23    2    4    4    0    0  0.27996030858E+03 -0.14037973487E+03 -0.73982155008E+02  0.33579133319E+03  0.95907329442E+02 0.  0.
         23    2    4    4    0    0  0.37964603912E+02 -0.18105023558E+03 -0.14812615566E+04  0.14955600770E+04  0.91343560387E+02 0.  0.
          1    1    3    3  502    0 -0.31417131318E+03  0.32453316468E+03 -0.46283832181E+03  0.64671840947E+03  0.00000000000E+00 0. -1.
         -2    1    3    3    0  502 -0.37535993145E+01 -0.31031942203E+01  0.33252633079E+00  0.48815874410E+01  0.00000000000E+00 0.  1.
         13    1    5    5    0    0  0.92231183518E+01 -0.19651693265E+02  0.14885677515E+02  0.26321822798E+02  0.00000000000E+00 0. -1.
        -13    1    5    5    0    0  0.27073719023E+03 -0.12072804161E+03 -0.88867832523E+02  0.30946951039E+03  0.00000000000E+00 0.  1.
          4    1    6    6  503    0 -0.28241220468E+02 -0.29529434499E+02 -0.27562661298E+03  0.27863880529E+03  0.00000000000E+00 0. -1.
         -4    1    6    6    0  503  0.66205824379E+02 -0.15152080108E+03 -0.12056349436E+04  0.12169212717E+04  0.00000000000E+00 0.  1.
<mgrwt>
<rscale>  0 0.14469743E+04</rscale>
<asrwt>0</asrwt>
<pdfrwt beam="1">  1        1 0.34620776E+00 0.14469743E+04</pdfrwt>
<pdfrwt beam="2">  1       -2 0.35784762E-01 0.14469743E+04</pdfrwt>
<totfact> 0.12625057E+01</totfact>
</mgrwt>
</event>
<event>
12    5  0.5246737E-008  0.2333286E+04  0.7818608E-02  0.8464912E-01
         -2   -1    0    0    0  501 -0.00000000000E+00  0.00000000000E+00  0.69493815363E+03  0.69493815363E+03  0.00000000000E+00 0.  1.
          1   -1    0    0  501    0  0.00000000000E+00 -0.00000000000E+00 -0.19585272973E+04  0.19585272973E+04  0.00000000000E+00 0. -1.
        -24    2    1    2    0    0  0.91790754983E+03 -0.27008265399E+03 -0.82081857898E+03  0.12633022803E+04  0.81796099400E+02 0.  0.
        254    2    1    2    0    0 -0.91790754983E+03  0.27008265399E+03 -0.44277056466E+03  0.13901631706E+04  0.90609544632E+03 0.  0.
         23    2    4    4    0    0 -0.37610928353E+03  0.50546936344E+03 -0.46925641177E+03  0.79127075114E+03  0.94606295107E+02 0.  0.
         23    2    4    4    0    0 -0.54179826629E+03 -0.23538670946E+03  0.26485847112E+02  0.59889241943E+03  0.94965075685E+02 0.  0.
          3    1    3    3  502    0  0.85288047779E+03 -0.26612517554E+03 -0.74462011316E+03  0.11630506573E+04  0.00000000000E+00 0. -1.
         -4    1    3    3    0  502  0.65027072039E+02 -0.39574784437E+01 -0.76198465812E+02  0.10025162306E+03  0.00000000000E+00 0.  1.
         13    1    5    5    0    0 -0.12738456715E+03  0.10480858092E+03 -0.13639213325E+03  0.21404317461E+03  0.00000000000E+00 0. -1.
        -13    1    5    5    0    0 -0.24872471639E+03  0.40066078252E+03 -0.33286427852E+03  0.57722757653E+03  0.00000000000E+00 0.  1.
          3    1    6    6  503    0 -0.83178281864E+02 -0.84355692027E+00  0.48547612642E+01  0.83324107370E+02  0.00000000000E+00 0. -1.
         -3    1    6    6    0  503 -0.45861998443E+03 -0.23454315254E+03  0.21631085848E+02  0.51556831206E+03  0.00000000000E+00 0.  1.
<mgrwt>
<rscale>  0 0.23332855E+04</rscale>
<asrwt>0</asrwt>
<pdfrwt beam="1">  1        1 0.30131188E+00 0.23332855E+04</pdfrwt>
<pdfrwt beam="2">  1       -2 0.10691357E+00 0.23332855E+04</pdfrwt>
<totfact> 0.17718785E+00</totfact>
</mgrwt>
</event>
<event>
12    5  0.5246737E-008  0.1966142E+04  0.7818608E-02  0.8622616E-01
          1   -1    0    0  501    0  0.00000000000E+00  0.00000000000E+00  0.65783769671E+03  0.65783769671E+03  0.00000000000E+00 0. -1.
         -2   -1    0    0    0  501 -0.00000000000E+00 -0.00000000000E+00 -0.14690985953E+04  0.14690985953E+04  0.00000000000E+00 0.  1.
        -24    2    1    2    0    0 -0.40330568353E+03 -0.84115977469E+02 -0.10271948870E+04  0.11102793549E+04  0.88656290821E+02 0.  0.
        254    2    1    2    0    0  0.40330568353E+03  0.84115977469E+02  0.21593398851E+03  0.10166569371E+04  0.90400932974E+03 0.  0.
         23    2    4    4    0    0  0.25602315885E+03 -0.37279999270E+03 -0.43124280208E+02  0.46351413231E+03  0.91967140207E+02 0.  0.
         23    2    4    4    0    0  0.14728252468E+03  0.45691597017E+03  0.25905826871E+03  0.55314280476E+03  0.91604748724E+02 0.  0.
          1    1    3    3  502    0  0.22293572853E+01  0.31337716031E+01 -0.30028932184E+02  0.30274202326E+02  0.00000000000E+00 0. -1.
         -2    1    3    3    0  502 -0.40553504082E+03 -0.87249749072E+02 -0.99716595486E+03  0.10800051526E+04  0.00000000000E+00 0.  1.
         13    1    5    5    0    0  0.19192994580E+03 -0.32497221399E+03 -0.11726015324E+02  0.37759971318E+03  0.00000000000E+00 0. -1.
        -13    1    5    5    0    0  0.64093213048E+02 -0.47827778712E+02 -0.31398264884E+02  0.85914419122E+02  0.00000000000E+00 0.  1.
          1    1    6    6  503    0  0.15300235992E+03  0.42977432584E+03  0.22338107084E+03  0.50795156866E+03  0.00000000000E+00 0. -1.
         -1    1    6    6    0  503 -0.57198352340E+01  0.27141644333E+02  0.35677197870E+02  0.45191236098E+02  0.00000000000E+00 0.  1.
<mgrwt>
<rscale>  0 0.19661418E+04</rscale>
<asrwt>0</asrwt>
<pdfrwt beam="1">  1        1 0.10120580E+00 0.19661418E+04</pdfrwt>
<pdfrwt beam="2">  1       -2 0.22601517E+00 0.19661418E+04</pdfrwt>
<totfact> 0.22065742E+00</totfact>
</mgrwt>
</event>
<event>
12    5  0.5246737E-008  0.2149189E+04  0.7818608E-02  0.8539879E-01
         -4   -1    0    0    0  501 -0.00000000000E+00  0.00000000000E+00  0.58872560669E+03  0.58872560669E+03  0.00000000000E+00 0.  1.
          3   -1    0    0  501    0  0.00000000000E+00 -0.00000000000E+00 -0.19614465391E+04  0.19614465391E+04  0.00000000000E+00 0. -1.
        -24    2    1    2    0    0 -0.70590194556E+03  0.30651542835E+03 -0.50831719904E+02  0.77534469401E+03  0.79537828868E+02 0.  0.
        254    2    1    2    0    0  0.70590194556E+03 -0.30651542835E+03 -0.13218892125E+04  0.17748274518E+04  0.90020671452E+03 0.  0.
         23    2    4    4    0    0  0.56152103319E+03  0.98770118833E+02 -0.11785733374E+04  0.13126039423E+04  0.93981863626E+02 0.  0.
         23    2    4    4    0    0  0.14438091237E+03 -0.40528554718E+03 -0.14331587516E+03  0.46222350950E+03  0.89492513912E+02 0.  0.
          1    1    3    3  502    0 -0.17221091272E+02  0.22855004267E+02 -0.56094735652E+01  0.29161333960E+02  0.00000000000E+00 0. -1.
         -2    1    3    3    0  502 -0.68868085429E+03  0.28366042408E+03 -0.45222246339E+02  0.74618336005E+03  0.00000000000E+00 0.  1.
         13    1    5    5    0    0  0.49757471748E+03  0.61903143869E+02 -0.98145893722E+03  0.11021226085E+04  0.00000000000E+00 0.  1.
        -13    1    5    5    0    0  0.63946315711E+02  0.36866974964E+02 -0.19711440013E+03  0.21048133379E+03  0.00000000000E+00 0. -1.
          1    1    6    6  503    0  0.70535942046E+01  0.20466547457E+00  0.55379764037E+01  0.89701873897E+01  0.00000000000E+00 0. -1.
         -1    1    6    6    0  503  0.13732731817E+03 -0.40549021266E+03 -0.14885385156E+03  0.45325332211E+03  0.00000000000E+00 0.  1.
<mgrwt>
<rscale>  0 0.21491894E+04</rscale>
<asrwt>0</asrwt>
<pdfrwt beam="1">  1        3 0.30176100E+00 0.21491894E+04</pdfrwt>
<pdfrwt beam="2">  1       -4 0.90573172E-01 0.21491894E+04</pdfrwt>
<totfact> 0.82992697E-02</totfact>
</mgrwt>
</event>
<event>
12    5  0.5246737E-008  0.2698540E+04  0.7818608E-02  0.8335479E-01
         -2   -1    0    0    0  501 -0.00000000000E+00  0.00000000000E+00  0.22886492508E+04  0.22886492508E+04  0.00000000000E+00 0.  1.
          1   -1    0    0  501    0  0.00000000000E+00 -0.00000000000E+00 -0.79546031325E+03  0.79546031325E+03  0.00000000000E+00 0. -1.
        -24    2    1    2    0    0 -0.55067204543E+03 -0.24346563063E+03  0.18492011254E+04  0.19463640687E+04  0.79202719188E+02 0.  0.
        254    2    1    2    0    0  0.55067204543E+03  0.24346563063E+03 -0.35601218785E+03  0.11377454954E+04  0.89733211212E+03 0.  0.
         23    2    4    4    0    0  0.56024097993E+03  0.19125550854E+03  0.15179591273E+03  0.61805508387E+03  0.92203375415E+02 0.  0.
         23    2    4    4    0    0 -0.95689344941E+01  0.52210122090E+02 -0.50780810058E+03  0.51969041151E+03  0.96910244298E+02 0.  0.
          1    1    3    3  502    0 -0.16323944487E+02 -0.11530800673E+02  0.28961875838E+02  0.35188361426E+02  0.00000000000E+00 0. -1.
         -4    1    3    3    0  502 -0.53434810095E+03 -0.23193482996E+03  0.18202392496E+04  0.19111757073E+04  0.00000000000E+00 0.  1.
         13    1    5    5    0    0  0.11154333229E+02  0.10681290784E+02 -0.92763319234E+01  0.18015533757E+02  0.00000000000E+00 0.  1.
        -13    1    5    5    0    0  0.54908664670E+03  0.18057421776E+03  0.16107224465E+03  0.60003955011E+03  0.00000000000E+00 0. -1.
          3    1    6    6  503    0 -0.82167265696E+01  0.49980320698E+01  0.73140413347E-01  0.96177060472E+01  0.00000000000E+00 0.  1.
         -3    1    6    6    0  503 -0.13522079245E+01  0.47212090020E+02 -0.50788124099E+03  0.51007270546E+03  0.00000000000E+00 0. -1.
<mgrwt>
<rscale>  0 0.26985401E+04</rscale>
<asrwt>0</asrwt>
<pdfrwt beam="1">  1        1 0.12237851E+00 0.26985401E+04</pdfrwt>
<pdfrwt beam="2">  1       -2 0.35209988E+00 0.26985401E+04</pdfrwt>
<totfact> 0.25787749E-01</totfact>
</mgrwt>
</event>
<event>
12    5  0.5246737E-008  0.1577645E+04  0.7818608E-02  0.8834400E-01
         -2   -1    0    0    0  501 -0.00000000000E+00  0.00000000000E+00  0.31901443178E+03  0.31901443178E+03  0.00000000000E+00 0.  1.
          1   -1    0    0  501    0  0.00000000000E+00 -0.00000000000E+00 -0.19505113579E+04  0.19505113579E+04  0.00000000000E+00 0. -1.
        -24    2    1    2    0    0 -0.18381523992E+02 -0.53823620113E+03 -0.10944597954E+04  0.12238477712E+04  0.99624468909E+02 0.  0.
        254    2    1    2    0    0  0.18381523992E+02  0.53823620113E+03 -0.53703713075E+03  0.10456780185E+04  0.71763329763E+03 0.  0.
         23    2    4    4    0    0  0.35093092961E+01  0.42009135080E+03  0.56556374353E+02  0.43344646974E+03  0.90488454411E+02 0.  0.
         23    2    4    4    0    0  0.14872214696E+02  0.11814485033E+03 -0.59359350510E+03  0.61223154872E+03  0.91075965710E+02 0.  0.
          1    1    3    3  502    0 -0.25712406273E+02 -0.67237400209E+02 -0.20634341068E+03  0.21853969652E+03  0.00000000000E+00 0. -1.
         -2    1    3    3    0  502  0.73308822807E+01 -0.47099880092E+03 -0.88811638468E+03  0.10053080747E+04  0.00000000000E+00 0.  1.
         13    1    5    5    0    0 -0.34071379716E+02  0.32962199184E+03  0.51456171563E+02  0.33534945059E+03  0.00000000000E+00 0. -1.
        -13    1    5    5    0    0  0.37580689013E+02  0.90469358956E+02  0.51002027903E+01  0.98097019145E+02  0.00000000000E+00 0.  1.
          2    1    6    6  503    0  0.35814038823E+02  0.10033874702E+03 -0.55324167082E+03  0.56340647481E+03  0.00000000000E+00 0. -1.
         -2    1    6    6    0  503 -0.20941824127E+02  0.17806103309E+02 -0.40351834278E+02  0.48825073911E+02  0.00000000000E+00 0.  1.
<mgrwt>
<rscale>  0 0.15776454E+04</rscale>
<asrwt>0</asrwt>
<pdfrwt beam="1">  1        1 0.30007867E+00 0.15776454E+04</pdfrwt>
<pdfrwt beam="2">  1       -2 0.49079143E-01 0.15776454E+04</pdfrwt>
<totfact> 0.10683391E+01</totfact>
</mgrwt>
</event>
<event>
12    5  0.5246737E-008  0.2172759E+04  0.7818608E-02  0.8529853E-01
         -2   -1    0    0    0  501 -0.00000000000E+00  0.00000000000E+00  0.94897022410E+03  0.94897022410E+03  0.00000000000E+00 0.  1.
          1   -1    0    0  501    0  0.00000000000E+00 -0.00000000000E+00 -0.12436850436E+04  0.12436850436E+04  0.00000000000E+00 0. -1.
        -24    2    1    2    0    0  0.46311801014E+03 -0.28956616441E+03  0.59701239903E+03  0.81312938251E+03  0.80179381509E+02 0.  0.
        254    2    1    2    0    0 -0.46311801014E+03  0.28956616441E+03 -0.89172721852E+03  0.13795258852E+04  0.89977073787E+03 0.  0.
         23    2    4    4    0    0 -0.51125654368E+03 -0.15301972995E+03 -0.25655627509E+03  0.59863450717E+03  0.87999202683E+02 0.  0.
         23    2    4    4    0    0  0.48138533535E+02  0.44258589436E+03 -0.63517094343E+03  0.78089137801E+03  0.90275271126E+02 0.  0.
          3    1    3    3  502    0  0.10153972176E+03 -0.10081055581E+03  0.13329168734E+03  0.19554988410E+03  0.00000000000E+00 0. -1.
         -4    1    3    3    0  502  0.36157828838E+03 -0.18875560860E+03  0.46372071170E+03  0.61757949841E+03  0.00000000000E+00 0.  1.
         13    1    5    5    0    0 -0.24672950821E+03 -0.73855847751E+02 -0.75262213398E+02  0.26831797784E+03  0.00000000000E+00 0. -1.
        -13    1    5    5    0    0 -0.26452703547E+03 -0.79163882201E+02 -0.18129406169E+03  0.33031652932E+03  0.00000000000E+00 0.  1.
          2    1    6    6  503    0 -0.17000859197E+02  0.45842887348E+02 -0.10205986043E+03  0.11316719774E+03  0.00000000000E+00 0. -1.
         -2    1    6    6    0  503  0.65139392732E+02  0.39674300701E+03 -0.53311108300E+03  0.66772418027E+03  0.00000000000E+00 0.  1.
<mgrwt>
<rscale>  0 0.21727587E+04</rscale>
<asrwt>0</asrwt>
<pdfrwt beam="1">  1        1 0.19133616E+00 0.21727587E+04</pdfrwt>
<pdfrwt beam="2">  1       -2 0.14599542E+00 0.21727587E+04</pdfrwt>
<totfact> 0.25627181E+00</totfact>
</mgrwt>
</event>
<event>
12    5  0.5246737E-008  0.1554260E+04  0.7818608E-02  0.8849151E-01
         -2   -1    0    0    0  501 -0.00000000000E+00  0.00000000000E+00  0.38656719888E+03  0.38656719888E+03  0.00000000000E+00 0.  1.
          1   -1    0    0  501    0  0.00000000000E+00 -0.00000000000E+00 -0.15622923501E+04  0.15622923501E+04  0.00000000000E+00 0. -1.
        -24    2    1    2    0    0 -0.44074824286E+03  0.58640900795E+02 -0.72014962163E+03  0.85008554650E+03  0.79575058915E+02 0.  0.
        254    2    1    2    0    0  0.44074824286E+03 -0.58640900795E+02 -0.45557552955E+03  0.10987740024E+04  0.89557661676E+03 0.  0.
         23    2    4    4    0    0  0.43817617379E+03 -0.42840522345E+03 -0.28816804523E+03  0.68288426070E+03  0.88094815201E+02 0.  0.
         23    2    4    4    0    0  0.25720690708E+01  0.36976432265E+03 -0.16740748433E+03  0.41588974175E+03  0.90591068195E+02 0.  0.
          1    1    3    3  502    0 -0.35631051786E+03  0.38367555046E+02 -0.63078913090E+03  0.72548203430E+03  0.00000000000E+00 0. -1.
         -2    1    3    3    0  502 -0.84437724995E+02  0.20273345749E+02 -0.89360490730E+02  0.12460351220E+03  0.00000000000E+00 0.  1.
         13    1    5    5    0    0  0.15958196943E+02 -0.44920722453E+01  0.39969209880E+01  0.17053390869E+02  0.00000000000E+00 0.  1.
        -13    1    5    5    0    0  0.42221797684E+03 -0.42391315120E+03 -0.29216496621E+03  0.66583086983E+03  0.00000000000E+00 0. -1.
          3    1    6    6  503    0  0.30945158346E+02  0.32694880174E+03 -0.15445700206E+03  0.36291884392E+03  0.00000000000E+00 0. -1.
         -3    1    6    6    0  503 -0.28373089275E+02  0.42815520910E+02 -0.12950482260E+02  0.52970897827E+02  0.00000000000E+00 0.  1.
<mgrwt>
<rscale>  0 0.15542599E+04</rscale>
<asrwt>0</asrwt>
<pdfrwt beam="1">  1        1 0.24035267E+00 0.15542599E+04</pdfrwt>
<pdfrwt beam="2">  1       -2 0.59471877E-01 0.15542599E+04</pdfrwt>
<totfact> 0.13211713E+01</totfact>
</mgrwt>
</event>
<event>
12    5  0.5246737E-008  0.1499109E+04  0.7818608E-02  0.8885045E-01
          3   -1    0    0  501    0  0.00000000000E+00  0.00000000000E+00  0.40061742324E+03  0.40061742324E+03  0.00000000000E+00 0. -1.
         -4   -1    0    0    0  501 -0.00000000000E+00 -0.00000000000E+00 -0.14024159390E+04  0.14024159390E+04  0.00000000000E+00 0.  1.
        -24    2    1    2    0    0  0.19853726208E+02 -0.42163605155E+03 -0.68040809664E+02  0.43515632498E+03  0.80995956576E+02 0.  0.
        254    2    1    2    0    0 -0.19853726208E+02  0.42163605155E+03 -0.93375770606E+03  0.13678770372E+04  0.90609767958E+03 0.  0.
         23    2    4    4    0    0  0.40688371311E+02  0.57844922819E+02  0.16679762885E+03  0.20361705715E+03  0.92934806798E+02 0.  0.
         23    2    4    4    0    0 -0.60542097520E+02  0.36379112873E+03 -0.11005553349E+04  0.11642599801E+04  0.90939128621E+02 0.  0.
          3    1    3    3  502    0  0.22564412295E+02 -0.36317650004E+02  0.47287999804E+01  0.43017275057E+02  0.00000000000E+00 0. -1.
         -4    1    3    3    0  502 -0.27106860872E+01 -0.38531840154E+03 -0.72769609645E+02  0.39213904992E+03  0.00000000000E+00 0.  1.
         13    1    5    5    0    0 -0.43503138877E+01  0.42520732925E+02  0.14521724619E+03  0.15137696836E+03  0.00000000000E+00 0. -1.
        -13    1    5    5    0    0  0.45038685199E+02  0.15324189894E+02  0.21580382660E+02  0.52240088784E+02  0.00000000000E+00 0.  1.
          1    1    6    6  503    0 -0.48607234989E+01  0.25592892377E+03 -0.68188580989E+03  0.72834847318E+03  0.00000000000E+00 0. -1.
         -1    1    6    6    0  503 -0.55681374021E+02  0.10786220496E+03 -0.41866952502E+03  0.43591150690E+03  0.00000000000E+00 0.  1.
<mgrwt>
<rscale>  0 0.14991094E+04</rscale>
<asrwt>0</asrwt>
<pdfrwt beam="1">  1        3 0.61633451E-01 0.14991094E+04</pdfrwt>
<pdfrwt beam="2">  1       -4 0.21575630E+00 0.14991094E+04</pdfrwt>
<totfact> 0.58919498E-01</totfact>
</mgrwt>
</event>
<event>
12    5  0.5246737E-008  0.3042902E+04  0.7818608E-02  0.8231585E-01
         -2   -1    0    0    0  501 -0.00000000000E+00  0.00000000000E+00  0.12931880205E+04  0.12931880205E+04  0.00000000000E+00 0.  1.
          1   -1    0    0  501    0  0.00000000000E+00 -0.00000000000E+00 -0.17900050549E+04  0.17900050549E+04  0.00000000000E+00 0. -1.
        -24    2    1    2    0    0  0.30524231009E+03 -0.90115521341E+02  0.11429889936E+04  0.11891439149E+04  0.79660126858E+02 0.  0.
        254    2    1    2    0    0 -0.30524231009E+03  0.90115521341E+02 -0.16398060281E+04  0.18940491605E+04  0.89284082440E+03 0.  0.
         23    2    4    4    0    0  0.17272651769E+03 -0.71995071315E+02 -0.12039220107E+04  0.12218045027E+04  0.91434647405E+02 0.  0.
         23    2    4    4    0    0 -0.47796882779E+03  0.16211059266E+03 -0.43588401733E+03  0.67224465779E+03  0.84758237205E+02 0.  0.
          1    1    3    3  502    0  0.54250044825E+02 -0.29061301428E+02  0.13144755341E+03  0.14514160638E+03  0.00000000000E+00 0. -1.
         -2    1    3    3    0  502  0.25099226527E+03 -0.61054219913E+02  0.10115414402E+04  0.10440023085E+04  0.00000000000E+00 0.  1.
         13    1    5    5    0    0  0.62599686732E+02 -0.66383891549E+02 -0.70249049818E+03  0.70839144678E+03  0.00000000000E+00 0. -1.
        -13    1    5    5    0    0  0.11012683096E+03 -0.56111797658E+01 -0.50143151256E+03  0.51341305595E+03  0.00000000000E+00 0.  1.
          3    1    6    6  503    0 -0.35029256040E+03  0.15649443392E+03 -0.33710957840E+03  0.51072326515E+03  0.00000000000E+00 0. -1.
         -3    1    6    6    0  503 -0.12767626739E+03  0.56161587342E+01 -0.98774438930E+02  0.16152139264E+03  0.00000000000E+00 0.  1.
<mgrwt>
<rscale>  0 0.30429020E+04</rscale>
<asrwt>0</asrwt>
<pdfrwt beam="1">  1        1 0.27538539E+00 0.30429020E+04</pdfrwt>
<pdfrwt beam="2">  1       -2 0.19895200E+00 0.30429020E+04</pdfrwt>
<totfact> 0.41673385E-01</totfact>
</mgrwt>
</event>
<event>
12    5  0.5246737E-008  0.1303165E+04  0.7818608E-02  0.9027059E-01
         -2   -1    0    0    0  501 -0.00000000000E+00  0.00000000000E+00  0.11172584744E+04  0.11172584744E+04  0.00000000000E+00 0.  1.
          1   -1    0    0  501    0  0.00000000000E+00 -0.00000000000E+00 -0.38000118054E+03  0.38000118054E+03  0.00000000000E+00 0. -1.
        -24    2    1    2    0    0  0.29745870779E+03 -0.14613357910E+03  0.31722554903E+03  0.46611091222E+03  0.82405265296E+02 0.  0.
        254    2    1    2    0    0 -0.29745870779E+03  0.14613357910E+03  0.42003174485E+03  0.10311487427E+04  0.88147850637E+03 0.  0.
         23    2    4    4    0    0 -0.31165854520E+03  0.36346523728E+03 -0.65476168959E+02  0.49106313132E+03  0.87280254018E+02 0.  0.
         23    2    4    4    0    0  0.14199837402E+02 -0.21733165818E+03  0.48550791381E+03  0.54008561141E+03  0.92411299399E+02 0.  0.
          1    1    3    3  502    0  0.20412270067E+03 -0.12585916038E+03  0.26444815741E+03  0.35698660077E+03  0.00000000000E+00 0. -1.
         -2    1    3    3    0  502  0.93336007129E+02 -0.20274418721E+02  0.52777391625E+02  0.10912431144E+03  0.00000000000E+00 0.  1.
         13    1    5    5    0    0 -0.25242734710E+03  0.32620521349E+03 -0.78538988130E+02  0.41987829133E+03  0.00000000000E+00 0.  1.
        -13    1    5    5    0    0 -0.59231198092E+02  0.37260023782E+02  0.13062819171E+02  0.71184839990E+02  0.00000000000E+00 0. -1.
          2    1    6    6  503    0  0.38403937516E+02 -0.12004184819E+03  0.18971705202E+03  0.22776625641E+03  0.00000000000E+00 0.  1.
         -2    1    6    6    0  503 -0.24204100113E+02 -0.97289809990E+02  0.29579086179E+03  0.31231935500E+03  0.00000000000E+00 0. -1.
<mgrwt>
<rscale>  0 0.13031647E+04</rscale>
<asrwt>0</asrwt>
<pdfrwt beam="1">  1        1 0.58461721E-01 0.13031647E+04</pdfrwt>
<pdfrwt beam="2">  1       -2 0.17188592E+00 0.13031647E+04</pdfrwt>
<totfact> 0.11378967E+01</totfact>
</mgrwt>
</event>
<event>
12    5  0.5246737E-008  0.1811829E+04  0.7818608E-02  0.8700034E-01
          1   -1    0    0  501    0  0.00000000000E+00  0.00000000000E+00  0.14704559278E+04  0.14704559278E+04  0.00000000000E+00 0. -1.
         -2   -1    0    0    0  501 -0.00000000000E+00 -0.00000000000E+00 -0.55811362537E+03  0.55811362537E+03  0.00000000000E+00 0.  1.
        -24    2    1    2    0    0 -0.92927126064E+02 -0.17313123851E+03  0.10665220644E+04  0.10875144310E+04  0.81292356166E+02 0.  0.
        254    2    1    2    0    0  0.92927126064E+02  0.17313123851E+03 -0.15417976202E+03  0.94105512218E+03  0.90730560863E+03 0.  0.
         23    2    4    4    0    0  0.35352321056E+02  0.52873949013E+03  0.20970788150E+01  0.53770528694E+03  0.91144625918E+02 0.  0.
         23    2    4    4    0    0  0.57574805008E+02 -0.35560825162E+03 -0.15627684084E+03  0.40334983524E+03  0.92176742250E+02 0.  0.
          1    1    3    3  502    0 -0.42403360945E+02 -0.31587407433E+02  0.44256713736E+03  0.44571457279E+03  0.00000000000E+00 0. -1.
         -2    1    3    3    0  502 -0.50523765119E+02 -0.14154383108E+03  0.62395492707E+03  0.64179985819E+03  0.00000000000E+00 0.  1.
         13    1    5    5    0    0  0.42414900893E+02  0.24198299075E+03  0.38108226726E+02  0.24861019403E+03  0.00000000000E+00 0.  1.
        -13    1    5    5    0    0 -0.70625798373E+01  0.28675649938E+03 -0.36011147911E+02  0.28909509291E+03  0.00000000000E+00 0. -1.
          1    1    6    6  503    0  0.43419642720E+02 -0.34326912071E+03 -0.12701466416E+03  0.36858062825E+03  0.00000000000E+00 0. -1.
         -1    1    6    6    0  503  0.14155162288E+02 -0.12339130909E+02 -0.29262176672E+02  0.34769206988E+02  0.00000000000E+00 0.  1.
<mgrwt>
<rscale>  0 0.18118294E+04</rscale>
<asrwt>0</asrwt>
<pdfrwt beam="1">  1        1 0.22622399E+00 0.18118294E+04</pdfrwt>
<pdfrwt beam="2">  1       -2 0.85863635E-01 0.18118294E+04</pdfrwt>
<totfact> 0.66801456E+00</totfact>
</mgrwt>
</event>
<event>
12    5  0.5246737E-008  0.1832924E+04  0.7818608E-02  0.8688984E-01
         -2   -1    0    0    0  501 -0.00000000000E+00  0.00000000000E+00  0.15773270478E+04  0.15773270478E+04  0.00000000000E+00 0.  1.
          1   -1    0    0  501    0  0.00000000000E+00 -0.00000000000E+00 -0.53248501146E+03  0.53248501146E+03  0.00000000000E+00 0. -1.
        -24    2    1    2    0    0 -0.33725981096E+03 -0.61204707216E+03  0.37668838714E+03  0.79776365081E+03  0.78656868166E+02 0.  0.
        254    2    1    2    0    0  0.33725981096E+03  0.61204707216E+03  0.66815364923E+03  0.13120484085E+04  0.88695880886E+03 0.  0.
         23    2    4    4    0    0  0.31950189140E+03  0.82675102222E+03  0.52154066514E+03  0.10326354885E+04  0.93448784292E+02 0.  0.
         23    2    4    4    0    0  0.17757919565E+02 -0.21470395006E+03  0.14661298409E+03  0.27941292003E+03  0.10081211681E+03 0.  0.
          3    1    3    3  502    0 -0.21752329937E+02 -0.61789210176E+02  0.59889719161E+02  0.88757246539E+02  0.00000000000E+00 0. -1.
         -4    1    3    3    0  502 -0.31550748102E+03 -0.55025786198E+03  0.31679866798E+03  0.70900640427E+03  0.00000000000E+00 0.  1.
         13    1    5    5    0    0  0.29900093534E+03  0.81152871685E+03  0.49848429270E+03  0.99823194082E+03  0.00000000000E+00 0.  1.
        -13    1    5    5    0    0  0.20500956059E+02  0.15222305368E+02  0.23056372440E+02  0.34403547639E+02  0.00000000000E+00 0. -1.
          3    1    6    6  503    0  0.19937945194E+02 -0.52568200844E+02  0.92917984570E+02  0.10860335748E+03  0.00000000000E+00 0. -1.
         -3    1    6    6    0  503 -0.21800256296E+01 -0.16213574922E+03  0.53694999522E+02  0.17080956255E+03  0.00000000000E+00 0.  1.
<mgrwt>
<rscale>  0 0.18329245E+04</rscale>
<asrwt>0</asrwt>
<pdfrwt beam="1">  1        1 0.81920772E-01 0.18329245E+04</pdfrwt>
<pdfrwt beam="2">  1       -2 0.24266570E+00 0.18329245E+04</pdfrwt>
<totfact> 0.23839477E+00</totfact>
</mgrwt>
</event>
<event>
12    5  0.5246737E-008  0.2307713E+04  0.7818608E-02  0.8474886E-01
         -2   -1    0    0    0  501 -0.00000000000E+00  0.00000000000E+00  0.59123288538E+03  0.59123288538E+03  0.00000000000E+00 0.  1.
          1   -1    0    0  501    0  0.00000000000E+00 -0.00000000000E+00 -0.22518785379E+04  0.22518785379E+04  0.00000000000E+00 0. -1.
        -24    2    1    2    0    0  0.61033601138E+02 -0.46932309903E+03  0.34062106452E+03  0.58830254987E+03  0.78025052647E+02 0.  0.
        254    2    1    2    0    0 -0.61033601138E+02  0.46932309903E+03 -0.20012667170E+04  0.22548088734E+04  0.92471904442E+03 0.  0.
         23    2    4    4    0    0  0.40282432697E+03  0.36790259170E+03 -0.10030198944E+04  0.11455620377E+04  0.92971599112E+02 0.  0.
         23    2    4    4    0    0 -0.46385792811E+03  0.10142050734E+03 -0.99824682261E+03  0.11092468357E+04  0.92095205539E+02 0.  0.
          3    1    3    3  502    0  0.29913434929E+02 -0.44110906709E+02  0.39414764029E+02  0.66288078139E+02  0.00000000000E+00 0. -1.
         -4    1    3    3    0  502  0.31120166209E+02 -0.42521219232E+03  0.30120630049E+03  0.52201447173E+03  0.00000000000E+00 0.  1.
         13    1    5    5    0    0  0.39772930498E+03  0.37344912679E+03 -0.99326610542E+03  0.11332389009E+04  0.00000000000E+00 0.  1.
        -13    1    5    5    0    0  0.50950219865E+01 -0.55465350991E+01 -0.97537890116E+01  0.12323136806E+02  0.00000000000E+00 0. -1.
          3    1    6    6  503    0 -0.15110538111E+03  0.45566732951E+01 -0.24449211816E+03  0.28745433605E+03  0.00000000000E+00 0. -1.
         -3    1    6    6    0  503 -0.31275254699E+03  0.96863834041E+02 -0.75375470445E+03  0.82179249965E+03  0.00000000000E+00 0.  1.
<mgrwt>
<rscale>  0 0.23077128E+04</rscale>
<asrwt>0</asrwt>
<pdfrwt beam="1">  1        1 0.34644285E+00 0.23077128E+04</pdfrwt>
<pdfrwt beam="2">  1       -2 0.90958906E-01 0.23077128E+04</pdfrwt>
<totfact> 0.16433130E+00</totfact>
</mgrwt>
</event>
<event>
12    5  0.5354841E-008  0.2194023E+04  0.7818608E-02  0.8520920E-01
         -2   -1    0    0    0  501 -0.00000000000E+00  0.00000000000E+00  0.65205476824E+03  0.65205476824E+03  0.00000000000E+00 0.  1.
          1   -1    0    0  501    0  0.00000000000E+00 -0.00000000000E+00 -0.18456034671E+04  0.18456034671E+04  0.00000000000E+00 0. -1.
        -24    2    1    2    0    0 -0.54706411087E+03 -0.38791624934E+03 -0.11253880308E+04  0.13124445678E+04  0.79084547473E+02 0.  0.
        254    2    1    2    0    0  0.54706411087E+03  0.38791624934E+03 -0.68160668004E+02  0.11852136675E+04  0.97484737428E+03 0.  0.
         23    2    4    4    0    0  0.69805083775E+03  0.54836116954E+03 -0.20120667263E+03  0.91470306931E+03  0.90678749148E+02 0.  0.
         23    2    4    4    0    0 -0.15098672688E+03 -0.16044492021E+03  0.13304600463E+03  0.27051059822E+03  0.83277729843E+02 0.  0.
          1    1    3    3  502    0 -0.50361536572E+03 -0.38018753854E+03 -0.10448093042E+04  0.12205726047E+04  0.00000000000E+00 0. -1.
         -2    1    3    3    0  502 -0.43448745150E+02 -0.77287107961E+01 -0.80578726592E+02  0.91871963106E+02  0.00000000000E+00 0.  1.
         13    1    5    5    0    0  0.16849874563E+03  0.12464775939E+03 -0.87094029331E+02  0.22696753324E+03  0.00000000000E+00 0.  1.
        -13    1    5    5    0    0  0.52955209212E+03  0.42371341016E+03 -0.11411264330E+03  0.68773553607E+03  0.00000000000E+00 0. -1.
          4    1    6    6  503    0 -0.14408799330E+03 -0.16993439148E+03  0.13140961939E+03  0.25866490927E+03  0.00000000000E+00 0. -1.
         -4    1    6    6    0  503 -0.68987335803E+01  0.94894712723E+01  0.16363852424E+01  0.11845688950E+02  0.00000000000E+00 0.  1.
<mgrwt>
<rscale>  0 0.21940233E+04</rscale>
<asrwt>0</asrwt>
<pdfrwt beam="1">  1        1 0.28393899E+00 0.21940233E+04</pdfrwt>
<pdfrwt beam="2">  1       -2 0.10031612E+00 0.21940233E+04</pdfrwt>
<totfact> 0.24915672E+00</totfact>
</mgrwt>
</event>
<event>
12    5  0.5246737E-008  0.1807935E+04  0.7818608E-02  0.8702091E-01
          1   -1    0    0  501    0  0.00000000000E+00  0.00000000000E+00  0.73120924129E+03  0.73120924129E+03  0.00000000000E+00 0. -1.
         -2   -1    0    0    0  501 -0.00000000000E+00 -0.00000000000E+00 -0.11175423548E+04  0.11175423548E+04  0.00000000000E+00 0.  1.
        -24    2    1    2    0    0  0.42597790565E+03  0.52578698423E+03  0.40103785756E+01  0.68123434280E+03  0.78453921424E+02 0.  0.
        254    2    1    2    0    0 -0.42597790565E+03 -0.52578698423E+03 -0.39034349207E+03  0.11675172533E+04  0.86765163862E+03 0.  0.
         23    2    4    4    0    0  0.10418893384E+03 -0.52836669798E+03 -0.97567223519E+02  0.55505342347E+03  0.92402588357E+02 0.  0.
         23    2    4    4    0    0 -0.53016683949E+03  0.25797137452E+01 -0.29277626855E+03  0.61246382980E+03  0.91161761530E+02 0.  0.
          3    1    3    3  502    0  0.19948533772E+03  0.24866056904E+03  0.41023714396E+02  0.32141783352E+03  0.00000000000E+00 0. -1.
         -4    1    3    3    0  502  0.22649256793E+03  0.27712641519E+03 -0.37013335821E+02  0.35981650929E+03  0.00000000000E+00 0.  1.
         13    1    5    5    0    0 -0.15673304257E+02 -0.90068430413E+02 -0.67204826364E+01  0.91668639732E+02  0.00000000000E+00 0.  1.
        -13    1    5    5    0    0  0.11986223810E+03 -0.43829826756E+03 -0.90846740882E+02  0.46338478374E+03  0.00000000000E+00 0. -1.
          4    1    6    6  503    0 -0.40078707941E+03 -0.20391062709E+02 -0.25601858884E+03  0.47601638237E+03  0.00000000000E+00 0. -1.
         -4    1    6    6    0  503 -0.12937976009E+03  0.22970776454E+02 -0.36757679710E+02  0.13644744743E+03  0.00000000000E+00 0.  1.
<mgrwt>
<rscale>  0 0.18079351E+04</rscale>
<asrwt>0</asrwt>
<pdfrwt beam="1">  1        1 0.11249373E+00 0.18079351E+04</pdfrwt>
<pdfrwt beam="2">  1       -2 0.17192959E+00 0.18079351E+04</pdfrwt>
<totfact> 0.43430967E+00</totfact>
</mgrwt>
</event>
<event>
12    5  0.5246737E-008  0.2021259E+04  0.7818608E-02  0.8596746E-01
          3   -1    0    0  501    0  0.00000000000E+00  0.00000000000E+00  0.62749125103E+03  0.62749125103E+03  0.00000000000E+00 0. -1.
         -4   -1    0    0    0  501 -0.00000000000E+00 -0.00000000000E+00 -0.16277067200E+04  0.16277067200E+04  0.00000000000E+00 0.  1.
        -24    2    1    2    0    0 -0.24736537219E+03  0.73763226715E+03 -0.15321494255E+03  0.79637060733E+03  0.73758638149E+02 0.  0.
        254    2    1    2    0    0  0.24736537219E+03 -0.73763226715E+03 -0.84700052640E+03  0.14588273637E+04  0.89748336833E+03 0.  0.
         23    2    4    4    0    0  0.13147893127E+03 -0.98542949400E+02 -0.77678435830E+03  0.79922006652E+03  0.91440435166E+02 0.  0.
         23    2    4    4    0    0  0.11588644092E+03 -0.63908931775E+03 -0.70216168097E+02  0.65960729717E+03  0.91031054947E+02 0.  0.
          3    1    3    3  502    0 -0.77491463956E+02  0.14450491158E+03 -0.20089356293E+02  0.16519739312E+03  0.00000000000E+00 0. -1.
         -4    1    3    3    0  502 -0.16987390823E+03  0.59312735557E+03 -0.13312558625E+03  0.63117321421E+03  0.00000000000E+00 0.  1.
         13    1    5    5    0    0  0.97078484443E+02 -0.64993726768E+02 -0.69177143370E+03  0.70156691281E+03  0.00000000000E+00 0.  1.
        -13    1    5    5    0    0  0.34400446824E+02 -0.33549222632E+02 -0.85012924595E+02  0.97653153708E+02  0.00000000000E+00 0. -1.
          3    1    6    6  503    0 -0.46306212952E+01 -0.14322621443E+03  0.71402542963E+01  0.14347882905E+03  0.00000000000E+00 0. -1.
         -3    1    6    6    0  503  0.12051706222E+03 -0.49586310332E+03 -0.77356422393E+02  0.51612846812E+03  0.00000000000E+00 0.  1.
<mgrwt>
<rscale>  0 0.20212587E+04</rscale>
<asrwt>0</asrwt>
<pdfrwt beam="1">  1        3 0.96537117E-01 0.20212587E+04</pdfrwt>
<pdfrwt beam="2">  1       -4 0.25041641E+00 0.20212587E+04</pdfrwt>
<totfact> 0.12628244E-01</totfact>
</mgrwt>
</event>
<event>
12    5  0.5246737E-008  0.2339241E+04  0.7818608E-02  0.8462608E-01
          1   -1    0    0  501    0  0.00000000000E+00  0.00000000000E+00  0.13438450954E+04  0.13438450954E+04  0.00000000000E+00 0. -1.
         -2   -1    0    0    0  501 -0.00000000000E+00 -0.00000000000E+00 -0.10179837373E+04  0.10179837373E+04  0.00000000000E+00 0.  1.
        -24    2    1    2    0    0  0.67247224658E+03 -0.43252639524E+03  0.73719571979E+03  0.10904011453E+04  0.78861418459E+02 0.  0.
        254    2    1    2    0    0 -0.67247224658E+03  0.43252639524E+03 -0.41133436170E+03  0.12714276874E+04  0.89890733796E+03 0.  0.
         23    2    4    4    0    0 -0.67641842129E+01  0.49450712948E+03 -0.30407794227E+03  0.58761732341E+03  0.90816675274E+02 0.  0.
         23    2    4    4    0    0 -0.66570806237E+03 -0.61980734239E+02 -0.10725641943E+03  0.68381036402E+03  0.95309174311E+02 0.  0.
          3    1    3    3  502    0  0.13822394119E+02 -0.25444880917E+02  0.22337835657E+02  0.36571566085E+02  0.00000000000E+00 0. -1.
         -4    1    3    3    0  502  0.65864985246E+03 -0.40708151432E+03  0.71485788413E+03  0.10538295792E+04  0.00000000000E+00 0.  1.
         13    1    5    5    0    0  0.46802467254E+01  0.41627217904E+03 -0.28988833873E+03  0.50728658634E+03  0.00000000000E+00 0.  1.
        -13    1    5    5    0    0 -0.11444430938E+02  0.78234950436E+02 -0.14189603537E+02  0.80330737068E+02  0.00000000000E+00 0. -1.
          2    1    6    6  503    0 -0.15002016321E+03 -0.11123751982E+02 -0.65083659170E+02  0.16390750415E+03  0.00000000000E+00 0. -1.
         -2    1    6    6    0  503 -0.51568789916E+03 -0.50856982257E+02 -0.42172760262E+02  0.51990285986E+03  0.00000000000E+00 0.  1.
<mgrwt>
<rscale>  0 0.23392413E+04</rscale>
<asrwt>0</asrwt>
<pdfrwt beam="1">  1        1 0.20674540E+00 0.23392413E+04</pdfrwt>
<pdfrwt beam="2">  1       -2 0.15661288E+00 0.23392413E+04</pdfrwt>
<totfact> 0.17767650E+00</totfact>
</mgrwt>
</event>
<event>
12    5  0.5246737E-008  0.1185872E+04  0.7818608E-02  0.9125313E-01
         -2   -1    0    0    0  501 -0.00000000000E+00  0.00000000000E+00  0.32378240585E+03  0.32378240585E+03  0.00000000000E+00 0.  1.
          1   -1    0    0  501    0  0.00000000000E+00 -0.00000000000E+00 -0.10858322827E+04  0.10858322827E+04  0.00000000000E+00 0. -1.
        -24    2    1    2    0    0 -0.17850325462E+03  0.15544082915E+03 -0.13491985755E+03  0.28386714052E+03  0.79698947453E+02 0.  0.
        254    2    1    2    0    0  0.17850325462E+03 -0.15544082915E+03 -0.62713001931E+03  0.11257475480E+04  0.90442811629E+03 0.  0.
         23    2    4    4    0    0  0.29883817655E+03 -0.46966919861E+03 -0.26589785521E+03  0.62305172028E+03  0.87168600141E+02 0.  0.
         23    2    4    4    0    0 -0.12033492193E+03  0.31422836945E+03 -0.36123216410E+03  0.50269582777E+03  0.94839112528E+02 0.  0.
          3    1    3    3  502    0 -0.45132636963E+02  0.42899253294E+02 -0.79058135690E+02  0.10063542950E+03  0.00000000000E+00 0. -1.
         -4    1    3    3    0  502 -0.13337061766E+03  0.11254157586E+03 -0.55861721858E+02  0.18323171101E+03  0.00000000000E+00 0.  1.
         13    1    5    5    0    0  0.45609508442E+02 -0.39134453161E+02 -0.71374169566E+01  0.60520041353E+02  0.00000000000E+00 0.  1.
        -13    1    5    5    0    0  0.25322866811E+03 -0.43053474545E+03 -0.25876043825E+03  0.56253167893E+03  0.00000000000E+00 0. -1.
          2    1    6    6  503    0 -0.95104378448E+02  0.26084801670E+03 -0.23658669987E+03  0.36477362456E+03  0.00000000000E+00 0. -1.
         -2    1    6    6    0  503 -0.25230543482E+02  0.53380352755E+02 -0.12464546423E+03  0.13792220321E+03  0.00000000000E+00 0.  1.
<mgrwt>
<rscale>  0 0.11858725E+04</rscale>
<asrwt>0</asrwt>
<pdfrwt beam="1">  1        1 0.16705112E+00 0.11858725E+04</pdfrwt>
<pdfrwt beam="2">  1       -2 0.49812677E-01 0.11858725E+04</pdfrwt>
<totfact> 0.43043307E+01</totfact>
</mgrwt>
</event>
<event>
12    5  0.5246737E-008  0.1893112E+04  0.7818608E-02  0.8658293E-01
          1   -1    0    0  501    0  0.00000000000E+00  0.00000000000E+00  0.10824532700E+04  0.10824532700E+04  0.00000000000E+00 0. -1.
         -2   -1    0    0    0  501 -0.00000000000E+00 -0.00000000000E+00 -0.82771984534E+03  0.82771984534E+03  0.00000000000E+00 0.  1.
        -24    2    1    2    0    0  0.90398898931E+02 -0.72274482416E+03  0.97780333233E+02  0.73945029799E+03  0.81815083305E+02 0.  0.
        254    2    1    2    0    0 -0.90398898931E+02  0.72274482416E+03  0.15695309141E+03  0.11707228173E+04  0.90300919172E+03 0.  0.
         23    2    4    4    0    0  0.21577961423E+03  0.46375944610E+03 -0.26283953225E+03  0.58291113841E+03  0.95221372655E+02 0.  0.
         23    2    4    4    0    0 -0.30617851316E+03  0.25898537806E+03  0.41979262366E+03  0.58781167892E+03  0.92076137084E+02 0.  0.
          1    1    3    3  502    0  0.10521414903E+03 -0.61445170974E+03  0.76145999561E+02  0.62802797232E+03  0.00000000000E+00 0. -1.
         -2    1    3    3    0  502 -0.14815250101E+02 -0.10829311442E+03  0.21634333672E+02  0.11142232567E+03  0.00000000000E+00 0.  1.
         13    1    5    5    0    0  0.89364716128E+02  0.29314990004E+03 -0.17673697781E+03  0.35377800342E+03  0.00000000000E+00 0. -1.
        -13    1    5    5    0    0  0.12641489810E+03  0.17060954606E+03 -0.86102554436E+02  0.22913313499E+03  0.00000000000E+00 0.  1.
          3    1    6    6  503    0 -0.22391808586E+03  0.23218492491E+03  0.30379444020E+03  0.44310293434E+03  0.00000000000E+00 0. -1.
         -3    1    6    6    0  503 -0.82260427303E+02  0.26800453153E+02  0.11599818346E+03  0.14470874457E+03  0.00000000000E+00 0.  1.
<mgrwt>
<rscale>  0 0.18931118E+04</rscale>
<asrwt>0</asrwt>
<pdfrwt beam="1">  1        1 0.16653127E+00 0.18931118E+04</pdfrwt>
<pdfrwt beam="2">  1       -2 0.12734151E+00 0.18931118E+04</pdfrwt>
<totfact> 0.49103351E+00</totfact>
</mgrwt>
</event>
<event>
12    5  0.5246737E-008  0.3263564E+04  0.7818608E-02  0.8172229E-01
         -2   -1    0    0    0  501 -0.00000000000E+00  0.00000000000E+00  0.26440752230E+04  0.26440752230E+04  0.00000000000E+00 0.  1.
          1   -1    0    0  501    0  0.00000000000E+00 -0.00000000000E+00 -0.10070489575E+04  0.10070489575E+04  0.00000000000E+00 0. -1.
        -24    2    1    2    0    0  0.11308096240E+04 -0.67352413760E+03  0.15731029925E+04  0.20527100956E+04  0.81243719540E+02 0.  0.
        254    2    1    2    0    0 -0.11308096240E+04  0.67352413760E+03  0.63923273013E+02  0.15984140849E+04  0.90469676264E+03 0.  0.
         23    2    4    4    0    0 -0.93891122430E+03  0.76630642650E+02  0.15255742572E+03  0.95863339169E+03  0.90981696013E+02 0.  0.
         23    2    4    4    0    0 -0.19189839972E+03  0.59689349495E+03 -0.88634152704E+02  0.63978069323E+03  0.91413796968E+02 0.  0.
          1    1    3    3  502    0  0.45105092407E+03 -0.25132759158E+03  0.56028062582E+03  0.76192314184E+03  0.00000000000E+00 0. -1.
         -2    1    3    3    0  502  0.67975869994E+03 -0.42219654602E+03  0.10128223667E+04  0.12907869538E+04  0.00000000000E+00 0.  1.
         13    1    5    5    0    0 -0.66410602552E+03  0.30258288256E+02  0.72885980646E+02  0.66877854579E+03  0.00000000000E+00 0. -1.
        -13    1    5    5    0    0 -0.27480519878E+03  0.46372354395E+02  0.79671445072E+02  0.28985484590E+03  0.00000000000E+00 0.  1.
          4    1    6    6  503    0 -0.96468173561E+02  0.25446783664E+03 -0.82069816502E+02  0.28424539254E+03  0.00000000000E+00 0.  1.
         -4    1    6    6    0  503 -0.95430226155E+02  0.34242565830E+03 -0.65643362017E+01  0.35553530069E+03  0.00000000000E+00 0. -1.
<mgrwt>
<rscale>  0 0.32635644E+04</rscale>
<asrwt>0</asrwt>
<pdfrwt beam="1">  1        1 0.15493061E+00 0.32635644E+04</pdfrwt>
<pdfrwt beam="2">  1       -2 0.40678080E+00 0.32635644E+04</pdfrwt>
<totfact> 0.73033246E-02</totfact>
</mgrwt>
</event>
<event>
12    5  0.5246737E-008  0.2785451E+04  0.7818608E-02  0.8307799E-01
         -2   -1    0    0    0  501 -0.00000000000E+00  0.00000000000E+00  0.43264794089E+03  0.43264794089E+03  0.00000000000E+00 0.  1.
          1   -1    0    0  501    0  0.00000000000E+00 -0.00000000000E+00 -0.44832864355E+04  0.44832864355E+04  0.00000000000E+00 0. -1.
        -24    2    1    2    0    0 -0.86073181721E+02  0.10124521388E+04 -0.30919742287E+04  0.32556129804E+04  0.79014687770E+02 0.  0.
        254    2    1    2    0    0  0.86073181721E+02 -0.10124521388E+04 -0.95866426587E+03  0.16603213960E+04  0.89730821754E+03 0.  0.
         23    2    4    4    0    0  0.19167023517E+02 -0.65874790643E+03 -0.36043483414E+02  0.66598653003E+03  0.89009811104E+02 0.  0.
         23    2    4    4    0    0  0.66906158204E+02 -0.35370423242E+03 -0.92262078246E+03  0.99433486596E+03  0.88823416972E+02 0.  0.
          1    1    3    3  502    0 -0.81224996501E+02  0.96501769260E+03 -0.29925247741E+04  0.31453236989E+04  0.00000000000E+00 0. -1.
         -2    1    3    3    0  502 -0.48481852196E+01  0.47434446245E+02 -0.99449454565E+02  0.11028928145E+03  0.00000000000E+00 0.  1.
         13    1    5    5    0    0  0.37742451981E+02 -0.13380463881E+03  0.49819656781E+01  0.13911503884E+03  0.00000000000E+00 0. -1.
        -13    1    5    5    0    0 -0.18575428464E+02 -0.52494326762E+03 -0.41025449092E+02  0.52687149119E+03  0.00000000000E+00 0.  1.
          1    1    6    6  503    0  0.64618615466E+01 -0.85231178836E+02 -0.13265805383E+03  0.15781086384E+03  0.00000000000E+00 0. -1.
         -1    1    6    6    0  503  0.60444296657E+02 -0.26847305358E+03 -0.78996272863E+03  0.83652400212E+03  0.00000000000E+00 0.  1.
<mgrwt>
<rscale>  0 0.27854512E+04</rscale>
<asrwt>0</asrwt>
<pdfrwt beam="1">  1        1 0.68973638E+00 0.27854512E+04</pdfrwt>
<pdfrwt beam="2">  1       -2 0.66561222E-01 0.27854512E+04</pdfrwt>
<totfact> 0.53083386E-02</totfact>
</mgrwt>
</event>
<event>
12    5  0.5246737E-008  0.1049878E+04  0.7818608E-02  0.9255470E-01
          1   -1    0    0  501    0  0.00000000000E+00  0.00000000000E+00  0.11895872797E+04  0.11895872797E+04  0.00000000000E+00 0. -1.
         -2   -1    0    0    0  501 -0.00000000000E+00 -0.00000000000E+00 -0.23164431387E+03  0.23164431387E+03  0.00000000000E+00 0.  1.
        -24    2    1    2    0    0 -0.19258156964E+02  0.94781717965E+02  0.37635121061E+02  0.13104930267E+03  0.80019164731E+02 0.  0.
        254    2    1    2    0    0  0.19258156964E+02 -0.94781717965E+02  0.92030784473E+03  0.12901822909E+04  0.89902689831E+03 0.  0.
         23    2    4    4    0    0  0.31445765903E+03  0.26462354466E+03  0.52363553099E+03  0.67205104930E+03  0.92461904805E+02 0.  0.
         23    2    4    4    0    0 -0.29519950206E+03 -0.35940526262E+03  0.39667231374E+03  0.61813124156E+03  0.91773735230E+02 0.  0.
          1    1    3    3  502    0 -0.75002135570E+01  0.63580523063E+02  0.62488530986E+02  0.89462576652E+02  0.00000000000E+00 0. -1.
         -2    1    3    3    0  502 -0.11757943407E+02  0.31201194901E+02 -0.24853409924E+02  0.41586726023E+02  0.00000000000E+00 0.  1.
         13    1    5    5    0    0  0.19096696346E+03  0.12403182739E+03  0.22848083343E+03  0.32257676077E+03  0.00000000000E+00 0. -1.
        -13    1    5    5    0    0  0.12349069556E+03  0.14059171727E+03  0.29515469756E+03  0.34947428853E+03  0.00000000000E+00 0.  1.
          2    1    6    6  503    0 -0.24196770566E+03 -0.29858204078E+03  0.27707698046E+03  0.47378397900E+03  0.00000000000E+00 0.  1.
         -2    1    6    6    0  503 -0.53231796402E+02 -0.60823221846E+02  0.11959533328E+03  0.14434726256E+03  0.00000000000E+00 0. -1.
<mgrwt>
<rscale>  0 0.10498783E+04</rscale>
<asrwt>0</asrwt>
<pdfrwt beam="1">  1        1 0.18301342E+00 0.10498783E+04</pdfrwt>
<pdfrwt beam="2">  1       -2 0.35637587E-01 0.10498783E+04</pdfrwt>
<totfact> 0.70515508E+01</totfact>
</mgrwt>
</event>
<event>
12    5  0.5246737E-008  0.1189376E+04  0.7818608E-02  0.9122207E-01
         -2   -1    0    0    0  501 -0.00000000000E+00  0.00000000000E+00  0.16080150815E+03  0.16080150815E+03  0.00000000000E+00 0.  1.
          1   -1    0    0  501    0  0.00000000000E+00 -0.00000000000E+00 -0.21993203154E+04  0.21993203154E+04  0.00000000000E+00 0. -1.
        -24    2    1    2    0    0  0.89572892268E+02  0.23204806368E+03 -0.46928089932E+03  0.53697758948E+03  0.79061762205E+02 0.  0.
        254    2    1    2    0    0 -0.89572892268E+02 -0.23204806368E+03 -0.15692379079E+04  0.18231442340E+04  0.89413515736E+03 0.  0.
         23    2    4    4    0    0  0.61230724495E+02  0.29916692098E+03 -0.30654983104E+03  0.44186029171E+03  0.89541444291E+02 0.  0.
         23    2    4    4    0    0 -0.15080361676E+03 -0.53121498467E+03 -0.12626880769E+04  0.13812839423E+04  0.92914256850E+02 0.  0.
          3    1    3    3  502    0  0.89391701045E+02  0.17435702332E+03 -0.40915295812E+03  0.45364897325E+03  0.00000000000E+00 0. -1.
         -4    1    3    3    0  502  0.18119122290E+00  0.57691040360E+02 -0.60127941205E+02  0.83328616223E+02  0.00000000000E+00 0.  1.
         13    1    5    5    0    0  0.65417968790E+02  0.20068237075E+03 -0.25365846489E+03  0.32999324445E+03  0.00000000000E+00 0. -1.
        -13    1    5    5    0    0 -0.41872442948E+01  0.98484550232E+02 -0.52891366141E+02  0.11186704725E+03  0.00000000000E+00 0.  1.
          1    1    6    6  503    0 -0.11094577715E+03 -0.22729748491E+03 -0.54138777631E+03  0.59755655503E+03  0.00000000000E+00 0. -1.
         -1    1    6    6    0  503 -0.39857839609E+02 -0.30391749976E+03 -0.72130030054E+03  0.78372738730E+03  0.00000000000E+00 0.  1.
<mgrwt>
<rscale>  0 0.11893763E+04</rscale>
<asrwt>0</asrwt>
<pdfrwt beam="1">  1        1 0.33835693E+00 0.11893763E+04</pdfrwt>
<pdfrwt beam="2">  1       -2 0.24738697E-01 0.11893763E+04</pdfrwt>
<totfact> 0.27826721E+01</totfact>
</mgrwt>
</event>
<event>
12    5  0.5246737E-008  0.1439586E+04  0.7818608E-02  0.8925652E-01
          1   -1    0    0  501    0  0.00000000000E+00  0.00000000000E+00  0.11103159604E+04  0.11103159604E+04  0.00000000000E+00 0. -1.
         -2   -1    0    0    0  501 -0.00000000000E+00 -0.00000000000E+00 -0.46662565661E+03  0.46662565661E+03  0.00000000000E+00 0.  1.
        -24    2    1    2    0    0  0.78346313957E+02  0.12187092998E+03 -0.24461849503E+03  0.29394468982E+03  0.74663271264E+02 0.  0.
        254    2    1    2    0    0 -0.78346313957E+02 -0.12187092998E+03  0.88830879883E+03  0.12829969272E+04  0.91432922116E+03 0.  0.
         23    2    4    4    0    0 -0.34238410558E+03 -0.14196354206E+03  0.32947264373E+02  0.38308288138E+03  0.91029933243E+02 0.  0.
         23    2    4    4    0    0  0.26403779163E+03  0.20092612076E+02  0.85536153446E+03  0.89991404583E+03  0.89901428204E+02 0.  0.
          1    1    3    3  502    0  0.21418181550E+02  0.56784880951E+00 -0.97486566147E+01  0.23539270570E+02  0.00000000000E+00 0. -1.
         -4    1    3    3    0  502  0.56928132407E+02  0.12130308117E+03 -0.23486983841E+03  0.27040541925E+03  0.00000000000E+00 0.  1.
         13    1    5    5    0    0 -0.20573966873E+03 -0.10649738766E+03 -0.19488455686E+02  0.23248721422E+03  0.00000000000E+00 0. -1.
        -13    1    5    5    0    0 -0.13664443685E+03 -0.35466154394E+02  0.52435720059E+02  0.15059566716E+03  0.00000000000E+00 0.  1.
          1    1    6    6  503    0  0.54292099190E+02 -0.28117415931E+01  0.31800813877E+03  0.32262162707E+03  0.00000000000E+00 0. -1.
         -1    1    6    6    0  503  0.20974569244E+03  0.22904353669E+02  0.53735339568E+03  0.57729241876E+03  0.00000000000E+00 0.  1.
<mgrwt>
<rscale>  0 0.14395859E+04</rscale>
<asrwt>0</asrwt>
<pdfrwt beam="1">  1        1 0.17081784E+00 0.14395859E+04</pdfrwt>
<pdfrwt beam="2">  1       -2 0.71788563E-01 0.14395859E+04</pdfrwt>
<totfact> 0.18671908E+01</totfact>
</mgrwt>
</event>
<event>
12    5  0.5246737E-008  0.1040201E+04  0.7818608E-02  0.9265520E-01
          1   -1    0    0  501    0  0.00000000000E+00  0.00000000000E+00  0.26752676055E+03  0.26752676055E+03  0.00000000000E+00 0. -1.
         -2   -1    0    0    0  501 -0.00000000000E+00 -0.00000000000E+00 -0.10111298098E+04  0.10111298098E+04  0.00000000000E+00 0.  1.
        -24    2    1    2    0    0  0.40174852248E+02  0.98443799576E+02 -0.63268103610E+02  0.14598923087E+03  0.77490658581E+02 0.  0.
        254    2    1    2    0    0 -0.40174852248E+02 -0.98443799576E+02 -0.68033494565E+03  0.11326673395E+04  0.89931888851E+03 0.  0.
         23    2    4    4    0    0 -0.29118394093E+03  0.41089100104E+02  0.75869443402E+02  0.31868068531E+03  0.96565030633E+02 0.  0.
         23    2    4    4    0    0  0.25100908868E+03 -0.13953289968E+03 -0.75620438905E+03  0.81398665418E+03  0.90852641486E+02 0.  0.
          1    1    3    3  502    0  0.43897875208E+02  0.32444868251E+02 -0.14367739135E+00  0.54586752667E+02  0.00000000000E+00 0. -1.
         -2    1    3    3    0  502 -0.37230229599E+01  0.65998931325E+02 -0.63124426218E+02  0.91402478202E+02  0.00000000000E+00 0.  1.
         13    1    5    5    0    0 -0.15644557400E+03  0.98346881939E+01  0.88117052062E+02  0.17982367358E+03  0.00000000000E+00 0.  1.
        -13    1    5    5    0    0 -0.13473836693E+03  0.31254411910E+02 -0.12247608660E+02  0.13885701173E+03  0.00000000000E+00 0. -1.
          1    1    6    6  503    0  0.21371046720E+03 -0.84115196886E+02 -0.51880048133E+03  0.56736361319E+03  0.00000000000E+00 0. -1.
         -1    1    6    6    0  503  0.37298621483E+02 -0.55417702794E+02 -0.23740390772E+03  0.24662304099E+03  0.00000000000E+00 0.  1.
<mgrwt>
<rscale>  0 0.10402005E+04</rscale>
<asrwt>0</asrwt>
<pdfrwt beam="1">  1        1 0.41157963E-01 0.10402005E+04</pdfrwt>
<pdfrwt beam="2">  1       -2 0.15555843E+00 0.10402005E+04</pdfrwt>
<totfact> 0.24121944E+01</totfact>
</mgrwt>
</event>
<event>
12    5  0.5246737E-008  0.1538928E+04  0.7818608E-02  0.8858971E-01
         -2   -1    0    0    0  501 -0.00000000000E+00  0.00000000000E+00  0.50724952121E+03  0.50724952121E+03  0.00000000000E+00 0.  1.
          1   -1    0    0  501    0  0.00000000000E+00 -0.00000000000E+00 -0.11672255444E+04  0.11672255444E+04  0.00000000000E+00 0. -1.
        -24    2    1    2    0    0 -0.19137194450E+03  0.37394005366E+03  0.73515320143E+02  0.43214300720E+03  0.69919178374E+02 0.  0.
        254    2    1    2    0    0  0.19137194450E+03 -0.37394005366E+03 -0.73349134332E+03  0.12423320584E+04  0.91045318811E+03 0.  0.
         23    2    4    4    0    0 -0.66519944855E+02  0.13405302295E+03 -0.63314037115E+03  0.65671369953E+03  0.89504399623E+02 0.  0.
         23    2    4    4    0    0  0.25789188935E+03 -0.50799307660E+03 -0.10035097217E+03  0.58561835887E+03  0.91177585842E+02 0.  0.
          3    1    3    3  502    0 -0.18134642671E+03  0.37309256917E+03  0.67132091705E+02  0.42022768756E+03  0.00000000000E+00 0. -1.
         -4    1    3    3    0  502 -0.10025517789E+02  0.84748448502E+00  0.63832284381E+01  0.11915319643E+02  0.00000000000E+00 0.  1.
         13    1    5    5    0    0 -0.44191804164E+02  0.73540074325E+01 -0.19472267338E+03  0.19980970073E+03  0.00000000000E+00 0. -1.
        -13    1    5    5    0    0 -0.22328140691E+02  0.12669901551E+03 -0.43841769777E+03  0.45690399880E+03  0.00000000000E+00 0.  1.
          1    1    6    6  503    0  0.23500325208E+03 -0.37899336653E+03 -0.76968028760E+02  0.45253351016E+03  0.00000000000E+00 0. -1.
         -1    1    6    6    0  503  0.22888637273E+02 -0.12899971007E+03 -0.23382943412E+02  0.13308484872E+03  0.00000000000E+00 0.  1.
<mgrwt>
<rscale>  0 0.15389277E+04</rscale>
<asrwt>0</asrwt>
<pdfrwt beam="1">  1        1 0.17957316E+00 0.15389277E+04</pdfrwt>
<pdfrwt beam="2">  1       -2 0.78038389E-01 0.15389277E+04</pdfrwt>
<totfact> 0.13961834E+01</totfact>
</mgrwt>
</event>
<event>
12    5  0.5246737E-008  0.2557597E+04  0.7818608E-02  0.8382749E-01
          1   -1    0    0  501    0  0.00000000000E+00  0.00000000000E+00  0.30211383983E+03  0.30211383983E+03  0.00000000000E+00 0. -1.
         -2   -1    0    0    0  501 -0.00000000000E+00 -0.00000000000E+00 -0.54129432725E+04  0.54129432725E+04  0.00000000000E+00 0.  1.
        -24    2    1    2    0    0  0.20920845444E+03 -0.76998235616E+03 -0.39734446246E+04  0.40536907593E+04  0.86634757217E+02 0.  0.
        254    2    1    2    0    0 -0.20920845444E+03  0.76998235616E+03 -0.11373848080E+04  0.16613663529E+04  0.91096265075E+03 0.  0.
         23    2    4    4    0    0  0.78913415304E+02  0.18778333705E+03 -0.95534783359E+03  0.98116600973E+03  0.92235279124E+02 0.  0.
         23    2    4    4    0    0 -0.28812186974E+03  0.58219901911E+03 -0.18203697440E+03  0.68020034322E+03  0.86977797139E+02 0.  0.
          1    1    3    3  502    0  0.21527097050E+02 -0.25933269285E+02 -0.12340317685E+03  0.12792300191E+03  0.00000000000E+00 0. -1.
         -2    1    3    3    0  502  0.18768135739E+03 -0.74404908687E+03 -0.38500414478E+04  0.39257677574E+04  0.00000000000E+00 0.  1.
         13    1    5    5    0    0  0.40491549189E+02  0.82075568611E+02 -0.63684095183E+03  0.64338352671E+03  0.00000000000E+00 0. -1.
        -13    1    5    5    0    0  0.38421866115E+02  0.10570776844E+03 -0.31850688176E+03  0.33778248302E+03  0.00000000000E+00 0.  1.
          1    1    6    6  503    0 -0.10124492507E+03  0.21167015253E+03 -0.10946201068E+03  0.25891450347E+03  0.00000000000E+00 0. -1.
         -1    1    6    6    0  503 -0.18687694467E+03  0.37052886657E+03 -0.72574963726E+02  0.42128583975E+03  0.00000000000E+00 0.  1.
<mgrwt>
<rscale>  0 0.25575966E+04</rscale>
<asrwt>0</asrwt>
<pdfrwt beam="1">  1        1 0.46479050E-01 0.25575966E+04</pdfrwt>
<pdfrwt beam="2">  1       -2 0.83276054E+00 0.25575966E+04</pdfrwt>
<totfact> 0.31344636E-03</totfact>
</mgrwt>
</event>
<event>
12    5  0.5246737E-008  0.1262884E+04  0.7818608E-02  0.9059528E-01
         -2   -1    0    0    0  501 -0.00000000000E+00  0.00000000000E+00  0.12877030341E+03  0.12877030341E+03  0.00000000000E+00 0.  1.
          1   -1    0    0  501    0  0.00000000000E+00 -0.00000000000E+00 -0.30963568941E+04  0.30963568941E+04  0.00000000000E+00 0. -1.
        -24    2    1    2    0    0 -0.28950053607E+03  0.38466172750E+02 -0.80444711730E+03  0.86216398924E+03  0.10440964027E+03 0.  0.
        254    2    1    2    0    0  0.28950053607E+03 -0.38466172750E+02 -0.21631394734E+04  0.23629632083E+04  0.90505940994E+03 0.  0.
         23    2    4    4    0    0  0.88829296683E+02  0.13391781011E+02 -0.21314849502E+04  0.21353582277E+04  0.91960230381E+02 0.  0.
         23    2    4    4    0    0  0.20067123939E+03 -0.51857953761E+02 -0.31654523213E+02  0.22760498059E+03  0.88565369443E+02 0.  0.
          1    1    3    3  502    0 -0.37203596345E+02  0.22969945170E+02 -0.23648474769E+03  0.24049274802E+03  0.00000000000E+00 0. -1.
         -2    1    3    3    0  502 -0.25229693973E+03  0.15496227580E+02 -0.56796236961E+03  0.62167124122E+03  0.00000000000E+00 0.  1.
         13    1    5    5    0    0  0.50223748368E+02  0.23615194127E+02 -0.18716021508E+04  0.18724248217E+04  0.00000000000E+00 0. -1.
        -13    1    5    5    0    0  0.38605548315E+02 -0.10223413116E+02 -0.25988279944E+03  0.26293340598E+03  0.00000000000E+00 0.  1.
          2    1    6    6  503    0  0.20258828925E+03 -0.56161203810E+02 -0.15524515240E+02  0.21080110609E+03  0.00000000000E+00 0. -1.
         -2    1    6    6    0  503 -0.19170498617E+01  0.43032500485E+01 -0.16130007972E+02  0.16803874504E+02  0.00000000000E+00 0.  1.
<mgrwt>
<rscale>  0 0.12628837E+04</rscale>
<asrwt>0</asrwt>
<pdfrwt beam="1">  1        1 0.47636257E+00 0.12628837E+04</pdfrwt>
<pdfrwt beam="2">  1       -2 0.19810817E-01 0.12628837E+04</pdfrwt>
<totfact> 0.96676271E+00</totfact>
</mgrwt>
</event>
<event>
12    5  0.5246737E-008  0.1342698E+04  0.7818608E-02  0.8996374E-01
         -4   -1    0    0    0  501 -0.00000000000E+00  0.00000000000E+00  0.11787305999E+04  0.11787305999E+04  0.00000000000E+00 0.  1.
          1   -1    0    0  501    0  0.00000000000E+00 -0.00000000000E+00 -0.38236847175E+03  0.38236847175E+03  0.00000000000E+00 0. -1.
        -24    2    1    2    0    0 -0.10531708250E+03  0.11907320619E+03 -0.16115583828E+03  0.24038542421E+03  0.80893953187E+02 0.  0.
        254    2    1    2    0    0  0.10531708250E+03 -0.11907320619E+03  0.95751796646E+03  0.13207136475E+04  0.89564153891E+03 0.  0.
         23    2    4    4    0    0  0.86457891842E+02  0.36752483126E+03  0.25955443814E+03  0.46567804393E+03  0.83295051362E+02 0.  0.
         23    2    4    4    0    0  0.18859190654E+02 -0.48659803746E+03  0.69796352832E+03  0.85503560355E+03  0.82458943317E+02 0.  0.
          1    1    3    3  502    0 -0.99497006417E+02  0.12713709470E+03 -0.12877024275E+03  0.20650731356E+03  0.00000000000E+00 0. -1.
         -2    1    3    3    0  502 -0.58200760795E+01 -0.80638885095E+01 -0.32385595530E+02  0.33878110652E+02  0.00000000000E+00 0.  1.
         13    1    5    5    0    0  0.39753688759E+02  0.53993397569E+02  0.66996039404E+02  0.94784555951E+02  0.00000000000E+00 0. -1.
        -13    1    5    5    0    0  0.46704203083E+02  0.31353143370E+03  0.19255839874E+03  0.37089348798E+03  0.00000000000E+00 0.  1.
          3    1    6    6  503    0 -0.13184152318E+02 -0.28042099218E+02  0.23800523019E+02  0.39072318806E+02  0.00000000000E+00 0. -1.
         -3    1    6    6    0  503  0.32043342972E+02 -0.45855593824E+03  0.67416300530E+03  0.81596328474E+03  0.00000000000E+00 0.  1.
<mgrwt>
<rscale>  0 0.13426979E+04</rscale>
<asrwt>0</asrwt>
<pdfrwt beam="1">  1        1 0.58825919E-01 0.13426979E+04</pdfrwt>
<pdfrwt beam="2">  1       -4 0.18134317E+00 0.13426979E+04</pdfrwt>
<totfact> 0.52303081E+00</totfact>
</mgrwt>
</event>
<event>
12    5  0.5246737E-008  0.2819557E+04  0.7818608E-02  0.8297222E-01
          1   -1    0    0  501    0  0.00000000000E+00  0.00000000000E+00  0.17305378512E+04  0.17305378512E+04  0.00000000000E+00 0. -1.
         -2   -1    0    0    0  501 -0.00000000000E+00 -0.00000000000E+00 -0.11484722686E+04  0.11484722686E+04  0.00000000000E+00 0.  1.
        -24    2    1    2    0    0 -0.57793190819E+03  0.72676886452E+03 -0.61269005578E+03  0.11153667757E+04  0.80347165039E+02 0.  0.
        254    2    1    2    0    0  0.57793190819E+03 -0.72676886452E+03  0.11947556384E+04  0.17636433441E+04  0.90597932464E+03 0.  0.
         23    2    4    4    0    0  0.30318903088E+03 -0.90403001769E+03  0.91664821190E+03  0.13258440497E+04  0.91785828880E+02 0.  0.
         23    2    4    4    0    0  0.27474287732E+03  0.17726115317E+03  0.27810742649E+03  0.43779929438E+03  0.86135454000E+02 0.  0.
          3    1    3    3  502    0 -0.66126548818E+02  0.82706485248E+02 -0.40900146206E+02  0.11351610071E+03  0.00000000000E+00 0. -1.
         -4    1    3    3    0  502 -0.51180535937E+03  0.64406237927E+03 -0.57178990957E+03  0.10018506750E+04  0.00000000000E+00 0.  1.
         13    1    5    5    0    0  0.52614642394E+02 -0.28872455131E+03  0.28848036530E+03  0.41152288914E+03  0.00000000000E+00 0.  1.
        -13    1    5    5    0    0  0.25057438848E+03 -0.61530546638E+03  0.62816784659E+03  0.91432116054E+03  0.00000000000E+00 0. -1.
          4    1    6    6  503    0  0.17973014863E+03  0.13692995045E+03  0.14156616281E+03  0.26663404904E+03  0.00000000000E+00 0. -1.
         -4    1    6    6    0  503  0.95012728690E+02  0.40331202715E+02  0.13654126368E+03  0.17116524534E+03  0.00000000000E+00 0.  1.
<mgrwt>
<rscale>  0 0.28195565E+04</rscale>
<asrwt>0</asrwt>
<pdfrwt beam="1">  1        1 0.26623659E+00 0.28195565E+04</pdfrwt>
<pdfrwt beam="2">  1       -2 0.17668804E+00 0.28195565E+04</pdfrwt>
<totfact> 0.65961634E-01</totfact>
</mgrwt>
</event>
<event>
12    5  0.5246737E-008  0.2316602E+04  0.7818608E-02  0.8471404E-01
         -2   -1    0    0    0  501 -0.00000000000E+00  0.00000000000E+00  0.70057519038E+03  0.70057519038E+03  0.00000000000E+00 0.  1.
          1   -1    0    0  501    0  0.00000000000E+00 -0.00000000000E+00 -0.19150855012E+04  0.19150855012E+04  0.00000000000E+00 0. -1.
        -24    2    1    2    0    0 -0.34585716432E+03  0.11283297424E+03 -0.15484545809E+04  0.15926127405E+04  0.79720098068E+02 0.  0.
        254    2    1    2    0    0  0.34585716432E+03 -0.11283297424E+03  0.33394427007E+03  0.10230479510E+04  0.89596868050E+03 0.  0.
         23    2    4    4    0    0  0.41548562945E+03  0.22290568816E+02  0.58026537706E+03  0.71987340806E+03  0.91567669373E+02 0.  0.
         23    2    4    4    0    0 -0.69628465135E+02 -0.13512354306E+03 -0.24632110699E+03  0.30317454299E+03  0.90189914728E+02 0.  0.
          3    1    3    3  502    0 -0.19746380663E+03  0.10058940677E+03 -0.10038784669E+04  0.10280477421E+04  0.00000000000E+00 0. -1.
         -2    1    3    3    0  502 -0.14839335769E+03  0.12243567472E+02 -0.54457611392E+03  0.56456499839E+03  0.00000000000E+00 0.  1.
         13    1    5    5    0    0  0.23990418327E+02  0.14589356891E+02  0.13911882066E+02  0.31335761817E+02  0.00000000000E+00 0. -1.
        -13    1    5    5    0    0  0.39149521113E+03  0.77012119252E+01  0.56635349499E+03  0.68853764624E+03  0.00000000000E+00 0.  1.
          4    1    6    6  503    0 -0.23491631041E+01 -0.13606700805E+02  0.60733243778E+01  0.15084632680E+02  0.00000000000E+00 0. -1.
         -4    1    6    6    0  503 -0.67279302031E+02 -0.12151684225E+03 -0.25239443137E+03  0.28808991031E+03  0.00000000000E+00 0.  1.
<mgrwt>
<rscale>  0 0.23166022E+04</rscale>
<asrwt>0</asrwt>
<pdfrwt beam="1">  1        1 0.29462854E+00 0.23166022E+04</pdfrwt>
<pdfrwt beam="2">  1       -2 0.10778080E+00 0.23166022E+04</pdfrwt>
<totfact> 0.18623167E+00</totfact>
</mgrwt>
</event>
<event>
12    5  0.5246737E-008  0.2514798E+04  0.7818608E-02  0.8397733E-01
         -4   -1    0    0    0  501 -0.00000000000E+00  0.00000000000E+00  0.88758881670E+03  0.88758881670E+03  0.00000000000E+00 0.  1.
          1   -1    0    0  501    0  0.00000000000E+00 -0.00000000000E+00 -0.17812890330E+04  0.17812890330E+04  0.00000000000E+00 0. -1.
        -24    2    1    2    0    0 -0.85743487970E+03 -0.26892447697E+03 -0.10564702873E+04  0.13892615499E+04  0.80020240437E+02 0.  0.
        254    2    1    2    0    0  0.85743487970E+03  0.26892447697E+03  0.16277007093E+03  0.12796162998E+04  0.89633076015E+03 0.  0.
         23    2    4    4    0    0  0.30974708977E+03 -0.25149656060E+03 -0.17629576264E+03  0.44637723016E+03  0.94755770618E+02 0.  0.
         23    2    4    4    0    0  0.54768778993E+03  0.52042103757E+03  0.33906583357E+03  0.83323906969E+03  0.92313250274E+02 0.  0.
          3    1    3    3  502    0 -0.84501332675E+03 -0.26785734707E+03 -0.10527417922E+04  0.13762486556E+04  0.00000000000E+00 0. -1.
         -4    1    3    3    0  502 -0.12421552952E+02 -0.10671298979E+01 -0.37284950235E+01  0.13012894340E+02  0.00000000000E+00 0.  1.
         13    1    5    5    0    0  0.35672803416E+02 -0.77790184635E+02 -0.38744651077E+02  0.93941522855E+02  0.00000000000E+00 0. -1.
        -13    1    5    5    0    0  0.27407428636E+03 -0.17370637596E+03 -0.13755111156E+03  0.35243570731E+03  0.00000000000E+00 0.  1.
          2    1    6    6  503    0  0.35315039618E+03  0.27434973193E+03  0.20990079101E+03  0.49400538438E+03  0.00000000000E+00 0. -1.
         -2    1    6    6    0  503  0.19453739376E+03  0.24607130564E+03  0.12916504256E+03  0.33923368531E+03  0.00000000000E+00 0.  1.
<mgrwt>
<rscale>  0 0.25147980E+04</rscale>
<asrwt>0</asrwt>
<pdfrwt beam="1">  1        1 0.27404447E+00 0.25147980E+04</pdfrwt>
<pdfrwt beam="2">  1       -4 0.13655213E+00 0.25147980E+04</pdfrwt>
<totfact> 0.69476922E-01</totfact>
</mgrwt>
</event>
<event>
12    5  0.5246737E-008  0.1750033E+04  0.7818608E-02  0.8733332E-01
         -2   -1    0    0    0  501 -0.00000000000E+00  0.00000000000E+00  0.32249669431E+03  0.32249669431E+03  0.00000000000E+00 0.  1.
          1   -1    0    0  501    0  0.00000000000E+00 -0.00000000000E+00 -0.23741452195E+04  0.23741452195E+04  0.00000000000E+00 0. -1.
        -24    2    1    2    0    0 -0.17688044826E+03 -0.21686768242E+03 -0.15565792360E+04  0.15841716652E+04  0.91338175744E+02 0.  0.
        254    2    1    2    0    0  0.17688044826E+03  0.21686768242E+03 -0.49506928920E+03  0.11124702486E+04  0.95612664863E+03 0.  0.
         23    2    4    4    0    0 -0.27014500028E+03 -0.21881013218E+03 -0.24029246521E+03  0.43231514339E+03  0.91102794912E+02 0.  0.
         23    2    4    4    0    0  0.44702544855E+03  0.43567781460E+03 -0.25477682399E+03  0.68015510520E+03  0.89737546780E+02 0.  0.
          1    1    3    3  502    0 -0.12148070022E+03 -0.17697072944E+03 -0.13400963479E+04  0.13571788465E+04  0.00000000000E+00 0. -1.
         -2    1    3    3    0  502 -0.55399748048E+02 -0.39896952979E+02 -0.21648288808E+03  0.22699281877E+03  0.00000000000E+00 0.  1.
         13    1    5    5    0    0 -0.22092946936E+03 -0.13701437541E+03 -0.14610341586E+03  0.29820962028E+03  0.00000000000E+00 0.  1.
        -13    1    5    5    0    0 -0.49215530918E+02 -0.81795756776E+02 -0.94189049349E+02  0.13410552311E+03  0.00000000000E+00 0. -1.
          2    1    6    6  503    0  0.16298952650E+03  0.15722193967E+03 -0.46581857833E+02  0.23120162962E+03  0.00000000000E+00 0. -1.
         -2    1    6    6    0  503  0.28403592205E+03  0.27845587493E+03 -0.20819496616E+03  0.44895347557E+03  0.00000000000E+00 0.  1.
<mgrwt>
<rscale>  0 0.17500331E+04</rscale>
<asrwt>0</asrwt>
<pdfrwt beam="1">  1        1 0.36525311E+00 0.17500331E+04</pdfrwt>
<pdfrwt beam="2">  1       -2 0.49614877E-01 0.17500331E+04</pdfrwt>
<totfact> 0.53004891E+00</totfact>
</mgrwt>
</event>
<event>
12    5  0.5246737E-008  0.1700079E+04  0.7818608E-02  0.8761320E-01
          1   -1    0    0  501    0  0.00000000000E+00  0.00000000000E+00  0.68554671585E+03  0.68554671585E+03  0.00000000000E+00 0. -1.
         -2   -1    0    0    0  501 -0.00000000000E+00 -0.00000000000E+00 -0.10540007940E+04  0.10540007940E+04  0.00000000000E+00 0.  1.
        -24    2    1    2    0    0 -0.15907534208E+03 -0.26582496860E+03 -0.66996664659E+03  0.74252707891E+03  0.80766806229E+02 0.  0.
        254    2    1    2    0    0  0.15907534208E+03  0.26582496860E+03  0.30151256842E+03  0.99702043095E+03  0.89842753321E+03 0.  0.
         23    2    4    4    0    0 -0.17611154695E+02 -0.22473280550E+03  0.39168586051E+03  0.46042547760E+03  0.88084166926E+02 0.  0.
         23    2    4    4    0    0  0.17668649677E+03  0.49055777410E+03 -0.90173292089E+02  0.53659495335E+03  0.89094744421E+02 0.  0.
          1    1    3    3  502    0 -0.38107707077E+02 -0.94444666857E+02 -0.14492439448E+03  0.17713010064E+03  0.00000000000E+00 0. -1.
         -4    1    3    3    0  502 -0.12096763500E+03 -0.17138030174E+03 -0.52504225211E+03  0.56539697828E+03  0.00000000000E+00 0.  1.
         13    1    5    5    0    0 -0.39848634139E+02 -0.88136654516E+02  0.21684843436E+03  0.23744310265E+03  0.00000000000E+00 0. -1.
        -13    1    5    5    0    0  0.22237479443E+02 -0.13659615098E+03  0.17483742615E+03  0.22298237495E+03  0.00000000000E+00 0.  1.
          1    1    6    6  503    0  0.79928252448E+02  0.12713572017E+03 -0.50448991845E+02  0.15842069833E+03  0.00000000000E+00 0. -1.
         -1    1    6    6    0  503  0.96758244325E+02  0.36342205393E+03 -0.39724300245E+02  0.37817425501E+03  0.00000000000E+00 0.  1.
<mgrwt>
<rscale>  0 0.17000786E+04</rscale>
<asrwt>0</asrwt>
<pdfrwt beam="1">  1        1 0.10546873E+00 0.17000786E+04</pdfrwt>
<pdfrwt beam="2">  1       -2 0.16215397E+00 0.17000786E+04</pdfrwt>
<totfact> 0.56866020E+00</totfact>
</mgrwt>
</event>
<event>
12    5  0.5246737E-008  0.1119983E+04  0.7818608E-02  0.9185931E-01
          1   -1    0    0  501    0  0.00000000000E+00  0.00000000000E+00  0.87146088357E+03  0.87146088357E+03  0.00000000000E+00 0. -1.
         -2   -1    0    0    0  501 -0.00000000000E+00 -0.00000000000E+00 -0.35984476182E+03  0.35984476182E+03  0.00000000000E+00 0.  1.
        -24    2    1    2    0    0 -0.10332711636E+03  0.14065571229E+03  0.54750938855E+02  0.19964869822E+03  0.80008843389E+02 0.  0.
        254    2    1    2    0    0  0.10332711636E+03 -0.14065571229E+03  0.45686518289E+03  0.10316569472E+04  0.90836652235E+03 0.  0.
         23    2    4    4    0    0 -0.14901532194E+03  0.36917122246E+02  0.63792313185E+03  0.66224866958E+03  0.89771588555E+02 0.  0.
         23    2    4    4    0    0  0.25234243830E+03 -0.17757283454E+03 -0.18105794896E+03  0.36940827759E+03  0.92041713017E+02 0.  0.
          1    1    3    3  502    0 -0.10477342075E+03  0.13013903149E+03  0.69936246020E+02  0.18112072140E+03  0.00000000000E+00 0. -1.
         -2    1    3    3    0  502  0.14463043898E+01  0.10516680807E+02 -0.15185307165E+02  0.18527976826E+02  0.00000000000E+00 0.  1.
         13    1    5    5    0    0 -0.94275495202E+02  0.36282120273E+02  0.54594692172E+03  0.55521374495E+03  0.00000000000E+00 0.  1.
        -13    1    5    5    0    0 -0.54739826737E+02  0.63500197251E+00  0.91976210139E+02  0.10703492463E+03  0.00000000000E+00 0. -1.
          3    1    6    6  503    0  0.64047226726E+02 -0.84656923621E+02 -0.28647643888E+02  0.10995239637E+03  0.00000000000E+00 0. -1.
         -3    1    6    6    0  503  0.18829521158E+03 -0.92915910917E+02 -0.15241030507E+03  0.25945588121E+03  0.00000000000E+00 0.  1.
<mgrwt>
<rscale>  0 0.11199833E+04</rscale>
<asrwt>0</asrwt>
<pdfrwt beam="1">  1        1 0.13407090E+00 0.11199833E+04</pdfrwt>
<pdfrwt beam="2">  1       -2 0.55360733E-01 0.11199833E+04</pdfrwt>
<totfact> 0.51396255E+01</totfact>
</mgrwt>
</event>
<event>
12    5  0.5246737E-008  0.1527095E+04  0.7818608E-02  0.8866633E-01
          3   -1    0    0  501    0  0.00000000000E+00  0.00000000000E+00  0.17385655232E+04  0.17385655232E+04  0.00000000000E+00 0. -1.
         -4   -1    0    0    0  501 -0.00000000000E+00 -0.00000000000E+00 -0.33533652649E+03  0.33533652649E+03  0.00000000000E+00 0.  1.
        -24    2    1    2    0    0  0.45322954647E+02  0.25605575302E+03 -0.11131355563E+03  0.29347381675E+03  0.78214158412E+02 0.  0.
        254    2    1    2    0    0 -0.45322954647E+02 -0.25605575302E+03  0.15145425523E+04  0.17804282329E+04  0.89914783597E+03 0.  0.
         23    2    4    4    0    0 -0.33908233601E+03 -0.24444886485E+03  0.13788263645E+04  0.14437723969E+04  0.92652645162E+02 0.  0.
         23    2    4    4    0    0  0.29375938136E+03 -0.11606888177E+02  0.13571618786E+03  0.33665583601E+03  0.92135629814E+02 0.  0.
          3    1    3    3  502    0 -0.18128112250E+02  0.26186628121E+02 -0.22549157769E+02  0.39023486033E+02  0.00000000000E+00 0. -1.
         -4    1    3    3    0  502  0.63451066897E+02  0.22986912490E+03 -0.88764397859E+02  0.25445033072E+03  0.00000000000E+00 0.  1.
         13    1    5    5    0    0 -0.31162542176E+03 -0.24035608084E+03  0.13358067963E+04  0.13925736052E+04  0.00000000000E+00 0. -1.
        -13    1    5    5    0    0 -0.27456914247E+02 -0.40927840027E+01  0.43019568201E+02  0.51198791676E+02  0.00000000000E+00 0.  1.
          2    1    6    6  503    0  0.15087441929E+03 -0.30735562230E+02  0.11237257768E+03  0.19061836584E+03  0.00000000000E+00 0.  1.
         -2    1    6    6    0  503  0.14288496207E+03  0.19128674053E+02  0.23343610181E+02  0.14603747017E+03  0.00000000000E+00 0. -1.
<mgrwt>
<rscale>  0 0.15270947E+04</rscale>
<asrwt>0</asrwt>
<pdfrwt beam="1">  1        3 0.26747161E+00 0.15270947E+04</pdfrwt>
<pdfrwt beam="2">  1       -4 0.51590236E-01 0.15270947E+04</pdfrwt>
<totfact> 0.47069505E-01</totfact>
</mgrwt>
</event>
<event>
12    5  0.5246737E-008  0.2734940E+04  0.7818608E-02  0.8323756E-01
         -2   -1    0    0    0  501 -0.00000000000E+00  0.00000000000E+00  0.20623732246E+04  0.20623732246E+04  0.00000000000E+00 0.  1.
          1   -1    0    0  501    0  0.00000000000E+00 -0.00000000000E+00 -0.90671004630E+03  0.90671004630E+03  0.00000000000E+00 0. -1.
        -24    2    1    2    0    0 -0.54067795647E+03 -0.10522345808E+04  0.24419346097E+03  0.12108167287E+04  0.83165127790E+02 0.  0.
        254    2    1    2    0    0  0.54067795647E+03  0.10522345808E+04  0.91146971729E+03  0.17582665422E+04  0.92800534589E+03 0.  0.
         23    2    4    4    0    0  0.23435504292E+03  0.28304181014E+03  0.84112702186E+03  0.92228926345E+03  0.89932564415E+02 0.  0.
         23    2    4    4    0    0  0.30632291355E+03  0.76919277068E+03  0.70342695431E+02  0.83597727870E+03  0.91753309841E+02 0.  0.
          1    1    3    3  502    0 -0.20463688732E+03 -0.47329697313E+03  0.12964109292E+03  0.53168890660E+03  0.00000000000E+00 0. -1.
         -2    1    3    3    0  502 -0.33604106915E+03 -0.57893760769E+03  0.11455236805E+03  0.67912782212E+03  0.00000000000E+00 0.  1.
         13    1    5    5    0    0  0.10222040251E+03  0.78162012611E+02  0.37147742073E+03  0.39313329166E+03  0.00000000000E+00 0. -1.
        -13    1    5    5    0    0  0.13213464041E+03  0.20487979753E+03  0.46964960114E+03  0.52915597179E+03  0.00000000000E+00 0.  1.
          4    1    6    6  503    0  0.10091875231E+02  0.64048148473E+01 -0.73105804435E+01  0.14011145040E+02  0.00000000000E+00 0. -1.
         -4    1    6    6    0  503  0.29623103832E+03  0.76278795583E+03  0.77653275875E+02  0.82196613366E+03  0.00000000000E+00 0.  1.
<mgrwt>
<rscale>  0 0.27349402E+04</rscale>
<asrwt>0</asrwt>
<pdfrwt beam="1">  1        1 0.13949385E+00 0.27349402E+04</pdfrwt>
<pdfrwt beam="2">  1       -2 0.31728819E+00 0.27349402E+04</pdfrwt>
<totfact> 0.34144375E-01</totfact>
</mgrwt>
</event>
<event>
12    5  0.5246737E-008  0.1448978E+04  0.7818608E-02  0.8919109E-01
         -2   -1    0    0    0  501 -0.00000000000E+00  0.00000000000E+00  0.31329865331E+03  0.31329865331E+03  0.00000000000E+00 0.  1.
          1   -1    0    0  501    0  0.00000000000E+00 -0.00000000000E+00 -0.16753487757E+04  0.16753487757E+04  0.00000000000E+00 0. -1.
        -24    2    1    2    0    0 -0.50179591528E+02 -0.22045880505E+03  0.10677382206E+03  0.26201780021E+03  0.78310934202E+02 0.  0.
        254    2    1    2    0    0  0.50179591528E+02  0.22045880505E+03 -0.14688239445E+04  0.17266296288E+04  0.87902560778E+03 0.  0.
         23    2    4    4    0    0  0.18705040055E+03 -0.15998910711E+03 -0.12094510431E+04  0.12375524334E+04  0.90442429171E+02 0.  0.
         23    2    4    4    0    0 -0.13687080903E+03  0.38044791217E+03 -0.25937290138E+03  0.48907719544E+03  0.91912833120E+02 0.  0.
          1    1    3    3  502    0  0.18185829720E+02 -0.42927578427E+02  0.68170188332E+01  0.47116590899E+02  0.00000000000E+00 0. -1.
         -2    1    3    3    0  502 -0.68365421247E+02 -0.17753122663E+03  0.99956803229E+02  0.21490120931E+03  0.00000000000E+00 0.  1.
         13    1    5    5    0    0  0.79613737085E+02 -0.58008755174E+02 -0.70348749481E+03  0.71035063044E+03  0.00000000000E+00 0. -1.
        -13    1    5    5    0    0  0.10743666347E+03 -0.10198035194E+03 -0.50596354828E+03  0.52720180295E+03  0.00000000000E+00 0.  1.
          3    1    6    6  503    0 -0.25324730661E+02  0.16595209935E+03 -0.69614662618E+02  0.18173508883E+03  0.00000000000E+00 0. -1.
         -3    1    6    6    0  503 -0.11154607836E+03  0.21449581282E+03 -0.18975823877E+03  0.30734210661E+03  0.00000000000E+00 0.  1.
<mgrwt>
<rscale>  0 0.14489783E+04</rscale>
<asrwt>0</asrwt>
<pdfrwt beam="1">  1        1 0.25774597E+00 0.14489783E+04</pdfrwt>
<pdfrwt beam="2">  1       -2 0.48199792E-01 0.14489783E+04</pdfrwt>
<totfact> 0.17223506E+01</totfact>
</mgrwt>
</event>
<event>
12    5  0.5246737E-008  0.1326126E+04  0.7818608E-02  0.9009100E-01
         -2   -1    0    0    0  501 -0.00000000000E+00  0.00000000000E+00  0.35097287709E+03  0.35097287709E+03  0.00000000000E+00 0.  1.
          1   -1    0    0  501    0  0.00000000000E+00 -0.00000000000E+00 -0.12526673717E+04  0.12526673717E+04  0.00000000000E+00 0. -1.
        -24    2    1    2    0    0  0.37852897673E+02  0.12806966540E+03  0.14127530773E+03  0.21020822841E+03  0.79963151909E+02 0.  0.
        254    2    1    2    0    0 -0.37852897673E+02 -0.12806966540E+03 -0.10429698023E+04  0.13934320203E+04  0.91434791284E+03 0.  0.
         23    2    4    4    0    0  0.22265829451E+02 -0.39888290765E+03 -0.12204962471E+03  0.42697891150E+03  0.88382910091E+02 0.  0.
         23    2    4    4    0    0 -0.60118727124E+02  0.27081324226E+03 -0.92092017759E+03  0.96645310883E+03  0.94781667729E+02 0.  0.
          1    1    3    3  502    0 -0.19597830191E+01  0.89394533901E+02  0.47530871134E+02  0.10126404669E+03  0.00000000000E+00 0. -1.
         -2    1    3    3    0  502  0.39812680692E+02  0.38675131494E+02  0.93744436593E+02  0.10894418173E+03  0.00000000000E+00 0.  1.
         13    1    5    5    0    0 -0.20381796696E+02 -0.20463607721E+03 -0.29962489296E+02  0.20781985587E+03  0.00000000000E+00 0. -1.
        -13    1    5    5    0    0  0.42647626147E+02 -0.19424683045E+03 -0.92087135412E+02  0.21915905563E+03  0.00000000000E+00 0.  1.
          2    1    6    6  503    0 -0.74491397054E+02  0.24119609341E+03 -0.86945280635E+03  0.90535777800E+03  0.00000000000E+00 0. -1.
         -2    1    6    6    0  503  0.14372669931E+02  0.29617148851E+02 -0.51467371243E+02  0.61095330834E+02  0.00000000000E+00 0.  1.
<mgrwt>
<rscale>  0 0.13261256E+04</rscale>
<asrwt>0</asrwt>
<pdfrwt beam="1">  1        1 0.19271806E+00 0.13261256E+04</pdfrwt>
<pdfrwt beam="2">  1       -2 0.53995826E-01 0.13261256E+04</pdfrwt>
<totfact> 0.27180339E+01</totfact>
</mgrwt>
</event>
<event>
12    5  0.5246737E-008  0.1957971E+04  0.7818608E-02  0.8626527E-01
          1   -1    0    0  501    0  0.00000000000E+00  0.00000000000E+00  0.71429257989E+03  0.71429257989E+03  0.00000000000E+00 0. -1.
         -2   -1    0    0    0  501 -0.00000000000E+00 -0.00000000000E+00 -0.13417641123E+04  0.13417641123E+04  0.00000000000E+00 0.  1.
        -24    2    1    2    0    0 -0.15356705589E+03  0.74237492660E+03 -0.31054159554E+03  0.82303351694E+03  0.79023510055E+02 0.  0.
        254    2    1    2    0    0  0.15356705589E+03 -0.74237492660E+03 -0.31692993685E+03  0.12330231752E+04  0.91934661227E+03 0.  0.
         23    2    4    4    0    0  0.43754003482E+03 -0.33583336376E+03 -0.44302610482E+03  0.71321658470E+03  0.90445767499E+02 0.  0.
         23    2    4    4    0    0 -0.28397297893E+03 -0.40654156285E+03  0.12609616797E+03  0.51980659054E+03  0.91553005995E+02 0.  0.
          1    1    3    3  502    0 -0.15013681703E+03  0.61187272869E+03 -0.23649183105E+03  0.67294701581E+03  0.00000000000E+00 0. -1.
         -2    1    3    3    0  502 -0.34302388661E+01  0.13050219792E+03 -0.74049764490E+02  0.15008650113E+03  0.00000000000E+00 0.  1.
         13    1    5    5    0    0  0.10128478285E+03 -0.43618503116E+02 -0.59071609036E+02  0.12510250216E+03  0.00000000000E+00 0. -1.
        -13    1    5    5    0    0  0.33625525197E+03 -0.29221486064E+03 -0.38395449578E+03  0.58811408255E+03  0.00000000000E+00 0.  1.
          1    1    6    6  503    0 -0.10160042332E+03 -0.83074717741E+02  0.14359787786E+02  0.13202370337E+03  0.00000000000E+00 0. -1.
         -1    1    6    6    0  503 -0.18237255560E+03 -0.32346684510E+03  0.11173638018E+03  0.38778288716E+03  0.00000000000E+00 0.  1.
<mgrwt>
<rscale>  0 0.19579705E+04</rscale>
<asrwt>0</asrwt>
<pdfrwt beam="1">  1        1 0.10989117E+00 0.19579705E+04</pdfrwt>
<pdfrwt beam="2">  1       -2 0.20642525E+00 0.19579705E+04</pdfrwt>
<totfact> 0.25998064E+00</totfact>
</mgrwt>
</event>
<event>
12    5  0.5246737E-008  0.1305630E+04  0.7818608E-02  0.9025112E-01
         -2   -1    0    0    0  501 -0.00000000000E+00  0.00000000000E+00  0.72283811513E+03  0.72283811513E+03  0.00000000000E+00 0.  1.
          1   -1    0    0  501    0  0.00000000000E+00 -0.00000000000E+00 -0.58957533156E+03  0.58957533156E+03  0.00000000000E+00 0. -1.
        -24    2    1    2    0    0  0.35780132593E+03 -0.72242907503E+02  0.69718950675E+02  0.38008158529E+03  0.79752447439E+02 0.  0.
        254    2    1    2    0    0 -0.35780132593E+03  0.72242907503E+02  0.63543832892E+02  0.93233186140E+03  0.85554897847E+03 0.  0.
         23    2    4    4    0    0  0.38386027349E+02 -0.17770851916E+03  0.32870861241E+03  0.38634223410E+03  0.90317025497E+02 0.  0.
         23    2    4    4    0    0 -0.39618735328E+03  0.24995142666E+03 -0.26516477952E+03  0.54598962730E+03  0.91390252403E+02 0.  0.
          1    1    3    3  502    0  0.27668838642E+02 -0.19977969379E+02 -0.11676143701E+02  0.36069602493E+02  0.00000000000E+00 0. -1.
         -2    1    3    3    0  502  0.33013248729E+03 -0.52264938124E+02  0.81395094377E+02  0.34401198280E+03  0.00000000000E+00 0.  1.
         13    1    5    5    0    0 -0.25171642288E+02 -0.18335363647E+02  0.58192620728E+02  0.66001350310E+02  0.00000000000E+00 0. -1.
        -13    1    5    5    0    0  0.63557669638E+02 -0.15937315551E+03  0.27051599169E+03  0.32034088379E+03  0.00000000000E+00 0.  1.
          2    1    6    6  503    0 -0.11768104721E+02  0.75219035327E+01 -0.32595577906E+02  0.35461796634E+02  0.00000000000E+00 0. -1.
         -2    1    6    6    0  503 -0.38441924856E+03  0.24242952313E+03 -0.23256920162E+03  0.51052783067E+03  0.00000000000E+00 0.  1.
<mgrwt>
<rscale>  0 0.13056301E+04</rscale>
<asrwt>0</asrwt>
<pdfrwt beam="1">  1        1 0.90703898E-01 0.13056301E+04</pdfrwt>
<pdfrwt beam="2">  1       -2 0.11120586E+00 0.13056301E+04</pdfrwt>
<totfact> 0.19314540E+01</totfact>
</mgrwt>
</event>
<event>
12    5  0.5246737E-008  0.1591305E+04  0.7818608E-02  0.8825908E-01
          1   -1    0    0  501    0  0.00000000000E+00  0.00000000000E+00  0.15902363980E+04  0.15902363980E+04  0.00000000000E+00 0. -1.
         -2   -1    0    0    0  501 -0.00000000000E+00 -0.00000000000E+00 -0.39809353673E+03  0.39809353673E+03  0.00000000000E+00 0.  1.
        -24    2    1    2    0    0  0.18623884703E+03  0.50264844550E+03  0.43769464405E+03  0.69686822348E+03  0.81904527115E+02 0.  0.
        254    2    1    2    0    0 -0.18623884703E+03 -0.50264844550E+03  0.75444821719E+03  0.12914617112E+04  0.90074462042E+03 0.  0.
         23    2    4    4    0    0 -0.44873754209E+03 -0.28497421415E+03  0.76734383323E+03  0.93830466536E+03  0.94991590261E+02 0.  0.
         23    2    4    4    0    0  0.26249869506E+03 -0.21767423135E+03 -0.12895616046E+02  0.35315704586E+03  0.90917359324E+02 0.  0.
          1    1    3    3  502    0  0.60197348043E+02  0.19539179243E+03  0.21686074311E+03  0.29804404903E+03  0.00000000000E+00 0. -1.
         -2    1    3    3    0  502  0.12604149899E+03  0.30725665307E+03  0.22083390094E+03  0.39882417445E+03  0.00000000000E+00 0.  1.
         13    1    5    5    0    0 -0.94944219490E+02 -0.62900107117E+02  0.23927523779E+03  0.26499710887E+03  0.00000000000E+00 0.  1.
        -13    1    5    5    0    0 -0.35379332260E+03 -0.22207410703E+03  0.52806859544E+03  0.67330755649E+03  0.00000000000E+00 0. -1.
          2    1    6    6  503    0  0.37268622591E+02 -0.81390498364E+02 -0.77811842942E+01  0.89854940225E+02  0.00000000000E+00 0.  1.
         -2    1    6    6    0  503  0.22523007247E+03 -0.13628373299E+03 -0.51144317516E+01  0.26330210564E+03  0.00000000000E+00 0. -1.
<mgrwt>
<rscale>  0 0.15913049E+04</rscale>
<asrwt>0</asrwt>
<pdfrwt beam="1">  1        1 0.24465175E+00 0.15913049E+04</pdfrwt>
<pdfrwt beam="2">  1       -2 0.61245160E-01 0.15913049E+04</pdfrwt>
<totfact> 0.11840741E+01</totfact>
</mgrwt>
</event>
<event>
12    5  0.5246737E-008  0.1155258E+04  0.7818608E-02  0.9152947E-01
         -2   -1    0    0    0  501 -0.00000000000E+00  0.00000000000E+00  0.13984038005E+03  0.13984038005E+03  0.00000000000E+00 0.  1.
          1   -1    0    0  501    0  0.00000000000E+00 -0.00000000000E+00 -0.23859712827E+04  0.23859712827E+04  0.00000000000E+00 0. -1.
        -24    2    1    2    0    0 -0.64366496351E+02 -0.74695614495E+02 -0.87602594731E+03  0.88524897066E+03  0.80757656142E+02 0.  0.
        254    2    1    2    0    0  0.64366496351E+02  0.74695614495E+02 -0.13701049553E+04  0.16405626921E+04  0.89695923950E+03 0.  0.
         23    2    4    4    0    0  0.19863567020E+03 -0.25650787430E+03 -0.15744890087E+03  0.37285941660E+03  0.94771140691E+02 0.  0.
         23    2    4    4    0    0 -0.13426917385E+03  0.33120348879E+03 -0.12126560544E+04  0.12677032755E+04  0.93877186783E+02 0.  0.
          3    1    3    3  502    0 -0.48999432588E+02 -0.58169549337E+02 -0.83474252882E+03  0.83820029247E+03  0.00000000000E+00 0. -1.
         -4    1    3    3    0  502 -0.15367063762E+02 -0.16526065157E+02 -0.41283418484E+02  0.47048678196E+02  0.00000000000E+00 0.  1.
         13    1    5    5    0    0  0.10946393880E+03 -0.85851985132E+02 -0.31074001740E+02  0.14254301397E+03  0.00000000000E+00 0. -1.
        -13    1    5    5    0    0  0.89171731405E+02 -0.17065588917E+03 -0.12637489913E+03  0.23031640263E+03  0.00000000000E+00 0.  1.
          2    1    6    6  503    0 -0.53438246884E+02  0.39657058828E+02 -0.19629257821E+03  0.20726578301E+03  0.00000000000E+00 0. -1.
         -2    1    6    6    0  503 -0.80830926965E+02  0.29154642997E+03 -0.10163634762E+04  0.10604374924E+04  0.00000000000E+00 0.  1.
<mgrwt>
<rscale>  0 0.11552578E+04</rscale>
<asrwt>0</asrwt>
<pdfrwt beam="1">  1        1 0.36707247E+00 0.11552578E+04</pdfrwt>
<pdfrwt beam="2">  1       -2 0.21513907E-01 0.11552578E+04</pdfrwt>
<totfact> 0.26761791E+01</totfact>
</mgrwt>
</event>
<event>
12    5  0.5246737E-008  0.1352386E+04  0.7818608E-02  0.8989024E-01
          1   -1    0    0  501    0  0.00000000000E+00  0.00000000000E+00  0.71865594635E+03  0.71865594635E+03  0.00000000000E+00 0. -1.
         -2   -1    0    0    0  501 -0.00000000000E+00 -0.00000000000E+00 -0.63623911118E+03  0.63623911118E+03  0.00000000000E+00 0.  1.
        -24    2    1    2    0    0 -0.10483344245E+02  0.34388809975E+03  0.84126659490E+02  0.35922239201E+03  0.59954202754E+02 0.  0.
        254    2    1    2    0    0  0.10483344245E+02 -0.34388809975E+03 -0.17098243192E+01  0.99567266551E+03  0.93434052020E+03 0.  0.
         23    2    4    4    0    0 -0.15148146609E+03 -0.37590802807E+03 -0.38603775884E+03  0.56733441506E+03  0.92680672908E+02 0.  0.
         23    2    4    4    0    0  0.16196481033E+03  0.32019928320E+02  0.38432793452E+03  0.42833825045E+03  0.92237844480E+02 0.  0.
          3    1    3    3  502    0 -0.22863198552E+02  0.85656663079E+02  0.47478077670E+01  0.88782495215E+02  0.00000000000E+00 0. -1.
         -4    1    3    3    0  502  0.12379854307E+02  0.25823143667E+03  0.79378851723E+02  0.27043989679E+03  0.00000000000E+00 0.  1.
         13    1    5    5    0    0 -0.14991625036E+03 -0.33481520190E+03 -0.30748237139E+03  0.47866638723E+03  0.00000000000E+00 0. -1.
        -13    1    5    5    0    0 -0.15652157235E+01 -0.41092826167E+02 -0.78555387447E+02  0.88668027832E+02  0.00000000000E+00 0.  1.
          2    1    6    6  503    0 -0.75204303545E+01  0.10933743970E+02  0.91632834028E+01  0.16126667127E+02  0.00000000000E+00 0.  1.
         -2    1    6    6    0  503  0.16948524069E+03  0.21086184350E+02  0.37516465112E+03  0.41221158332E+03  0.00000000000E+00 0. -1.
<mgrwt>
<rscale>  0 0.13523861E+04</rscale>
<asrwt>0</asrwt>
<pdfrwt beam="1">  1        1 0.11056245E+00 0.13523861E+04</pdfrwt>
<pdfrwt beam="2">  1       -2 0.97882940E-01 0.13523861E+04</pdfrwt>
<totfact> 0.19487542E+01</totfact>
</mgrwt>
</event>
<event>
12    5  0.5246737E-008  0.2720533E+04  0.7818608E-02  0.8328373E-01
          1   -1    0    0  501    0  0.00000000000E+00  0.00000000000E+00  0.12938808785E+04  0.12938808785E+04  0.00000000000E+00 0. -1.
         -2   -1    0    0    0  501 -0.00000000000E+00 -0.00000000000E+00 -0.14300578530E+04  0.14300578530E+04  0.00000000000E+00 0.  1.
        -24    2    1    2    0    0 -0.24259255382E+03  0.10552038716E+04 -0.57263701045E+03  0.12273460345E+04  0.78477925768E+02 0.  0.
        254    2    1    2    0    0  0.24259255382E+03 -0.10552038716E+04  0.43646003601E+03  0.14965926970E+04  0.93647529597E+03 0.  0.
         23    2    4    4    0    0  0.16663603812E+02  0.11791267224E+03 -0.99767387933E+02  0.18400581542E+03  0.98607983690E+02 0.  0.
         23    2    4    4    0    0  0.22592895001E+03 -0.11731165438E+04  0.53622742395E+03  0.13125868816E+04  0.89989753452E+02 0.  0.
          1    1    3    3  502    0 -0.25708111061E+02  0.46801399013E+02 -0.38163944882E+02  0.65633563158E+02  0.00000000000E+00 0. -1.
         -2    1    3    3    0  502 -0.21688444276E+03  0.10084024726E+04 -0.53447306557E+03  0.11617124713E+04  0.00000000000E+00 0.  1.
         13    1    5    5    0    0 -0.20490750581E+02  0.81657674931E+01  0.10165036386E+02  0.24287416142E+02  0.00000000000E+00 0.  1.
        -13    1    5    5    0    0  0.37154354394E+02  0.10974690474E+03 -0.10993242432E+03  0.15971839928E+03  0.00000000000E+00 0. -1.
          1    1    6    6  503    0  0.63620626877E+02 -0.54488989079E+03  0.22478191160E+03  0.59285705278E+03  0.00000000000E+00 0. -1.
         -1    1    6    6    0  503  0.16230832313E+03 -0.62822665304E+03  0.31144551235E+03  0.71972982883E+03  0.00000000000E+00 0.  1.
<mgrwt>
<rscale>  0 0.27205327E+04</rscale>
<asrwt>0</asrwt>
<pdfrwt beam="1">  1        1 0.19905860E+00 0.27205327E+04</pdfrwt>
<pdfrwt beam="2">  1       -2 0.22000890E+00 0.27205327E+04</pdfrwt>
<totfact> 0.69085797E-01</totfact>
</mgrwt>
</event>
<event>
12    5  0.5246737E-008  0.2666405E+04  0.7818608E-02  0.8345988E-01
          1   -1    0    0  501    0  0.00000000000E+00  0.00000000000E+00  0.29098510457E+04  0.29098510457E+04  0.00000000000E+00 0. -1.
         -2   -1    0    0    0  501 -0.00000000000E+00 -0.00000000000E+00 -0.61083171347E+03  0.61083171347E+03  0.00000000000E+00 0.  1.
        -24    2    1    2    0    0  0.30820914985E+03 -0.71091839937E+03  0.22004692869E+04  0.23343002802E+04  0.80590726077E+02 0.  0.
        254    2    1    2    0    0 -0.30820914985E+03  0.71091839937E+03  0.98550045299E+02  0.11863824789E+04  0.89296888198E+03 0.  0.
         23    2    4    4    0    0 -0.37766435770E+03  0.17207876681E+02 -0.18216285324E+03  0.42919612777E+03  0.89997404917E+02 0.  0.
         23    2    4    4    0    0  0.69455207851E+02  0.69371052269E+03  0.28071289854E+03  0.75718635113E+03  0.92049572175E+02 0.  0.
          1    1    3    3  502    0  0.25212688860E+03 -0.64409452651E+03  0.19661979838E+04  0.20843128936E+04  0.00000000000E+00 0. -1.
         -2    1    3    3    0  502  0.56082261246E+02 -0.66823872864E+02  0.23427130311E+03  0.24998738663E+03  0.00000000000E+00 0.  1.
         13    1    5    5    0    0 -0.34519614812E+03 -0.65503737057E+01 -0.14515227493E+03  0.37452966637E+03  0.00000000000E+00 0.  1.
        -13    1    5    5    0    0 -0.32468209581E+02  0.23758250387E+02 -0.37010578316E+02  0.54666461401E+02  0.00000000000E+00 0. -1.
          1    1    6    6  503    0  0.82787801536E+02  0.42353911004E+03  0.15115493289E+03  0.45726033236E+03  0.00000000000E+00 0.  1.
         -1    1    6    6    0  503 -0.13332593685E+02  0.27017141265E+03  0.12955796565E+03  0.29992601876E+03  0.00000000000E+00 0. -1.
<mgrwt>
<rscale>  0 0.26664053E+04</rscale>
<asrwt>0</asrwt>
<pdfrwt beam="1">  1        1 0.44766938E+00 0.26664053E+04</pdfrwt>
<pdfrwt beam="2">  1       -2 0.93974112E-01 0.26664053E+04</pdfrwt>
<totfact> 0.51153267E-01</totfact>
</mgrwt>
</event>
<event>
12    5  0.5246737E-008  0.1929453E+04  0.7818608E-02  0.8640333E-01
         -2   -1    0    0    0  501 -0.00000000000E+00  0.00000000000E+00  0.42837184151E+03  0.42837184151E+03  0.00000000000E+00 0.  1.
          1   -1    0    0  501    0  0.00000000000E+00 -0.00000000000E+00 -0.21726383579E+04  0.21726383579E+04  0.00000000000E+00 0. -1.
        -24    2    1    2    0    0 -0.35179489484E+03 -0.16038888489E+03 -0.15629716634E+04  0.16127788524E+04  0.93225338961E+02 0.  0.
        254    2    1    2    0    0  0.35179489484E+03  0.16038888489E+03 -0.18129485299E+03  0.98823134698E+03  0.89120655799E+03 0.  0.
         23    2    4    4    0    0  0.66047882924E+02  0.84086701032E+02 -0.51439835848E+03  0.53325730589E+03  0.91240270427E+02 0.  0.
         23    2    4    4    0    0  0.28574701192E+03  0.76302183853E+02  0.33310350550E+03  0.45497404109E+03  0.92574589448E+02 0.  0.
          3    1    3    3  502    0 -0.34668566790E+03 -0.13881838599E+03 -0.15068895306E+04  0.15524746549E+04  0.00000000000E+00 0. -1.
         -4    1    3    3    0  502 -0.51092269374E+01 -0.21570498899E+02 -0.56082132803E+02  0.60304197552E+02  0.00000000000E+00 0.  1.
         13    1    5    5    0    0  0.58148550070E+02  0.85373895897E+02 -0.27555126800E+03  0.29427615818E+03  0.00000000000E+00 0.  1.
        -13    1    5    5    0    0  0.78993328539E+01 -0.12871948644E+01 -0.23884709048E+03  0.23898114771E+03  0.00000000000E+00 0. -1.
          1    1    6    6  503    0  0.89032744333E+02  0.56860650875E+02  0.73568070215E+02  0.12873315088E+03  0.00000000000E+00 0. -1.
         -1    1    6    6    0  503  0.19671426758E+03  0.19441532979E+02  0.25953543528E+03  0.32624089021E+03  0.00000000000E+00 0.  1.
<mgrwt>
<rscale>  0 0.19294529E+04</rscale>
<asrwt>0</asrwt>
<pdfrwt beam="1">  1        1 0.33425206E+00 0.19294529E+04</pdfrwt>
<pdfrwt beam="2">  1       -2 0.65903359E-01 0.19294529E+04</pdfrwt>
<totfact> 0.39508247E+00</totfact>
</mgrwt>
</event>
<event>
12    5  0.5246737E-008  0.1040059E+04  0.7818608E-02  0.9265668E-01
          1   -1    0    0  501    0  0.00000000000E+00  0.00000000000E+00  0.38062460864E+03  0.38062460864E+03  0.00000000000E+00 0. -1.
         -2   -1    0    0    0  501 -0.00000000000E+00 -0.00000000000E+00 -0.71049230377E+03  0.71049230377E+03  0.00000000000E+00 0.  1.
        -24    2    1    2    0    0 -0.30456044086E+02 -0.20794510768E+02 -0.15067896695E+03  0.17308702693E+03  0.76778809003E+02 0.  0.
        254    2    1    2    0    0  0.30456044086E+02  0.20794510768E+02 -0.17918872818E+03  0.91802988548E+03  0.89961674508E+03 0.  0.
         23    2    4    4    0    0 -0.65306208378E+02  0.30787219497E+03 -0.41114615248E+03  0.52593867873E+03  0.92304635867E+02 0.  0.
         23    2    4    4    0    0  0.95762252464E+02 -0.28707768420E+03  0.23195742430E+03  0.39209120674E+03  0.91363351270E+02 0.  0.
          3    1    3    3  502    0 -0.18077328282E+02  0.79279195024E+01 -0.56287703963E+00  0.19747367825E+02  0.00000000000E+00 0. -1.
         -4    1    3    3    0  502 -0.12378715805E+02 -0.28722430270E+02 -0.15011608991E+03  0.15333965910E+03  0.00000000000E+00 0.  1.
         13    1    5    5    0    0 -0.72940628299E+01  0.10143519484E+03 -0.20324098828E+03  0.22726460662E+03  0.00000000000E+00 0. -1.
        -13    1    5    5    0    0 -0.58012145548E+02  0.20643700013E+03 -0.20790516420E+03  0.29867407211E+03  0.00000000000E+00 0.  1.
          1    1    6    6  503    0  0.21714540664E+02 -0.19799826425E+03  0.16219015094E+03  0.25686665604E+03  0.00000000000E+00 0. -1.
         -1    1    6    6    0  503  0.74047711800E+02 -0.89079419952E+02  0.69767273356E+02  0.13522455070E+03  0.00000000000E+00 0.  1.
<mgrwt>
<rscale>  0 0.10400593E+04</rscale>
<asrwt>0</asrwt>
<pdfrwt beam="1">  1        1 0.58557632E-01 0.10400593E+04</pdfrwt>
<pdfrwt beam="2">  1       -2 0.10930651E+00 0.10400593E+04</pdfrwt>
<totfact> 0.37358521E+01</totfact>
</mgrwt>
</event>
<event>
12    5  0.5246737E-008  0.3213870E+04  0.7818608E-02  0.8185164E-01
          1   -1    0    0  501    0  0.00000000000E+00  0.00000000000E+00  0.25484441675E+04  0.25484441675E+04  0.00000000000E+00 0. -1.
         -2   -1    0    0    0  501 -0.00000000000E+00 -0.00000000000E+00 -0.10132613088E+04  0.10132613088E+04  0.00000000000E+00 0.  1.
        -24    2    1    2    0    0 -0.45160063612E+02 -0.15024802965E+03 -0.92256015334E+03  0.93922406952E+03  0.80066937495E+02 0.  0.
        254    2    1    2    0    0  0.45160063612E+02  0.15024802965E+03  0.24577430120E+04  0.26224814068E+04  0.90127360658E+03 0.  0.
         23    2    4    4    0    0  0.26441568530E+03  0.26900085754E+03  0.43821607103E+03  0.58549198003E+03  0.92143462994E+02 0.  0.
         23    2    4    4    0    0 -0.21925562169E+03 -0.11875282789E+03  0.20195269410E+04  0.20369894268E+04  0.93067703733E+02 0.  0.
          3    1    3    3  502    0  0.21992613158E+02 -0.57786432515E+02 -0.31519042007E+03  0.32119767701E+03  0.00000000000E+00 0. -1.
         -4    1    3    3    0  502 -0.67152676770E+02 -0.92461597135E+02 -0.60736973328E+03  0.61802639251E+03  0.00000000000E+00 0.  1.
         13    1    5    5    0    0  0.59071031942E+02  0.13791756065E+02  0.72391537012E+02  0.94446460924E+02  0.00000000000E+00 0. -1.
        -13    1    5    5    0    0  0.20534465336E+03  0.25520910147E+03  0.36582453402E+03  0.49104551910E+03  0.00000000000E+00 0.  1.
          1    1    6    6  503    0 -0.15904974503E+03 -0.70664926112E+02  0.10424157775E+04  0.10568448355E+04  0.00000000000E+00 0. -1.
         -1    1    6    6    0  503 -0.60205876658E+02 -0.48087901777E+02  0.97711116347E+03  0.98014459120E+03  0.00000000000E+00 0.  1.
<mgrwt>
<rscale>  0 0.32138699E+04</rscale>
<asrwt>0</asrwt>
<pdfrwt beam="1">  1        1 0.39206833E+00 0.32138699E+04</pdfrwt>
<pdfrwt beam="2">  1       -2 0.15588636E+00 0.32138699E+04</pdfrwt>
<totfact> 0.24912289E-01</totfact>
</mgrwt>
</event>
<event>
12    5  0.5246737E-008  0.1519951E+04  0.7818608E-02  0.8871293E-01
          1   -1    0    0  501    0  0.00000000000E+00  0.00000000000E+00  0.29072608489E+04  0.29072608489E+04  0.00000000000E+00 0. -1.
         -2   -1    0    0    0  501 -0.00000000000E+00 -0.00000000000E+00 -0.19866219534E+03  0.19866219534E+03  0.00000000000E+00 0.  1.
        -24    2    1    2    0    0 -0.59308763452E+02  0.45818288072E+03  0.54161292476E+03  0.71592104344E+03  0.75824129152E+02 0.  0.
        254    2    1    2    0    0  0.59308763452E+02 -0.45818288072E+03  0.21669857287E+04  0.23900020007E+04  0.89600967259E+03 0.  0.
         23    2    4    4    0    0  0.36979580010E+02 -0.67085540024E+03  0.19710704503E+04  0.20844682281E+04  0.92057679329E+02 0.  0.
         23    2    4    4    0    0  0.22329183442E+02  0.21267251952E+03  0.19591527842E+03  0.30553377268E+03  0.96124382629E+02 0.  0.
          1    1    3    3  502    0  0.15057546487E+02  0.16577260455E+03  0.19508437883E+03  0.25644726747E+03  0.00000000000E+00 0. -1.
         -2    1    3    3    0  502 -0.74366309939E+02  0.29241027617E+03  0.34652854593E+03  0.45947377597E+03  0.00000000000E+00 0.  1.
         13    1    5    5    0    0  0.11166776535E+02 -0.97660414660E+02  0.40000669870E+03  0.41190728629E+03  0.00000000000E+00 0.  1.
        -13    1    5    5    0    0  0.25812803475E+02 -0.57319498558E+03  0.15710637516E+04  0.16725609418E+04  0.00000000000E+00 0. -1.
          1    1    6    6  503    0  0.35349388337E+02  0.92907083957E+02  0.14251489222E+03  0.17375787755E+03  0.00000000000E+00 0. -1.
         -1    1    6    6    0  503 -0.13020204896E+02  0.11976543556E+03  0.53400386201E+02  0.13177589513E+03  0.00000000000E+00 0.  1.
<mgrwt>
<rscale>  0 0.15199511E+04</rscale>
<asrwt>0</asrwt>
<pdfrwt beam="1">  1        1 0.44727087E+00 0.15199511E+04</pdfrwt>
<pdfrwt beam="2">  1       -2 0.30563417E-01 0.15199511E+04</pdfrwt>
<totfact> 0.58932545E+00</totfact>
</mgrwt>
</event>
<event>
12    5  0.5246737E-008  0.1764836E+04  0.7818608E-02  0.8725226E-01
         -2   -1    0    0    0  501 -0.00000000000E+00  0.00000000000E+00  0.51408086620E+03  0.51408086620E+03  0.00000000000E+00 0.  1.
          1   -1    0    0  501    0  0.00000000000E+00 -0.00000000000E+00 -0.15146679671E+04  0.15146679671E+04  0.00000000000E+00 0. -1.
        -24    2    1    2    0    0  0.58697686303E+03  0.12538528806E+03 -0.65857288565E+03  0.89462121251E+03  0.79784459389E+02 0.  0.
        254    2    1    2    0    0 -0.58697686303E+03 -0.12538528806E+03 -0.34201421525E+03  0.11341276208E+04  0.89944895832E+03 0.  0.
         23    2    4    4    0    0 -0.23332563224E+03  0.24148154881E+03 -0.48454710179E+03  0.59616978981E+03  0.88759987315E+02 0.  0.
         23    2    4    4    0    0 -0.35365123079E+03 -0.36686683687E+03  0.14253288654E+03  0.53795783099E+03  0.97069743712E+02 0.  0.
          3    1    3    3  502    0  0.29287453016E+03  0.21980848204E+02 -0.31374266618E+03  0.42975936137E+03  0.00000000000E+00 0. -1.
         -4    1    3    3    0  502  0.29410233287E+03  0.10340443986E+03 -0.34483021947E+03  0.46486185113E+03  0.00000000000E+00 0.  1.
         13    1    5    5    0    0 -0.18280075293E+03  0.16798733038E+03 -0.28736424069E+03  0.37975527023E+03  0.00000000000E+00 0. -1.
        -13    1    5    5    0    0 -0.50524879313E+02  0.73494218431E+02 -0.19718286110E+03  0.21641451958E+03  0.00000000000E+00 0.  1.
          1    1    6    6  503    0 -0.48090927793E+02 -0.10747802731E+03  0.38232458019E+02  0.12379816048E+03  0.00000000000E+00 0. -1.
         -1    1    6    6    0  503 -0.30556030300E+03 -0.25938880956E+03  0.10430042852E+03  0.41415967052E+03  0.00000000000E+00 0.  1.
<mgrwt>
<rscale>  0 0.17648363E+04</rscale>
<asrwt>0</asrwt>
<pdfrwt beam="1">  1        1 0.23302584E+00 0.17648363E+04</pdfrwt>
<pdfrwt beam="2">  1       -2 0.79089363E-01 0.17648363E+04</pdfrwt>
<totfact> 0.75277454E+00</totfact>
</mgrwt>
</event>
<event>
12    5  0.5246737E-008  0.2650475E+04  0.7818608E-02  0.8351255E-01
         -2   -1    0    0    0  501 -0.00000000000E+00  0.00000000000E+00  0.19941634828E+04  0.19941634828E+04  0.00000000000E+00 0.  1.
          1   -1    0    0  501    0  0.00000000000E+00 -0.00000000000E+00 -0.88069722192E+03  0.88069722192E+03  0.00000000000E+00 0. -1.
        -24    2    1    2    0    0 -0.39690311095E+02  0.21588483323E+03 -0.75282444954E+03  0.78821623787E+03  0.79740854011E+02 0.  0.
        254    2    1    2    0    0  0.39690311095E+02 -0.21588483323E+03  0.18662907104E+04  0.20866444669E+04  0.90711770637E+03 0.  0.
         23    2    4    4    0    0 -0.96153830456E+02  0.11523978249E+03 -0.84012766930E+01  0.17583809497E+03  0.91228765276E+02 0.  0.
         23    2    4    4    0    0  0.13584414155E+03 -0.33112461572E+03  0.18746919871E+04  0.19108063719E+04  0.92810572226E+02 0.  0.
          1    1    3    3  502    0 -0.62650876318E+02  0.17558339706E+03 -0.62633045244E+03  0.65348641706E+03  0.00000000000E+00 0. -1.
         -2    1    3    3    0  502  0.22960565223E+02  0.40301436168E+02 -0.12649399711E+03  0.13472982081E+03  0.00000000000E+00 0.  1.
         13    1    5    5    0    0 -0.47559167613E+02 -0.18536058717E+01 -0.11723969988E+02  0.49017973755E+02  0.00000000000E+00 0.  1.
        -13    1    5    5    0    0 -0.48594662843E+02  0.11709338836E+03  0.33226932945E+01  0.12682012122E+03  0.00000000000E+00 0. -1.
          3    1    6    6  503    0  0.13972419815E+03 -0.28986852144E+03  0.17519931049E+04  0.17812990908E+04  0.00000000000E+00 0. -1.
         -3    1    6    6    0  503 -0.38800566035E+01 -0.41256094277E+02  0.12269888221E+03  0.12950728107E+03  0.00000000000E+00 0.  1.
<mgrwt>
<rscale>  0 0.26504749E+04</rscale>
<asrwt>0</asrwt>
<pdfrwt beam="1">  1        1 0.13549188E+00 0.26504749E+04</pdfrwt>
<pdfrwt beam="2">  1       -2 0.30679438E+00 0.26504749E+04</pdfrwt>
<totfact> 0.41924426E-01</totfact>
</mgrwt>
</event>
<event>
12    5  0.5246737E-008  0.1960146E+04  0.7818608E-02  0.8625484E-01
         -2   -1    0    0    0  501 -0.00000000000E+00  0.00000000000E+00  0.33023673675E+03  0.33023673675E+03  0.00000000000E+00 0.  1.
          1   -1    0    0  501    0  0.00000000000E+00 -0.00000000000E+00 -0.29086502056E+04  0.29086502056E+04  0.00000000000E+00 0. -1.
        -24    2    1    2    0    0  0.58287850284E+03 -0.48330591968E+03 -0.13088373553E+04  0.15141308065E+04  0.78771285510E+02 0.  0.
        254    2    1    2    0    0 -0.58287850284E+03  0.48330591968E+03 -0.12695761135E+04  0.17247561358E+04  0.88861029650E+03 0.  0.
         23    2    4    4    0    0 -0.24789958841E+03 -0.23891790536E+03 -0.49569918682E+03  0.61058265971E+03  0.92506913708E+02 0.  0.
         23    2    4    4    0    0 -0.33497891443E+03  0.72222382504E+03 -0.77387692667E+03  0.11141734761E+04  0.93160671315E+02 0.  0.
          1    1    3    3  502    0  0.46489048450E+03 -0.41233351752E+03 -0.10248277895E+04  0.11985049397E+04  0.00000000000E+00 0. -1.
         -4    1    3    3    0  502  0.11798801834E+03 -0.70972402165E+02 -0.28400956581E+03  0.31562586683E+03  0.00000000000E+00 0.  1.
         13    1    5    5    0    0 -0.25107902696E+03 -0.24418758315E+03 -0.48503939237E+03  0.59827373810E+03  0.00000000000E+00 0. -1.
        -13    1    5    5    0    0  0.31794385531E+01  0.52696777869E+01 -0.10659794451E+02  0.12308921611E+02  0.00000000000E+00 0.  1.
          2    1    6    6  503    0 -0.30704347318E+03  0.57864646551E+03 -0.64271125640E+03  0.91770648116E+03  0.00000000000E+00 0. -1.
         -2    1    6    6    0  503 -0.27935441251E+02  0.14357735954E+03 -0.13116567028E+03  0.19646699496E+03  0.00000000000E+00 0.  1.
<mgrwt>
<rscale>  0 0.19601461E+04</rscale>
<asrwt>0</asrwt>
<pdfrwt beam="1">  1        1 0.44748463E+00 0.19601461E+04</pdfrwt>
<pdfrwt beam="2">  1       -2 0.50805653E-01 0.19601461E+04</pdfrwt>
<totfact> 0.20893575E+00</totfact>
</mgrwt>
</event>
<event>
12    5  0.5246737E-008  0.1261260E+04  0.7818608E-02  0.9060863E-01
         -2   -1    0    0    0  501 -0.00000000000E+00  0.00000000000E+00  0.27619263850E+03  0.27619263850E+03  0.00000000000E+00 0.  1.
          1   -1    0    0  501    0  0.00000000000E+00 -0.00000000000E+00 -0.14399156562E+04  0.14399156562E+04  0.00000000000E+00 0. -1.
        -24    2    1    2    0    0  0.73938983180E+02  0.10020023690E+03  0.84173208082E+02  0.17057107761E+03  0.80636857895E+02 0.  0.
        254    2    1    2    0    0 -0.73938983180E+02 -0.10020023690E+03 -0.12478962258E+04  0.15455372171E+04  0.90329022931E+03 0.  0.
         23    2    4    4    0    0 -0.20305218883E+03  0.35371576544E+03 -0.44907685522E+03  0.61327596759E+03  0.89957525606E+02 0.  0.
         23    2    4    4    0    0  0.12911320565E+03 -0.45391600234E+03 -0.79881937053E+03  0.93226124947E+03  0.91042262095E+02 0.  0.
          3    1    3    3  502    0  0.46485607894E+02  0.58512988052E+01  0.11189742700E+02  0.48170112940E+02  0.00000000000E+00 0. -1.
         -4    1    3    3    0  502  0.27453375286E+02  0.94348938090E+02  0.72983465382E+02  0.12240096467E+03  0.00000000000E+00 0.  1.
         13    1    5    5    0    0 -0.33716465647E+02  0.63460866458E+02 -0.13686442117E+03  0.15458315371E+03  0.00000000000E+00 0. -1.
        -13    1    5    5    0    0 -0.16933572318E+03  0.29025489898E+03 -0.31221243405E+03  0.45869281388E+03  0.00000000000E+00 0.  1.
          4    1    6    6  503    0  0.80418514079E+02 -0.14556690633E+03 -0.23677630596E+03  0.28934387965E+03  0.00000000000E+00 0. -1.
         -4    1    6    6    0  503  0.48694691572E+02 -0.30834909601E+03 -0.56204306456E+03  0.64291736982E+03  0.00000000000E+00 0.  1.
<mgrwt>
<rscale>  0 0.12612599E+04</rscale>
<asrwt>0</asrwt>
<pdfrwt beam="1">  1        1 0.22152549E+00 0.12612599E+04</pdfrwt>
<pdfrwt beam="2">  1       -2 0.42491175E-01 0.12612599E+04</pdfrwt>
<totfact> 0.32691306E+01</totfact>
</mgrwt>
</event>
<event>
12    5  0.5246737E-008  0.1363373E+04  0.7818608E-02  0.8980766E-01
          1   -1    0    0  501    0  0.00000000000E+00  0.00000000000E+00  0.69834568541E+03  0.69834568541E+03  0.00000000000E+00 0. -1.
         -2   -1    0    0    0  501 -0.00000000000E+00 -0.00000000000E+00 -0.66542470180E+03  0.66542470180E+03  0.00000000000E+00 0.  1.
        -24    2    1    2    0    0  0.17514627903E+03 -0.29153085890E+03  0.97783083134E+02  0.36339397556E+03  0.82626807832E+02 0.  0.
        254    2    1    2    0    0 -0.17514627903E+03  0.29153085890E+03 -0.64862099528E+02  0.10003764117E+04  0.93855176325E+03 0.  0.
         23    2    4    4    0    0 -0.32018835709E+03 -0.21168088253E+03  0.15672598431E+03  0.42448284802E+03  0.91067414902E+02 0.  0.
         23    2    4    4    0    0  0.14504207806E+03  0.50321174143E+03 -0.22158808384E+03  0.57589356364E+03  0.91065122927E+02 0.  0.
          1    1    3    3  502    0  0.10206068378E+03 -0.23748770875E+03  0.62887674966E+02  0.26602942439E+03  0.00000000000E+00 0. -1.
         -2    1    3    3    0  502  0.73085595252E+02 -0.54043150152E+02  0.34895408168E+02  0.97364551161E+02  0.00000000000E+00 0.  1.
         13    1    5    5    0    0 -0.31205966853E+03 -0.18565044233E+03  0.16041591814E+03  0.39696421785E+03  0.00000000000E+00 0.  1.
        -13    1    5    5    0    0 -0.81286885596E+01 -0.26030440200E+02 -0.36899338234E+01  0.27518630168E+02  0.00000000000E+00 0. -1.
          3    1    6    6  503    0  0.23076396560E+02  0.76418247357E+02 -0.10635417878E+00  0.79826561485E+02  0.00000000000E+00 0. -1.
         -3    1    6    6    0  503  0.12196568150E+03  0.42679349408E+03 -0.22148172966E+03  0.49606700215E+03  0.00000000000E+00 0.  1.
<mgrwt>
<rscale>  0 0.13633730E+04</rscale>
<asrwt>0</asrwt>
<pdfrwt beam="1">  1        1 0.10743780E+00 0.13633730E+04</pdfrwt>
<pdfrwt beam="2">  1       -2 0.10237303E+00 0.13633730E+04</pdfrwt>
<totfact> 0.18286836E+01</totfact>
</mgrwt>
</event>
<event>
12    5  0.5246737E-008  0.1633874E+04  0.7818608E-02  0.8800004E-01
          1   -1    0    0  501    0  0.00000000000E+00  0.00000000000E+00  0.16562673058E+04  0.16562673058E+04  0.00000000000E+00 0. -1.
         -2   -1    0    0    0  501 -0.00000000000E+00 -0.00000000000E+00 -0.40294562730E+03  0.40294562730E+03  0.00000000000E+00 0.  1.
        -24    2    1    2    0    0 -0.28512989807E+03 -0.33580005753E+03 -0.16678941883E+02  0.44778664479E+03  0.78574517123E+02 0.  0.
        254    2    1    2    0    0  0.28512989807E+03  0.33580005753E+03  0.12700006204E+04  0.16114262883E+04  0.88866887505E+03 0.  0.
         23    2    4    4    0    0 -0.15958176157E+03  0.48147522002E+03  0.65230515653E+03  0.83124600424E+03  0.90460909848E+02 0.  0.
         23    2    4    4    0    0  0.44471165964E+03 -0.14567516249E+03  0.61769546388E+03  0.78018028409E+03  0.90243428579E+02 0.  0.
          3    1    3    3  502    0 -0.67237815120E+01 -0.17875074214E+02  0.14595126294E+02  0.24036331407E+02  0.00000000000E+00 0. -1.
         -4    1    3    3    0  502 -0.27840611655E+03 -0.31792498331E+03 -0.31274068178E+02  0.42375031338E+03  0.00000000000E+00 0.  1.
         13    1    5    5    0    0 -0.64238589926E+02  0.24206372210E+03  0.25289132712E+03  0.35591496924E+03  0.00000000000E+00 0.  1.
        -13    1    5    5    0    0 -0.95343171645E+02  0.23941149792E+03  0.39941382941E+03  0.47533103500E+03  0.00000000000E+00 0. -1.
          1    1    6    6  503    0  0.43546292890E+03 -0.12390041624E+03  0.58212581376E+03  0.73746168621E+03  0.00000000000E+00 0. -1.
         -1    1    6    6    0  503  0.92487307353E+01 -0.21774746255E+02  0.35569650125E+02  0.42718597878E+02  0.00000000000E+00 0.  1.
<mgrwt>
<rscale>  0 0.16338735E+04</rscale>
<asrwt>0</asrwt>
<pdfrwt beam="1">  1        1 0.25481035E+00 0.16338735E+04</pdfrwt>
<pdfrwt beam="2">  1       -2 0.61991636E-01 0.16338735E+04</pdfrwt>
<totfact> 0.10361003E+01</totfact>
</mgrwt>
</event>
<event>
12    5  0.5246737E-008  0.2035705E+04  0.7818608E-02  0.8590107E-01
          1   -1    0    0  501    0  0.00000000000E+00  0.00000000000E+00  0.27845404787E+04  0.27845404787E+04  0.00000000000E+00 0. -1.
         -4   -1    0    0    0  501 -0.00000000000E+00 -0.00000000000E+00 -0.37206286718E+03  0.37206286718E+03  0.00000000000E+00 0.  1.
        -24    2    1    2    0    0 -0.41822967493E+03 -0.38471667909E+03  0.18667321509E+04  0.19529697770E+04  0.80492500135E+02 0.  0.
        254    2    1    2    0    0  0.41822967493E+03  0.38471667909E+03  0.54574546061E+03  0.12036335688E+04  0.90993003913E+03 0.  0.
         23    2    4    4    0    0  0.14605405107E+03  0.60872145371E+03  0.12093520574E+03  0.64408051348E+03  0.91327924652E+02 0.  0.
         23    2    4    4    0    0  0.27217562387E+03 -0.22400477462E+03  0.42481025487E+03  0.55955305536E+03  0.91532288497E+02 0.  0.
          3    1    3    3  502    0 -0.30722894354E+03 -0.23490608910E+03  0.13051265431E+04  0.13612221670E+04  0.00000000000E+00 0. -1.
         -4    1    3    3    0  502 -0.11100073139E+03 -0.14981058999E+03  0.56160560783E+03  0.59174761004E+03  0.00000000000E+00 0.  1.
         13    1    5    5    0    0 -0.84073420056E+01  0.38131798426E+02 -0.59244110106E+01  0.39494507170E+02  0.00000000000E+00 0. -1.
        -13    1    5    5    0    0  0.15446139307E+03  0.57058965528E+03  0.12685961675E+03  0.60458600631E+03  0.00000000000E+00 0.  1.
          2    1    6    6  503    0  0.54545634406E+02 -0.42976542389E+01  0.71157980610E+02  0.89761652554E+02  0.00000000000E+00 0. -1.
         -2    1    6    6    0  503  0.21762998946E+03 -0.21970712039E+03  0.35365227426E+03  0.46979140281E+03  0.00000000000E+00 0.  1.
<mgrwt>
<rscale>  0 0.20357054E+04</rscale>
<asrwt>0</asrwt>
<pdfrwt beam="1">  1        1 0.42839083E+00 0.20357054E+04</pdfrwt>
<pdfrwt beam="2">  1       -4 0.57240443E-01 0.20357054E+04</pdfrwt>
<totfact> 0.11395308E+00</totfact>
</mgrwt>
</event>
<event>
12    5  0.5246737E-008  0.2512762E+04  0.7818608E-02  0.8398453E-01
          1   -1    0    0  501    0  0.00000000000E+00  0.00000000000E+00  0.40971746693E+03  0.40971746693E+03  0.00000000000E+00 0. -1.
         -2   -1    0    0    0  501 -0.00000000000E+00 -0.00000000000E+00 -0.38526386044E+04  0.38526386044E+04  0.00000000000E+00 0.  1.
        -24    2    1    2    0    0  0.65037302096E+03  0.27876539924E+03 -0.78086570150E+02  0.71658127206E+03  0.81829046338E+02 0.  0.
        254    2    1    2    0    0 -0.65037302096E+03 -0.27876539924E+03 -0.33648345673E+04  0.35457747992E+04  0.86585913834E+03 0.  0.
         23    2    4    4    0    0 -0.39076992826E+03 -0.43007863508E+03 -0.10007846753E+04  0.11606844559E+04  0.89160926710E+02 0.  0.
         23    2    4    4    0    0 -0.25960309270E+03  0.15131323584E+03 -0.23640498920E+04  0.23850903433E+04  0.98155960412E+02 0.  0.
          3    1    3    3  502    0  0.43339865748E+03  0.20987144574E+03 -0.21576016188E+02  0.48202276349E+03  0.00000000000E+00 0. -1.
         -4    1    3    3    0  502  0.21697436348E+03  0.68893953497E+02 -0.56510553962E+02  0.23455850857E+03  0.00000000000E+00 0.  1.
         13    1    5    5    0    0 -0.10002718493E+03 -0.14978356977E+03 -0.24928914846E+03  0.30754777684E+03  0.00000000000E+00 0. -1.
        -13    1    5    5    0    0 -0.29074274333E+03 -0.28029506531E+03 -0.75149552680E+03  0.85313667910E+03  0.00000000000E+00 0.  1.
          4    1    6    6  503    0 -0.71150888763E+02 -0.82713126836E+00 -0.41596319904E+03  0.42200535077E+03  0.00000000000E+00 0. -1.
         -4    1    6    6    0  503 -0.18845220393E+03  0.15214036711E+03 -0.19480866930E+04  0.19630849925E+04  0.00000000000E+00 0.  1.
<mgrwt>
<rscale>  0 0.25127621E+04</rscale>
<asrwt>0</asrwt>
<pdfrwt beam="1">  1        1 0.63033457E-01 0.25127621E+04</pdfrwt>
<pdfrwt beam="2">  1       -2 0.59271363E+00 0.25127621E+04</pdfrwt>
<totfact> 0.24113187E-02</totfact>
</mgrwt>
</event>
<event>
12    5  0.5246737E-008  0.1651900E+04  0.7818608E-02  0.8789283E-01
          1   -1    0    0  501    0  0.00000000000E+00  0.00000000000E+00  0.57021039447E+03  0.57021039447E+03  0.00000000000E+00 0. -1.
         -2   -1    0    0    0  501 -0.00000000000E+00 -0.00000000000E+00 -0.11963885205E+04  0.11963885205E+04  0.00000000000E+00 0.  1.
        -24    2    1    2    0    0  0.14552969707E+03  0.51635794537E+03 -0.44082891834E+03  0.69873934896E+03  0.78116080751E+02 0.  0.
        254    2    1    2    0    0 -0.14552969707E+03 -0.51635794537E+03 -0.18534920774E+03  0.10678595660E+04  0.90452490486E+03 0.  0.
         23    2    4    4    0    0 -0.28136048698E+03 -0.16461120298E+03 -0.47555387454E+03  0.58376771849E+03  0.91502403110E+02 0.  0.
         23    2    4    4    0    0  0.13583078992E+03 -0.35174674239E+03  0.29020466680E+03  0.48409184756E+03  0.89164981747E+02 0.  0.
          3    1    3    3  502    0  0.11979002820E+03  0.38440865743E+03 -0.36980416740E+03  0.54669442011E+03  0.00000000000E+00 0. -1.
         -4    1    3    3    0  502  0.25739668869E+02  0.13194928795E+03 -0.71024750939E+02  0.15204492885E+03  0.00000000000E+00 0.  1.
         13    1    5    5    0    0 -0.13223144222E+03 -0.11219097488E+03 -0.18896954837E+03  0.25647896476E+03  0.00000000000E+00 0.  1.
        -13    1    5    5    0    0 -0.14912904476E+03 -0.52420228101E+02 -0.28658432617E+03  0.32728875373E+03  0.00000000000E+00 0. -1.
          3    1    6    6  503    0  0.11851795646E+03 -0.35053789847E+03  0.27912042078E+03  0.46349922714E+03  0.00000000000E+00 0. -1.
         -3    1    6    6    0  503  0.17312833458E+02 -0.12088439276E+01  0.11084246023E+02  0.20592620423E+02  0.00000000000E+00 0.  1.
<mgrwt>
<rscale>  0 0.16518997E+04</rscale>
<asrwt>0</asrwt>
<pdfrwt beam="1">  1        1 0.87724677E-01 0.16518997E+04</pdfrwt>
<pdfrwt beam="2">  1       -2 0.18405977E+00 0.16518997E+04</pdfrwt>
<totfact> 0.52345665E+00</totfact>
</mgrwt>
</event>
<event>
12    5  0.5246737E-008  0.1156431E+04  0.7818608E-02  0.9151871E-01
          1   -1    0    0  501    0  0.00000000000E+00  0.00000000000E+00  0.10190678490E+04  0.10190678490E+04  0.00000000000E+00 0. -1.
         -2   -1    0    0    0  501 -0.00000000000E+00 -0.00000000000E+00 -0.32807740653E+03  0.32807740653E+03  0.00000000000E+00 0.  1.
        -24    2    1    2    0    0  0.10900278546E+03  0.90812459369E+02 -0.53814385051E+02  0.17195676670E+03  0.80898897165E+02 0.  0.
        254    2    1    2    0    0 -0.10900278546E+03 -0.90812459369E+02  0.74480482757E+03  0.11751884889E+04  0.89788932680E+03 0.  0.
         23    2    4    4    0    0 -0.39422452850E+03  0.23483923924E+03  0.38032369835E+03  0.60268932924E+03  0.89587191569E+02 0.  0.
         23    2    4    4    0    0  0.28522174304E+03 -0.32565169861E+03  0.36448112922E+03  0.57249915962E+03  0.86650578197E+02 0.  0.
          1    1    3    3  502    0  0.33787701465E+02  0.15460958326E+02  0.20197902358E+02  0.42291905399E+02  0.00000000000E+00 0. -1.
         -2    1    3    3    0  502  0.75215083994E+02  0.75351501043E+02 -0.74012287409E+02  0.12966486131E+03  0.00000000000E+00 0.  1.
         13    1    5    5    0    0 -0.18258478065E+03  0.76767583707E+02  0.11874462860E+03  0.23093451638E+03  0.00000000000E+00 0. -1.
        -13    1    5    5    0    0 -0.21163974785E+03  0.15807165553E+03  0.26157906975E+03  0.37175481286E+03  0.00000000000E+00 0.  1.
          3    1    6    6  503    0  0.28984461137E+03 -0.31863301909E+03  0.34707702380E+03  0.55317208900E+03  0.00000000000E+00 0. -1.
         -3    1    6    6    0  503 -0.46228683215E+01 -0.70186795147E+01  0.17404105417E+02  0.19327070626E+02  0.00000000000E+00 0.  1.
<mgrwt>
<rscale>  0 0.11564310E+04</rscale>
<asrwt>0</asrwt>
<pdfrwt beam="1">  1        1 0.15677967E+00 0.11564310E+04</pdfrwt>
<pdfrwt beam="2">  1       -2 0.50473448E-01 0.11564310E+04</pdfrwt>
<totfact> 0.47233533E+01</totfact>
</mgrwt>
</event>
<event>
12    5  0.5246737E-008  0.2243214E+04  0.7818608E-02  0.8500654E-01
          1   -1    0    0  501    0  0.00000000000E+00  0.00000000000E+00  0.28283285603E+04  0.28283285603E+04  0.00000000000E+00 0. -1.
         -2   -1    0    0    0  501 -0.00000000000E+00 -0.00000000000E+00 -0.44478641607E+03  0.44478641607E+03  0.00000000000E+00 0.  1.
        -24    2    1    2    0    0 -0.44624161110E+03 -0.13711205398E+03 -0.18781986141E+03  0.50972707817E+03  0.81327136046E+02 0.  0.
        254    2    1    2    0    0  0.44624161110E+03  0.13711205398E+03  0.25713620056E+04  0.27633878982E+04  0.89804165887E+03 0.  0.
         23    2    4    4    0    0  0.67780903268E+03 -0.48356236305E+02  0.15287701927E+04  0.16754578106E+04  0.90868931649E+02 0.  0.
         23    2    4    4    0    0 -0.23156742159E+03  0.18546829028E+03  0.10425918130E+04  0.10879300876E+04  0.92586335878E+02 0.  0.
          1    1    3    3  502    0 -0.15993987707E+03 -0.27404138967E+02 -0.10074437371E+03  0.19100047105E+03  0.00000000000E+00 0. -1.
         -2    1    3    3    0  502 -0.28630173403E+03 -0.10970791501E+03 -0.87075487701E+02  0.31872660711E+03  0.00000000000E+00 0.  1.
         13    1    5    5    0    0  0.46845259819E+03  0.57903129402E+01  0.10065677966E+04  0.11102522657E+04  0.00000000000E+00 0. -1.
        -13    1    5    5    0    0  0.20935643449E+03 -0.54146549245E+02  0.52220239609E+03  0.56520554486E+03  0.00000000000E+00 0.  1.
          1    1    6    6  503    0 -0.22145591652E+03  0.18608728821E+03  0.90808376119E+03  0.95304108995E+03  0.00000000000E+00 0. -1.
         -1    1    6    6    0  503 -0.10111505064E+02 -0.61899792814E+00  0.13450805179E+03  0.13488899765E+03  0.00000000000E+00 0.  1.
<mgrwt>
<rscale>  0 0.22432139E+04</rscale>
<asrwt>0</asrwt>
<pdfrwt beam="1">  1        1 0.43512746E+00 0.22432139E+04</pdfrwt>
<pdfrwt beam="2">  1       -2 0.68428681E-01 0.22432139E+04</pdfrwt>
<totfact> 0.12408264E+00</totfact>
</mgrwt>
</event>
<event>
12    5  0.5246737E-008  0.1574935E+04  0.7818608E-02  0.8836096E-01
          1   -1    0    0  501    0  0.00000000000E+00  0.00000000000E+00  0.71525519937E+03  0.71525519937E+03  0.00000000000E+00 0. -1.
         -2   -1    0    0    0  501 -0.00000000000E+00 -0.00000000000E+00 -0.86697037642E+03  0.86697037642E+03  0.00000000000E+00 0.  1.
        -24    2    1    2    0    0 -0.37239107749E+03  0.36915756758E+03 -0.77573075840E+02  0.53606460246E+03  0.79970317082E+02 0.  0.
        254    2    1    2    0    0  0.37239107749E+03 -0.36915756758E+03 -0.74142101209E+02  0.10461609733E+04  0.90222131799E+03 0.  0.
         23    2    4    4    0    0  0.37792281633E+03 -0.35075827577E+03 -0.43028130883E+03  0.67730212592E+03  0.87972393024E+02 0.  0.
         23    2    4    4    0    0 -0.55317388347E+01 -0.18399291816E+02  0.35613920762E+03  0.36885884740E+03  0.94088150322E+02 0.  0.
          3    1    3    3  502    0 -0.10937878900E+02  0.35206274476E+02  0.45630580632E+01  0.37147549800E+02  0.00000000000E+00 0. -1.
         -4    1    3    3    0  502 -0.36145319859E+03  0.33395129311E+03 -0.82136133903E+02  0.49891705266E+03  0.00000000000E+00 0.  1.
         13    1    5    5    0    0  0.22928178761E+03 -0.25404521418E+03 -0.31970931461E+03  0.46831950079E+03  0.00000000000E+00 0. -1.
        -13    1    5    5    0    0  0.14864102872E+03 -0.96713061592E+02 -0.11057199422E+03  0.20898262513E+03  0.00000000000E+00 0.  1.
          1    1    6    6  503    0  0.39899438014E+02 -0.18058671005E+02  0.24341292627E+03  0.24732151832E+03  0.00000000000E+00 0. -1.
         -1    1    6    6    0  503 -0.45431176849E+02 -0.34062081057E+00  0.11272628135E+03  0.12153732908E+03  0.00000000000E+00 0.  1.
<mgrwt>
<rscale>  0 0.15749350E+04</rscale>
<asrwt>0</asrwt>
<pdfrwt beam="1">  1        1 0.11003926E+00 0.15749350E+04</pdfrwt>
<pdfrwt beam="2">  1       -2 0.13338006E+00 0.15749350E+04</pdfrwt>
<totfact> 0.90268182E+00</totfact>
</mgrwt>
</event>
<event>
12    5  0.5246737E-008  0.3943087E+04  0.7818608E-02  0.8016127E-01
          1   -1    0    0  501    0  0.00000000000E+00  0.00000000000E+00  0.18280466670E+04  0.18280466670E+04  0.00000000000E+00 0. -1.
         -4   -1    0    0    0  501 -0.00000000000E+00 -0.00000000000E+00 -0.21263047710E+04  0.21263047710E+04  0.00000000000E+00 0.  1.
        -24    2    1    2    0    0 -0.93696310796E+03 -0.16105648202E+04 -0.16114891975E+01  0.18650033692E+04  0.80100341290E+02 0.  0.
        254    2    1    2    0    0  0.93696310796E+03  0.16105648202E+04 -0.29664661483E+03  0.20893480687E+04  0.89752840202E+03 0.  0.
         23    2    4    4    0    0  0.30075274076E+03  0.10687157430E+01  0.61260404857E+02  0.31969001209E+03  0.89417634703E+02 0.  0.
         23    2    4    4    0    0  0.63621036720E+03  0.16094961045E+04 -0.35790701968E+03  0.17696580566E+04  0.91383045903E+02 0.  0.
          1    1    3    3  502    0 -0.71239771374E+03 -0.11615413810E+04 -0.17238365842E+02  0.13627127517E+04  0.00000000000E+00 0. -1.
         -2    1    3    3    0  502 -0.22456539422E+03 -0.44902343919E+03  0.15626876644E+02  0.50229061757E+03  0.00000000000E+00 0.  1.
         13    1    5    5    0    0  0.22261649351E+03  0.36635437917E+01  0.84480230979E+02  0.23813532741E+03  0.00000000000E+00 0. -1.
        -13    1    5    5    0    0  0.78136247251E+02 -0.25948280486E+01 -0.23219826122E+02  0.81554684674E+02  0.00000000000E+00 0.  1.
          1    1    6    6  503    0  0.31154138660E+03  0.77278251099E+03 -0.21859101983E+03  0.86141330313E+03  0.00000000000E+00 0. -1.
         -1    1    6    6    0  503  0.32466898060E+03  0.83671359346E+03 -0.13931599985E+03  0.90824475350E+03  0.00000000000E+00 0.  1.
<mgrwt>
<rscale>  0 0.39430873E+04</rscale>
<asrwt>0</asrwt>
<pdfrwt beam="1">  1        1 0.28123795E+00 0.39430873E+04</pdfrwt>
<pdfrwt beam="2">  1       -4 0.32712381E+00 0.39430873E+04</pdfrwt>
<totfact> 0.30707838E-02</totfact>
</mgrwt>
</event>
<event>
12    5  0.5246737E-008  0.2778651E+04  0.7818608E-02  0.8309927E-01
         -2   -1    0    0    0  501 -0.00000000000E+00  0.00000000000E+00  0.11948495121E+04  0.11948495121E+04  0.00000000000E+00 0.  1.
          1   -1    0    0  501    0  0.00000000000E+00 -0.00000000000E+00 -0.16154542265E+04  0.16154542265E+04  0.00000000000E+00 0. -1.
        -24    2    1    2    0    0  0.27826170580E+03 -0.74791987249E+03  0.77190417160E+03  0.11132575107E+04  0.81807838717E+02 0.  0.
        254    2    1    2    0    0 -0.27826170580E+03  0.74791987249E+03 -0.11925088860E+04  0.16970462278E+04  0.90613174743E+03 0.  0.
         23    2    4    4    0    0  0.21729692287E+03  0.42151538692E+03 -0.91685116490E+03  0.10363953771E+04  0.92769310283E+02 0.  0.
         23    2    4    4    0    0 -0.49555862867E+03  0.32640448557E+03 -0.27565772109E+03  0.66065085078E+03  0.91400901473E+02 0.  0.
          1    1    3    3  502    0  0.19177480883E+03 -0.45346743561E+03  0.42848942332E+03  0.65269708009E+03  0.00000000000E+00 0. -1.
         -2    1    3    3    0  502  0.86486896966E+02 -0.29445243688E+03  0.34341474828E+03  0.46056043064E+03  0.00000000000E+00 0.  1.
         13    1    5    5    0    0  0.19594921442E+03  0.39065789672E+03 -0.88556995281E+03  0.98754434241E+03  0.00000000000E+00 0.  1.
        -13    1    5    5    0    0  0.21347708449E+02  0.30857490199E+02 -0.31281212086E+02  0.48851034656E+02  0.00000000000E+00 0. -1.
          4    1    6    6  503    0 -0.98725258669E+02  0.54697181634E+02 -0.92821291115E+02  0.14613093602E+03  0.00000000000E+00 0. -1.
         -4    1    6    6    0  503 -0.39683337000E+03  0.27170730394E+03 -0.18283642998E+03  0.51451991476E+03  0.00000000000E+00 0.  1.
<mgrwt>
<rscale>  0 0.27786505E+04</rscale>
<asrwt>0</asrwt>
<pdfrwt beam="1">  1        1 0.24853142E+00 0.27786505E+04</pdfrwt>
<pdfrwt beam="2">  1       -2 0.18382300E+00 0.27786505E+04</pdfrwt>
<totfact> 0.70811913E-01</totfact>
</mgrwt>
</event>
<event>
12    5  0.5246737E-008  0.3414613E+04  0.7818608E-02  0.8134329E-01
          1   -1    0    0  501    0  0.00000000000E+00  0.00000000000E+00  0.18599702641E+04  0.18599702641E+04  0.00000000000E+00 0. -1.
         -2   -1    0    0    0  501 -0.00000000000E+00 -0.00000000000E+00 -0.15671732721E+04  0.15671732721E+04  0.00000000000E+00 0.  1.
        -24    2    1    2    0    0  0.48182061693E+03  0.61415137558E+03 -0.12455159223E+04  0.14721136586E+04  0.80471685850E+02 0.  0.
        254    2    1    2    0    0 -0.48182061693E+03 -0.61415137558E+03  0.15383129143E+04  0.19550298776E+04  0.92000118534E+03 0.  0.
         23    2    4    4    0    0  0.11390329092E+03  0.14900644172E+03  0.15367365617E+03  0.26337506426E+03  0.10282972584E+03 0.  0.
         23    2    4    4    0    0 -0.59572390786E+03 -0.76315781731E+03  0.13846392581E+04  0.16916548134E+04  0.84695359252E+02 0.  0.
          1    1    3    3  502    0  0.14980596862E+03  0.20603783639E+03 -0.47710117221E+03  0.54085020735E+03  0.00000000000E+00 0. -1.
         -2    1    3    3    0  502  0.33201464831E+03  0.40811353919E+03 -0.76841475004E+03  0.93126345126E+03  0.00000000000E+00 0.  1.
         13    1    5    5    0    0  0.52527691212E+02  0.90095592247E+02  0.14393528710E+03  0.17774628255E+03  0.00000000000E+00 0. -1.
        -13    1    5    5    0    0  0.61375599712E+02  0.58910849475E+02  0.97383690704E+01  0.85628781715E+02  0.00000000000E+00 0.  1.
          3    1    6    6  503    0 -0.52490991464E+03 -0.62758405939E+03  0.11421060796E+04  0.14049193810E+04  0.00000000000E+00 0. -1.
         -3    1    6    6    0  503 -0.70813993216E+02 -0.13557375791E+03  0.24253317855E+03  0.28673543236E+03  0.00000000000E+00 0.  1.
<mgrwt>
<rscale>  0 0.34146131E+04</rscale>
<asrwt>0</asrwt>
<pdfrwt beam="1">  1        1 0.28614927E+00 0.34146131E+04</pdfrwt>
<pdfrwt beam="2">  1       -2 0.24110358E+00 0.34146131E+04</pdfrwt>
<totfact> 0.19534950E-01</totfact>
</mgrwt>
</event>
<event>
12    5  0.5246737E-008  0.1431771E+04  0.7818608E-02  0.8931137E-01
          1   -1    0    0  501    0  0.00000000000E+00  0.00000000000E+00  0.84247236830E+03  0.84247236830E+03  0.00000000000E+00 0. -1.
         -2   -1    0    0    0  501 -0.00000000000E+00 -0.00000000000E+00 -0.60831923068E+03  0.60831923068E+03  0.00000000000E+00 0.  1.
        -24    2    1    2    0    0  0.31816022710E+03 -0.17185724960E+03  0.31157332137E+03  0.48364048474E+03  0.77905966022E+02 0.  0.
        254    2    1    2    0    0 -0.31816022710E+03  0.17185724960E+03 -0.77420183756E+02  0.96715111424E+03  0.89365907850E+03 0.  0.
         23    2    4    4    0    0 -0.34528619872E+03 -0.30299136163E+03  0.37627411442E+02  0.46922119574E+03  0.87899853204E+02 0.  0.
         23    2    4    4    0    0  0.27125971617E+02  0.47484861122E+03 -0.11504759520E+03  0.49792991850E+03  0.92093608156E+02 0.  0.
          3    1    3    3  502    0  0.30198644859E+03 -0.14923394770E+03  0.30639782139E+03  0.45535284256E+03  0.00000000000E+00 0. -1.
         -2    1    3    3    0  502  0.16173778514E+02 -0.22623301894E+02  0.51754999836E+01  0.28287642180E+02  0.00000000000E+00 0.  1.
         13    1    5    5    0    0 -0.11126495115E+03 -0.53788058530E+02 -0.10324009608E+02  0.12401463530E+03  0.00000000000E+00 0.  1.
        -13    1    5    5    0    0 -0.23402124757E+03 -0.24920330310E+03  0.47951421050E+02  0.34520656043E+03  0.00000000000E+00 0. -1.
          1    1    6    6  503    0  0.53566810398E+02  0.34335778772E+03 -0.10680623643E+03  0.36355404785E+03  0.00000000000E+00 0. -1.
         -1    1    6    6    0  503 -0.26440838781E+02  0.13149082350E+03 -0.82413587699E+01  0.13437587066E+03  0.00000000000E+00 0.  1.
<mgrwt>
<rscale>  0 0.14317711E+04</rscale>
<asrwt>0</asrwt>
<pdfrwt beam="1">  1        1 0.12961113E+00 0.14317711E+04</pdfrwt>
<pdfrwt beam="2">  1       -2 0.93587574E-01 0.14317711E+04</pdfrwt>
<totfact> 0.16718724E+01</totfact>
</mgrwt>
</event>
<event>
12    5  0.5246737E-008  0.1349363E+04  0.7818608E-02  0.8991310E-01
          1   -1    0    0  501    0  0.00000000000E+00  0.00000000000E+00  0.45368711762E+03  0.45368711762E+03  0.00000000000E+00 0. -1.
         -2   -1    0    0    0  501 -0.00000000000E+00 -0.00000000000E+00 -0.10033238179E+04  0.10033238179E+04  0.00000000000E+00 0.  1.
        -24    2    1    2    0    0  0.69690025405E+02  0.36518947830E+03 -0.24610200021E+03  0.45288718692E+03  0.79501917368E+02 0.  0.
        254    2    1    2    0    0 -0.69690025405E+02 -0.36518947830E+03 -0.30353470002E+03  0.10041237486E+04  0.88199270608E+03 0.  0.
         23    2    4    4    0    0 -0.20956811951E+03 -0.17913057566E+03 -0.56896929262E+03  0.63873077721E+03  0.90798623153E+02 0.  0.
         23    2    4    4    0    0  0.13987809410E+03 -0.18605890264E+03  0.26543459259E+03  0.36539297134E+03  0.94195032218E+02 0.  0.
          3    1    3    3  502    0  0.14697927739E+02  0.16676045333E+03 -0.68182370308E+02  0.18075926946E+03  0.00000000000E+00 0. -1.
         -4    1    3    3    0  502  0.54992097665E+02  0.19842902498E+03 -0.17791962991E+03  0.27212791747E+03  0.00000000000E+00 0.  1.
         13    1    5    5    0    0 -0.59821654920E+02 -0.93683866331E+01 -0.16348374509E+03  0.17433683482E+03  0.00000000000E+00 0.  1.
        -13    1    5    5    0    0 -0.14974646459E+03 -0.16976218903E+03 -0.40548554753E+03  0.46439394240E+03  0.00000000000E+00 0. -1.
          2    1    6    6  503    0  0.11436001079E+03 -0.75856200048E+02  0.15956851355E+03  0.21046255170E+03  0.00000000000E+00 0. -1.
         -2    1    6    6    0  503  0.25518083314E+02 -0.11020270260E+03  0.10586607904E+03  0.15493041963E+03  0.00000000000E+00 0.  1.
<mgrwt>
<rscale>  0 0.13493629E+04</rscale>
<asrwt>0</asrwt>
<pdfrwt beam="1">  1        1 0.69798019E-01 0.13493629E+04</pdfrwt>
<pdfrwt beam="2">  1       -2 0.15435751E+00 0.13493629E+04</pdfrwt>
<totfact> 0.12017565E+01</totfact>
</mgrwt>
</event>
<event>
12    5  0.5246737E-008  0.3029727E+04  0.7818608E-02  0.8235293E-01
         -2   -1    0    0    0  501 -0.00000000000E+00  0.00000000000E+00  0.52935233906E+03  0.52935233906E+03  0.00000000000E+00 0.  1.
          1   -1    0    0  501    0  0.00000000000E+00 -0.00000000000E+00 -0.43351295284E+04  0.43351295284E+04  0.00000000000E+00 0. -1.
        -24    2    1    2    0    0 -0.12144351167E+04  0.55285934986E+02 -0.27679665832E+04  0.30242524423E+04  0.80960743192E+02 0.  0.
        254    2    1    2    0    0  0.12144351167E+04 -0.55285934986E+02 -0.10378106061E+04  0.18402294251E+04  0.91185760711E+03 0.  0.
         23    2    4    4    0    0  0.10702488914E+04  0.24974246505E+03 -0.99917371232E+03  0.14879943072E+04  0.89302644825E+02 0.  0.
         23    2    4    4    0    0  0.14418622529E+03 -0.30502840003E+03 -0.38636893805E+02  0.35223511796E+03  0.93513509024E+02 0.  0.
          1    1    3    3  502    0 -0.10734463423E+04  0.22876935060E+02 -0.24461061356E+04  0.26713752321E+04  0.00000000000E+00 0. -1.
         -2    1    3    3    0  502 -0.14098877436E+03  0.32408999926E+02 -0.32186044760E+03  0.35287721023E+03  0.00000000000E+00 0.  1.
         13    1    5    5    0    0  0.82233088792E+03  0.20842564431E+03 -0.81510447307E+03  0.11764627663E+04  0.00000000000E+00 0. -1.
        -13    1    5    5    0    0  0.24791800348E+03  0.41316820734E+02 -0.18406923925E+03  0.31153154089E+03  0.00000000000E+00 0.  1.
          2    1    6    6  503    0  0.14306126641E+03 -0.21979357235E+03 -0.10471647486E+02  0.26246027469E+03  0.00000000000E+00 0. -1.
         -2    1    6    6    0  503  0.11249588846E+01 -0.85234827685E+02 -0.28165246319E+02  0.89774843265E+02  0.00000000000E+00 0.  1.
<mgrwt>
<rscale>  0 0.30297267E+04</rscale>
<asrwt>0</asrwt>
<pdfrwt beam="1">  1        1 0.66694300E+00 0.30297267E+04</pdfrwt>
<pdfrwt beam="2">  1       -2 0.81438821E-01 0.30297267E+04</pdfrwt>
<totfact> 0.46657001E-02</totfact>
</mgrwt>
</event>
<event>
12    5  0.5246737E-008  0.2136021E+04  0.7818608E-02  0.8545540E-01
          1   -1    0    0  501    0  0.00000000000E+00  0.00000000000E+00  0.98967974806E+03  0.98967974806E+03  0.00000000000E+00 0. -1.
         -2   -1    0    0    0  501 -0.00000000000E+00 -0.00000000000E+00 -0.11525411034E+04  0.11525411034E+04  0.00000000000E+00 0.  1.
        -24    2    1    2    0    0 -0.24416770586E+03  0.16779207713E+03  0.75905992411E+03  0.81921912836E+03  0.84711050962E+02 0.  0.
        254    2    1    2    0    0  0.24416770586E+03 -0.16779207713E+03 -0.92192127942E+03  0.13230017231E+04  0.90145585809E+03 0.  0.
         23    2    4    4    0    0  0.28975188304E+03 -0.46596883935E+03 -0.82281382764E+03  0.99297441534E+03  0.88839639821E+02 0.  0.
         23    2    4    4    0    0 -0.45584177178E+02  0.29817676222E+03 -0.99107451784E+02  0.33002730774E+03  0.90046866212E+02 0.  0.
          1    1    3    3  502    0 -0.21940504566E+03  0.12956558391E+03  0.69791891026E+03  0.74297820957E+03  0.00000000000E+00 0. -1.
         -2    1    3    3    0  502 -0.24762660202E+02  0.38226493220E+02  0.61141013846E+02  0.76240918792E+02  0.00000000000E+00 0.  1.
         13    1    5    5    0    0  0.41373932399E+02 -0.10240150054E+03 -0.11548527566E+03  0.15979586505E+03  0.00000000000E+00 0. -1.
        -13    1    5    5    0    0  0.24837795064E+03 -0.36356733881E+03 -0.70732855198E+03  0.83317855029E+03  0.00000000000E+00 0.  1.
          4    1    6    6  503    0 -0.22289728460E+01  0.22043238626E+03 -0.97380355636E+02  0.24099447897E+03  0.00000000000E+00 0. -1.
         -4    1    6    6    0  503 -0.43355204332E+02  0.77744375966E+02 -0.17270961483E+01  0.89032828766E+02  0.00000000000E+00 0.  1.
<mgrwt>
<rscale>  0 0.21360212E+04</rscale>
<asrwt>0</asrwt>
<pdfrwt beam="1">  1        1 0.15225842E+00 0.21360212E+04</pdfrwt>
<pdfrwt beam="2">  1       -2 0.17731402E+00 0.21360212E+04</pdfrwt>
<totfact> 0.23450483E+00</totfact>
</mgrwt>
</event>
<event>
12    5  0.5246737E-008  0.1230345E+04  0.7818608E-02  0.9086703E-01
         -2   -1    0    0    0  501 -0.00000000000E+00  0.00000000000E+00  0.19284902837E+03  0.19284902837E+03  0.00000000000E+00 0.  1.
          1   -1    0    0  501    0  0.00000000000E+00 -0.00000000000E+00 -0.19623486944E+04  0.19623486944E+04  0.00000000000E+00 0. -1.
        -24    2    1    2    0    0 -0.58184269141E+02  0.12421304240E+01 -0.84830564837E+03  0.85417138080E+03  0.81236215133E+02 0.  0.
        254    2    1    2    0    0  0.58184269141E+02 -0.12421304240E+01 -0.92119401770E+03  0.13010263420E+04  0.91688830962E+03 0.  0.
         23    2    4    4    0    0  0.36348076653E+03  0.26554848788E+03 -0.67919282421E+03  0.82000025371E+03  0.91995959586E+02 0.  0.
         23    2    4    4    0    0 -0.30529649739E+03 -0.26679061831E+03 -0.24200119349E+03  0.48102608831E+03  0.91860408483E+02 0.  0.
          1    1    3    3  502    0 -0.49571211368E+02  0.30654338464E+02 -0.71574307072E+03  0.71811220345E+03  0.00000000000E+00 0. -1.
         -2    1    3    3    0  502 -0.86130577725E+01 -0.29412208040E+02 -0.13256257765E+03  0.13605917735E+03  0.00000000000E+00 0.  1.
         13    1    5    5    0    0  0.24109915152E+03  0.16187339908E+03 -0.35787979597E+03  0.46087931886E+03  0.00000000000E+00 0. -1.
        -13    1    5    5    0    0  0.12238161501E+03  0.10367508880E+03 -0.32131302824E+03  0.35912093485E+03  0.00000000000E+00 0.  1.
          4    1    6    6  503    0 -0.11718682644E+03 -0.11621157001E+03 -0.15026729297E+03  0.22319977740E+03  0.00000000000E+00 0. -1.
         -4    1    6    6    0  503 -0.18810967095E+03 -0.15057904830E+03 -0.91733900519E+02  0.25782631090E+03  0.00000000000E+00 0.  1.
<mgrwt>
<rscale>  0 0.12303447E+04</rscale>
<asrwt>0</asrwt>
<pdfrwt beam="1">  1        1 0.30189979E+00 0.12303447E+04</pdfrwt>
<pdfrwt beam="2">  1       -2 0.29669083E-01 0.12303447E+04</pdfrwt>
<totfact> 0.28727253E+01</totfact>
</mgrwt>
</event>
<event>
12    5  0.5246737E-008  0.1167861E+04  0.7818608E-02  0.9141463E-01
          1   -1    0    0  501    0  0.00000000000E+00  0.00000000000E+00  0.84991283395E+03  0.84991283395E+03  0.00000000000E+00 0. -1.
         -2   -1    0    0    0  501 -0.00000000000E+00 -0.00000000000E+00 -0.40118771930E+03  0.40118771930E+03  0.00000000000E+00 0.  1.
        -24    2    1    2    0    0  0.75963050373E+01 -0.12297936249E+03  0.30593288404E+03  0.33916854398E+03  0.79112225609E+02 0.  0.
        254    2    1    2    0    0 -0.75963050373E+01  0.12297936249E+03  0.14279223062E+03  0.91193200927E+03  0.89221563591E+03 0.  0.
         23    2    4    4    0    0 -0.42292389258E+03 -0.53459555389E+02  0.11759439898E+03  0.45124087241E+03  0.89818368295E+02 0.  0.
         23    2    4    4    0    0  0.41532758754E+03  0.17643891788E+03  0.25197831640E+02  0.46069113686E+03  0.89295555030E+02 0.  0.
          3    1    3    3  502    0  0.16515034440E+02 -0.49893514395E+02  0.21913265050E+03  0.22534690514E+03  0.00000000000E+00 0. -1.
         -4    1    3    3    0  502 -0.89187294025E+01 -0.73085848093E+02  0.86800233539E+02  0.11382163884E+03  0.00000000000E+00 0.  1.
         13    1    5    5    0    0 -0.36713719597E+03 -0.26764912654E+02  0.73737728186E+02  0.37542420510E+03  0.00000000000E+00 0.  1.
        -13    1    5    5    0    0 -0.55786696609E+02 -0.26694642735E+02  0.43856670790E+02  0.75816667311E+02  0.00000000000E+00 0. -1.
          1    1    6    6  503    0  0.74507027970E+01 -0.28434229577E+01 -0.11108317969E+02  0.13674529403E+02  0.00000000000E+00 0. -1.
         -1    1    6    6    0  503  0.40787688474E+03  0.17928234083E+03  0.36306149609E+02  0.44701660746E+03  0.00000000000E+00 0.  1.
<mgrwt>
<rscale>  0 0.11678606E+04</rscale>
<asrwt>0</asrwt>
<pdfrwt beam="1">  1        1 0.13075582E+00 0.11678606E+04</pdfrwt>
<pdfrwt beam="2">  1       -2 0.61721187E-01 0.11678606E+04</pdfrwt>
<totfact> 0.42474357E+01</totfact>
</mgrwt>
</event>
<event>
12    5  0.5246737E-008  0.1526651E+04  0.7818608E-02  0.8866921E-01
         -2   -1    0    0    0  501 -0.00000000000E+00  0.00000000000E+00  0.13091233690E+04  0.13091233690E+04  0.00000000000E+00 0.  1.
          1   -1    0    0  501    0  0.00000000000E+00 -0.00000000000E+00 -0.44508078566E+03  0.44508078566E+03  0.00000000000E+00 0. -1.
        -24    2    1    2    0    0 -0.21478460880E+03  0.31632776105E+03  0.65008163882E+03  0.75853387315E+03  0.81066756480E+02 0.  0.
        254    2    1    2    0    0  0.21478460880E+03 -0.31632776105E+03  0.21396094456E+03  0.99567028154E+03  0.89408296212E+03 0.  0.
         23    2    4    4    0    0 -0.69830622319E+02 -0.44237902068E+03 -0.17501969754E+03  0.48943391200E+03  0.91313448824E+02 0.  0.
         23    2    4    4    0    0  0.28461523112E+03  0.12605125963E+03  0.38898064210E+03  0.50623636954E+03  0.89858622753E+02 0.  0.
          3    1    3    3  502    0 -0.53091874135E+02  0.66233951642E+02  0.87025221074E+02  0.12156920890E+03  0.00000000000E+00 0. -1.
         -4    1    3    3    0  502 -0.16169273467E+03  0.25009380941E+03  0.56305641774E+03  0.63696466426E+03  0.00000000000E+00 0.  1.
         13    1    5    5    0    0 -0.91831170284E+02 -0.35858769880E+03 -0.14847450416E+03  0.39882675431E+03  0.00000000000E+00 0.  1.
        -13    1    5    5    0    0  0.22000547965E+02 -0.83791321881E+02 -0.26545193381E+02  0.90607157692E+02  0.00000000000E+00 0. -1.
          3    1    6    6  503    0  0.57075237596E+02 -0.96960320045E+01  0.54307501624E+02  0.79378211847E+02  0.00000000000E+00 0. -1.
         -3    1    6    6    0  503  0.22753999352E+03  0.13574729163E+03  0.33467314047E+03  0.42685815770E+03  0.00000000000E+00 0.  1.
<mgrwt>
<rscale>  0 0.15266508E+04</rscale>
<asrwt>0</asrwt>
<pdfrwt beam="1">  1        1 0.68473967E-01 0.15266508E+04</pdfrwt>
<pdfrwt beam="2">  1       -2 0.20140359E+00 0.15266508E+04</pdfrwt>
<totfact> 0.57061808E+00</totfact>
</mgrwt>
</event>
<event>
12    5  0.5246737E-008  0.1451962E+04  0.7818608E-02  0.8917042E-01
          1   -1    0    0  501    0  0.00000000000E+00  0.00000000000E+00  0.56728941146E+03  0.56728941146E+03  0.00000000000E+00 0. -1.
         -2   -1    0    0    0  501 -0.00000000000E+00 -0.00000000000E+00 -0.92906389306E+03  0.92906389306E+03  0.00000000000E+00 0.  1.
        -24    2    1    2    0    0 -0.16281666536E+03  0.23831262659E+03  0.23375996957E+03  0.37944381754E+03  0.77664102282E+02 0.  0.
        254    2    1    2    0    0  0.16281666536E+03 -0.23831262659E+03 -0.59553445117E+03  0.11169094870E+04  0.89973515272E+03 0.  0.
         23    2    4    4    0    0 -0.26885219961E+03 -0.37628985631E+03 -0.20734233441E+03  0.51331213205E+03  0.81381447965E+02 0.  0.
         23    2    4    4    0    0  0.43166886498E+03  0.13797722972E+03 -0.38819211676E+03  0.60359735492E+03  0.90889616812E+02 0.  0.
          1    1    3    3  502    0 -0.16288311489E+03  0.19889686410E+03  0.21772841227E+03  0.33689246530E+03  0.00000000000E+00 0. -1.
         -2    1    3    3    0  502  0.66449527533E-01  0.39415762490E+02  0.16031557305E+02  0.42551352245E+02  0.00000000000E+00 0.  1.
         13    1    5    5    0    0 -0.19323343287E+03 -0.27100012188E+03 -0.10775688861E+03  0.34984535538E+03  0.00000000000E+00 0. -1.
        -13    1    5    5    0    0 -0.75618766745E+02 -0.10528973443E+03 -0.99585445803E+02  0.16346677668E+03  0.00000000000E+00 0.  1.
          3    1    6    6  503    0  0.40573754495E+03  0.14520416619E+03 -0.38222682619E+03  0.57602478411E+03  0.00000000000E+00 0. -1.
         -3    1    6    6    0  503  0.25931320030E+02 -0.72269364701E+01 -0.59652905690E+01  0.27572570805E+02  0.00000000000E+00 0.  1.
<mgrwt>
<rscale>  0 0.14519616E+04</rscale>
<asrwt>0</asrwt>
<pdfrwt beam="1">  1        1 0.87275295E-01 0.14519616E+04</pdfrwt>
<pdfrwt beam="2">  1       -2 0.14293291E+00 0.14519616E+04</pdfrwt>
<totfact> 0.10724390E+01</totfact>
</mgrwt>
</event>
<event>
12    5  0.5246737E-008  0.1392173E+04  0.7818608E-02  0.8959504E-01
          1   -1    0    0  501    0  0.00000000000E+00  0.00000000000E+00  0.75034455447E+03  0.75034455447E+03  0.00000000000E+00 0. -1.
         -2   -1    0    0    0  501 -0.00000000000E+00 -0.00000000000E+00 -0.64575209652E+03  0.64575209652E+03  0.00000000000E+00 0.  1.
        -24    2    1    2    0    0  0.71010946904E+01 -0.19492596953E+03  0.38930773783E+03  0.44257900915E+03  0.79177682814E+02 0.  0.
        254    2    1    2    0    0 -0.71010946904E+01  0.19492596953E+03 -0.28471527988E+03  0.95351764184E+03  0.88886812496E+03 0.  0.
         23    2    4    4    0    0  0.42612539953E+02  0.53313789537E+03 -0.25297324868E+03  0.59825473774E+03  0.88664663944E+02 0.  0.
         23    2    4    4    0    0 -0.49713634643E+02 -0.33821192584E+03 -0.31742031196E+02  0.35526290410E+03  0.91353282569E+02 0.  0.
          3    1    3    3  502    0  0.42438131157E+02 -0.12599668743E+03  0.25257803503E+03  0.28543269609E+03  0.00000000000E+00 0. -1.
         -4    1    3    3    0  502 -0.35337036466E+02 -0.68929282100E+02  0.13672970280E+03  0.15714631305E+03  0.00000000000E+00 0.  1.
         13    1    5    5    0    0  0.66509324987E+02  0.38122729289E+03 -0.19996854049E+03  0.43559747054E+03  0.00000000000E+00 0.  1.
        -13    1    5    5    0    0 -0.23896785034E+02  0.15191060249E+03 -0.53004708191E+02  0.16265726720E+03  0.00000000000E+00 0. -1.
          4    1    6    6  503    0  0.12749689512E+02 -0.30500957953E+02  0.17553850845E+02  0.37429943871E+02  0.00000000000E+00 0. -1.
         -4    1    6    6    0  503 -0.62463324155E+02 -0.30771096789E+03 -0.49295882041E+02  0.31783296023E+03  0.00000000000E+00 0.  1.
<mgrwt>
<rscale>  0 0.13921732E+04</rscale>
<asrwt>0</asrwt>
<pdfrwt beam="1">  1        1 0.11543762E+00 0.13921732E+04</pdfrwt>
<pdfrwt beam="2">  1       -2 0.99346477E-01 0.13921732E+04</pdfrwt>
<totfact> 0.17546816E+01</totfact>
</mgrwt>
</event>
<event>
12    5  0.5246737E-008  0.3202612E+04  0.7818608E-02  0.8188128E-01
          1   -1    0    0  501    0  0.00000000000E+00  0.00000000000E+00  0.23543689139E+04  0.23543689139E+04  0.00000000000E+00 0. -1.
         -2   -1    0    0    0  501 -0.00000000000E+00 -0.00000000000E+00 -0.10891160882E+04  0.10891160882E+04  0.00000000000E+00 0.  1.
        -24    2    1    2    0    0 -0.52568452430E+03 -0.12846911239E+04  0.11072494987E+04  0.17774223034E+04  0.80331120986E+02 0.  0.
        254    2    1    2    0    0  0.52568452430E+03  0.12846911239E+04  0.15800332700E+03  0.16660626987E+04  0.90775787611E+03 0.  0.
         23    2    4    4    0    0 -0.33026085903E+02 -0.17975760126E+02  0.22258901598E+03  0.24427674406E+03  0.93334920338E+02 0.  0.
         23    2    4    4    0    0  0.55871061021E+03  0.13026668841E+04 -0.64585688974E+02  0.14217859546E+04  0.90583843957E+02 0.  0.
          1    1    3    3  502    0 -0.49363720992E+03 -0.12454593100E+04  0.10647076948E+04  0.17112711834E+04  0.00000000000E+00 0. -1.
         -2    1    3    3    0  502 -0.32047314386E+02 -0.39231813901E+02  0.42541803970E+02  0.66151119918E+02  0.00000000000E+00 0.  1.
         13    1    5    5    0    0  0.28744881068E+02  0.12270988315E+02  0.82300205118E+02  0.88035044751E+02  0.00000000000E+00 0. -1.
        -13    1    5    5    0    0 -0.61770966971E+02 -0.30246748441E+02  0.14028881086E+03  0.15624169931E+03  0.00000000000E+00 0.  1.
          2    1    6    6  503    0 -0.30161807182E+01  0.11271210972E+02  0.24248258948E+01  0.11917102145E+02  0.00000000000E+00 0. -1.
         -2    1    6    6    0  503  0.56172679092E+03  0.12913956731E+04 -0.67010514868E+02  0.14098688525E+04  0.00000000000E+00 0.  1.
<mgrwt>
<rscale>  0 0.32026121E+04</rscale>
<asrwt>0</asrwt>
<pdfrwt beam="1">  1        1 0.36221060E+00 0.32026121E+04</pdfrwt>
<pdfrwt beam="2">  1       -2 0.16755632E+00 0.32026121E+04</pdfrwt>
<totfact> 0.27881329E-01</totfact>
</mgrwt>
</event>
<event>
12    5  0.5246737E-008  0.1609497E+04  0.7818608E-02  0.8814735E-01
          1   -1    0    0  501    0  0.00000000000E+00  0.00000000000E+00  0.17900503448E+04  0.17900503448E+04  0.00000000000E+00 0. -1.
         -2   -1    0    0    0  501 -0.00000000000E+00 -0.00000000000E+00 -0.36178872356E+03  0.36178872356E+03  0.00000000000E+00 0.  1.
        -24    2    1    2    0    0 -0.42768559661E+03 -0.33590730774E+03  0.47476112748E+03  0.72650243809E+03  0.81602545587E+02 0.  0.
        254    2    1    2    0    0  0.42768559661E+03  0.33590730774E+03  0.95350049373E+03  0.14253366302E+04  0.90921539200E+03 0.  0.
         23    2    4    4    0    0 -0.95419976893E+02  0.84866168502E+02 -0.12634409422E+03  0.19620034641E+03  0.78895546384E+02 0.  0.
         23    2    4    4    0    0  0.52310557350E+03  0.25104113924E+03  0.10798445879E+04  0.12291362838E+04  0.89724999385E+02 0.  0.
          1    1    3    3  502    0 -0.88441387354E+02 -0.49651408666E+02  0.54065624954E+02  0.11493577851E+03  0.00000000000E+00 0. -1.
         -2    1    3    3    0  502 -0.33924420925E+03 -0.28625589908E+03  0.42069550252E+03  0.61156665958E+03  0.00000000000E+00 0.  1.
         13    1    5    5    0    0 -0.92468378997E+02  0.35500595384E+02 -0.97317221222E+02  0.13885724660E+03  0.00000000000E+00 0. -1.
        -13    1    5    5    0    0 -0.29515978965E+01  0.49365573118E+02 -0.29026872998E+02  0.57343099807E+02  0.00000000000E+00 0.  1.
          1    1    6    6  503    0  0.49008941080E+03  0.21931593142E+03  0.94698824070E+03  0.10886109665E+04  0.00000000000E+00 0. -1.
         -1    1    6    6    0  503  0.33016162703E+02  0.31725207819E+02  0.13285634725E+03  0.14052531734E+03  0.00000000000E+00 0.  1.
<mgrwt>
<rscale>  0 0.16094969E+04</rscale>
<asrwt>0</asrwt>
<pdfrwt beam="1">  1        1 0.27539236E+00 0.16094969E+04</pdfrwt>
<pdfrwt beam="2">  1       -2 0.55659805E-01 0.16094969E+04</pdfrwt>
<totfact> 0.10562711E+01</totfact>
</mgrwt>
</event>
<event>
12    5  0.5246737E-008  0.1165879E+04  0.7818608E-02  0.9143258E-01
          1   -1    0    0  501    0  0.00000000000E+00  0.00000000000E+00  0.22425904076E+04  0.22425904076E+04  0.00000000000E+00 0. -1.
         -2   -1    0    0    0  501 -0.00000000000E+00 -0.00000000000E+00 -0.15152942296E+03  0.15152942296E+03  0.00000000000E+00 0.  1.
        -24    2    1    2    0    0 -0.15139410298E+03  0.11368203787E+03  0.14163417088E+03  0.24927521532E+03  0.78956408616E+02 0.  0.
        254    2    1    2    0    0  0.15139410298E+03 -0.11368203787E+03  0.19494268137E+04  0.21448446152E+04  0.87421378458E+03 0.  0.
         23    2    4    4    0    0  0.30669659917E+03  0.27577284847E+03  0.12986321950E+04  0.13653646251E+04  0.87530073304E+02 0.  0.
         23    2    4    4    0    0 -0.15530249618E+03 -0.38945488634E+03  0.65079461876E+03  0.77947999013E+03  0.90892493551E+02 0.  0.
          1    1    3    3  502    0  0.23809708498E+01  0.20289277066E+02  0.33876872009E+02  0.39559654234E+02  0.00000000000E+00 0. -1.
         -2    1    3    3    0  502 -0.15377507383E+03  0.93392760802E+02  0.10775729887E+03  0.20971556109E+03  0.00000000000E+00 0.  1.
         13    1    5    5    0    0  0.51386674040E+02  0.93269552454E+01  0.18118013561E+03  0.18855721652E+03  0.00000000000E+00 0.  1.
        -13    1    5    5    0    0  0.25530992513E+03  0.26644589322E+03  0.11174520594E+04  0.11768074086E+04  0.00000000000E+00 0. -1.
          4    1    6    6  503    0 -0.12242035174E+03 -0.35368626916E+03  0.52605202169E+03  0.64560936257E+03  0.00000000000E+00 0. -1.
         -4    1    6    6    0  503 -0.32882144443E+02 -0.35768617175E+02  0.12474259707E+03  0.13387062756E+03  0.00000000000E+00 0.  1.
<mgrwt>
<rscale>  0 0.11658789E+04</rscale>
<asrwt>0</asrwt>
<pdfrwt beam="1">  1        1 0.34501388E+00 0.11658789E+04</pdfrwt>
<pdfrwt beam="2">  1       -2 0.23312221E-01 0.11658789E+04</pdfrwt>
<totfact> 0.29007250E+01</totfact>
</mgrwt>
</event>
<event>
12    5  0.5246737E-008  0.1554626E+04  0.7818608E-02  0.8848918E-01
         -2   -1    0    0    0  501 -0.00000000000E+00  0.00000000000E+00  0.71680273504E+03  0.71680273504E+03  0.00000000000E+00 0.  1.
          1   -1    0    0  501    0  0.00000000000E+00 -0.00000000000E+00 -0.84293179270E+03  0.84293179270E+03  0.00000000000E+00 0. -1.
        -24    2    1    2    0    0 -0.30897869666E+03  0.39411243575E+03 -0.77144835153E+02  0.51285407755E+03  0.79218257142E+02 0.  0.
        254    2    1    2    0    0  0.30897869666E+03 -0.39411243575E+03 -0.48984222498E+02  0.10468804502E+04  0.91802329814E+03 0.  0.
         23    2    4    4    0    0  0.55863562612E+03  0.50195930941E+01 -0.31736450090E+02  0.56706297423E+03  0.91947024933E+02 0.  0.
         23    2    4    4    0    0 -0.24965692945E+03 -0.39913202884E+03 -0.17247772409E+02  0.47981747596E+03  0.91062427565E+02 0.  0.
          1    1    3    3  502    0 -0.11763338065E+02  0.53998460092E+02 -0.56840923377E+01  0.55556446255E+02  0.00000000000E+00 0. -1.
         -2    1    3    3    0  502 -0.29721535860E+03  0.34011397566E+03 -0.71460742816E+02  0.45729763130E+03  0.00000000000E+00 0.  1.
         13    1    5    5    0    0  0.21403611867E+02  0.12031525880E+02 -0.16474936071E+02  0.29568492260E+02  0.00000000000E+00 0.  1.
        -13    1    5    5    0    0  0.53723201425E+03 -0.70119327857E+01 -0.15261514018E+02  0.53749448197E+03  0.00000000000E+00 0. -1.
          4    1    6    6  503    0 -0.24658556122E+03 -0.34101318447E+03 -0.81061416706E+01  0.42090395640E+03  0.00000000000E+00 0. -1.
         -4    1    6    6    0  503 -0.30713682316E+01 -0.58118844373E+02 -0.91416307383E+01  0.58913519557E+02  0.00000000000E+00 0.  1.
<mgrwt>
<rscale>  0 0.15546264E+04</rscale>
<asrwt>0</asrwt>
<pdfrwt beam="1">  1        1 0.12968181E+00 0.15546264E+04</pdfrwt>
<pdfrwt beam="2">  1       -2 0.11027734E+00 0.15546264E+04</pdfrwt>
<totfact> 0.11188687E+01</totfact>
</mgrwt>
</event>
<event>
12    5  0.5246737E-008  0.2156667E+04  0.7818608E-02  0.8536684E-01
          1   -1    0    0  501    0  0.00000000000E+00  0.00000000000E+00  0.10131979931E+04  0.10131979931E+04  0.00000000000E+00 0. -1.
         -2   -1    0    0    0  501 -0.00000000000E+00 -0.00000000000E+00 -0.11476568426E+04  0.11476568426E+04  0.00000000000E+00 0.  1.
        -24    2    1    2    0    0 -0.23700481918E+03 -0.84344232041E+03  0.62899194718E+02  0.88207295573E+03  0.80809395178E+02 0.  0.
        254    2    1    2    0    0  0.23700481918E+03  0.84344232041E+03 -0.19735804418E+03  0.12787818799E+04  0.91036622666E+03 0.  0.
         23    2    4    4    0    0 -0.17387482102E+03  0.27487712205E+03  0.26839932149E+03  0.43150577437E+03  0.91483069106E+02 0.  0.
         23    2    4    4    0    0  0.41087964020E+03  0.56856519837E+03 -0.46575736567E+03  0.84727610555E+03  0.94119136437E+02 0.  0.
          1    1    3    3  502    0 -0.15047700352E+03 -0.58999553297E+03  0.77885037305E+02  0.61384373953E+03  0.00000000000E+00 0. -1.
         -2    1    3    3    0  502 -0.86527815658E+02 -0.25344678744E+03 -0.14985842588E+02  0.26822921620E+03  0.00000000000E+00 0.  1.
         13    1    5    5    0    0 -0.72555043196E+02  0.51625604936E+02  0.10094830138E+03  0.13461053796E+03  0.00000000000E+00 0. -1.
        -13    1    5    5    0    0 -0.10131977782E+03  0.22325151711E+03  0.16745102011E+03  0.29689523642E+03  0.00000000000E+00 0.  1.
          4    1    6    6  503    0 -0.36909702539E+01  0.12001919023E+02 -0.23261655670E+01  0.12770292397E+02  0.00000000000E+00 0. -1.
         -4    1    6    6    0  503  0.41457061045E+03  0.55656327934E+03 -0.46343120010E+03  0.83450581315E+03  0.00000000000E+00 0.  1.
<mgrwt>
<rscale>  0 0.21566674E+04</rscale>
<asrwt>0</asrwt>
<pdfrwt beam="1">  1        1 0.15587662E+00 0.21566674E+04</pdfrwt>
<pdfrwt beam="2">  1       -2 0.17656259E+00 0.21566674E+04</pdfrwt>
<totfact> 0.22712499E+00</totfact>
</mgrwt>
</event>
<event>
12    5  0.5246737E-008  0.1773472E+04  0.7818608E-02  0.8720536E-01
         -2   -1    0    0    0  501 -0.00000000000E+00  0.00000000000E+00  0.98106413097E+03  0.98106413097E+03  0.00000000000E+00 0.  1.
          1   -1    0    0  501    0  0.00000000000E+00 -0.00000000000E+00 -0.80147701701E+03  0.80147701701E+03  0.00000000000E+00 0. -1.
        -24    2    1    2    0    0  0.53379064586E+03 -0.21914837240E+03  0.39380795922E+03  0.70317147115E+03  0.80043402953E+02 0.  0.
        254    2    1    2    0    0 -0.53379064586E+03  0.21914837240E+03 -0.21422084526E+03  0.10793696768E+04  0.88667348329E+03 0.  0.
         23    2    4    4    0    0 -0.52683440465E+03  0.42434584450E+03 -0.39613325832E+03  0.78971599138E+03  0.95424855411E+02 0.  0.
         23    2    4    4    0    0 -0.69562412146E+01 -0.20519747210E+03  0.18191241306E+03  0.28965368545E+03  0.93020103316E+02 0.  0.
          1    1    3    3  502    0  0.13004440097E+03 -0.81256224547E+02  0.75837942930E+02  0.17107166288E+03  0.00000000000E+00 0. -1.
         -2    1    3    3    0  502  0.40374624489E+03 -0.13789214786E+03  0.31797001629E+03  0.53209980827E+03  0.00000000000E+00 0.  1.
         13    1    5    5    0    0 -0.67543482448E+02  0.96050324671E+02 -0.50998508082E+02  0.12801810308E+03  0.00000000000E+00 0.  1.
        -13    1    5    5    0    0 -0.45929092220E+03  0.32829551983E+03 -0.34513475024E+03  0.66169788830E+03  0.00000000000E+00 0. -1.
          3    1    6    6  503    0  0.32348986331E+02 -0.48252940806E+02  0.78419331018E+02  0.97593005335E+02  0.00000000000E+00 0. -1.
         -3    1    6    6    0  503 -0.39305227545E+02 -0.15694453129E+03  0.10349308204E+03  0.19206068011E+03  0.00000000000E+00 0.  1.
<mgrwt>
<rscale>  0 0.17734716E+04</rscale>
<asrwt>0</asrwt>
<pdfrwt beam="1">  1        1 0.12330416E+00 0.17734716E+04</pdfrwt>
<pdfrwt beam="2">  1       -2 0.15093294E+00 0.17734716E+04</pdfrwt>
<totfact> 0.53805640E+00</totfact>
</mgrwt>
</event>
<event>
12    5  0.5246737E-008  0.1354628E+04  0.7818608E-02  0.8987332E-01
         -2   -1    0    0    0  501 -0.00000000000E+00  0.00000000000E+00  0.39040179248E+03  0.39040179248E+03  0.00000000000E+00 0.  1.
          1   -1    0    0  501    0  0.00000000000E+00 -0.00000000000E+00 -0.11750823977E+04  0.11750823977E+04  0.00000000000E+00 0. -1.
        -24    2    1    2    0    0  0.27590341667E+03 -0.36467687809E+02  0.69884325112E+02  0.29840658952E+03  0.81915115731E+02 0.  0.
        254    2    1    2    0    0 -0.27590341667E+03  0.36467687809E+02 -0.85456493035E+03  0.12670776007E+04  0.89316954627E+03 0.  0.
         23    2    4    4    0    0 -0.34804287067E+03 -0.36438205837E+03 -0.40203600748E+03  0.65142379378E+03  0.93871633117E+02 0.  0.
         23    2    4    4    0    0  0.72139453997E+02  0.40084974618E+03 -0.45252892287E+03  0.61565380690E+03  0.91447056179E+02 0.  0.
          1    1    3    3  502    0  0.17938582485E+03 -0.47826617032E+02  0.13713890909E+02  0.18615781009E+03  0.00000000000E+00 0. -1.
         -2    1    3    3    0  502  0.96517591826E+02  0.11358929223E+02  0.56170434203E+02  0.11224877943E+03  0.00000000000E+00 0.  1.
         13    1    5    5    0    0 -0.21316774576E+03 -0.19128027746E+03 -0.27902404592E+03  0.39985378650E+03  0.00000000000E+00 0. -1.
        -13    1    5    5    0    0 -0.13487512491E+03 -0.17310178092E+03 -0.12301196155E+03  0.25157000728E+03  0.00000000000E+00 0.  1.
          2    1    6    6  503    0  0.82668699405E+02  0.27473799661E+03 -0.27323985322E+03  0.39620083042E+03  0.00000000000E+00 0. -1.
         -2    1    6    6    0  503 -0.10529245408E+02  0.12611174958E+03 -0.17928906965E+03  0.21945297648E+03  0.00000000000E+00 0.  1.
<mgrwt>
<rscale>  0 0.13546280E+04</rscale>
<asrwt>0</asrwt>
<pdfrwt beam="1">  1        1 0.18078191E+00 0.13546280E+04</pdfrwt>
<pdfrwt beam="2">  1       -2 0.60061814E-01 0.13546280E+04</pdfrwt>
<totfact> 0.24717315E+01</totfact>
</mgrwt>
</event>
<event>
12    5  0.5246737E-008  0.1651666E+04  0.7818608E-02  0.8789422E-01
         -2   -1    0    0    0  501 -0.00000000000E+00  0.00000000000E+00  0.58013709519E+03  0.58013709519E+03  0.00000000000E+00 0.  1.
          1   -1    0    0  501    0  0.00000000000E+00 -0.00000000000E+00 -0.11755842806E+04  0.11755842806E+04  0.00000000000E+00 0. -1.
        -24    2    1    2    0    0 -0.18268596111E+02 -0.42371732007E+03  0.21276166229E+03  0.48116855693E+03  0.79909613359E+02 0.  0.
        254    2    1    2    0    0  0.18268596111E+02  0.42371732007E+03 -0.80820884774E+03  0.12745528189E+04  0.88961409479E+03 0.  0.
         23    2    4    4    0    0  0.23818434994E+02  0.62651663720E+03 -0.83528755161E+03  0.10484746269E+04  0.92213528143E+02 0.  0.
         23    2    4    4    0    0 -0.55498388830E+01 -0.20279931712E+03  0.27078703871E+02  0.22607819203E+03  0.96019419751E+02 0.  0.
          3    1    3    3  502    0 -0.13889611356E+02 -0.20145515985E+03  0.14556204099E+03  0.24892852491E+03  0.00000000000E+00 0. -1.
         -4    1    3    3    0  502 -0.43789847551E+01 -0.22226216022E+03  0.67199621301E+02  0.23224003203E+03  0.00000000000E+00 0.  1.
         13    1    5    5    0    0  0.19889496605E+02  0.39875783660E+03 -0.45643479012E+03  0.60641250149E+03  0.00000000000E+00 0.  1.
        -13    1    5    5    0    0  0.39289383882E+01  0.22775880060E+03 -0.37885276149E+03  0.44206212538E+03  0.00000000000E+00 0. -1.
          1    1    6    6  503    0  0.31097222086E+02 -0.64676648280E+02  0.40745424749E+02  0.82524515704E+02  0.00000000000E+00 0. -1.
         -1    1    6    6    0  503 -0.36647060969E+02 -0.13812266884E+03 -0.13666720878E+02  0.14355367632E+03  0.00000000000E+00 0.  1.
<mgrwt>
<rscale>  0 0.16516659E+04</rscale>
<asrwt>0</asrwt>
<pdfrwt beam="1">  1        1 0.18085912E+00 0.16516659E+04</pdfrwt>
<pdfrwt beam="2">  1       -2 0.89251861E-01 0.16516659E+04</pdfrwt>
<totfact> 0.10053992E+01</totfact>
</mgrwt>
</event>
<event>
12    5  0.5246737E-008  0.2251575E+04  0.7818608E-02  0.8497263E-01
         -2   -1    0    0    0  501 -0.00000000000E+00  0.00000000000E+00  0.11198250757E+04  0.11198250757E+04  0.00000000000E+00 0.  1.
          1   -1    0    0  501    0  0.00000000000E+00 -0.00000000000E+00 -0.11317812720E+04  0.11317812720E+04  0.00000000000E+00 0. -1.
        -24    2    1    2    0    0 -0.68593031633E+03  0.45941450634E+03  0.47096004184E+03  0.95375065930E+03  0.79214087196E+02 0.  0.
        254    2    1    2    0    0  0.68593031633E+03 -0.45941450634E+03 -0.48291623816E+03  0.12978556883E+04  0.87730223251E+03 0.  0.
         23    2    4    4    0    0  0.49253125946E+03  0.63868193352E+02  0.66713789605E+02  0.50942125253E+03  0.91613837033E+02 0.  0.
         23    2    4    4    0    0  0.19339905687E+03 -0.52328269969E+03 -0.54963002776E+03  0.78843443580E+03  0.91146657374E+02 0.  0.
          1    1    3    3  502    0 -0.35068066543E+03  0.24158928145E+03  0.28791197928E+03  0.51403853730E+03  0.00000000000E+00 0. -1.
         -2    1    3    3    0  502 -0.33524965089E+03  0.21782522488E+03  0.18304806256E+03  0.43971212199E+03  0.00000000000E+00 0.  1.
         13    1    5    5    0    0  0.29691605364E+03  0.32063775460E+02 -0.49363188360E+01  0.29868310271E+03  0.00000000000E+00 0.  1.
        -13    1    5    5    0    0  0.19561520583E+03  0.31804417893E+02  0.71650108441E+02  0.21073814982E+03  0.00000000000E+00 0. -1.
          4    1    6    6  503    0  0.15366525610E+03 -0.38206343483E+03 -0.45586021025E+03  0.61432402725E+03  0.00000000000E+00 0. -1.
         -4    1    6    6    0  503  0.39733800763E+02 -0.14121926486E+03 -0.93769817514E+02  0.17411040855E+03  0.00000000000E+00 0.  1.
<mgrwt>
<rscale>  0 0.22515746E+04</rscale>
<asrwt>0</asrwt>
<pdfrwt beam="1">  1        1 0.17412020E+00 0.22515746E+04</pdfrwt>
<pdfrwt beam="2">  1       -2 0.17228078E+00 0.22515746E+04</pdfrwt>
<totfact> 0.19619324E+00</totfact>
</mgrwt>
</event>
<event>
12    5  0.5246737E-008  0.1608155E+04  0.7818608E-02  0.8815554E-01
         -2   -1    0    0    0  501 -0.00000000000E+00  0.00000000000E+00  0.94243691487E+03  0.94243691487E+03  0.00000000000E+00 0.  1.
          1   -1    0    0  501    0  0.00000000000E+00 -0.00000000000E+00 -0.68603092248E+03  0.68603092248E+03  0.00000000000E+00 0. -1.
        -24    2    1    2    0    0  0.34136154302E+02  0.32460773649E+03 -0.33836123042E+03  0.47721780170E+03  0.81933194661E+02 0.  0.
        254    2    1    2    0    0 -0.34136154302E+02 -0.32460773649E+03  0.59476722281E+03  0.11512500356E+04  0.93010383056E+03 0.  0.
         23    2    4    4    0    0 -0.63112894669E+02 -0.12508586013E+03  0.81910743769E+03  0.83616298515E+03  0.92746069385E+02 0.  0.
         23    2    4    4    0    0  0.28976740367E+02 -0.19952187637E+03 -0.22434021488E+03  0.31508705049E+03  0.91119080032E+02 0.  0.
          1    1    3    3  502    0 -0.77205266865E+01  0.23393942287E+03 -0.26324389126E+03  0.35225644975E+03  0.00000000000E+00 0. -1.
         -2    1    3    3    0  502  0.41856680988E+02  0.90668313626E+02 -0.75117339154E+02  0.12496135195E+03  0.00000000000E+00 0.  1.
         13    1    5    5    0    0 -0.19363514602E+02 -0.24098083088E+02  0.44837586471E+03  0.44944029566E+03  0.00000000000E+00 0. -1.
        -13    1    5    5    0    0 -0.43749380067E+02 -0.10098777704E+03  0.37073157298E+03  0.38672268949E+03  0.00000000000E+00 0.  1.
          2    1    6    6  503    0  0.58379794044E+01 -0.19352688347E+03 -0.17827455755E+03  0.26318919906E+03  0.00000000000E+00 0. -1.
         -2    1    6    6    0  503  0.23138760963E+02 -0.59949928930E+01 -0.46065657328E+02  0.51897851437E+02  0.00000000000E+00 0.  1.
<mgrwt>
<rscale>  0 0.16081553E+04</rscale>
<asrwt>0</asrwt>
<pdfrwt beam="1">  1        1 0.10554322E+00 0.16081553E+04</pdfrwt>
<pdfrwt beam="2">  1       -2 0.14499030E+00 0.16081553E+04</pdfrwt>
<totfact> 0.77252096E+00</totfact>
</mgrwt>
</event>
<event>
12    5  0.5246737E-008  0.1119356E+04  0.7818608E-02  0.9186529E-01
         -2   -1    0    0    0  501 -0.00000000000E+00  0.00000000000E+00  0.85755145713E+02  0.85755145713E+02  0.00000000000E+00 0.  1.
          1   -1    0    0  501    0  0.00000000000E+00 -0.00000000000E+00 -0.36527200646E+04  0.36527200646E+04  0.00000000000E+00 0. -1.
        -24    2    1    2    0    0 -0.18047929656E+03 -0.22867160526E+02 -0.36320817731E+03  0.41448731893E+03  0.82364276105E+02 0.  0.
        254    2    1    2    0    0  0.18047929656E+03  0.22867160526E+02 -0.32037567415E+04  0.33239878913E+04  0.86703088716E+03 0.  0.
         23    2    4    4    0    0  0.32134720134E+03 -0.33514596489E+03 -0.14179091777E+04  0.14948022227E+04  0.91544563441E+02 0.  0.
         23    2    4    4    0    0 -0.14086790478E+03  0.35801312542E+03 -0.17858475638E+04  0.18291856686E+04  0.93013572336E+02 0.  0.
          3    1    3    3  502    0 -0.10119546794E+03 -0.37665494536E+02 -0.27247152524E+03  0.29308692273E+03  0.00000000000E+00 0. -1.
         -4    1    3    3    0  502 -0.79283828616E+02  0.14798334010E+02 -0.90736652067E+02  0.12140039620E+03  0.00000000000E+00 0.  1.
         13    1    5    5    0    0  0.26863582848E+03 -0.29875833453E+03 -0.12993359438E+04  0.13600351634E+04  0.00000000000E+00 0. -1.
        -13    1    5    5    0    0  0.52711372854E+02 -0.36387630360E+02 -0.11857323398E+03  0.13476705936E+03  0.00000000000E+00 0.  1.
          1    1    6    6  503    0 -0.42521459470E+02  0.22795153902E+03 -0.11075978472E+04  0.11316107855E+04  0.00000000000E+00 0. -1.
         -1    1    6    6    0  503 -0.98346445310E+02  0.13006158640E+03 -0.67824971655E+03  0.69757488313E+03  0.00000000000E+00 0.  1.
<mgrwt>
<rscale>  0 0.11193561E+04</rscale>
<asrwt>0</asrwt>
<pdfrwt beam="1">  1        1 0.56195694E+00 0.11193561E+04</pdfrwt>
<pdfrwt beam="2">  1       -2 0.13193099E-01 0.11193561E+04</pdfrwt>
<totfact> 0.74057884E+00</totfact>
</mgrwt>
</event>
<event>
12    5  0.5246737E-008  0.1590037E+04  0.7818608E-02  0.8826692E-01
         -2   -1    0    0    0  501 -0.00000000000E+00  0.00000000000E+00  0.47918120726E+03  0.47918120726E+03  0.00000000000E+00 0.  1.
          1   -1    0    0  501    0  0.00000000000E+00 -0.00000000000E+00 -0.13190306633E+04  0.13190306633E+04  0.00000000000E+00 0. -1.
        -24    2    1    2    0    0 -0.14147388025E+03  0.50320958069E+03 -0.16513644876E+03  0.55400577402E+03  0.80109987205E+02 0.  0.
        254    2    1    2    0    0  0.14147388025E+03 -0.50320958069E+03 -0.67471300731E+03  0.12442060966E+04  0.90530460488E+03 0.  0.
         23    2    4    4    0    0 -0.13245056597E+03 -0.12118861723E+03  0.17399606855E+03  0.26972844164E+03  0.10123718183E+03 0.  0.
         23    2    4    4    0    0  0.27392444622E+03 -0.38202096346E+03 -0.84870907586E+03  0.97447765493E+03  0.91241359836E+02 0.  0.
          1    1    3    3  502    0  0.90999711473E+01  0.13475330493E+02 -0.24869467164E+01  0.16449282986E+02  0.00000000000E+00 0. -1.
         -2    1    3    3    0  502 -0.15057385140E+03  0.48973425020E+03 -0.16264950204E+03  0.53755649104E+03  0.00000000000E+00 0.  1.
         13    1    5    5    0    0 -0.79089931085E+02 -0.90781048276E+02  0.16981866312E+03  0.20817010897E+03  0.00000000000E+00 0. -1.
        -13    1    5    5    0    0 -0.53360634881E+02 -0.30407568951E+02  0.41774054339E+01  0.61558332666E+02  0.00000000000E+00 0.  1.
          4    1    6    6  503    0  0.22382939785E+03 -0.24916808310E+03 -0.63465002337E+03  0.71761060829E+03  0.00000000000E+00 0. -1.
         -4    1    6    6    0  503  0.50095048369E+02 -0.13285288036E+03 -0.21405905250E+03  0.25686704664E+03  0.00000000000E+00 0.  1.
<mgrwt>
<rscale>  0 0.15900374E+04</rscale>
<asrwt>0</asrwt>
<pdfrwt beam="1">  1        1 0.20292779E+00 0.15900374E+04</pdfrwt>
<pdfrwt beam="2">  1       -2 0.73720187E-01 0.15900374E+04</pdfrwt>
<totfact> 0.12251565E+01</totfact>
</mgrwt>
</event>
<event>
12    5  0.5246737E-008  0.1493656E+04  0.7818608E-02  0.8888683E-01
         -2   -1    0    0    0  501 -0.00000000000E+00  0.00000000000E+00  0.19411983684E+03  0.19411983684E+03  0.00000000000E+00 0.  1.
          1   -1    0    0  501    0  0.00000000000E+00 -0.00000000000E+00 -0.28732361201E+04  0.28732361201E+04  0.00000000000E+00 0. -1.
        -24    2    1    2    0    0  0.17848904819E+03 -0.21171519776E+03 -0.12603534895E+03  0.31550373051E+03  0.83522628640E+02 0.  0.
        254    2    1    2    0    0 -0.17848904819E+03  0.21171519776E+03 -0.25530809343E+04  0.27518522264E+04  0.98883100358E+03 0.  0.
         23    2    4    4    0    0 -0.56668681311E+03  0.52021787367E+02 -0.11807111499E+04  0.13137848731E+04  0.90064769233E+02 0.  0.
         23    2    4    4    0    0  0.38819776492E+03  0.15969341040E+03 -0.13723697844E+04  0.14380673533E+04  0.91866194249E+02 0.  0.
          3    1    3    3  502    0  0.51232123217E+02 -0.14332303833E+02 -0.34716442561E+02  0.63524615438E+02  0.00000000000E+00 0. -1.
         -4    1    3    3    0  502  0.12725692497E+03 -0.19738289393E+03 -0.91318906390E+02  0.25197911507E+03  0.00000000000E+00 0.  1.
         13    1    5    5    0    0 -0.13598952083E+03 -0.15373378744E+02 -0.34622089308E+03  0.37228805696E+03  0.00000000000E+00 0. -1.
        -13    1    5    5    0    0 -0.43069729228E+03  0.67395166110E+02 -0.83449025686E+03  0.94149681614E+03  0.00000000000E+00 0.  1.
          3    1    6    6  503    0 -0.32815185750E+01  0.46971945672E+01 -0.48939318829E+02  0.49273612902E+02  0.00000000000E+00 0. -1.
         -3    1    6    6    0  503  0.39147928350E+03  0.15499621583E+03 -0.13234304655E+04  0.13887937404E+04  0.00000000000E+00 0.  1.
<mgrwt>
<rscale>  0 0.14936561E+04</rscale>
<asrwt>0</asrwt>
<pdfrwt beam="1">  1        1 0.44203633E+00 0.14936561E+04</pdfrwt>
<pdfrwt beam="2">  1       -2 0.29864590E-01 0.14936561E+04</pdfrwt>
<totfact> 0.65254562E+00</totfact>
</mgrwt>
</event>
<event>
12    5  0.5246737E-008  0.2135954E+04  0.7818608E-02  0.8545569E-01
         -2   -1    0    0    0  501 -0.00000000000E+00  0.00000000000E+00  0.77190535757E+03  0.77190535757E+03  0.00000000000E+00 0.  1.
          1   -1    0    0  501    0  0.00000000000E+00 -0.00000000000E+00 -0.14776095398E+04  0.14776095398E+04  0.00000000000E+00 0. -1.
        -24    2    1    2    0    0  0.84954971325E+02 -0.48051986169E+03  0.47513164846E+03  0.68582875850E+03  0.80587331417E+02 0.  0.
        254    2    1    2    0    0 -0.84954971325E+02  0.48051986169E+03 -0.11808358307E+04  0.15636861388E+04  0.90145681937E+03 0.  0.
         23    2    4    4    0    0 -0.27784688562E+03  0.43671708762E+03 -0.20344514598E+03  0.56213879967E+03  0.81788729136E+02 0.  0.
         23    2    4    4    0    0  0.19289191429E+03  0.43802774071E+02 -0.97739068468E+03  0.10015473392E+04  0.93158727270E+02 0.  0.
          3    1    3    3  502    0 -0.11845200143E+02 -0.34841677415E+02  0.51994106057E+02  0.63699594318E+02  0.00000000000E+00 0. -1.
         -4    1    3    3    0  502  0.96800171468E+02 -0.44567818427E+03  0.42313754240E+03  0.62212916418E+03  0.00000000000E+00 0.  1.
         13    1    5    5    0    0 -0.25018328017E+03  0.42544973871E+03 -0.18533850984E+03  0.52720917772E+03  0.00000000000E+00 0. -1.
        -13    1    5    5    0    0 -0.27663605444E+02  0.11267348910E+02 -0.18106636133E+02  0.34929621951E+02  0.00000000000E+00 0.  1.
          4    1    6    6  503    0  0.80716099835E+02  0.70807959857E+01 -0.61754510219E+03  0.62283800436E+03  0.00000000000E+00 0. -1.
         -4    1    6    6    0  503  0.11217581445E+03  0.36721978085E+02 -0.35984558249E+03  0.37870933480E+03  0.00000000000E+00 0.  1.
<mgrwt>
<rscale>  0 0.21359539E+04</rscale>
<asrwt>0</asrwt>
<pdfrwt beam="1">  1        1 0.22732454E+00 0.21359539E+04</pdfrwt>
<pdfrwt beam="2">  1       -2 0.11875467E+00 0.21359539E+04</pdfrwt>
<totfact> 0.29736522E+00</totfact>
</mgrwt>
</event>
<event>
12    5  0.5246737E-008  0.1641617E+04  0.7818608E-02  0.8795381E-01
         -2   -1    0    0    0  501 -0.00000000000E+00  0.00000000000E+00  0.38310243141E+03  0.38310243141E+03  0.00000000000E+00 0.  1.
          1   -1    0    0  501    0  0.00000000000E+00 -0.00000000000E+00 -0.17586063170E+04  0.17586063170E+04  0.00000000000E+00 0. -1.
        -24    2    1    2    0    0  0.81335135050E+02 -0.43488822102E+03 -0.94136934978E+03  0.10434024822E+04  0.82275866559E+02 0.  0.
        254    2    1    2    0    0 -0.81335135050E+02  0.43488822102E+03 -0.43413453583E+03  0.10983062662E+04  0.90667562569E+03 0.  0.
         23    2    4    4    0    0  0.24727756417E+03 -0.13313824318E+03 -0.30269337896E+03  0.42292086013E+03  0.91470141217E+02 0.  0.
         23    2    4    4    0    0 -0.32861269922E+03  0.56802646421E+03 -0.13144115687E+03  0.67538540608E+03  0.90709971315E+02 0.  0.
          3    1    3    3  502    0  0.62749420609E+02 -0.19612089562E+03 -0.51019915936E+03  0.55018549390E+03  0.00000000000E+00 0. -1.
         -4    1    3    3    0  502  0.18585714440E+02 -0.23876732540E+03 -0.43117019043E+03  0.49321698832E+03  0.00000000000E+00 0.  1.
         13    1    5    5    0    0  0.10874714743E+03 -0.25640955181E+02 -0.71092619790E+02  0.13242945762E+03  0.00000000000E+00 0. -1.
        -13    1    5    5    0    0  0.13853041674E+03 -0.10749728800E+03 -0.23160075917E+03  0.29049140252E+03  0.00000000000E+00 0.  1.
          2    1    6    6  503    0 -0.21743661227E+03  0.28562591190E+03 -0.70194606332E+02  0.36577059021E+03  0.00000000000E+00 0. -1.
         -2    1    6    6    0  503 -0.11117608695E+03  0.28240055231E+03 -0.61246550538E+02  0.30961481587E+03  0.00000000000E+00 0.  1.
<mgrwt>
<rscale>  0 0.16416167E+04</rscale>
<asrwt>0</asrwt>
<pdfrwt beam="1">  1        1 0.27055482E+00 0.16416167E+04</pdfrwt>
<pdfrwt beam="2">  1       -2 0.58938835E-01 0.16416167E+04</pdfrwt>
<totfact> 0.98139284E+00</totfact>
</mgrwt>
</event>
<event>
12    5  0.5246737E-008  0.2143546E+04  0.7818608E-02  0.8542300E-01
         -2   -1    0    0    0  501 -0.00000000000E+00  0.00000000000E+00  0.43841392608E+03  0.43841392608E+03  0.00000000000E+00 0.  1.
          1   -1    0    0  501    0  0.00000000000E+00 -0.00000000000E+00 -0.26201206070E+04  0.26201206070E+04  0.00000000000E+00 0. -1.
        -24    2    1    2    0    0  0.21381199112E+03 -0.12450463385E+03  0.30712021073E+03  0.40258000050E+03  0.80813746127E+02 0.  0.
        254    2    1    2    0    0 -0.21381199112E+03  0.12450463385E+03 -0.24888268917E+04  0.26559545326E+04  0.89365441368E+03 0.  0.
         23    2    4    4    0    0 -0.87684299460E+02  0.77878129882E+02 -0.24841725775E+04  0.24885444087E+04  0.89366323876E+02 0.  0.
         23    2    4    4    0    0 -0.12612769166E+03  0.46626503971E+02 -0.46543141340E+01  0.16741012384E+03  0.99610548890E+02 0.  0.
          3    1    3    3  502    0  0.29437291783E+02 -0.51457702395E+02  0.48006212995E+02  0.76282670177E+02  0.00000000000E+00 0. -1.
         -2    1    3    3    0  502  0.18437469933E+03 -0.73046931458E+02  0.25911399774E+03  0.32629733032E+03  0.00000000000E+00 0.  1.
         13    1    5    5    0    0 -0.25809348696E+01 -0.16757181217E+02 -0.16153069124E+03  0.16241806722E+03  0.00000000000E+00 0. -1.
        -13    1    5    5    0    0 -0.85103364590E+02  0.94635311099E+02 -0.23226418863E+04  0.23261263415E+04  0.00000000000E+00 0.  1.
          1    1    6    6  503    0 -0.15057990335E+02  0.40712379579E+02 -0.30708997575E+02  0.53172205672E+02  0.00000000000E+00 0. -1.
         -1    1    6    6    0  503 -0.11106970132E+03  0.59141243918E+01  0.26054683441E+02  0.11423791817E+03  0.00000000000E+00 0.  1.
<mgrwt>
<rscale>  0 0.21435460E+04</rscale>
<asrwt>0</asrwt>
<pdfrwt beam="1">  1        1 0.40309547E+00 0.21435460E+04</pdfrwt>
<pdfrwt beam="2">  1       -2 0.67448297E-01 0.21435460E+04</pdfrwt>
<totfact> 0.18130573E+00</totfact>
</mgrwt>
</event>
<event>
12    5  0.5246737E-008  0.2236119E+04  0.7818608E-02  0.8503543E-01
          1   -1    0    0  501    0  0.00000000000E+00  0.00000000000E+00  0.15047866837E+04  0.15047866837E+04  0.00000000000E+00 0. -1.
         -2   -1    0    0    0  501 -0.00000000000E+00 -0.00000000000E+00 -0.83072016994E+03  0.83072016994E+03  0.00000000000E+00 0.  1.
        -24    2    1    2    0    0  0.18573964246E+03  0.17578688005E+03  0.12183603529E+04  0.12476914865E+04  0.83257756617E+02 0.  0.
        254    2    1    2    0    0 -0.18573964246E+03 -0.17578688005E+03 -0.54429383919E+03  0.10878153671E+04  0.90646911006E+03 0.  0.
         23    2    4    4    0    0  0.32325107796E+03 -0.73178886998E+02 -0.42606194899E+03  0.54730256232E+03  0.90359844131E+02 0.  0.
         23    2    4    4    0    0 -0.50899072043E+03 -0.10260799305E+03 -0.11823189019E+03  0.54051280476E+03  0.92603231762E+02 0.  0.
          3    1    3    3  502    0  0.98031610703E+02  0.12028450401E+03  0.88650021702E+03  0.89997844050E+03  0.00000000000E+00 0. -1.
         -4    1    3    3    0  502  0.87708031760E+02  0.55502376040E+02  0.33186013588E+03  0.34771304602E+03  0.00000000000E+00 0.  1.
         13    1    5    5    0    0  0.30548600931E+03 -0.83899524803E+02 -0.41921232181E+03  0.52545199867E+03  0.00000000000E+00 0.  1.
        -13    1    5    5    0    0  0.17765068652E+02  0.10720637806E+02 -0.68496271824E+01  0.21850563647E+02  0.00000000000E+00 0. -1.
          1    1    6    6  503    0 -0.27704434078E+03 -0.99097777766E+02 -0.84290198927E+02  0.30606988410E+03  0.00000000000E+00 0. -1.
         -1    1    6    6    0  503 -0.23194637965E+03 -0.35102152827E+01 -0.33941691266E+02  0.23444292066E+03  0.00000000000E+00 0.  1.
<mgrwt>
<rscale>  0 0.22361186E+04</rscale>
<asrwt>0</asrwt>
<pdfrwt beam="1">  1        1 0.23150564E+00 0.22361186E+04</pdfrwt>
<pdfrwt beam="2">  1       -2 0.12780310E+00 0.22361186E+04</pdfrwt>
<totfact> 0.23488533E+00</totfact>
</mgrwt>
</event>
<event>
12    5  0.5246737E-008  0.1954847E+04  0.7818608E-02  0.8628027E-01
          1   -1    0    0  501    0  0.00000000000E+00  0.00000000000E+00  0.24400288875E+04  0.24400288875E+04  0.00000000000E+00 0. -1.
         -2   -1    0    0    0  501 -0.00000000000E+00 -0.00000000000E+00 -0.39153501038E+03  0.39153501038E+03  0.00000000000E+00 0.  1.
        -24    2    1    2    0    0 -0.72379961633E+03 -0.18095791673E+03  0.77377097361E+03  0.10783314488E+04  0.86287552041E+02 0.  0.
        254    2    1    2    0    0  0.72379961633E+03  0.18095791673E+03  0.12747229035E+04  0.17532324491E+04  0.94460250243E+03 0.  0.
         23    2    4    4    0    0  0.77346491441E+03  0.42792206088E+03  0.11615885221E+04  0.14627904126E+04  0.95407716358E+02 0.  0.
         23    2    4    4    0    0 -0.49665298076E+02 -0.24696414415E+03  0.11313438139E+03  0.29044203653E+03  0.89995877697E+02 0.  0.
          1    1    3    3  502    0 -0.25477613157E+03 -0.89995293265E+02  0.23349362016E+03  0.35711244823E+03  0.00000000000E+00 0. -1.
         -2    1    3    3    0  502 -0.46902348477E+03 -0.90962623461E+02  0.54027735345E+03  0.72121900057E+03  0.00000000000E+00 0.  1.
         13    1    5    5    0    0  0.12293305084E+03  0.37889869242E+02  0.20437939922E+03  0.24149351131E+03  0.00000000000E+00 0.  1.
        -13    1    5    5    0    0  0.65053186357E+03  0.39003219164E+03  0.95720912293E+03  0.12212969013E+04  0.00000000000E+00 0. -1.
          1    1    6    6  503    0 -0.48127805324E+02 -0.24174511598E+03  0.83403572176E+02  0.26021749096E+03  0.00000000000E+00 0. -1.
         -1    1    6    6    0  503 -0.15374927518E+01 -0.52190281693E+01  0.29730809210E+02  0.30224545576E+02  0.00000000000E+00 0.  1.
<mgrwt>
<rscale>  0 0.19548470E+04</rscale>
<asrwt>0</asrwt>
<pdfrwt beam="1">  1        1 0.37538905E+00 0.19548470E+04</pdfrwt>
<pdfrwt beam="2">  1       -2 0.60236157E-01 0.19548470E+04</pdfrwt>
<totfact> 0.31336884E+00</totfact>
</mgrwt>
</event>
<event>
12    5  0.5246737E-008  0.2897240E+04  0.7818608E-02  0.8273699E-01
         -2   -1    0    0    0  501 -0.00000000000E+00  0.00000000000E+00  0.17700303678E+04  0.17700303678E+04  0.00000000000E+00 0.  1.
          1   -1    0    0  501    0  0.00000000000E+00 -0.00000000000E+00 -0.11855728445E+04  0.11855728445E+04  0.00000000000E+00 0. -1.
        -24    2    1    2    0    0  0.71557895993E+03  0.58926787221E+03 -0.69302152092E+03  0.11604610983E+04  0.84268968290E+02 0.  0.
        254    2    1    2    0    0 -0.71557895993E+03 -0.58926787221E+03  0.12774790443E+04  0.17951421140E+04  0.85515649315E+03 0.  0.
         23    2    4    4    0    0 -0.53240845364E+01 -0.42877604394E+03  0.82178961143E+03  0.93131228080E+03  0.90150747017E+02 0.  0.
         23    2    4    4    0    0 -0.71025487539E+03 -0.16049182827E+03  0.45568943285E+03  0.86382983320E+03  0.91266130381E+02 0.  0.
          1    1    3    3  502    0  0.66284335442E+03  0.51404612650E+03 -0.63018845954E+03  0.10491626314E+04  0.00000000000E+00 0. -1.
         -2    1    3    3    0  502  0.52735605515E+02  0.75221745706E+02 -0.62833061377E+02  0.11129846683E+03  0.00000000000E+00 0.  1.
         13    1    5    5    0    0 -0.22277392280E+02 -0.41580528211E+03  0.78995768820E+03  0.89298570201E+03  0.00000000000E+00 0. -1.
        -13    1    5    5    0    0  0.16953307743E+02 -0.12970761828E+02  0.31831923227E+02  0.38326578795E+02  0.00000000000E+00 0.  1.
          2    1    6    6  503    0 -0.30192970514E+03 -0.23206050941E+02  0.19928554238E+03  0.36251178608E+03  0.00000000000E+00 0. -1.
         -2    1    6    6    0  503 -0.40832517025E+03 -0.13728577733E+03  0.25640389047E+03  0.50131804712E+03  0.00000000000E+00 0.  1.
<mgrwt>
<rscale>  0 0.28972400E+04</rscale>
<asrwt>0</asrwt>
<pdfrwt beam="1">  1        1 0.18239582E+00 0.28972400E+04</pdfrwt>
<pdfrwt beam="2">  1       -2 0.27231236E+00 0.28972400E+04</pdfrwt>
<totfact> 0.38708403E-01</totfact>
</mgrwt>
</event>
<event>
12    5  0.5246737E-008  0.1781904E+04  0.7818608E-02  0.8715982E-01
         -2   -1    0    0    0  501 -0.00000000000E+00  0.00000000000E+00  0.30495783666E+03  0.30495783666E+03  0.00000000000E+00 0.  1.
          1   -1    0    0  501    0  0.00000000000E+00 -0.00000000000E+00 -0.26029671478E+04  0.26029671478E+04  0.00000000000E+00 0. -1.
        -24    2    1    2    0    0 -0.64338553064E+03 -0.13563524398E+02 -0.57150231370E+03  0.86432013452E+03  0.79407116389E+02 0.  0.
        254    2    1    2    0    0  0.64338553064E+03  0.13563524398E+02 -0.17265069974E+04  0.20436048500E+04  0.88394878828E+03 0.  0.
         23    2    4    4    0    0  0.56459465077E+03 -0.27842015044E+02 -0.37114330538E+03  0.68232918069E+03  0.91013516631E+02 0.  0.
         23    2    4    4    0    0  0.78790879877E+02  0.41405539442E+02 -0.13553636921E+04  0.13612756693E+04  0.90212463273E+02 0.  0.
          3    1    3    3  502    0 -0.11346557890E+03 -0.12013213128E+02 -0.14224792837E+03  0.18235467642E+03  0.00000000000E+00 0. -1.
         -4    1    3    3    0  502 -0.52991995174E+03 -0.15503112700E+01 -0.42925438532E+03  0.68196545810E+03  0.00000000000E+00 0.  1.
         13    1    5    5    0    0  0.27557444069E+03 -0.57439386862E+02 -0.16794464256E+03  0.32778950332E+03  0.00000000000E+00 0. -1.
        -13    1    5    5    0    0  0.28902021008E+03  0.29597371818E+02 -0.20319866282E+03  0.35453967737E+03  0.00000000000E+00 0.  1.
          3    1    6    6  503    0  0.79111716867E+02  0.20384607736E+02 -0.12906435824E+04  0.12932266053E+04  0.00000000000E+00 0. -1.
         -3    1    6    6    0  503 -0.32083699061E+00  0.21020931707E+02 -0.64720109664E+02  0.68049063926E+02  0.00000000000E+00 0.  1.
<mgrwt>
<rscale>  0 0.17819037E+04</rscale>
<asrwt>0</asrwt>
<pdfrwt beam="1">  1        1 0.40045649E+00 0.17819037E+04</pdfrwt>
<pdfrwt beam="2">  1       -2 0.46916590E-01 0.17819037E+04</pdfrwt>
<totfact> 0.41109231E+00</totfact>
</mgrwt>
</event>
<event>
12    5  0.5246737E-008  0.1350907E+04  0.7818608E-02  0.8990142E-01
         -2   -1    0    0    0  501 -0.00000000000E+00  0.00000000000E+00  0.39824458031E+03  0.39824458031E+03  0.00000000000E+00 0.  1.
          1   -1    0    0  501    0  0.00000000000E+00 -0.00000000000E+00 -0.11456208391E+04  0.11456208391E+04  0.00000000000E+00 0. -1.
        -24    2    1    2    0    0 -0.33285277653E+03 -0.15848265310E+01 -0.37641221392E+03  0.50869765499E+03  0.79332634403E+02 0.  0.
        254    2    1    2    0    0  0.33285277653E+03  0.15848265310E+01 -0.37096404485E+03  0.10351677644E+04  0.90728413156E+03 0.  0.
         23    2    4    4    0    0 -0.88224478966E+02  0.28579000400E+03  0.10895873258E+03  0.33067441722E+03  0.89521392538E+02 0.  0.
         23    2    4    4    0    0  0.42107725550E+03 -0.28420517747E+03 -0.47992277743E+03  0.70449334719E+03  0.88917748181E+02 0.  0.
          3    1    3    3  502    0 -0.30861358358E+03 -0.17564564622E+02 -0.31806818488E+03  0.44352928667E+03  0.00000000000E+00 0. -1.
         -4    1    3    3    0  502 -0.24239192950E+02  0.15979738091E+02 -0.58344029047E+02  0.65168368322E+02  0.00000000000E+00 0.  1.
         13    1    5    5    0    0 -0.72433573605E+02  0.26895971503E+03  0.12208660516E+03  0.30412347830E+03  0.00000000000E+00 0. -1.
        -13    1    5    5    0    0 -0.15790905361E+02  0.16830288974E+02 -0.13127872581E+02  0.26550938921E+02  0.00000000000E+00 0.  1.
          3    1    6    6  503    0  0.15899939465E+03 -0.15558335814E+03 -0.23287650786E+03  0.32205349981E+03  0.00000000000E+00 0. -1.
         -3    1    6    6    0  503  0.26207786085E+03 -0.12862181933E+03 -0.24704626958E+03  0.38243984738E+03  0.00000000000E+00 0.  1.
<mgrwt>
<rscale>  0 0.13509068E+04</rscale>
<asrwt>0</asrwt>
<pdfrwt beam="1">  1        1 0.17624936E+00 0.13509068E+04</pdfrwt>
<pdfrwt beam="2">  1       -2 0.61268397E-01 0.13509068E+04</pdfrwt>
<totfact> 0.24922233E+01</totfact>
</mgrwt>
</event>
<event>
12    5  0.5246737E-008  0.1538037E+04  0.7818608E-02  0.8859545E-01
         -2   -1    0    0    0  501 -0.00000000000E+00  0.00000000000E+00  0.39135442458E+03  0.39135442458E+03  0.00000000000E+00 0.  1.
          1   -1    0    0  501    0  0.00000000000E+00 -0.00000000000E+00 -0.15111358096E+04  0.15111358096E+04  0.00000000000E+00 0. -1.
        -24    2    1    2    0    0  0.38443525584E+03  0.28204220081E+03 -0.53265772900E+03  0.71935731830E+03  0.80077625872E+02 0.  0.
        254    2    1    2    0    0 -0.38443525584E+03 -0.28204220081E+03 -0.58712365605E+03  0.11831329159E+04  0.90980824366E+03 0.  0.
         23    2    4    4    0    0  0.46092637241E+02  0.27812013246E+03 -0.81528567516E+02  0.30958271699E+03  0.98586064192E+02 0.  0.
         23    2    4    4    0    0 -0.43052789308E+03 -0.56016233327E+03 -0.50559508854E+03  0.87355019891E+03  0.91254863628E+02 0.  0.
          3    1    3    3  502    0  0.27354426652E+03  0.15405094145E+03 -0.35558095481E+03  0.47433740495E+03  0.00000000000E+00 0. -1.
         -4    1    3    3    0  502  0.11089098932E+03  0.12799125936E+03 -0.17707677419E+03  0.24501991335E+03  0.00000000000E+00 0.  1.
         13    1    5    5    0    0  0.52789511638E+02  0.70661771499E+02 -0.44303596038E+02  0.98704747162E+02  0.00000000000E+00 0. -1.
        -13    1    5    5    0    0 -0.66968743963E+01  0.20745836096E+03 -0.37224971478E+02  0.21087796983E+03  0.00000000000E+00 0.  1.
          1    1    6    6  503    0 -0.22510377422E+02 -0.13033350012E+02 -0.35037710506E+01  0.26246175260E+02  0.00000000000E+00 0. -1.
         -1    1    6    6    0  503 -0.40801751566E+03 -0.54712898326E+03 -0.50209131749E+03  0.84730402365E+03  0.00000000000E+00 0.  1.
<mgrwt>
<rscale>  0 0.15380373E+04</rscale>
<asrwt>0</asrwt>
<pdfrwt beam="1">  1        1 0.23248243E+00 0.15380373E+04</pdfrwt>
<pdfrwt beam="2">  1       -2 0.60208374E-01 0.15380373E+04</pdfrwt>
<totfact> 0.13981236E+01</totfact>
</mgrwt>
</event>
<event>
12    5  0.5246737E-008  0.1514797E+04  0.7818608E-02  0.8874672E-01
          1   -1    0    0  501    0  0.00000000000E+00  0.00000000000E+00  0.15700633604E+04  0.15700633604E+04  0.00000000000E+00 0. -1.
         -2   -1    0    0    0  501 -0.00000000000E+00 -0.00000000000E+00 -0.36536912753E+03  0.36536912753E+03  0.00000000000E+00 0.  1.
        -24    2    1    2    0    0  0.25885876367E+03 -0.38102142816E+03  0.20762380972E+03  0.51177994169E+03  0.81399472421E+02 0.  0.
        254    2    1    2    0    0 -0.25885876367E+03  0.38102142816E+03  0.99707042315E+03  0.14236525462E+04  0.90578803009E+03 0.  0.
         23    2    4    4    0    0 -0.46579734112E+02  0.10733484134E+03 -0.15573351830E+03  0.21655134226E+03  0.94610334080E+02 0.  0.
         23    2    4    4    0    0 -0.21227902956E+03  0.27368658682E+03  0.11528039415E+04  0.12071012040E+04  0.90386144013E+02 0.  0.
          3    1    3    3  502    0  0.13757793123E+03 -0.21170758607E+03  0.15744359897E+03  0.29755045961E+03  0.00000000000E+00 0. -1.
         -4    1    3    3    0  502  0.12128083243E+03 -0.16931384209E+03  0.50180210756E+02  0.21422948208E+03  0.00000000000E+00 0.  1.
         13    1    5    5    0    0  0.99972134479E+00  0.10094767721E+03 -0.11932328094E+03  0.15629932294E+03  0.00000000000E+00 0.  1.
        -13    1    5    5    0    0 -0.47579455457E+02  0.63871641320E+01 -0.36410237364E+02  0.60252019320E+02  0.00000000000E+00 0. -1.
          3    1    6    6  503    0 -0.13970709984E+03  0.21011645727E+03  0.94306617615E+03  0.97623809184E+03  0.00000000000E+00 0. -1.
         -3    1    6    6    0  503 -0.72571929713E+02  0.63570129549E+02  0.20973776531E+03  0.23086311215E+03  0.00000000000E+00 0.  1.
<mgrwt>
<rscale>  0 0.15147973E+04</rscale>
<asrwt>0</asrwt>
<pdfrwt beam="1">  1        1 0.24154821E+00 0.15147973E+04</pdfrwt>
<pdfrwt beam="2">  1       -2 0.56210636E-01 0.15147973E+04</pdfrwt>
<totfact> 0.14739078E+01</totfact>
</mgrwt>
</event>
<event>
12    5  0.5246737E-008  0.2003256E+04  0.7818608E-02  0.8605100E-01
         -2   -1    0    0    0  501 -0.00000000000E+00  0.00000000000E+00  0.10611997129E+04  0.10611997129E+04  0.00000000000E+00 0.  1.
          1   -1    0    0  501    0  0.00000000000E+00 -0.00000000000E+00 -0.94540087366E+03  0.94540087366E+03  0.00000000000E+00 0. -1.
        -24    2    1    2    0    0 -0.47606561147E+03 -0.61166757693E+03  0.32333498909E+03  0.84377823249E+03  0.81489259195E+02 0.  0.
        254    2    1    2    0    0  0.47606561147E+03  0.61166757693E+03 -0.20753614983E+03  0.11628223541E+04  0.84161088551E+03 0.  0.
         23    2    4    4    0    0 -0.13245208366E+03  0.48973357758E+03 -0.63316731271E+02  0.51913135988E+03  0.90032376805E+02 0.  0.
         23    2    4    4    0    0  0.60851769513E+03  0.12193399935E+03 -0.14421941856E+03  0.64369099421E+03  0.91526880529E+02 0.  0.
          3    1    3    3  502    0 -0.47627624031E+03 -0.59425431560E+03  0.31992880171E+03  0.82603370807E+03  0.00000000000E+00 0. -1.
         -4    1    3    3    0  502  0.21062884304E+00 -0.17413261331E+02  0.34061873834E+01  0.17744524428E+02  0.00000000000E+00 0.  1.
         13    1    5    5    0    0 -0.13198196400E+03  0.34718816546E+03 -0.62076293740E+02  0.37657977548E+03  0.00000000000E+00 0.  1.
        -13    1    5    5    0    0 -0.47011966676E+00  0.14254541212E+03 -0.12404375307E+01  0.14255158440E+03  0.00000000000E+00 0. -1.
          3    1    6    6  503    0  0.36529874671E+03  0.29676033792E+02 -0.99258290982E+02  0.37970521416E+03  0.00000000000E+00 0. -1.
         -3    1    6    6    0  503  0.24321894842E+03  0.92257965557E+02 -0.44961127576E+02  0.26398578005E+03  0.00000000000E+00 0.  1.
<mgrwt>
<rscale>  0 0.20032565E+04</rscale>
<asrwt>0</asrwt>
<pdfrwt beam="1">  1        1 0.14544629E+00 0.20032565E+04</pdfrwt>
<pdfrwt beam="2">  1       -2 0.16326149E+00 0.20032565E+04</pdfrwt>
<totfact> 0.32382712E+00</totfact>
</mgrwt>
</event>
<event>
12    5  0.5246737E-008  0.3703895E+04  0.7818608E-02  0.8067099E-01
          1   -1    0    0  501    0  0.00000000000E+00  0.00000000000E+00  0.25930108012E+04  0.25930108012E+04  0.00000000000E+00 0. -1.
         -2   -1    0    0    0  501 -0.00000000000E+00 -0.00000000000E+00 -0.13226744353E+04  0.13226744353E+04  0.00000000000E+00 0.  1.
        -24    2    1    2    0    0 -0.36599025297E+03  0.57412235046E+03 -0.10987649807E+04  0.12950852423E+04  0.79974766781E+02 0.  0.
        254    2    1    2    0    0  0.36599025297E+03 -0.57412235046E+03  0.23691013466E+04  0.26205999942E+04  0.88957169500E+03 0.  0.
         23    2    4    4    0    0  0.25113376477E+03 -0.17081128221E+03  0.20786476132E+04  0.21026036651E+04  0.89003430834E+02 0.  0.
         23    2    4    4    0    0  0.11485648820E+03 -0.40331106825E+03  0.29045373342E+03  0.51799632911E+03  0.90027746053E+02 0.  0.
          3    1    3    3  502    0 -0.96073495800E+02  0.13310135157E+03 -0.20611270867E+03  0.26349295068E+03  0.00000000000E+00 0. -1.
         -4    1    3    3    0  502 -0.26991675717E+03  0.44102099889E+03 -0.89265227206E+03  0.10315922916E+04  0.00000000000E+00 0.  1.
         13    1    5    5    0    0  0.25589058008E+02  0.69696243730E+01  0.26973269877E+03  0.27103340078E+03  0.00000000000E+00 0. -1.
        -13    1    5    5    0    0  0.22554470676E+03 -0.17778090659E+03  0.18089149144E+04  0.18315702643E+04  0.00000000000E+00 0.  1.
          1    1    6    6  503    0  0.11969589456E+03 -0.26981779310E+03  0.20616517786E+03  0.36004559324E+03  0.00000000000E+00 0.  1.
         -1    1    6    6    0  503 -0.48394063589E+01 -0.13349327515E+03  0.84288555561E+02  0.15795073587E+03  0.00000000000E+00 0. -1.
<mgrwt>
<rscale>  0 0.37038948E+04</rscale>
<asrwt>0</asrwt>
<pdfrwt beam="1">  1        1 0.39892474E+00 0.37038948E+04</pdfrwt>
<pdfrwt beam="2">  1       -2 0.20348837E+00 0.37038948E+04</pdfrwt>
<totfact> 0.10392444E-01</totfact>
</mgrwt>
</event>
<event>
12    5  0.5246737E-008  0.1906250E+04  0.7818608E-02  0.8651751E-01
          1   -1    0    0  501    0  0.00000000000E+00  0.00000000000E+00  0.21356621014E+04  0.21356621014E+04  0.00000000000E+00 0. -1.
         -2   -1    0    0    0  501 -0.00000000000E+00 -0.00000000000E+00 -0.42537047308E+03  0.42537047308E+03  0.00000000000E+00 0.  1.
        -24    2    1    2    0    0 -0.69142933872E+03 -0.18228510921E+03  0.44078663855E+03  0.84380713694E+03  0.80095144344E+02 0.  0.
        254    2    1    2    0    0  0.69142933872E+03  0.18228510921E+03  0.12695049898E+04  0.17172254376E+04  0.90880024914E+03 0.  0.
         23    2    4    4    0    0  0.57989910704E+03  0.42807417584E+03  0.46234736653E+03  0.86112987226E+03  0.90824529667E+02 0.  0.
         23    2    4    4    0    0  0.11153023168E+03 -0.24578906662E+03  0.80715762327E+03  0.85609556532E+03  0.92438792227E+02 0.  0.
          1    1    3    3  502    0 -0.61596409642E+03 -0.18596830980E+03  0.38411315948E+03  0.74935899248E+03  0.00000000000E+00 0. -1.
         -2    1    3    3    0  502 -0.75465242304E+02  0.36832005892E+01  0.56673479072E+02  0.94448144464E+02  0.00000000000E+00 0.  1.
         13    1    5    5    0    0  0.18147445479E+03  0.86308997262E+02  0.14391597398E+03  0.24717206216E+03  0.00000000000E+00 0. -1.
        -13    1    5    5    0    0  0.39842465225E+03  0.34176517857E+03  0.31843139255E+03  0.61395781009E+03  0.00000000000E+00 0.  1.
          1    1    6    6  503    0 -0.15912496619E+02 -0.39936515043E+02  0.11060425274E+03  0.11866521607E+03  0.00000000000E+00 0. -1.
         -1    1    6    6    0  503  0.12744272830E+03 -0.20585255158E+03  0.69655337054E+03  0.73743034925E+03  0.00000000000E+00 0.  1.
<mgrwt>
<rscale>  0 0.19062503E+04</rscale>
<asrwt>0</asrwt>
<pdfrwt beam="1">  1        1 0.32856339E+00 0.19062503E+04</pdfrwt>
<pdfrwt beam="2">  1       -2 0.65441613E-01 0.19062503E+04</pdfrwt>
<totfact> 0.42588872E+00</totfact>
</mgrwt>
</event>
<event>
12    5  0.5246737E-008  0.1430363E+04  0.7818608E-02  0.8932129E-01
         -2   -1    0    0    0  501 -0.00000000000E+00  0.00000000000E+00  0.10849508500E+04  0.10849508500E+04  0.00000000000E+00 0.  1.
          1   -1    0    0  501    0  0.00000000000E+00 -0.00000000000E+00 -0.47143585611E+03  0.47143585611E+03  0.00000000000E+00 0. -1.
        -24    2    1    2    0    0  0.16922331869E+03  0.99707092171E+01  0.60971967937E+03  0.63800069596E+03  0.80937346151E+02 0.  0.
        254    2    1    2    0    0 -0.16922331869E+03 -0.99707092171E+01  0.37953145215E+01  0.91838601015E+03  0.90259764713E+03 0.  0.
         23    2    4    4    0    0  0.30099156577E+03 -0.23135971534E+03 -0.25425278141E+01  0.39048788912E+03  0.91384279558E+02 0.  0.
         23    2    4    4    0    0 -0.47021488446E+03  0.22138900613E+03  0.63378423356E+01  0.52789812104E+03  0.92309957980E+02 0.  0.
          3    1    3    3  502    0  0.26279015216E+02 -0.18915194682E+02  0.49794991750E+02  0.59396232489E+02  0.00000000000E+00 0. -1.
         -4    1    3    3    0  502  0.14294430347E+03  0.28885903899E+02  0.55992468763E+03  0.57860446347E+03  0.00000000000E+00 0.  1.
         13    1    5    5    0    0  0.24455320778E+03 -0.13690359260E+03  0.35237711975E+01  0.28028785573E+03  0.00000000000E+00 0.  1.
        -13    1    5    5    0    0  0.56438357989E+02 -0.94456122740E+02 -0.60662990116E+01  0.11020003339E+03  0.00000000000E+00 0. -1.
          4    1    6    6  503    0 -0.44774935471E+03  0.19078748091E+03 -0.94233933999E+01  0.48679374263E+03  0.00000000000E+00 0.  1.
         -4    1    6    6    0  503 -0.22465529753E+02  0.30601525214E+02  0.15761235736E+02  0.41104378410E+02  0.00000000000E+00 0. -1.
<mgrwt>
<rscale>  0 0.14303632E+04</rscale>
<asrwt>0</asrwt>
<pdfrwt beam="1">  1        1 0.72528594E-01 0.14303632E+04</pdfrwt>
<pdfrwt beam="2">  1       -2 0.16691551E+00 0.14303632E+04</pdfrwt>
<totfact> 0.91570039E+00</totfact>
</mgrwt>
</event>
<event>
12    5  0.5246737E-008  0.1115796E+04  0.7818608E-02  0.9189931E-01
          1   -1    0    0  501    0  0.00000000000E+00  0.00000000000E+00  0.21310521132E+04  0.21310521132E+04  0.00000000000E+00 0. -1.
         -2   -1    0    0    0  501 -0.00000000000E+00 -0.00000000000E+00 -0.14605477660E+03  0.14605477660E+03  0.00000000000E+00 0.  1.
        -24    2    1    2    0    0  0.44732637057E+02 -0.93566069480E+00 -0.69369388680E+01  0.90717516656E+02  0.78610828950E+02 0.  0.
        254    2    1    2    0    0 -0.44732637057E+02  0.93566069480E+00  0.19919342755E+04  0.21863893732E+04  0.90027465198E+03 0.  0.
         23    2    4    4    0    0  0.17741102055E+03 -0.36356935951E+03  0.13376398022E+04  0.14001899438E+04  0.87145217000E+02 0.  0.
         23    2    4    4    0    0 -0.22214365760E+03  0.36450502020E+03  0.65429447330E+03  0.78619942941E+03  0.88298191625E+02 0.  0.
          3    1    3    3  502    0  0.31638578074E+02  0.23240667497E+02  0.26547831475E+02  0.47391092035E+02  0.00000000000E+00 0. -1.
         -4    1    3    3    0  502  0.13094058984E+02 -0.24176328192E+02 -0.33484770343E+02  0.43326424621E+02  0.00000000000E+00 0.  1.
         13    1    5    5    0    0  0.88464096954E+02 -0.23359056132E+03  0.69470296670E+03  0.73824295373E+03  0.00000000000E+00 0.  1.
        -13    1    5    5    0    0  0.88946923592E+02 -0.12997879819E+03  0.64293683550E+03  0.66194699005E+03  0.00000000000E+00 0. -1.
          3    1    6    6  503    0 -0.15486927227E+03  0.18632400116E+03  0.31886247701E+03  0.40046773172E+03  0.00000000000E+00 0. -1.
         -3    1    6    6    0  503 -0.67274385337E+02  0.17818101904E+03  0.33543199629E+03  0.38573169769E+03  0.00000000000E+00 0.  1.
<mgrwt>
<rscale>  0 0.11157963E+04</rscale>
<asrwt>0</asrwt>
<pdfrwt beam="1">  1        1 0.32785415E+00 0.11157963E+04</pdfrwt>
<pdfrwt beam="2">  1       -2 0.22469967E-01 0.11157963E+04</pdfrwt>
<totfact> 0.37029244E+01</totfact>
</mgrwt>
</event>
<event>
12    5  0.5246737E-008  0.2103286E+04  0.7818608E-02  0.8559797E-01
         -2   -1    0    0    0  501 -0.00000000000E+00  0.00000000000E+00  0.17823212945E+04  0.17823212945E+04  0.00000000000E+00 0.  1.
          1   -1    0    0  501    0  0.00000000000E+00 -0.00000000000E+00 -0.62051260620E+03  0.62051260620E+03  0.00000000000E+00 0. -1.
        -24    2    1    2    0    0 -0.33716627667E+03  0.78246061763E+03  0.57260572998E+03  0.10296505590E+04  0.79857594415E+02 0.  0.
        254    2    1    2    0    0  0.33716627667E+03 -0.78246061763E+03  0.58920295830E+03  0.13731833417E+04  0.90141369388E+03 0.  0.
         23    2    4    4    0    0  0.16766752317E+03 -0.68478329986E+03  0.80095245924E+03  0.10708572523E+04  0.90387204617E+02 0.  0.
         23    2    4    4    0    0  0.16949875350E+03 -0.97677317769E+02 -0.21174950093E+03  0.30232608937E+03  0.91063314928E+02 0.  0.
          3    1    3    3  502    0 -0.14442911736E+03  0.40856094735E+03  0.32350306097E+03  0.54077356453E+03  0.00000000000E+00 0. -1.
         -4    1    3    3    0  502 -0.19273715931E+03  0.37389967028E+03  0.24910266901E+03  0.48887699447E+03  0.00000000000E+00 0.  1.
         13    1    5    5    0    0  0.16557650307E+02 -0.62603681093E+02  0.38926219510E+02  0.75555458012E+02  0.00000000000E+00 0. -1.
        -13    1    5    5    0    0  0.15110987286E+03 -0.62217961877E+03  0.76202623973E+03  0.99530179429E+03  0.00000000000E+00 0.  1.
          2    1    6    6  503    0  0.19597098248E+02  0.21927068379E+01  0.51556016235E+01  0.20382209182E+02  0.00000000000E+00 0. -1.
         -2    1    6    6    0  503  0.14990165525E+03 -0.99870024607E+02 -0.21690510256E+03  0.28194388019E+03  0.00000000000E+00 0.  1.
<mgrwt>
<rscale>  0 0.21032858E+04</rscale>
<asrwt>0</asrwt>
<pdfrwt beam="1">  1        1 0.95463479E-01 0.21032858E+04</pdfrwt>
<pdfrwt beam="2">  1       -2 0.27420327E+00 0.21032858E+04</pdfrwt>
<totfact> 0.12001167E+00</totfact>
</mgrwt>
</event>
<event>
12    5  0.5246737E-008  0.1422243E+04  0.7818608E-02  0.8937874E-01
          1   -1    0    0  501    0  0.00000000000E+00  0.00000000000E+00  0.68707095650E+03  0.68707095650E+03  0.00000000000E+00 0. -1.
         -2   -1    0    0    0  501 -0.00000000000E+00 -0.00000000000E+00 -0.73601370650E+03  0.73601370650E+03  0.00000000000E+00 0.  1.
        -24    2    1    2    0    0 -0.18389011061E+03  0.35814104726E+03 -0.15394984903E+03  0.43835944102E+03  0.79861511386E+02 0.  0.
        254    2    1    2    0    0  0.18389011061E+03 -0.35814104726E+03  0.10500709904E+03  0.98472522198E+03  0.89251145060E+03 0.  0.
         23    2    4    4    0    0 -0.76294507557E+02  0.13060418903E+03  0.33421385432E+03  0.37799920217E+03  0.91138303375E+02 0.  0.
         23    2    4    4    0    0  0.26018461817E+03 -0.48874523629E+03 -0.22920675529E+03  0.60672601981E+03  0.94935688338E+02 0.  0.
          3    1    3    3  502    0 -0.40198593790E+02  0.16248103301E+03 -0.54587861915E+02  0.17605637648E+03  0.00000000000E+00 0. -1.
         -4    1    3    3    0  502 -0.14369151682E+03  0.19566001424E+03 -0.99361987113E+02  0.26230306453E+03  0.00000000000E+00 0.  1.
         13    1    5    5    0    0 -0.47155002230E+01  0.79920361475E+02  0.21917918643E+03  0.23334312907E+03  0.00000000000E+00 0.  1.
        -13    1    5    5    0    0 -0.71579007334E+02  0.50683827559E+02  0.11503466790E+03  0.14465607310E+03  0.00000000000E+00 0. -1.
          4    1    6    6  503    0  0.11862848013E+03 -0.14420366137E+03 -0.10412676954E+03  0.21379849482E+03  0.00000000000E+00 0. -1.
         -4    1    6    6    0  503  0.14155613804E+03 -0.34454157492E+03 -0.12507998575E+03  0.39292752500E+03  0.00000000000E+00 0.  1.
<mgrwt>
<rscale>  0 0.14222428E+04</rscale>
<asrwt>0</asrwt>
<pdfrwt beam="1">  1        1 0.10570322E+00 0.14222428E+04</pdfrwt>
<pdfrwt beam="2">  1       -2 0.11323288E+00 0.14222428E+04</pdfrwt>
<totfact> 0.14624351E+01</totfact>
</mgrwt>
</event>
<event>
12    5  0.5246737E-008  0.1747758E+04  0.7818608E-02  0.8734585E-01
         -2   -1    0    0    0  501 -0.00000000000E+00  0.00000000000E+00  0.11323854563E+04  0.11323854563E+04  0.00000000000E+00 0.  1.
          1   -1    0    0  501    0  0.00000000000E+00 -0.00000000000E+00 -0.67438572915E+03  0.67438572915E+03  0.00000000000E+00 0. -1.
        -24    2    1    2    0    0 -0.29296480817E+03  0.22187573808E+03 -0.37065288591E+03  0.52777636483E+03  0.78147984345E+02 0.  0.
        254    2    1    2    0    0  0.29296480817E+03 -0.22187573808E+03  0.82865261308E+03  0.12789948206E+04  0.90227788184E+03 0.  0.
         23    2    4    4    0    0  0.22998391740E+03  0.32752273121E+03  0.29865897450E+03  0.50742422272E+03  0.90102258742E+02 0.  0.
         23    2    4    4    0    0  0.62980890769E+02 -0.54939846929E+03  0.52999363858E+03  0.77157059791E+03  0.92858278926E+02 0.  0.
          1    1    3    3  502    0 -0.23602610476E+03  0.13599509186E+03 -0.25979479199E+03  0.37642571788E+03  0.00000000000E+00 0. -1.
         -2    1    3    3    0  502 -0.56938703411E+02  0.85880646227E+02 -0.11085809392E+03  0.15135064695E+03  0.00000000000E+00 0.  1.
         13    1    5    5    0    0  0.43198852873E+02  0.11606928227E+03  0.58747545182E+02  0.13707477245E+03  0.00000000000E+00 0.  1.
        -13    1    5    5    0    0  0.18678506453E+03  0.21145344893E+03  0.23991142932E+03  0.37034945027E+03  0.00000000000E+00 0. -1.
          1    1    6    6  503    0  0.49947739607E+02 -0.50184084671E+03  0.44151863646E+03  0.67028182018E+03  0.00000000000E+00 0. -1.
         -1    1    6    6    0  503  0.13033151163E+02 -0.47557622578E+02  0.88475002117E+02  0.10128877773E+03  0.00000000000E+00 0.  1.
<mgrwt>
<rscale>  0 0.17477581E+04</rscale>
<asrwt>0</asrwt>
<pdfrwt beam="1">  1        1 0.10375165E+00 0.17477581E+04</pdfrwt>
<pdfrwt beam="2">  1       -2 0.17421315E+00 0.17477581E+04</pdfrwt>
<totfact> 0.47570473E+00</totfact>
</mgrwt>
</event>
<event>
12    5  0.5246737E-008  0.1992266E+04  0.7818608E-02  0.8610245E-01
         -2   -1    0    0    0  501 -0.00000000000E+00  0.00000000000E+00  0.13232099967E+04  0.13232099967E+04  0.00000000000E+00 0.  1.
          1   -1    0    0  501    0  0.00000000000E+00 -0.00000000000E+00 -0.74990418998E+03  0.74990418998E+03  0.00000000000E+00 0. -1.
        -24    2    1    2    0    0  0.50443620908E+03 -0.87002882911E+02  0.85745784134E+03  0.10015682907E+04  0.76679206061E+02 0.  0.
        254    2    1    2    0    0 -0.50443620908E+03  0.87002882911E+02 -0.28415203460E+03  0.10715458960E+04  0.89746467213E+03 0.  0.
         23    2    4    4    0    0  0.13213927956E+03 -0.20364486377E+03 -0.25824026229E+03  0.36546581181E+03  0.89135889455E+02 0.  0.
         23    2    4    4    0    0 -0.63657548864E+03  0.29064774668E+03 -0.25911772309E+02  0.70608008416E+03  0.90405751552E+02 0.  0.
          1    1    3    3  502    0  0.30603781497E+03 -0.27843135356E+02  0.45618317645E+03  0.55003406700E+03  0.00000000000E+00 0. -1.
         -2    1    3    3    0  502  0.19839839410E+03 -0.59159747555E+02  0.40127466489E+03  0.45153422372E+03  0.00000000000E+00 0.  1.
         13    1    5    5    0    0  0.10903966005E+03 -0.15163448693E+03 -0.13730281416E+03  0.23180752332E+03  0.00000000000E+00 0.  1.
        -13    1    5    5    0    0  0.23099619509E+02 -0.52010376832E+02 -0.12093744814E+03  0.13365828849E+03  0.00000000000E+00 0. -1.
          3    1    6    6  503    0 -0.25932033116E+03  0.91932795248E+02  0.26833594975E+02  0.27643935106E+03  0.00000000000E+00 0. -1.
         -3    1    6    6    0  503 -0.37725515748E+03  0.19871495143E+03 -0.52745367284E+02  0.42964073310E+03  0.00000000000E+00 0.  1.
<mgrwt>
<rscale>  0 0.19922658E+04</rscale>
<asrwt>0</asrwt>
<pdfrwt beam="1">  1        1 0.11536988E+00 0.19922658E+04</pdfrwt>
<pdfrwt beam="2">  1       -2 0.20357077E+00 0.19922658E+04</pdfrwt>
<totfact> 0.25094046E+00</totfact>
</mgrwt>
</event>
<event>
12    5  0.5246737E-008  0.1431272E+04  0.7818608E-02  0.8931488E-01
          1   -1    0    0  501    0  0.00000000000E+00  0.00000000000E+00  0.45201862813E+03  0.45201862813E+03  0.00000000000E+00 0. -1.
         -2   -1    0    0    0  501 -0.00000000000E+00 -0.00000000000E+00 -0.11329956153E+04  0.11329956153E+04  0.00000000000E+00 0.  1.
        -24    2    1    2    0    0  0.34718571042E+03 -0.81224353807E+02 -0.34606420920E+03  0.50303676978E+03  0.78423476633E+02 0.  0.
        254    2    1    2    0    0 -0.34718571042E+03  0.81224353807E+02 -0.33491277800E+03  0.10819774737E+04  0.96507687336E+03 0.  0.
         23    2    4    4    0    0 -0.55807298301E+03 -0.22197460404E+03 -0.35045636635E+03  0.70159960110E+03  0.93296068260E+02 0.  0.
         23    2    4    4    0    0  0.21088727258E+03  0.30319895785E+03  0.15543588347E+02  0.38037787257E+03  0.89680951299E+02 0.  0.
          1    1    3    3  502    0  0.20172852441E+02 -0.25355712051E+02 -0.41789025149E+02  0.52878906306E+02  0.00000000000E+00 0. -1.
         -2    1    3    3    0  502  0.32701285798E+03 -0.55868641756E+02 -0.30427518406E+03  0.45015786348E+03  0.00000000000E+00 0.  1.
         13    1    5    5    0    0 -0.52465017391E+03 -0.23004674760E+03 -0.33724032149E+03  0.66476337558E+03  0.00000000000E+00 0.  1.
        -13    1    5    5    0    0 -0.33422809099E+02  0.80721435574E+01 -0.13216044851E+02  0.36836225528E+02  0.00000000000E+00 0. -1.
          2    1    6    6  503    0  0.10455270921E+03  0.10214360096E+03  0.40223442588E+02  0.15159983363E+03  0.00000000000E+00 0. -1.
         -2    1    6    6    0  503  0.10633456337E+03  0.20105535688E+03 -0.24679854242E+02  0.22877803895E+03  0.00000000000E+00 0.  1.
<mgrwt>
<rscale>  0 0.14312723E+04</rscale>
<asrwt>0</asrwt>
<pdfrwt beam="1">  1        1 0.69541328E-01 0.14312723E+04</pdfrwt>
<pdfrwt beam="2">  1       -2 0.17430702E+00 0.14312723E+04</pdfrwt>
<totfact> 0.85899408E+00</totfact>
</mgrwt>
</event>
<event>
12    5  0.5246737E-008  0.3120171E+04  0.7818608E-02  0.8210224E-01
          1   -1    0    0  501    0  0.00000000000E+00  0.00000000000E+00  0.12853503524E+04  0.12853503524E+04  0.00000000000E+00 0. -1.
         -2   -1    0    0    0  501 -0.00000000000E+00 -0.00000000000E+00 -0.18935440293E+04  0.18935440293E+04  0.00000000000E+00 0.  1.
        -24    2    1    2    0    0  0.88492296877E+03  0.11199080263E+04 -0.22259021968E+03  0.14467024564E+04  0.78223675704E+02 0.  0.
        254    2    1    2    0    0 -0.88492296877E+03 -0.11199080263E+04 -0.38560345722E+03  0.17321919252E+04  0.90250550777E+03 0.  0.
         23    2    4    4    0    0 -0.53218235492E+03 -0.26798433824E+03  0.20187361476E+03  0.63527439285E+03  0.88243602804E+02 0.  0.
         23    2    4    4    0    0 -0.35274061385E+03 -0.85192368806E+03 -0.58747707198E+03  0.10969175324E+04  0.88875484765E+02 0.  0.
          1    1    3    3  502    0  0.16343255681E+03  0.25187100882E+03 -0.31301122122E+02  0.30187574589E+03  0.00000000000E+00 0. -1.
         -2    1    3    3    0  502  0.72149041196E+03  0.86803701748E+03 -0.19128909756E+03  0.11448267105E+04  0.00000000000E+00 0.  1.
         13    1    5    5    0    0 -0.55762241174E+02 -0.83543446654E+01  0.39789073526E+02  0.69010093375E+02  0.00000000000E+00 0. -1.
        -13    1    5    5    0    0 -0.47642011375E+03 -0.25962999358E+03  0.16208454124E+03  0.56626429947E+03  0.00000000000E+00 0.  1.
          4    1    6    6  503    0 -0.14153898916E+03 -0.28831079735E+03 -0.16115405554E+03  0.35934249810E+03  0.00000000000E+00 0. -1.
         -4    1    6    6    0  503 -0.21120162469E+03 -0.56361289071E+03 -0.42632301644E+03  0.73757503428E+03  0.00000000000E+00 0.  1.
<mgrwt>
<rscale>  0 0.31201715E+04</rscale>
<asrwt>0</asrwt>
<pdfrwt beam="1">  1        1 0.19774621E+00 0.31201715E+04</pdfrwt>
<pdfrwt beam="2">  1       -2 0.29131446E+00 0.31201715E+04</pdfrwt>
<totfact> 0.24615106E-01</totfact>
</mgrwt>
</event>
<event>
12    5  0.5246737E-008  0.1740801E+04  0.7818608E-02  0.8738430E-01
          1   -1    0    0  501    0  0.00000000000E+00  0.00000000000E+00  0.90294404495E+03  0.90294404495E+03  0.00000000000E+00 0. -1.
         -2   -1    0    0    0  501 -0.00000000000E+00 -0.00000000000E+00 -0.83902964141E+03  0.83902964141E+03  0.00000000000E+00 0.  1.
        -24    2    1    2    0    0  0.51779162582E+03 -0.11377198279E+03 -0.34630892894E+03  0.63817243005E+03  0.79258717942E+02 0.  0.
        254    2    1    2    0    0 -0.51779162582E+03  0.11377198279E+03  0.41022333247E+03  0.11038012563E+04  0.87695028314E+03 0.  0.
         23    2    4    4    0    0 -0.63395685836E+03 -0.18714591246E+03  0.37823861406E+03  0.76692220606E+03  0.90445177679E+02 0.  0.
         23    2    4    4    0    0  0.11616523254E+03  0.30091789525E+03  0.31984718413E+02  0.33687905026E+03  0.91752555048E+02 0.  0.
          3    1    3    3  502    0  0.37725044655E+01  0.55682571870E+01 -0.11210867372E+02  0.13073669159E+02  0.00000000000E+00 0. -1.
         -4    1    3    3    0  502  0.51401912136E+03 -0.11934023998E+03 -0.33509806156E+03  0.62509876089E+03  0.00000000000E+00 0.  1.
         13    1    5    5    0    0 -0.54697189424E+03 -0.13346615197E+03  0.29830407216E+03  0.63716307668E+03  0.00000000000E+00 0.  1.
        -13    1    5    5    0    0 -0.86984964119E+02 -0.53679760492E+02  0.79934541900E+02  0.12975912938E+03  0.00000000000E+00 0. -1.
          4    1    6    6  503    0 -0.22957021186E+01 -0.57717454506E+01 -0.15454372509E+01  0.64009116585E+01  0.00000000000E+00 0. -1.
         -4    1    6    6    0  503  0.11846093465E+03  0.30668964070E+03  0.33530155663E+02  0.33047813860E+03  0.00000000000E+00 0.  1.
<mgrwt>
<rscale>  0 0.17408008E+04</rscale>
<asrwt>0</asrwt>
<pdfrwt beam="1">  1        1 0.13891447E+00 0.17408008E+04</pdfrwt>
<pdfrwt beam="2">  1       -2 0.12908148E+00 0.17408008E+04</pdfrwt>
<totfact> 0.66489038E+00</totfact>
</mgrwt>
</event>
<event>
12    5  0.5246737E-008  0.1595381E+04  0.7818608E-02  0.8823391E-01
          1   -1    0    0  501    0  0.00000000000E+00  0.00000000000E+00  0.15883881685E+04  0.15883881685E+04  0.00000000000E+00 0. -1.
         -2   -1    0    0    0  501 -0.00000000000E+00 -0.00000000000E+00 -0.40060092884E+03  0.40060092884E+03  0.00000000000E+00 0.  1.
        -24    2    1    2    0    0  0.37500583118E+03  0.37742567842E+03  0.52860044947E+03  0.75388535312E+03  0.76453739735E+02 0.  0.
        254    2    1    2    0    0 -0.37500583118E+03 -0.37742567842E+03  0.65918679021E+03  0.12351037442E+04  0.89881840130E+03 0.  0.
         23    2    4    4    0    0 -0.42231318565E+03 -0.47740215258E+03  0.92569550889E+02  0.65049594925E+03  0.91184517230E+02 0.  0.
         23    2    4    4    0    0  0.47307354476E+02  0.99976474156E+02  0.56661723932E+03  0.58460779499E+03  0.92075495661E+02 0.  0.
          3    1    3    3  502    0  0.10490942334E+03  0.10632577994E+03  0.19903883311E+03  0.24885259828E+03  0.00000000000E+00 0. -1.
         -4    1    3    3    0  502  0.27009640784E+03  0.27109989848E+03  0.32956161636E+03  0.50503275484E+03  0.00000000000E+00 0.  1.
         13    1    5    5    0    0 -0.13737683304E+03 -0.10499485758E+03  0.19834242572E+01  0.17291688277E+03  0.00000000000E+00 0. -1.
        -13    1    5    5    0    0 -0.28493635261E+03 -0.37240729500E+03  0.90586126632E+02  0.47757906648E+03  0.00000000000E+00 0.  1.
          2    1    6    6  503    0  0.13825838806E+02 -0.17165715583E+02  0.81980407919E+02  0.84891712744E+02  0.00000000000E+00 0. -1.
         -2    1    6    6    0  503  0.33481515669E+02  0.11714218974E+03  0.48463683140E+03  0.49971608225E+03  0.00000000000E+00 0.  1.
<mgrwt>
<rscale>  0 0.15953806E+04</rscale>
<asrwt>0</asrwt>
<pdfrwt beam="1">  1        1 0.24436741E+00 0.15953806E+04</pdfrwt>
<pdfrwt beam="2">  1       -2 0.61630913E-01 0.15953806E+04</pdfrwt>
<totfact> 0.11713953E+01</totfact>
</mgrwt>
</event>
<event>
12    5  0.5246737E-008  0.1934421E+04  0.7818608E-02  0.8637910E-01
         -2   -1    0    0    0  501 -0.00000000000E+00  0.00000000000E+00  0.87986550657E+03  0.87986550657E+03  0.00000000000E+00 0.  1.
          1   -1    0    0  501    0  0.00000000000E+00 -0.00000000000E+00 -0.10632266159E+04  0.10632266159E+04  0.00000000000E+00 0. -1.
        -24    2    1    2    0    0  0.28931120633E+03 -0.53897134532E+03 -0.50138337736E+03  0.79502856145E+03  0.80585589524E+02 0.  0.
        254    2    1    2    0    0 -0.28931120633E+03  0.53897134532E+03  0.31802226805E+03  0.11480635610E+04  0.91799819824E+03 0.  0.
         23    2    4    4    0    0 -0.26090957382E+03 -0.20871240473E+03  0.64623314249E+02  0.35290296106E+03  0.93432615192E+02 0.  0.
         23    2    4    4    0    0 -0.28401632511E+02  0.74768375005E+03  0.25339895380E+03  0.79516059996E+03  0.90728755702E+02 0.  0.
          1    1    3    3  502    0  0.97238000062E+02 -0.18829692535E+03 -0.22425162346E+03  0.30854456952E+03  0.00000000000E+00 0. -1.
         -2    1    3    3    0  502  0.19207320626E+03 -0.35067441997E+03 -0.27713175390E+03  0.48648399193E+03  0.00000000000E+00 0.  1.
         13    1    5    5    0    0 -0.27181458971E+02 -0.13227175482E+02  0.35778072573E+02  0.46838663090E+02  0.00000000000E+00 0.  1.
        -13    1    5    5    0    0 -0.23372811484E+03 -0.19548522925E+03  0.28845241677E+02  0.30606429797E+03  0.00000000000E+00 0. -1.
          3    1    6    6  503    0  0.10891618873E+02  0.61143632173E+03  0.19588082453E+03  0.64213884815E+03  0.00000000000E+00 0. -1.
         -3    1    6    6    0  503 -0.39293251384E+02  0.13624742833E+03  0.57518129273E+02  0.15302175180E+03  0.00000000000E+00 0.  1.
<mgrwt>
<rscale>  0 0.19344213E+04</rscale>
<asrwt>0</asrwt>
<pdfrwt beam="1">  1        1 0.16357332E+00 0.19344213E+04</pdfrwt>
<pdfrwt beam="2">  1       -2 0.13536392E+00 0.19344213E+04</pdfrwt>
<totfact> 0.43328570E+00</totfact>
</mgrwt>
</event>
<event>
12    5  0.5246737E-008  0.2214432E+04  0.7818608E-02  0.8512445E-01
         -2   -1    0    0    0  501 -0.00000000000E+00  0.00000000000E+00  0.42202508820E+03  0.42202508820E+03  0.00000000000E+00 0.  1.
          1   -1    0    0  501    0  0.00000000000E+00 -0.00000000000E+00 -0.29048679649E+04  0.29048679649E+04  0.00000000000E+00 0. -1.
        -24    2    1    2    0    0  0.15516816452E+03 -0.88951213447E+03 -0.86641534083E+03  0.12537651623E+04  0.77087888896E+02 0.  0.
        254    2    1    2    0    0 -0.15516816452E+03  0.88951213447E+03 -0.16164275359E+04  0.20731278909E+04  0.93258365655E+03 0.  0.
         23    2    4    4    0    0 -0.92248733163E+02  0.54821170118E+03 -0.16191723625E+04  0.17146025565E+04  0.95377612946E+02 0.  0.
         23    2    4    4    0    0 -0.62919431359E+02  0.34130043329E+03  0.27448266351E+01  0.35852533438E+03  0.89933534987E+02 0.  0.
          1    1    3    3  502    0  0.15865599627E+02 -0.20214497365E+02 -0.20989006533E+02  0.33179535116E+02  0.00000000000E+00 0. -1.
         -2    1    3    3    0  502  0.13930256490E+03 -0.86929763710E+03 -0.84542633430E+03  0.12205856271E+04  0.00000000000E+00 0.  1.
         13    1    5    5    0    0 -0.67127716939E+02  0.51431105516E+03 -0.15382479274E+04  0.16233387440E+04  0.00000000000E+00 0. -1.
        -13    1    5    5    0    0 -0.25121016224E+02  0.33900646024E+02 -0.80924435174E+02  0.91263812463E+02  0.00000000000E+00 0.  1.
          2    1    6    6  503    0 -0.82047609384E+02  0.21749215178E+03  0.13089313939E+02  0.23282176967E+03  0.00000000000E+00 0. -1.
         -2    1    6    6    0  503  0.19128178024E+02  0.12380828151E+03 -0.10344487304E+02  0.12570356471E+03  0.00000000000E+00 0.  1.
<mgrwt>
<rscale>  0 0.22144319E+04</rscale>
<asrwt>0</asrwt>
<pdfrwt beam="1">  1        1 0.44690276E+00 0.22144319E+04</pdfrwt>
<pdfrwt beam="2">  1       -2 0.64926937E-01 0.22144319E+04</pdfrwt>
<totfact> 0.12280844E+00</totfact>
</mgrwt>
</event>
<event>
12    5  0.5246737E-008  0.1172928E+04  0.7818608E-02  0.9136888E-01
          1   -1    0    0  501    0  0.00000000000E+00  0.00000000000E+00  0.46271585134E+03  0.46271585134E+03  0.00000000000E+00 0. -1.
         -2   -1    0    0    0  501 -0.00000000000E+00 -0.00000000000E+00 -0.74330755509E+03  0.74330755509E+03  0.00000000000E+00 0.  1.
        -24    2    1    2    0    0  0.89864315686E+02  0.19329269760E+03  0.39507590224E+02  0.23128889821E+03  0.80598030830E+02 0.  0.
        254    2    1    2    0    0 -0.89864315686E+02 -0.19329269760E+03 -0.32009929397E+03  0.97473450822E+03  0.89565961243E+03 0.  0.
         23    2    4    4    0    0 -0.44974884230E+03  0.25701675019E+02 -0.28041588143E+03  0.54016957000E+03  0.10107175939E+03 0.  0.
         23    2    4    4    0    0  0.35988452661E+03 -0.21899437262E+03 -0.39683412535E+02  0.43456493822E+03  0.98977293184E+02 0.  0.
          3    1    3    3  502    0  0.92546377176E+02  0.15685070482E+03  0.56928054432E+02  0.19080822548E+03  0.00000000000E+00 0. -1.
         -4    1    3    3    0  502 -0.26820614898E+01  0.36441992781E+02 -0.17420464208E+02  0.40480672733E+02  0.00000000000E+00 0.  1.
         13    1    5    5    0    0 -0.37609428885E+02  0.15659100747E+02  0.14447852079E+01  0.40764739439E+02  0.00000000000E+00 0. -1.
        -13    1    5    5    0    0 -0.41213941341E+03  0.10042574272E+02 -0.28186066664E+03  0.49940483056E+03  0.00000000000E+00 0.  1.
          1    1    6    6  503    0  0.17195711309E+03 -0.10528413600E+03  0.30612828587E+02  0.20393906764E+03  0.00000000000E+00 0. -1.
         -1    1    6    6    0  503  0.18792741352E+03 -0.11371023662E+03 -0.70296241123E+02  0.23062587058E+03  0.00000000000E+00 0.  1.
<mgrwt>
<rscale>  0 0.11729283E+04</rscale>
<asrwt>0</asrwt>
<pdfrwt beam="1">  1        1 0.71187054E-01 0.11729283E+04</pdfrwt>
<pdfrwt beam="2">  1       -2 0.11435501E+00 0.11729283E+04</pdfrwt>
<totfact> 0.25542173E+01</totfact>
</mgrwt>
</event>
<event>
12    5  0.5246737E-008  0.1652342E+04  0.7818608E-02  0.8789022E-01
          1   -1    0    0  501    0  0.00000000000E+00  0.00000000000E+00  0.10940532314E+04  0.10940532314E+04  0.00000000000E+00 0. -1.
         -2   -1    0    0    0  501 -0.00000000000E+00 -0.00000000000E+00 -0.62388058150E+03  0.62388058150E+03  0.00000000000E+00 0.  1.
        -24    2    1    2    0    0  0.38207193874E+03  0.26063689939E+03 -0.16574448483E+03  0.49774350261E+03  0.79792232954E+02 0.  0.
        254    2    1    2    0    0 -0.38207193874E+03 -0.26063689939E+03  0.63591713474E+03  0.12201903103E+04  0.93303978019E+03 0.  0.
         23    2    4    4    0    0  0.13150129811E+02 -0.21406420173E+03 -0.18786156089E+03  0.29971238147E+03  0.92407451919E+02 0.  0.
         23    2    4    4    0    0 -0.39522206855E+03 -0.46572697669E+02  0.82377869564E+03  0.92047792884E+03  0.10148289736E+03 0.  0.
          1    1    3    3  502    0  0.12338746334E+02  0.28705247220E+02 -0.10990791019E+01  0.31264098483E+02  0.00000000000E+00 0. -1.
         -2    1    3    3    0  502  0.36973319240E+03  0.23193165217E+03 -0.16464540573E+03  0.46647940412E+03  0.00000000000E+00 0.  1.
         13    1    5    5    0    0 -0.83241927918E+01 -0.21126909745E+03 -0.16476195547E+03  0.26804929713E+03  0.00000000000E+00 0. -1.
        -13    1    5    5    0    0  0.21474322603E+02 -0.27951042790E+01 -0.23099605421E+02  0.31663084338E+02  0.00000000000E+00 0.  1.
          3    1    6    6  503    0 -0.37224626302E+03 -0.30771392078E+02  0.69810616794E+03  0.79174893787E+03  0.00000000000E+00 0. -1.
         -3    1    6    6    0  503 -0.22975805532E+02 -0.15801305591E+02  0.12567252770E+03  0.12872899097E+03  0.00000000000E+00 0.  1.
<mgrwt>
<rscale>  0 0.16523421E+04</rscale>
<asrwt>0</asrwt>
<pdfrwt beam="1">  1        1 0.16831588E+00 0.16523421E+04</pdfrwt>
<pdfrwt beam="2">  1       -2 0.95981628E-01 0.16523421E+04</pdfrwt>
<totfact> 0.97647414E+00</totfact>
</mgrwt>
</event>
<event>
12    5  0.5246737E-008  0.1593854E+04  0.7818608E-02  0.8824333E-01
         -2   -1    0    0    0  501 -0.00000000000E+00  0.00000000000E+00  0.11248076294E+04  0.11248076294E+04  0.00000000000E+00 0.  1.
          1   -1    0    0  501    0  0.00000000000E+00 -0.00000000000E+00 -0.56462341683E+03  0.56462341683E+03  0.00000000000E+00 0. -1.
        -24    2    1    2    0    0 -0.46422478623E+02 -0.77796248274E+02 -0.37495985547E+03  0.39414513070E+03  0.80920875394E+02 0.  0.
        254    2    1    2    0    0  0.46422478623E+02  0.77796248274E+02  0.93514406801E+03  0.12952859155E+04  0.89166354202E+03 0.  0.
         23    2    4    4    0    0  0.36881934627E+03  0.20249372144E+03  0.80862210219E+03  0.91608598485E+03  0.91172419507E+02 0.  0.
         23    2    4    4    0    0 -0.32239686765E+03 -0.12469747316E+03  0.12652196582E+03  0.37919993064E+03  0.91080071801E+02 0.  0.
          3    1    3    3  502    0 -0.29312273147E+02 -0.80690925912E+01 -0.23387657582E+03  0.23584438160E+03  0.00000000000E+00 0. -1.
         -4    1    3    3    0  502 -0.17110205476E+02 -0.69727155683E+02 -0.14108327965E+03  0.15830074911E+03  0.00000000000E+00 0.  1.
         13    1    5    5    0    0  0.15164938844E+03  0.58245325694E+02  0.39568343643E+03  0.42773290363E+03  0.00000000000E+00 0. -1.
        -13    1    5    5    0    0  0.21716995783E+03  0.14424839574E+03  0.41293866576E+03  0.48835308122E+03  0.00000000000E+00 0.  1.
          1    1    6    6  503    0 -0.11681871132E+03 -0.74556873414E+02  0.87873969407E+02  0.16409501268E+03  0.00000000000E+00 0. -1.
         -1    1    6    6    0  503 -0.20557815633E+03 -0.50140599748E+02  0.38647996408E+02  0.21510491796E+03  0.00000000000E+00 0.  1.
<mgrwt>
<rscale>  0 0.15938541E+04</rscale>
<asrwt>0</asrwt>
<pdfrwt beam="1">  1        1 0.86865141E-01 0.15938541E+04</pdfrwt>
<pdfrwt beam="2">  1       -2 0.17304733E+00 0.15938541E+04</pdfrwt>
<totfact> 0.63609012E+00</totfact>
</mgrwt>
</event>
<event>
12    5  0.5246737E-008  0.3998207E+04  0.7818608E-02  0.8004908E-01
          1   -1    0    0  501    0  0.00000000000E+00  0.00000000000E+00  0.32424981779E+04  0.32424981779E+04  0.00000000000E+00 0. -1.
         -2   -1    0    0    0  501 -0.00000000000E+00 -0.00000000000E+00 -0.12325113479E+04  0.12325113479E+04  0.00000000000E+00 0.  1.
        -24    2    1    2    0    0  0.13750237232E+04  0.11174738531E+04  0.18929338608E+03  0.17836951247E+04  0.79361578892E+02 0.  0.
        254    2    1    2    0    0 -0.13750237232E+04 -0.11174738531E+04  0.18206934440E+04  0.26913144011E+04  0.88815006429E+03 0.  0.
         23    2    4    4    0    0 -0.65399805164E+03 -0.32930644687E+02  0.45912115796E+03  0.80525874862E+03  0.94082600044E+02 0.  0.
         23    2    4    4    0    0 -0.72102567157E+03 -0.10845432084E+04  0.13615722860E+04  0.18860556525E+04  0.84940238391E+02 0.  0.
          3    1    3    3  502    0  0.61230694192E+02  0.54577361925E+02  0.25340952827E+02  0.85848996710E+02  0.00000000000E+00 0. -1.
         -2    1    3    3    0  502  0.13137930290E+04  0.10628964912E+04  0.16395243325E+03  0.16978461280E+04  0.00000000000E+00 0.  1.
         13    1    5    5    0    0 -0.53843373719E+03 -0.38170722291E+02  0.41717977162E+03  0.68220734035E+03  0.00000000000E+00 0.  1.
        -13    1    5    5    0    0 -0.11556431445E+03  0.52400776036E+01  0.41941386340E+02  0.12305140826E+03  0.00000000000E+00 0. -1.
          3    1    6    6  503    0 -0.15055068426E+03 -0.16932164786E+03  0.22832338671E+03  0.32166270826E+03  0.00000000000E+00 0. -1.
         -3    1    6    6    0  503 -0.57047498731E+03 -0.91522156054E+03  0.11332488993E+04  0.15643929442E+04  0.00000000000E+00 0.  1.
<mgrwt>
<rscale>  0 0.39982075E+04</rscale>
<asrwt>0</asrwt>
<pdfrwt beam="1">  1        1 0.49884587E+00 0.39982075E+04</pdfrwt>
<pdfrwt beam="2">  1       -2 0.18961713E+00 0.39982075E+04</pdfrwt>
<totfact> 0.42411697E-02</totfact>
</mgrwt>
</event>
<event>
12    5  0.5246737E-008  0.2800188E+04  0.7818608E-02  0.8303210E-01
         -2   -1    0    0    0  501 -0.00000000000E+00  0.00000000000E+00  0.13229696717E+04  0.13229696717E+04  0.00000000000E+00 0.  1.
          1   -1    0    0  501    0  0.00000000000E+00 -0.00000000000E+00 -0.14817142242E+04  0.14817142242E+04  0.00000000000E+00 0. -1.
        -24    2    1    2    0    0 -0.87508400250E+03 -0.28778785066E+03 -0.92320948558E+03  0.13066763940E+04  0.80582789416E+02 0.  0.
        254    2    1    2    0    0  0.87508400250E+03  0.28778785066E+03  0.76446493316E+03  0.14980075019E+04  0.90056981035E+03 0.  0.
         23    2    4    4    0    0 -0.11531212001E+03 -0.91043664562E+02 -0.21392181965E+02  0.17502288159E+03  0.92679823873E+02 0.  0.
         23    2    4    4    0    0  0.99039612251E+03  0.37883151522E+03  0.78585711513E+03  0.13229846203E+04  0.91209121212E+02 0.  0.
          1    1    3    3  502    0 -0.10265668248E+03 -0.97663376577E+01 -0.11897892728E+03  0.15744764509E+03  0.00000000000E+00 0. -1.
         -4    1    3    3    0  502 -0.77242732002E+03 -0.27802151300E+03 -0.80423055830E+03  0.11492287489E+04  0.00000000000E+00 0.  1.
         13    1    5    5    0    0 -0.14946356323E+02 -0.69401373427E+02 -0.67787053562E+01  0.71315461488E+02  0.00000000000E+00 0. -1.
        -13    1    5    5    0    0 -0.10036576369E+03 -0.21642291135E+02 -0.14613476609E+02  0.10370742010E+03  0.00000000000E+00 0.  1.
          3    1    6    6  503    0  0.94358886484E+02  0.65704184144E+02  0.91571859896E+02  0.14698994795E+03  0.00000000000E+00 0. -1.
         -3    1    6    6    0  503  0.89603723602E+03  0.31312733107E+03  0.69428525523E+03  0.11759946724E+04  0.00000000000E+00 0.  1.
<mgrwt>
<rscale>  0 0.28001878E+04</rscale>
<asrwt>0</asrwt>
<pdfrwt beam="1">  1        1 0.22795603E+00 0.28001878E+04</pdfrwt>
<pdfrwt beam="2">  1       -2 0.20353380E+00 0.28001878E+04</pdfrwt>
<totfact> 0.64577382E-01</totfact>
</mgrwt>
</event>
<event>
12    5  0.5246737E-008  0.1431708E+04  0.7818608E-02  0.8931181E-01
          1   -1    0    0  501    0  0.00000000000E+00  0.00000000000E+00  0.31449608058E+03  0.31449608058E+03  0.00000000000E+00 0. -1.
         -2   -1    0    0    0  501 -0.00000000000E+00 -0.00000000000E+00 -0.16294233550E+04  0.16294233550E+04  0.00000000000E+00 0.  1.
        -24    2    1    2    0    0 -0.38840445312E+03  0.75440689225E+02 -0.55247502054E+03  0.68416811120E+03  0.79423165773E+02 0.  0.
        254    2    1    2    0    0  0.38840445312E+03 -0.75440689225E+02 -0.76245225388E+03  0.12597513244E+04  0.92146114571E+03 0.  0.
         23    2    4    4    0    0  0.67997271196E+03 -0.11351865164E+03 -0.51276865181E+03  0.86370071187E+03  0.88305470505E+02 0.  0.
         23    2    4    4    0    0 -0.29156825884E+03  0.38077962413E+02 -0.24968360207E+03  0.39605061251E+03  0.89734083532E+02 0.  0.
          3    1    3    3  502    0 -0.17701569005E+02  0.65431611102E+01 -0.66204236575E+02  0.68841553171E+02  0.00000000000E+00 0. -1.
         -4    1    3    3    0  502 -0.37070288411E+03  0.68897528115E+02 -0.48627078397E+03  0.61532655803E+03  0.00000000000E+00 0.  1.
         13    1    5    5    0    0  0.63768871564E+03 -0.10533108876E+03 -0.50433302273E+03  0.81981298729E+03  0.00000000000E+00 0.  1.
        -13    1    5    5    0    0  0.42283996319E+02 -0.81875628821E+01 -0.84356290828E+01  0.43887724578E+02  0.00000000000E+00 0. -1.
          2    1    6    6  503    0 -0.13038152451E+03 -0.18369752581E+02 -0.74014041325E+02  0.15104591373E+03  0.00000000000E+00 0. -1.
         -2    1    6    6    0  503 -0.16118673434E+03  0.56447714994E+02 -0.17566956074E+03  0.24500469878E+03  0.00000000000E+00 0.  1.
<mgrwt>
<rscale>  0 0.14317084E+04</rscale>
<asrwt>0</asrwt>
<pdfrwt beam="1">  1        1 0.48384013E-01 0.14317084E+04</pdfrwt>
<pdfrwt beam="2">  1       -2 0.25068051E+00 0.14317084E+04</pdfrwt>
<totfact> 0.44603423E+00</totfact>
</mgrwt>
</event>
<event>
12    5  0.5246737E-008  0.1290381E+04  0.7818608E-02  0.9037228E-01
          1   -1    0    0  501    0  0.00000000000E+00  0.00000000000E+00  0.12471909774E+04  0.12471909774E+04  0.00000000000E+00 0. -1.
         -2   -1    0    0    0  501 -0.00000000000E+00 -0.00000000000E+00 -0.33376691118E+03  0.33376691118E+03  0.00000000000E+00 0.  1.
        -24    2    1    2    0    0  0.73541526693E+02 -0.32434678889E+03  0.25768451631E+03  0.42888663818E+03  0.83266096638E+02 0.  0.
        254    2    1    2    0    0 -0.73541526693E+02  0.32434678889E+03  0.65573954991E+03  0.11520712504E+04  0.88694115537E+03 0.  0.
         23    2    4    4    0    0  0.20755774093E+03  0.53719811846E+03  0.40198250626E+03  0.70807698854E+03  0.90116879984E+02 0.  0.
         23    2    4    4    0    0 -0.28109926762E+03 -0.21285132957E+03  0.25375704365E+03  0.44399426187E+03  0.91737563817E+02 0.  0.
          3    1    3    3  502    0  0.87803193434E+02 -0.29049913388E+03  0.21164121045E+03  0.36998803970E+03  0.00000000000E+00 0. -1.
         -4    1    3    3    0  502 -0.14261666741E+02 -0.33847655017E+02  0.46043305859E+02  0.58898598479E+02  0.00000000000E+00 0.  1.
         13    1    5    5    0    0  0.17989270252E+03  0.47653442786E+03  0.31655766771E+03  0.59971259979E+03  0.00000000000E+00 0.  1.
        -13    1    5    5    0    0  0.27665038410E+02  0.60663690597E+02  0.85424838556E+02  0.10836438875E+03  0.00000000000E+00 0. -1.
          3    1    6    6  503    0 -0.26208980479E+02 -0.63816728813E+02  0.51750890095E+02  0.86241754155E+02  0.00000000000E+00 0. -1.
         -3    1    6    6    0  503 -0.25489028714E+03 -0.14903460075E+03  0.20200615355E+03  0.35775250771E+03  0.00000000000E+00 0.  1.
<mgrwt>
<rscale>  0 0.12903815E+04</rscale>
<asrwt>0</asrwt>
<pdfrwt beam="1">  1        1 0.19187553E+00 0.12903815E+04</pdfrwt>
<pdfrwt beam="2">  1       -2 0.51348756E-01 0.12903815E+04</pdfrwt>
<totfact> 0.30508043E+01</totfact>
</mgrwt>
</event>
<event>
12    5  0.5246737E-008  0.1450084E+04  0.7818608E-02  0.8918342E-01
          1   -1    0    0  501    0  0.00000000000E+00  0.00000000000E+00  0.18466652726E+04  0.18466652726E+04  0.00000000000E+00 0. -1.
         -2   -1    0    0    0  501 -0.00000000000E+00 -0.00000000000E+00 -0.28466770209E+03  0.28466770209E+03  0.00000000000E+00 0.  1.
        -24    2    1    2    0    0  0.35134996042E+03  0.84442920260E+01  0.83864561866E+02  0.36984786653E+03  0.78968847567E+02 0.  0.
        254    2    1    2    0    0 -0.35134996042E+03 -0.84442920260E+01  0.14781330086E+04  0.17614851081E+04  0.89131054871E+03 0.  0.
         23    2    4    4    0    0 -0.22722027508E+03 -0.31044582578E+03  0.20808876536E+03  0.44690713693E+03  0.91757237401E+02 0.  0.
         23    2    4    4    0    0 -0.12412968534E+03  0.30200153376E+03  0.12700442433E+04  0.13145779712E+04  0.92139879232E+02 0.  0.
          3    1    3    3  502    0  0.69749194960E+02  0.32936531283E+02  0.10742235235E+02  0.77879142961E+02  0.00000000000E+00 0. -1.
         -4    1    3    3    0  502  0.28160076546E+03 -0.24492239257E+02  0.73122326631E+02  0.29196872357E+03  0.00000000000E+00 0.  1.
         13    1    5    5    0    0 -0.81111551015E+02 -0.18706949780E+03  0.11712710634E+03  0.23514429560E+03  0.00000000000E+00 0.  1.
        -13    1    5    5    0    0 -0.14610872407E+03 -0.12337632798E+03  0.90961659014E+02  0.21176284133E+03  0.00000000000E+00 0. -1.
          1    1    6    6  503    0 -0.82620419020E+01  0.52217146742E+02  0.35777886626E+03  0.36166366820E+03  0.00000000000E+00 0. -1.
         -1    1    6    6    0  503 -0.11586764344E+03  0.24978438702E+03  0.91226537700E+03  0.95291430301E+03  0.00000000000E+00 0.  1.
<mgrwt>
<rscale>  0 0.14500841E+04</rscale>
<asrwt>0</asrwt>
<pdfrwt beam="1">  1        1 0.28410234E+00 0.14500841E+04</pdfrwt>
<pdfrwt beam="2">  1       -2 0.43795032E-01 0.14500841E+04</pdfrwt>
<totfact> 0.15968719E+01</totfact>
</mgrwt>
</event>
<event>
12    5  0.5246737E-008  0.1574906E+04  0.7818608E-02  0.8836114E-01
         -2   -1    0    0    0  501 -0.00000000000E+00  0.00000000000E+00  0.50451147902E+03  0.50451147902E+03  0.00000000000E+00 0.  1.
          1   -1    0    0  501    0  0.00000000000E+00 -0.00000000000E+00 -0.12290740019E+04  0.12290740019E+04  0.00000000000E+00 0. -1.
        -24    2    1    2    0    0 -0.35350876156E+02  0.16275382995E+03  0.30552712913E+03  0.35705366286E+03  0.80012485987E+02 0.  0.
        254    2    1    2    0    0  0.35350876156E+02 -0.16275382995E+03 -0.10300896520E+04  0.13765318181E+04  0.89778430669E+03 0.  0.
         23    2    4    4    0    0  0.21039465469E+03 -0.20199323922E+03  0.20696814597E+02  0.30671462382E+03  0.92619236211E+02 0.  0.
         23    2    4    4    0    0 -0.17504377853E+03  0.39239409270E+02 -0.10507864666E+04  0.10698171943E+04  0.90424416131E+02 0.  0.
          3    1    3    3  502    0  0.16139889501E+02  0.69939412628E+02  0.78076165529E+02  0.10605614124E+03  0.00000000000E+00 0. -1.
         -4    1    3    3    0  502 -0.51490765657E+02  0.92814417324E+02  0.22745096361E+03  0.25099752161E+03  0.00000000000E+00 0.  1.
         13    1    5    5    0    0  0.16602929037E+03 -0.10512491508E+03  0.33695678938E+02  0.19937996843E+03  0.00000000000E+00 0.  1.
        -13    1    5    5    0    0  0.44365364315E+02 -0.96868324142E+02 -0.12998864341E+02  0.10733465539E+03  0.00000000000E+00 0. -1.
          4    1    6    6  503    0 -0.10306401063E+02  0.23589584807E+02 -0.59741188678E+02  0.65051518345E+02  0.00000000000E+00 0. -1.
         -4    1    6    6    0  503 -0.16473737747E+03  0.15649824463E+02 -0.99104527797E+03  0.10047656759E+04  0.00000000000E+00 0.  1.
<mgrwt>
<rscale>  0 0.15749056E+04</rscale>
<asrwt>0</asrwt>
<pdfrwt beam="1">  1        1 0.18908831E+00 0.15749056E+04</pdfrwt>
<pdfrwt beam="2">  1       -2 0.77617151E-01 0.15749056E+04</pdfrwt>
<totfact> 0.12695937E+01</totfact>
</mgrwt>
</event>
<event>
12    5  0.5246737E-008  0.2947078E+04  0.7818608E-02  0.8259007E-01
         -2   -1    0    0    0  501 -0.00000000000E+00  0.00000000000E+00  0.15267421136E+04  0.15267421136E+04  0.00000000000E+00 0.  1.
          1   -1    0    0  501    0  0.00000000000E+00 -0.00000000000E+00 -0.14221897181E+04  0.14221897181E+04  0.00000000000E+00 0. -1.
        -24    2    1    2    0    0 -0.44267751417E+03  0.12618177545E+04  0.15025404731E+03  0.13479506218E+04  0.79039059446E+02 0.  0.
        254    2    1    2    0    0  0.44267751417E+03 -0.12618177545E+04 -0.45701651831E+02  0.16009812099E+04  0.87915002500E+03 0.  0.
         23    2    4    4    0    0  0.42671240218E+03 -0.13061439634E+04  0.14499803559E+03  0.13847730097E+04  0.92066989913E+02 0.  0.
         23    2    4    4    0    0  0.15965111994E+02  0.44326208962E+02 -0.19069968742E+03  0.21620820023E+03  0.90332261459E+02 0.  0.
          1    1    3    3  502    0 -0.87857871741E+01  0.81199837552E+02  0.63082605189E+01  0.81917017924E+02  0.00000000000E+00 0. -1.
         -2    1    3    3    0  502 -0.43389172700E+03  0.11806179169E+04  0.14394578679E+03  0.12660336038E+04  0.00000000000E+00 0.  1.
         13    1    5    5    0    0  0.41594201825E+03 -0.12491333140E+04  0.12143927478E+03  0.13221532801E+04  0.00000000000E+00 0. -1.
        -13    1    5    5    0    0  0.10770383930E+02 -0.57010649467E+02  0.23558760811E+02  0.62619729587E+02  0.00000000000E+00 0.  1.
          1    1    6    6  503    0  0.23082855365E+02  0.70797528690E+02 -0.13860713108E+03  0.15734371633E+03  0.00000000000E+00 0. -1.
         -1    1    6    6    0  503 -0.71177433707E+01 -0.26471319728E+02 -0.52092556342E+02  0.58864483902E+02  0.00000000000E+00 0.  1.
<mgrwt>
<rscale>  0 0.29470778E+04</rscale>
<asrwt>0</asrwt>
<pdfrwt beam="1">  1        1 0.21879842E+00 0.29470778E+04</pdfrwt>
<pdfrwt beam="2">  1       -2 0.23488340E+00 0.29470778E+04</pdfrwt>
<totfact> 0.44348986E-01</totfact>
</mgrwt>
</event>
<event>
12    5  0.5246737E-008  0.1310230E+04  0.7818608E-02  0.9021492E-01
          1   -1    0    0  501    0  0.00000000000E+00  0.00000000000E+00  0.48282617143E+03  0.48282617143E+03  0.00000000000E+00 0. -1.
         -2   -1    0    0    0  501 -0.00000000000E+00 -0.00000000000E+00 -0.88888255219E+03  0.88888255219E+03  0.00000000000E+00 0.  1.
        -24    2    1    2    0    0 -0.31148713294E+03  0.26761913748E+02  0.14237488685E+02  0.32294886638E+03  0.79704643502E+02 0.  0.
        254    2    1    2    0    0  0.31148713294E+03 -0.26761913748E+02 -0.42029386944E+03  0.10487598572E+04  0.90857573567E+03 0.  0.
         23    2    4    4    0    0  0.51722690746E+03 -0.11352893707E+03  0.29326483633E+02  0.53848105599E+03  0.93216477439E+02 0.  0.
         23    2    4    4    0    0 -0.20573977452E+03  0.86767023319E+02 -0.44962035308E+03  0.51027880125E+03  0.91480172455E+02 0.  0.
          3    1    3    3  502    0 -0.29954712457E+03  0.36120316661E+02  0.27273024711E+02  0.30294714884E+03  0.00000000000E+00 0. -1.
         -4    1    3    3    0  502 -0.11940008372E+02 -0.93584029129E+01 -0.13035536026E+02  0.20001717538E+02  0.00000000000E+00 0.  1.
         13    1    5    5    0    0  0.16295209442E+03 -0.36114563288E+01  0.38325189211E+02  0.16743729519E+03  0.00000000000E+00 0.  1.
        -13    1    5    5    0    0  0.35427481303E+03 -0.10991748074E+03 -0.89987055777E+01  0.37104376079E+03  0.00000000000E+00 0. -1.
          3    1    6    6  503    0 -0.77234808039E+00  0.10798167629E+02 -0.55908489683E+00  0.10840180885E+02  0.00000000000E+00 0. -1.
         -3    1    6    6    0  503 -0.20496742643E+03  0.75968855690E+02 -0.44906126818E+03  0.49943862037E+03  0.00000000000E+00 0.  1.
<mgrwt>
<rscale>  0 0.13102301E+04</rscale>
<asrwt>0</asrwt>
<pdfrwt beam="1">  1        1 0.74280950E-01 0.13102301E+04</pdfrwt>
<pdfrwt beam="2">  1       -2 0.13675116E+00 0.13102301E+04</pdfrwt>
<totfact> 0.15229373E+01</totfact>
</mgrwt>
</event>
<event>
12    5  0.5246737E-008  0.1213388E+04  0.7818608E-02  0.9101219E-01
          1   -1    0    0  501    0  0.00000000000E+00  0.00000000000E+00  0.26430171621E+04  0.26430171621E+04  0.00000000000E+00 0. -1.
         -2   -1    0    0    0  501 -0.00000000000E+00 -0.00000000000E+00 -0.13926406583E+03  0.13926406583E+03  0.00000000000E+00 0.  1.
        -24    2    1    2    0    0 -0.24843501750E+03 -0.46581222172E+02  0.46202035637E+03  0.53329038423E+03  0.83940788835E+02 0.  0.
        254    2    1    2    0    0  0.24843501750E+03  0.46581222172E+02  0.20417327399E+04  0.22489908437E+04  0.90851387752E+03 0.  0.
         23    2    4    4    0    0  0.14551611947E+03 -0.62388976843E+02  0.20648333260E+04  0.20728565890E+04  0.90169002763E+02 0.  0.
         23    2    4    4    0    0  0.10291889804E+03  0.10897019902E+03 -0.23100586101E+02  0.17613425467E+03  0.89570278234E+02 0.  0.
          1    1    3    3  502    0 -0.22210943345E+03 -0.31305752155E+02  0.44520464478E+03  0.49851762886E+03  0.00000000000E+00 0. -1.
         -2    1    3    3    0  502 -0.26325584050E+02 -0.15275470017E+02  0.16815711586E+02  0.34772755369E+02  0.00000000000E+00 0.  1.
         13    1    5    5    0    0  0.57757529585E+00  0.14656749975E+02  0.87402727369E+02  0.88625000223E+02  0.00000000000E+00 0.  1.
        -13    1    5    5    0    0  0.14493854417E+03 -0.77045726818E+02  0.19774305986E+04  0.19842315888E+04  0.00000000000E+00 0. -1.
          4    1    6    6  503    0 -0.67136599204E+01  0.41545527825E+02  0.99649293219E+01  0.43248166761E+02  0.00000000000E+00 0. -1.
         -4    1    6    6    0  503  0.10963255796E+03  0.67424671190E+02 -0.33065515423E+02  0.13288608791E+03  0.00000000000E+00 0.  1.
<mgrwt>
<rscale>  0 0.12133875E+04</rscale>
<asrwt>0</asrwt>
<pdfrwt beam="1">  1        1 0.40661799E+00 0.12133875E+04</pdfrwt>
<pdfrwt beam="2">  1       -2 0.21425243E-01 0.12133875E+04</pdfrwt>
<totfact> 0.17823090E+01</totfact>
</mgrwt>
</event>
<event>
12    5  0.5246737E-008  0.1345456E+04  0.7818608E-02  0.8994275E-01
         -4   -1    0    0    0  501 -0.00000000000E+00  0.00000000000E+00  0.25126915176E+03  0.25126915176E+03  0.00000000000E+00 0.  1.
          1   -1    0    0  501    0  0.00000000000E+00 -0.00000000000E+00 -0.18011094175E+04  0.18011094175E+04  0.00000000000E+00 0. -1.
        -24    2    1    2    0    0  0.13527491316E+03  0.11495664430E+03  0.58770821751E+02  0.20090892748E+03  0.73457848149E+02 0.  0.
        254    2    1    2    0    0 -0.13527491316E+03 -0.11495664430E+03 -0.16086110875E+04  0.18514696418E+04  0.89933079089E+03 0.  0.
         23    2    4    4    0    0  0.33258167923E+03 -0.23800916632E+03 -0.63869523518E+03  0.76385661392E+03  0.91029591767E+02 0.  0.
         23    2    4    4    0    0 -0.46785659239E+03  0.12305252202E+03 -0.96991585229E+03  0.10876130278E+04  0.90186604310E+02 0.  0.
          3    1    3    3  502    0 -0.31466218715E+01 -0.65546096182E+01 -0.82807055092E+00  0.73177754329E+01  0.00000000000E+00 0. -1.
         -4    1    3    3    0  502  0.13842153503E+03  0.12151125391E+03  0.59598892301E+02  0.19359115205E+03  0.00000000000E+00 0.  1.
         13    1    5    5    0    0  0.27564505257E+03 -0.20727151642E+03 -0.46829760684E+03  0.58158776216E+03  0.00000000000E+00 0. -1.
        -13    1    5    5    0    0  0.56936626657E+02 -0.30737649897E+02 -0.17039762835E+03  0.18226885176E+03  0.00000000000E+00 0.  1.
          1    1    6    6  503    0 -0.31501689731E+03  0.79172790875E+02 -0.55209951109E+03  0.64056057212E+03  0.00000000000E+00 0. -1.
         -1    1    6    6    0  503 -0.15283969508E+03  0.43879731144E+02 -0.41781634121E+03  0.44705245573E+03  0.00000000000E+00 0.  1.
<mgrwt>
<rscale>  0 0.13454564E+04</rscale>
<asrwt>0</asrwt>
<pdfrwt beam="1">  1        1 0.27709376E+00 0.13454564E+04</pdfrwt>
<pdfrwt beam="2">  1       -4 0.38656792E-01 0.13454564E+04</pdfrwt>
<totfact> 0.12862099E+01</totfact>
</mgrwt>
</event>
<event>
12    5  0.5246737E-008  0.2107300E+04  0.7818608E-02  0.8558034E-01
         -2   -1    0    0    0  501 -0.00000000000E+00  0.00000000000E+00  0.69714593381E+03  0.69714593381E+03  0.00000000000E+00 0.  1.
          1   -1    0    0  501    0  0.00000000000E+00 -0.00000000000E+00 -0.15924623824E+04  0.15924623824E+04  0.00000000000E+00 0. -1.
        -24    2    1    2    0    0  0.61174785964E+03 -0.59429696659E+03 -0.26612059544E+03  0.89677541013E+03  0.77211635397E+02 0.  0.
        254    2    1    2    0    0 -0.61174785964E+03  0.59429696659E+03 -0.62919585310E+03  0.13928329060E+04  0.90369892901E+03 0.  0.
         23    2    4    4    0    0  0.11520627378E+03  0.10518608746E+03 -0.46126252546E+03  0.49532361013E+03  0.90806182863E+02 0.  0.
         23    2    4    4    0    0 -0.72695413341E+03  0.48911087912E+03 -0.16793332764E+03  0.89750929590E+03  0.98130370080E+02 0.  0.
          3    1    3    3  502    0  0.25250341937E+03 -0.27363740998E+03 -0.15012364469E+03  0.40146297168E+03  0.00000000000E+00 0. -1.
         -4    1    3    3    0  502  0.35924444026E+03 -0.32065955661E+03 -0.11599695075E+03  0.49531243845E+03  0.00000000000E+00 0.  1.
         13    1    5    5    0    0  0.67281805866E+02  0.50162768640E+02 -0.12055419308E+03  0.14688927200E+03  0.00000000000E+00 0. -1.
        -13    1    5    5    0    0  0.47924467909E+02  0.55023318824E+02 -0.34070833238E+03  0.34843433813E+03  0.00000000000E+00 0.  1.
          4    1    6    6  503    0 -0.45125850959E+03  0.34496165885E+03 -0.75772903290E+02  0.57303954613E+03  0.00000000000E+00 0.  1.
         -4    1    6    6    0  503 -0.27569562382E+03  0.14414922027E+03 -0.92160424354E+02  0.32446974977E+03  0.00000000000E+00 0. -1.
<mgrwt>
<rscale>  0 0.21073003E+04</rscale>
<asrwt>0</asrwt>
<pdfrwt beam="1">  1        1 0.24499421E+00 0.21073003E+04</pdfrwt>
<pdfrwt beam="2">  1       -2 0.10725322E+00 0.21073003E+04</pdfrwt>
<totfact> 0.31826483E+00</totfact>
</mgrwt>
</event>
<event>
12    5  0.5246737E-008  0.1435480E+04  0.7818608E-02  0.8928529E-01
          1   -1    0    0  501    0  0.00000000000E+00  0.00000000000E+00  0.19529625495E+04  0.19529625495E+04  0.00000000000E+00 0. -1.
         -2   -1    0    0    0  501 -0.00000000000E+00 -0.00000000000E+00 -0.26377926137E+03  0.26377926137E+03  0.00000000000E+00 0.  1.
        -24    2    1    2    0    0 -0.12696924025E+03  0.22022982593E+03  0.10404889432E+04  0.10755458220E+04  0.97771213232E+02 0.  0.
        254    2    1    2    0    0  0.12696924025E+03 -0.22022982593E+03  0.64869434488E+03  0.11411959888E+04  0.90382607155E+03 0.  0.
         23    2    4    4    0    0  0.13424014415E+03  0.41610108852E+02 -0.19283793492E+03  0.25548337466E+03  0.91287831198E+02 0.  0.
         23    2    4    4    0    0 -0.72709039005E+01 -0.26183993478E+03  0.84153227980E+03  0.88571261416E+03  0.87733912736E+02 0.  0.
          3    1    3    3  502    0 -0.11444297157E+03  0.10159266624E+03  0.57598811304E+03  0.59597027606E+03  0.00000000000E+00 0. -1.
         -4    1    3    3    0  502 -0.12526268676E+02  0.11863715969E+03  0.46450083018E+03  0.47957554598E+03  0.00000000000E+00 0.  1.
         13    1    5    5    0    0  0.74711951765E+02  0.45232653528E+02 -0.49864474796E+02  0.10057004787E+03  0.00000000000E+00 0.  1.
        -13    1    5    5    0    0  0.59528192383E+02 -0.36225446765E+01 -0.14297346012E+03  0.15491332679E+03  0.00000000000E+00 0. -1.
          2    1    6    6  503    0 -0.23355046072E+02 -0.22822873413E+03  0.78630680653E+03  0.81909230692E+03  0.00000000000E+00 0. -1.
         -2    1    6    6    0  503  0.16084142172E+02 -0.33611200651E+02  0.55225473267E+02  0.66620307236E+02  0.00000000000E+00 0.  1.
<mgrwt>
<rscale>  0 0.14354804E+04</rscale>
<asrwt>0</asrwt>
<pdfrwt beam="1">  1        1 0.30045577E+00 0.14354804E+04</pdfrwt>
<pdfrwt beam="2">  1       -2 0.40581426E-01 0.14354804E+04</pdfrwt>
<totfact> 0.15749791E+01</totfact>
</mgrwt>
</event>
<event>
12    5  0.5246737E-008  0.1745836E+04  0.7818608E-02  0.8735646E-01
          1   -1    0    0  501    0  0.00000000000E+00  0.00000000000E+00  0.59673018715E+03  0.59673018715E+03  0.00000000000E+00 0. -1.
         -2   -1    0    0    0  501 -0.00000000000E+00 -0.00000000000E+00 -0.12769346404E+04  0.12769346404E+04  0.00000000000E+00 0.  1.
        -24    2    1    2    0    0 -0.22460953045E+03  0.80857862255E+01  0.38803300504E+03  0.45540287003E+03  0.79418763082E+02 0.  0.
        254    2    1    2    0    0  0.22460953045E+03 -0.80857862255E+01 -0.10682374583E+04  0.14182619576E+04  0.90543961243E+03 0.  0.
         23    2    4    4    0    0 -0.25571243868E+03 -0.91690210289E+02 -0.80966471928E+03  0.85884175110E+03  0.90863908269E+02 0.  0.
         23    2    4    4    0    0  0.48032196912E+03  0.83604424063E+02 -0.25857273904E+03  0.55942020645E+03  0.91609018446E+02 0.  0.
          1    1    3    3  502    0 -0.19043048824E+03  0.24725800108E+02  0.36053418194E+03  0.40848504549E+03  0.00000000000E+00 0. -1.
         -2    1    3    3    0  502 -0.34179042203E+02 -0.16640013883E+02  0.27498823099E+02  0.46917824542E+02  0.00000000000E+00 0.  1.
         13    1    5    5    0    0 -0.14185775368E+03 -0.60549016524E+02 -0.32113954403E+03  0.35625891206E+03  0.00000000000E+00 0. -1.
        -13    1    5    5    0    0 -0.11385468500E+03 -0.31141193765E+02 -0.48852517526E+03  0.50258283905E+03  0.00000000000E+00 0.  1.
          1    1    6    6  503    0 -0.37122219271E+01 -0.24531202470E+01 -0.24412363370E+01  0.50752364906E+01  0.00000000000E+00 0. -1.
         -1    1    6    6    0  503  0.48403419105E+03  0.86057544310E+02 -0.25613150270E+03  0.55434496996E+03  0.00000000000E+00 0.  1.
<mgrwt>
<rscale>  0 0.17458356E+04</rscale>
<asrwt>0</asrwt>
<pdfrwt beam="1">  1        1 0.91804646E-01 0.17458356E+04</pdfrwt>
<pdfrwt beam="2">  1       -2 0.19645148E+00 0.17458356E+04</pdfrwt>
<totfact> 0.40173871E+00</totfact>
</mgrwt>
</event>
<event>
12    5  0.5246737E-008  0.1171561E+04  0.7818608E-02  0.9138120E-01
          1   -1    0    0  501    0  0.00000000000E+00  0.00000000000E+00  0.86226651861E+03  0.86226651861E+03  0.00000000000E+00 0. -1.
         -2   -1    0    0    0  501 -0.00000000000E+00 -0.00000000000E+00 -0.39794979787E+03  0.39794979787E+03  0.00000000000E+00 0.  1.
        -24    2    1    2    0    0  0.50271082125E+00  0.71386575107E+02 -0.13420669063E+03  0.17253767246E+03  0.81618115551E+02 0.  0.
        254    2    1    2    0    0 -0.50271082125E+00 -0.71386575107E+02  0.59852341136E+03  0.10876786440E+04  0.90538293714E+03 0.  0.
         23    2    4    4    0    0 -0.33609969025E+02 -0.46336883429E+03  0.18033096360E+03  0.50655530949E+03  0.90767386943E+02 0.  0.
         23    2    4    4    0    0  0.33107258204E+02  0.39198225919E+03  0.41819244776E+03  0.58112333452E+03  0.89851124034E+02 0.  0.
          1    1    3    3  502    0  0.25224893385E+01  0.46586613036E+02 -0.12481738741E+02  0.48295644407E+02  0.00000000000E+00 0. -1.
         -2    1    3    3    0  502 -0.20197785173E+01  0.24799962071E+02 -0.12172495189E+03  0.12424202806E+03  0.00000000000E+00 0.  1.
         13    1    5    5    0    0 -0.46834644247E+02 -0.11041059251E+03  0.38874396146E+02  0.12607617347E+03  0.00000000000E+00 0. -1.
        -13    1    5    5    0    0  0.13224675222E+02 -0.35295824178E+03  0.14145656745E+03  0.38047913603E+03  0.00000000000E+00 0.  1.
          3    1    6    6  503    0  0.89532263638E+01  0.10925770736E+02  0.45188787395E+02  0.47345107823E+02  0.00000000000E+00 0. -1.
         -3    1    6    6    0  503  0.24154031840E+02  0.38105648845E+03  0.37300366037E+03  0.53377822669E+03  0.00000000000E+00 0.  1.
<mgrwt>
<rscale>  0 0.11715610E+04</rscale>
<asrwt>0</asrwt>
<pdfrwt beam="1">  1        1 0.13265639E+00 0.11715610E+04</pdfrwt>
<pdfrwt beam="2">  1       -2 0.61223046E-01 0.11715610E+04</pdfrwt>
<totfact> 0.42180651E+01</totfact>
</mgrwt>
</event>
<event>
12    5  0.5246737E-008  0.2186880E+04  0.7818608E-02  0.8523909E-01
         -2   -1    0    0    0  501 -0.00000000000E+00  0.00000000000E+00  0.64203761131E+03  0.64203761131E+03  0.00000000000E+00 0.  1.
          1   -1    0    0  501    0  0.00000000000E+00 -0.00000000000E+00 -0.18622135158E+04  0.18622135158E+04  0.00000000000E+00 0. -1.
        -24    2    1    2    0    0  0.63184937799E+03 -0.40461976976E+03  0.76556170378E+02  0.75844607087E+03  0.80179802034E+02 0.  0.
        254    2    1    2    0    0 -0.63184937799E+03  0.40461976976E+03 -0.12967320748E+04  0.17458050562E+04  0.89630933601E+03 0.  0.
         23    2    4    4    0    0 -0.56942498259E+03  0.64829154909E+03 -0.79465720422E+03  0.11773256969E+04  0.10044391955E+03 0.  0.
         23    2    4    4    0    0 -0.62424395394E+02 -0.24367177933E+03 -0.50207487061E+03  0.56847935928E+03  0.88413036674E+02 0.  0.
          3    1    3    3  502    0  0.49547394473E+02 -0.30545612877E+02 -0.15532349944E+02  0.60243112966E+02  0.00000000000E+00 0. -1.
         -4    1    3    3    0  502  0.58230198352E+03 -0.37407415688E+03  0.92088520323E+02  0.69820295791E+03  0.00000000000E+00 0.  1.
         13    1    5    5    0    0 -0.11125907328E+03  0.11354523492E+03 -0.97882062431E+02  0.18668690341E+03  0.00000000000E+00 0.  1.
        -13    1    5    5    0    0 -0.45816590931E+03  0.53474631417E+03 -0.69677514179E+03  0.99063879350E+03  0.00000000000E+00 0. -1.
          4    1    6    6  503    0 -0.16091875176E+01 -0.14255235258E+03 -0.21360631397E+03  0.25681008563E+03  0.00000000000E+00 0. -1.
         -4    1    6    6    0  503 -0.60815207876E+02 -0.10111942675E+03 -0.28846855663E+03  0.31166927366E+03  0.00000000000E+00 0.  1.
<mgrwt>
<rscale>  0 0.21868801E+04</rscale>
<asrwt>0</asrwt>
<pdfrwt beam="1">  1        1 0.28649439E+00 0.21868801E+04</pdfrwt>
<pdfrwt beam="2">  1       -2 0.98775017E-01 0.21868801E+04</pdfrwt>
<totfact> 0.25198885E+00</totfact>
</mgrwt>
</event>
<event>
12    5  0.5246737E-008  0.2011925E+04  0.7818608E-02  0.8601065E-01
         -2   -1    0    0    0  501 -0.00000000000E+00  0.00000000000E+00  0.16636094687E+04  0.16636094687E+04  0.00000000000E+00 0.  1.
          1   -1    0    0  501    0  0.00000000000E+00 -0.00000000000E+00 -0.60829228691E+03  0.60829228691E+03  0.00000000000E+00 0. -1.
        -24    2    1    2    0    0 -0.19804311135E+03 -0.77258647565E+03  0.51314902005E+03  0.95171661174E+03  0.79571703335E+02 0.  0.
        254    2    1    2    0    0  0.19804311135E+03  0.77258647565E+03  0.54216816174E+03  0.13201851439E+04  0.90157171770E+03 0.  0.
         23    2    4    4    0    0  0.44699839071E+03  0.80042257859E+03  0.32599122744E+03  0.97707690004E+03  0.89023157655E+02 0.  0.
         23    2    4    4    0    0 -0.24895527936E+03 -0.27836102939E+02  0.21617693430E+03  0.34310824382E+03  0.90759133476E+02 0.  0.
          3    1    3    3  502    0  0.41275174382E+01 -0.42300954083E+02  0.15894152924E+02  0.45376549160E+02  0.00000000000E+00 0. -1.
         -4    1    3    3    0  502 -0.20217062879E+03 -0.73028552157E+03  0.49725486713E+03  0.90634006258E+03  0.00000000000E+00 0.  1.
         13    1    5    5    0    0  0.52412573056E+02  0.10801013849E+03  0.74907654657E+02  0.14150768374E+03  0.00000000000E+00 0.  1.
        -13    1    5    5    0    0  0.39458581765E+03  0.69241244011E+03  0.25108357279E+03  0.83556921630E+03  0.00000000000E+00 0. -1.
          3    1    6    6  503    0 -0.23848631442E+03 -0.35500023799E+02  0.22301843921E+03  0.32844055487E+03  0.00000000000E+00 0. -1.
         -3    1    6    6    0  503 -0.10468964940E+02  0.76639208603E+01 -0.68415049098E+01  0.14667688955E+02  0.00000000000E+00 0.  1.
<mgrwt>
<rscale>  0 0.20119253E+04</rscale>
<asrwt>0</asrwt>
<pdfrwt beam="1">  1        1 0.93583429E-01 0.20119253E+04</pdfrwt>
<pdfrwt beam="2">  1       -2 0.25593992E+00 0.20119253E+04</pdfrwt>
<totfact> 0.16096064E+00</totfact>
</mgrwt>
</event>
<event>
12    5  0.5246737E-008  0.1530244E+04  0.7818608E-02  0.8864586E-01
         -2   -1    0    0    0  501 -0.00000000000E+00  0.00000000000E+00  0.46869355442E+03  0.46869355442E+03  0.00000000000E+00 0.  1.
          1   -1    0    0  501    0  0.00000000000E+00 -0.00000000000E+00 -0.12490293270E+04  0.12490293270E+04  0.00000000000E+00 0. -1.
        -24    2    1    2    0    0 -0.18744485776E+02  0.21312781435E+03 -0.75540987497E+03  0.78921477040E+03  0.80256174965E+02 0.  0.
        254    2    1    2    0    0  0.18744485776E+02 -0.21312781435E+03 -0.24925897588E+02  0.92850811100E+03  0.90317838262E+03 0.  0.
         23    2    4    4    0    0 -0.34419015777E+03 -0.14578433790E+03 -0.27567288372E+03  0.47337613430E+03  0.91484904862E+02 0.  0.
         23    2    4    4    0    0  0.36293464355E+03 -0.67343476449E+02  0.25074698613E+03  0.45513197671E+03  0.89522990675E+02 0.  0.
          3    1    3    3  502    0 -0.89605501017E+01  0.21486588123E+03 -0.74192623130E+03  0.77246499666E+03  0.00000000000E+00 0. -1.
         -4    1    3    3    0  502 -0.97839356744E+01 -0.17380668791E+01 -0.13483643674E+02  0.16749773744E+02  0.00000000000E+00 0.  1.
         13    1    5    5    0    0 -0.17044447651E+03 -0.23386204115E+02 -0.11481301696E+03  0.20683390191E+03  0.00000000000E+00 0. -1.
        -13    1    5    5    0    0 -0.17374568126E+03 -0.12239813378E+03 -0.16085986676E+03  0.26654223239E+03  0.00000000000E+00 0.  1.
          1    1    6    6  503    0  0.34624317128E+03 -0.83954001358E+02  0.23457337171E+03  0.42656450241E+03  0.00000000000E+00 0. -1.
         -1    1    6    6    0  503  0.16691472272E+02  0.16610524909E+02  0.16173614422E+02  0.28567474299E+02  0.00000000000E+00 0.  1.
<mgrwt>
<rscale>  0 0.15302444E+04</rscale>
<asrwt>0</asrwt>
<pdfrwt beam="1">  1        1 0.19215836E+00 0.15302444E+04</pdfrwt>
<pdfrwt beam="2">  1       -2 0.72106701E-01 0.15302444E+04</pdfrwt>
<totfact> 0.14511663E+01</totfact>
</mgrwt>
</event>
<event>
12    5  0.5246737E-008  0.1890619E+04  0.7818608E-02  0.8659540E-01
         -2   -1    0    0    0  501 -0.00000000000E+00  0.00000000000E+00  0.24859452745E+03  0.24859452745E+03  0.00000000000E+00 0.  1.
          1   -1    0    0  501    0  0.00000000000E+00 -0.00000000000E+00 -0.35946497007E+04  0.35946497007E+04  0.00000000000E+00 0. -1.
        -24    2    1    2    0    0 -0.48625477375E+03  0.48687581821E+03 -0.80947066862E+03  0.10654149772E+04  0.79840735420E+02 0.  0.
        254    2    1    2    0    0  0.48625477375E+03 -0.48687581821E+03 -0.25365845046E+04  0.27778292509E+04  0.89921222784E+03 0.  0.
         23    2    4    4    0    0  0.36413248320E+03 -0.65068675890E+03 -0.11535418163E+04  0.13767064402E+04  0.93145998313E+02 0.  0.
         23    2    4    4    0    0  0.12212229055E+03  0.16381094069E+03 -0.13830426883E+04  0.14011228107E+04  0.92683195964E+02 0.  0.
          1    1    3    3  502    0 -0.15514379497E+03  0.15008505010E+03 -0.19914829286E+03  0.29369229123E+03  0.00000000000E+00 0. -1.
         -2    1    3    3    0  502 -0.33111097878E+03  0.33679076811E+03 -0.61032237577E+03  0.77172268602E+03  0.00000000000E+00 0.  1.
         13    1    5    5    0    0  0.44428216874E+02 -0.12368682247E+03 -0.15475391238E+03  0.20302972665E+03  0.00000000000E+00 0. -1.
        -13    1    5    5    0    0  0.31970426633E+03 -0.52699993643E+03 -0.99878790396E+03  0.11736767136E+04  0.00000000000E+00 0.  1.
          2    1    6    6  503    0  0.33393970780E+02  0.10126552167E+02 -0.45022580221E+03  0.45157610358E+03  0.00000000000E+00 0. -1.
         -2    1    6    6    0  503  0.88728319766E+02  0.15368438852E+03 -0.93281688607E+03  0.94954670709E+03  0.00000000000E+00 0.  1.
<mgrwt>
<rscale>  0 0.18906192E+04</rscale>
<asrwt>0</asrwt>
<pdfrwt beam="1">  1        1 0.55302301E+00 0.18906192E+04</pdfrwt>
<pdfrwt beam="2">  1       -2 0.38245313E-01 0.18906192E+04</pdfrwt>
<totfact> 0.11226066E+00</totfact>
</mgrwt>
</event>
<event>
12    5  0.5246737E-008  0.1605480E+04  0.7818608E-02  0.8817188E-01
         -2   -1    0    0    0  501 -0.00000000000E+00  0.00000000000E+00  0.41252913011E+03  0.41252913011E+03  0.00000000000E+00 0.  1.
          1   -1    0    0  501    0  0.00000000000E+00 -0.00000000000E+00 -0.15620511609E+04  0.15620511609E+04  0.00000000000E+00 0. -1.
        -24    2    1    2    0    0  0.52959034630E+03 -0.14251061038E+03 -0.37046867634E+03  0.66658598107E+03  0.79464589818E+02 0.  0.
        254    2    1    2    0    0 -0.52959034630E+03  0.14251061038E+03 -0.77905335448E+03  0.13079943100E+04  0.89618624002E+03 0.  0.
         23    2    4    4    0    0 -0.14433172245E+03  0.34075854239E+03  0.33402904255E+02  0.38256253280E+03  0.91051123961E+02 0.  0.
         23    2    4    4    0    0 -0.38525862385E+03 -0.19824793201E+03 -0.81245625873E+03  0.92543177716E+03  0.92802758729E+02 0.  0.
          3    1    3    3  502    0  0.79661838072E+02  0.42192322308E+01 -0.68982768686E+02  0.10546294487E+03  0.00000000000E+00 0. -1.
         -4    1    3    3    0  502  0.44992850823E+03 -0.14672984261E+03 -0.30148590766E+03  0.56112303620E+03  0.00000000000E+00 0.  1.
         13    1    5    5    0    0 -0.11369916921E+02  0.10233111671E+03 -0.18684470281E+02  0.10464244783E+03  0.00000000000E+00 0. -1.
        -13    1    5    5    0    0 -0.13296180553E+03  0.23842742568E+03  0.52087374536E+02  0.27792008498E+03  0.00000000000E+00 0.  1.
          4    1    6    6  503    0 -0.47044204070E+02 -0.63236352631E+02 -0.13649687225E+03  0.15761785928E+03  0.00000000000E+00 0. -1.
         -4    1    6    6    0  503 -0.33821441978E+03 -0.13501157938E+03 -0.67595938648E+03  0.76781391788E+03  0.00000000000E+00 0.  1.
<mgrwt>
<rscale>  0 0.16054801E+04</rscale>
<asrwt>0</asrwt>
<pdfrwt beam="1">  1        1 0.24031556E+00 0.16054801E+04</pdfrwt>
<pdfrwt beam="2">  1       -2 0.63466021E-01 0.16054801E+04</pdfrwt>
<totfact> 0.11461955E+01</totfact>
</mgrwt>
</event>
<event>
12    5  0.5246737E-008  0.3056005E+04  0.7818608E-02  0.8227917E-01
          1   -1    0    0  501    0  0.00000000000E+00  0.00000000000E+00  0.23968187745E+04  0.23968187745E+04  0.00000000000E+00 0. -1.
         -2   -1    0    0    0  501 -0.00000000000E+00 -0.00000000000E+00 -0.97412085200E+03  0.97412085200E+03  0.00000000000E+00 0.  1.
        -24    2    1    2    0    0 -0.11942650860E+04 -0.69978867446E+03  0.84737463667E+03  0.16248961737E+04  0.79186590240E+02 0.  0.
        254    2    1    2    0    0  0.11942650860E+04  0.69978867446E+03  0.57532328586E+03  0.17460434528E+04  0.89537565936E+03 0.  0.
         23    2    4    4    0    0  0.78349760926E+03  0.34202101157E+03 -0.10848987643E+03  0.86702559345E+03  0.95480104411E+02 0.  0.
         23    2    4    4    0    0  0.41076747670E+03  0.35776766289E+03  0.68381316228E+03  0.87901785935E+03  0.91347335046E+02 0.  0.
          1    1    3    3  502    0 -0.11214681948E+04 -0.66928193844E+03  0.78054030936E+03  0.15214704728E+04  0.00000000000E+00 0. -1.
         -4    1    3    3    0  502 -0.72796891162E+02 -0.30506736025E+02  0.66834327307E+02  0.10342570093E+03  0.00000000000E+00 0.  1.
         13    1    5    5    0    0  0.12547392141E+03  0.71838378710E+02  0.13864396938E+02  0.14524695904E+03  0.00000000000E+00 0.  1.
        -13    1    5    5    0    0  0.65802368785E+03  0.27018263286E+03 -0.12235427336E+03  0.72177863441E+03  0.00000000000E+00 0. -1.
          3    1    6    6  503    0  0.26258220890E+03  0.27387850362E+03  0.43109117832E+03  0.57428081563E+03  0.00000000000E+00 0. -1.
         -3    1    6    6    0  503  0.14818526779E+03  0.83889159266E+02  0.25272198397E+03  0.30473704372E+03  0.00000000000E+00 0.  1.
<mgrwt>
<rscale>  0 0.30560047E+04</rscale>
<asrwt>0</asrwt>
<pdfrwt beam="1">  1        1 0.36874135E+00 0.30560047E+04</pdfrwt>
<pdfrwt beam="2">  1       -2 0.14986475E+00 0.30560047E+04</pdfrwt>
<totfact> 0.35723437E-01</totfact>
</mgrwt>
</event>
<event>
12    5  0.5246737E-008  0.1844757E+04  0.7818608E-02  0.8682854E-01
          3   -1    0    0  501    0  0.00000000000E+00  0.00000000000E+00  0.32127076690E+03  0.32127076690E+03  0.00000000000E+00 0. -1.
         -4   -1    0    0    0  501 -0.00000000000E+00 -0.00000000000E+00 -0.26481764374E+04  0.26481764374E+04  0.00000000000E+00 0.  1.
        -24    2    1    2    0    0  0.57183659805E+03 -0.18433448788E+03 -0.14914127345E+04  0.16098657113E+04  0.79870928818E+02 0.  0.
        254    2    1    2    0    0 -0.57183659805E+03  0.18433448788E+03 -0.83549293596E+03  0.13595814930E+04  0.88850272473E+03 0.  0.
         23    2    4    4    0    0 -0.29025719453E+03 -0.21762487564E+03  0.13189396343E+02  0.37544312830E+03  0.95779731349E+02 0.  0.
         23    2    4    4    0    0 -0.28157940352E+03  0.40195936353E+03 -0.84868233230E+03  0.98413836472E+03  0.86071652422E+02 0.  0.
          1    1    3    3  502    0  0.53153148781E+03 -0.18491842327E+03 -0.14259403006E+04  0.15329795455E+04  0.00000000000E+00 0. -1.
         -2    1    3    3    0  502  0.40305110240E+02  0.58393538742E+00 -0.65472433887E+02  0.76886165798E+02  0.00000000000E+00 0.  1.
         13    1    5    5    0    0 -0.85333414409E+01  0.91582097765E+01  0.55716560451E+01  0.13701608429E+02  0.00000000000E+00 0. -1.
        -13    1    5    5    0    0 -0.28172385309E+03 -0.22678308542E+03  0.76177402977E+01  0.36174151987E+03  0.00000000000E+00 0.  1.
          2    1    6    6  503    0 -0.17344819881E+03  0.23738746666E+03 -0.42323951322E+03  0.51533365168E+03  0.00000000000E+00 0. -1.
         -2    1    6    6    0  503 -0.10813120470E+03  0.16457189686E+03 -0.42544281908E+03  0.46880471305E+03  0.00000000000E+00 0.  1.
<mgrwt>
<rscale>  0 0.18447565E+04</rscale>
<asrwt>0</asrwt>
<pdfrwt beam="1">  1        3 0.49426274E-01 0.18447565E+04</pdfrwt>
<pdfrwt beam="2">  1       -4 0.40741174E+00 0.18447565E+04</pdfrwt>
<totfact> 0.53172988E-02</totfact>
</mgrwt>
</event>
<event>
12    5  0.5246737E-008  0.1400662E+04  0.7818608E-02  0.8953339E-01
         -2   -1    0    0    0  501 -0.00000000000E+00  0.00000000000E+00  0.70955058748E+03  0.70955058748E+03  0.00000000000E+00 0.  1.
          1   -1    0    0  501    0  0.00000000000E+00 -0.00000000000E+00 -0.69123150067E+03  0.69123150067E+03  0.00000000000E+00 0. -1.
        -24    2    1    2    0    0  0.14909098437E+03  0.36433596172E+03  0.94698295634E+02  0.41280791891E+03  0.80459903639E+02 0.  0.
        254    2    1    2    0    0 -0.14909098437E+03 -0.36433596172E+03 -0.76379208825E+02  0.98797416923E+03  0.90293430597E+03 0.  0.
         23    2    4    4    0    0  0.15617568242E+03  0.23171919614E+03 -0.10162390318E+03  0.31164391404E+03  0.93326747628E+02 0.  0.
         23    2    4    4    0    0 -0.30526666679E+03 -0.59605515786E+03  0.25244694354E+02  0.67633025519E+03  0.91191175171E+02 0.  0.
          1    1    3    3  502    0 -0.23608228357E+01  0.40192683656E+02 -0.69751203116E+01  0.40861688748E+02  0.00000000000E+00 0. -1.
         -2    1    3    3    0  502  0.15145180721E+03  0.32414327807E+03  0.10167341595E+03  0.37194623016E+03  0.00000000000E+00 0.  1.
         13    1    5    5    0    0  0.70180023763E+01  0.24834145519E+01  0.13098571271E+02  0.15066262793E+02  0.00000000000E+00 0.  1.
        -13    1    5    5    0    0  0.14915768004E+03  0.22923578159E+03 -0.11472247445E+03  0.29657765125E+03  0.00000000000E+00 0. -1.
          3    1    6    6  503    0 -0.62426210673E+02 -0.20750493553E+03 -0.88147563852E+01  0.21687099848E+03  0.00000000000E+00 0.  1.
         -3    1    6    6    0  503 -0.24284045611E+03 -0.38855022233E+03  0.34059450739E+02  0.45945925672E+03  0.00000000000E+00 0. -1.
<mgrwt>
<rscale>  0 0.14006623E+04</rscale>
<asrwt>0</asrwt>
<pdfrwt beam="1">  1        1 0.10634331E+00 0.14006623E+04</pdfrwt>
<pdfrwt beam="2">  1       -2 0.10916163E+00 0.14006623E+04</pdfrwt>
<totfact> 0.15867135E+01</totfact>
</mgrwt>
</event>
<event>
12    5  0.5246737E-008  0.1784486E+04  0.7818608E-02  0.8714593E-01
          1   -1    0    0  501    0  0.00000000000E+00  0.00000000000E+00  0.16582998308E+04  0.16582998308E+04  0.00000000000E+00 0. -1.
         -2   -1    0    0    0  501 -0.00000000000E+00 -0.00000000000E+00 -0.48006854341E+03  0.48006854341E+03  0.00000000000E+00 0.  1.
        -24    2    1    2    0    0  0.93186544586E+00  0.48357568016E+03  0.79713183269E+03  0.93558116930E+03  0.77760265204E+02 0.  0.
        254    2    1    2    0    0 -0.93186544586E+00 -0.48357568016E+03  0.38109945474E+03  0.12027872050E+04  0.10332540632E+04 0.  0.
         23    2    4    4    0    0  0.42315232965E+03  0.48375930198E+02  0.25533709395E+03  0.50504349807E+03  0.92053129713E+02 0.  0.
         23    2    4    4    0    0 -0.42408419510E+03 -0.53195161036E+03  0.12576236079E+03  0.69774370688E+03  0.90610092170E+02 0.  0.
          3    1    3    3  502    0  0.13398394651E+02  0.29901159049E+03  0.55848567417E+03  0.63363530243E+03  0.00000000000E+00 0. -1.
         -4    1    3    3    0  502 -0.12466529205E+02  0.18456408967E+03  0.23864615852E+03  0.30194586687E+03  0.00000000000E+00 0.  1.
         13    1    5    5    0    0  0.94777732559E+02  0.15921345607E+01  0.16270231736E+02  0.96177304611E+02  0.00000000000E+00 0. -1.
        -13    1    5    5    0    0  0.32837459709E+03  0.46783795637E+02  0.23906686221E+03  0.40886619346E+03  0.00000000000E+00 0.  1.
          3    1    6    6  503    0 -0.15949508004E+03 -0.13578017089E+03  0.50083629544E+02  0.21536783723E+03  0.00000000000E+00 0. -1.
         -3    1    6    6    0  503 -0.26458911505E+03 -0.39617143947E+03  0.75678731250E+02  0.48237586965E+03  0.00000000000E+00 0.  1.
<mgrwt>
<rscale>  0 0.17844860E+04</rscale>
<asrwt>0</asrwt>
<pdfrwt beam="1">  1        1 0.25512305E+00 0.17844860E+04</pdfrwt>
<pdfrwt beam="2">  1       -2 0.73856700E-01 0.17844860E+04</pdfrwt>
<totfact> 0.69730202E+00</totfact>
</mgrwt>
</event>
<event>
12    5  0.5246737E-008  0.2082503E+04  0.7818608E-02  0.8568990E-01
          1   -1    0    0  501    0  0.00000000000E+00  0.00000000000E+00  0.58139795065E+03  0.58139795065E+03  0.00000000000E+00 0. -1.
         -2   -1    0    0    0  501 -0.00000000000E+00 -0.00000000000E+00 -0.18648237628E+04  0.18648237628E+04  0.00000000000E+00 0.  1.
        -24    2    1    2    0    0 -0.18865108650E+03  0.95171544760E+02 -0.14869734628E+04  0.15040671412E+04  0.80504849554E+02 0.  0.
        254    2    1    2    0    0  0.18865108650E+03 -0.95171544760E+02  0.20354765066E+03  0.94215457225E+03  0.89530817965E+03 0.  0.
         23    2    4    4    0    0  0.49734883233E+03 -0.18920605663E+02  0.31156989105E+03  0.59392638845E+03  0.89212709585E+02 0.  0.
         23    2    4    4    0    0 -0.30869774583E+03 -0.76250939097E+02 -0.10802224039E+03  0.34822818379E+03  0.92117097090E+02 0.  0.
          3    1    3    3  502    0 -0.11593266645E+03  0.80345945228E+02 -0.73286149400E+03  0.74631214880E+03  0.00000000000E+00 0. -1.
         -4    1    3    3    0  502 -0.72718420051E+02  0.14825599532E+02 -0.75411196878E+03  0.75775499238E+03  0.00000000000E+00 0.  1.
         13    1    5    5    0    0  0.11363035827E+03  0.32302986463E+02  0.82795664485E+02  0.14425832147E+03  0.00000000000E+00 0.  1.
        -13    1    5    5    0    0  0.38371847406E+03 -0.51223592126E+02  0.22877422656E+03  0.44966806698E+03  0.00000000000E+00 0. -1.
          3    1    6    6  503    0 -0.36519007416E+02  0.20808448343E+02 -0.11676554060E+02  0.43623059726E+02  0.00000000000E+00 0. -1.
         -3    1    6    6    0  503 -0.27217873841E+03 -0.97059387440E+02 -0.96345686333E+02  0.30460512407E+03  0.00000000000E+00 0.  1.
<mgrwt>
<rscale>  0 0.20825030E+04</rscale>
<asrwt>0</asrwt>
<pdfrwt beam="1">  1        1 0.89445840E-01 0.20825030E+04</pdfrwt>
<pdfrwt beam="2">  1       -2 0.28689596E+00 0.20825030E+04</pdfrwt>
<totfact> 0.11055640E+00</totfact>
</mgrwt>
</event>
<event>
12    5  0.5246737E-008  0.3081123E+04  0.7818608E-02  0.8220938E-01
         -2   -1    0    0    0  501 -0.00000000000E+00  0.00000000000E+00  0.15214871632E+04  0.15214871632E+04  0.00000000000E+00 0.  1.
          1   -1    0    0  501    0  0.00000000000E+00 -0.00000000000E+00 -0.15598750434E+04  0.15598750434E+04  0.00000000000E+00 0. -1.
        -24    2    1    2    0    0  0.12935463945E+04  0.49093911707E+03  0.24405318450E+03  0.14071460386E+04  0.78832262882E+02 0.  0.
        254    2    1    2    0    0 -0.12935463945E+04 -0.49093911707E+03 -0.28244106473E+03  0.16742161681E+04  0.89941277021E+03 0.  0.
         23    2    4    4    0    0  0.58830057525E+02  0.20590051486E+02 -0.19293386910E+03  0.22262061631E+03  0.91932230871E+02 0.  0.
         23    2    4    4    0    0 -0.13523764520E+04 -0.51152916856E+03 -0.89507195630E+02  0.14515955518E+04  0.92379379548E+02 0.  0.
          3    1    3    3  502    0  0.32374091900E+03  0.13779006669E+03  0.30349032015E+02  0.35315060365E+03  0.00000000000E+00 0. -1.
         -4    1    3    3    0  502  0.96980547546E+03  0.35314905038E+03  0.21370415249E+03  0.10539954349E+04  0.00000000000E+00 0.  1.
         13    1    5    5    0    0 -0.18185951523E+02  0.20272747064E+02 -0.21557331674E+02  0.34733725041E+02  0.00000000000E+00 0. -1.
        -13    1    5    5    0    0  0.77016009048E+02  0.31730442178E+00 -0.17137653742E+03  0.18788689127E+03  0.00000000000E+00 0.  1.
          4    1    6    6  503    0 -0.14891358029E+03 -0.38281680581E+02  0.13401152632E+02  0.15433836968E+03  0.00000000000E+00 0. -1.
         -4    1    6    6    0  503 -0.12034628717E+04 -0.47324748798E+03 -0.10290834826E+03  0.12972571821E+04  0.00000000000E+00 0.  1.
<mgrwt>
<rscale>  0 0.30811231E+04</rscale>
<asrwt>0</asrwt>
<pdfrwt beam="1">  1        1 0.23998078E+00 0.30811231E+04</pdfrwt>
<pdfrwt beam="2">  1       -2 0.23407495E+00 0.30811231E+04</pdfrwt>
<totfact> 0.35598118E-01</totfact>
</mgrwt>
</event>
<event>
12    5  0.5246737E-008  0.1331626E+04  0.7818608E-02  0.9004855E-01
         -4   -1    0    0    0  501 -0.00000000000E+00  0.00000000000E+00  0.57026286093E+03  0.57026286093E+03  0.00000000000E+00 0.  1.
          3   -1    0    0  501    0  0.00000000000E+00 -0.00000000000E+00 -0.77737307891E+03  0.77737307891E+03  0.00000000000E+00 0. -1.
        -24    2    1    2    0    0  0.21261135247E+03 -0.26341525887E+03 -0.16534764912E+03  0.38521749810E+03  0.80383393609E+02 0.  0.
        254    2    1    2    0    0 -0.21261135247E+03  0.26341525887E+03 -0.41762568856E+02  0.96241844175E+03  0.89995219820E+03 0.  0.
         23    2    4    4    0    0  0.33343271180E+03 -0.25103962059E+01  0.18258896659E+02  0.34548491596E+03  0.88559383809E+02 0.  0.
         23    2    4    4    0    0 -0.54604406427E+03  0.26592565507E+03 -0.60021465515E+02  0.61693352579E+03  0.90132262610E+02 0.  0.
          3    1    3    3  502    0  0.21701948296E+03 -0.24484771587E+03 -0.16426738111E+03  0.36610330844E+03  0.00000000000E+00 0. -1.
         -4    1    3    3    0  502 -0.44081304923E+01 -0.18567542998E+02 -0.10802680093E+01  0.19114189661E+02  0.00000000000E+00 0.  1.
         13    1    5    5    0    0  0.35439996771E+02 -0.97538398887E+01 -0.24755405071E+02  0.44316597838E+02  0.00000000000E+00 0. -1.
        -13    1    5    5    0    0  0.29799271503E+03  0.72434436828E+01  0.43014301729E+02  0.30116831812E+03  0.00000000000E+00 0.  1.
          4    1    6    6  503    0 -0.36686582133E+03  0.22424445188E+03 -0.46368256755E+02  0.43246516657E+03  0.00000000000E+00 0. -1.
         -4    1    6    6    0  503 -0.17917824294E+03  0.41681203191E+02 -0.13653208760E+02  0.18446835921E+03  0.00000000000E+00 0.  1.
<mgrwt>
<rscale>  0 0.13316261E+04</rscale>
<asrwt>0</asrwt>
<pdfrwt beam="1">  1        3 0.11959586E+00 0.13316261E+04</pdfrwt>
<pdfrwt beam="2">  1       -4 0.87732748E-01 0.13316261E+04</pdfrwt>
<totfact> 0.14360688E+00</totfact>
</mgrwt>
</event>
<event>
12    5  0.5246737E-008  0.1515492E+04  0.7818608E-02  0.8874216E-01
         -2   -1    0    0    0  501 -0.00000000000E+00  0.00000000000E+00  0.38938969814E+03  0.38938969814E+03  0.00000000000E+00 0.  1.
          1   -1    0    0  501    0  0.00000000000E+00 -0.00000000000E+00 -0.14745617597E+04  0.14745617597E+04  0.00000000000E+00 0. -1.
        -24    2    1    2    0    0  0.27664533055E+03  0.12542039067E+03  0.11229373146E+03  0.33293138653E+03  0.77269092776E+02 0.  0.
        254    2    1    2    0    0 -0.27664533055E+03 -0.12542039067E+03 -0.11974657930E+04  0.15310200713E+04  0.90434242409E+03 0.  0.
         23    2    4    4    0    0  0.23295873565E+03 -0.25052238358E+03 -0.21679805066E+03  0.41521997825E+03  0.91515017239E+02 0.  0.
         23    2    4    4    0    0 -0.50960406620E+03  0.12510199292E+03 -0.98066774236E+03  0.11158000931E+04  0.89184156956E+02 0.  0.
          3    1    3    3  502    0  0.16363590490E+03  0.11446651725E+03  0.66073135565E+02  0.21034484112E+03  0.00000000000E+00 0. -1.
         -4    1    3    3    0  502  0.11300942566E+03  0.10953873417E+02  0.46220595895E+02  0.12258654541E+03  0.00000000000E+00 0.  1.
         13    1    5    5    0    0  0.13096919488E+03 -0.77712806609E+02 -0.11038921725E+03  0.18809037616E+03  0.00000000000E+00 0. -1.
        -13    1    5    5    0    0  0.10198954077E+03 -0.17280957698E+03 -0.10640883341E+03  0.22712960210E+03  0.00000000000E+00 0.  1.
          1    1    6    6  503    0 -0.23658174194E+03  0.34928659765E+02 -0.36595242935E+03  0.43716371355E+03  0.00000000000E+00 0. -1.
         -1    1    6    6    0  503 -0.27302232426E+03  0.90173333152E+02 -0.61471531301E+03  0.67863637951E+03  0.00000000000E+00 0.  1.
<mgrwt>
<rscale>  0 0.15154922E+04</rscale>
<asrwt>0</asrwt>
<pdfrwt beam="1">  1        1 0.22685565E+00 0.15154922E+04</pdfrwt>
<pdfrwt beam="2">  1       -2 0.59906108E-01 0.15154922E+04</pdfrwt>
<totfact> 0.15008682E+01</totfact>
</mgrwt>
</event>
<event>
12    5  0.5246737E-008  0.1975525E+04  0.7818608E-02  0.8618150E-01
          1   -1    0    0  501    0  0.00000000000E+00  0.00000000000E+00  0.12150687759E+04  0.12150687759E+04  0.00000000000E+00 0. -1.
         -2   -1    0    0    0  501 -0.00000000000E+00 -0.00000000000E+00 -0.80297888759E+03  0.80297888759E+03  0.00000000000E+00 0.  1.
        -24    2    1    2    0    0 -0.14493417086E+03 -0.33366692069E+03  0.86522676636E+03  0.94259928590E+03  0.86813182703E+02 0.  0.
        254    2    1    2    0    0  0.14493417086E+03  0.33366692069E+03 -0.45313687801E+03  0.10754483776E+04  0.90494013885E+03 0.  0.
         23    2    4    4    0    0 -0.11199822450E+03 -0.11672045978E+02  0.22440233561E+03  0.26713657379E+03  0.91245284158E+02 0.  0.
         23    2    4    4    0    0  0.25693239537E+03  0.34533896667E+03 -0.67753921362E+03  0.80831180384E+03  0.95054345260E+02 0.  0.
          1    1    3    3  502    0 -0.13522179610E+03 -0.27359729960E+03  0.78245919421E+03  0.83987070856E+03  0.00000000000E+00 0. -1.
         -2    1    3    3    0  502 -0.97123747626E+01 -0.60069621090E+02  0.82767572147E+02  0.10272857733E+03  0.00000000000E+00 0.  1.
         13    1    5    5    0    0  0.13122416109E+02 -0.88448673982E+01  0.50219697143E+02  0.52654035600E+02  0.00000000000E+00 0. -1.
        -13    1    5    5    0    0 -0.12512064061E+03 -0.28271785798E+01  0.17418263846E+03  0.21448253819E+03  0.00000000000E+00 0.  1.
          2    1    6    6  503    0  0.17883120426E+03  0.30107498973E+03 -0.55876673298E+03  0.65942930701E+03  0.00000000000E+00 0.  1.
         -2    1    6    6    0  503  0.78101191104E+02  0.44263976940E+02 -0.11877248064E+03  0.14888249683E+03  0.00000000000E+00 0. -1.
<mgrwt>
<rscale>  0 0.19755248E+04</rscale>
<asrwt>0</asrwt>
<pdfrwt beam="1">  1        1 0.18693366E+00 0.19755248E+04</pdfrwt>
<pdfrwt beam="2">  1       -2 0.12353521E+00 0.19755248E+04</pdfrwt>
<totfact> 0.41957801E+00</totfact>
</mgrwt>
</event>
<event>
12    5  0.5246737E-008  0.1849289E+04  0.7818608E-02  0.8680518E-01
         -4   -1    0    0    0  501 -0.00000000000E+00  0.00000000000E+00  0.17601040115E+04  0.17601040115E+04  0.00000000000E+00 0.  1.
          3   -1    0    0  501    0  0.00000000000E+00 -0.00000000000E+00 -0.48574846143E+03  0.48574846143E+03  0.00000000000E+00 0. -1.
        -24    2    1    2    0    0 -0.50310964104E+03 -0.22485843262E+02 -0.10545015448E+03  0.52078034913E+03  0.80420848664E+02 0.  0.
        254    2    1    2    0    0  0.50310964104E+03  0.22485843262E+02  0.13798057046E+04  0.17250721238E+04  0.90464640937E+03 0.  0.
         23    2    4    4    0    0  0.59272940015E+03  0.27761032641E+03  0.12440379235E+04  0.14087180425E+04  0.91981155872E+02 0.  0.
         23    2    4    4    0    0 -0.89619759108E+02 -0.25512448314E+03  0.13576778106E+03  0.31635408132E+03  0.92340734609E+02 0.  0.
          3    1    3    3  502    0 -0.32821206351E+03 -0.67386613315E+00 -0.10476132550E+03  0.34452655638E+03  0.00000000000E+00 0. -1.
         -4    1    3    3    0  502 -0.17489757753E+03 -0.21811977129E+02 -0.68882898010E+00  0.17625379275E+03  0.00000000000E+00 0.  1.
         13    1    5    5    0    0  0.40129139264E+03  0.17571160113E+03  0.91759396754E+03  0.10168028510E+04  0.00000000000E+00 0.  1.
        -13    1    5    5    0    0  0.19143800751E+03  0.10189872527E+03  0.32644395599E+03  0.39191519151E+03  0.00000000000E+00 0. -1.
          3    1    6    6  503    0 -0.30700564252E+02 -0.13016765712E+03  0.11552837720E+03  0.17672846275E+03  0.00000000000E+00 0. -1.
         -3    1    6    6    0  503 -0.58919194856E+02 -0.12495682602E+03  0.20239403860E+02  0.13962561857E+03  0.00000000000E+00 0.  1.
<mgrwt>
<rscale>  0 0.18492894E+04</rscale>
<asrwt>0</asrwt>
<pdfrwt beam="1">  1        3 0.74730533E-01 0.18492894E+04</pdfrwt>
<pdfrwt beam="2">  1       -4 0.27078523E+00 0.18492894E+04</pdfrwt>
<totfact> 0.17078147E-01</totfact>
</mgrwt>
</event>
<event>
12    5  0.5246737E-008  0.1362071E+04  0.7818608E-02  0.8981741E-01
         -2   -1    0    0    0  501 -0.00000000000E+00  0.00000000000E+00  0.15227433686E+04  0.15227433686E+04  0.00000000000E+00 0.  1.
          1   -1    0    0  501    0  0.00000000000E+00 -0.00000000000E+00 -0.30458777665E+03  0.30458777665E+03  0.00000000000E+00 0. -1.
        -24    2    1    2    0    0  0.89937238122E+02  0.35893402646E+03  0.42205952624E+03  0.56700839082E+03  0.80261631022E+02 0.  0.
        254    2    1    2    0    0 -0.89937238122E+02 -0.35893402646E+03  0.79609606570E+03  0.12603227544E+04  0.90427991096E+03 0.  0.
         23    2    4    4    0    0  0.30464972497E+03 -0.46019765710E+03  0.46158469938E+03  0.72514356758E+03  0.90440148097E+02 0.  0.
         23    2    4    4    0    0 -0.39458696309E+03  0.10126363064E+03  0.33451136632E+03  0.53517918684E+03  0.92551139934E+02 0.  0.
          1    1    3    3  502    0  0.33656465840E+02  0.77653920706E+02  0.54104996951E+02  0.10045018561E+03  0.00000000000E+00 0. -1.
         -2    1    3    3    0  502  0.56280772282E+02  0.28128010575E+03  0.36795452929E+03  0.46655820521E+03  0.00000000000E+00 0.  1.
         13    1    5    5    0    0  0.19764260697E+03 -0.35784832805E+03  0.30832938776E+03  0.51204007395E+03  0.00000000000E+00 0.  1.
        -13    1    5    5    0    0  0.10700711799E+03 -0.10234932905E+03  0.15325531162E+03  0.21310349363E+03  0.00000000000E+00 0. -1.
          1    1    6    6  503    0 -0.32000957767E+02  0.16705724293E+02  0.69051434923E+02  0.77918182647E+02  0.00000000000E+00 0. -1.
         -1    1    6    6    0  503 -0.36258600532E+03  0.84557906351E+02  0.26545993140E+03  0.45726100420E+03  0.00000000000E+00 0.  1.
<mgrwt>
<rscale>  0 0.13620705E+04</rscale>
<asrwt>0</asrwt>
<pdfrwt beam="1">  1        1 0.46859659E-01 0.13620705E+04</pdfrwt>
<pdfrwt beam="2">  1       -2 0.23426821E+00 0.13620705E+04</pdfrwt>
<totfact> 0.59031083E+00</totfact>
</mgrwt>
</event>
<event>
12    5  0.5246737E-008  0.1688334E+04  0.7818608E-02  0.8768046E-01
         -2   -1    0    0    0  501 -0.00000000000E+00  0.00000000000E+00  0.52885533537E+03  0.52885533537E+03  0.00000000000E+00 0.  1.
          1   -1    0    0  501    0  0.00000000000E+00 -0.00000000000E+00 -0.13474720538E+04  0.13474720538E+04  0.00000000000E+00 0. -1.
        -24    2    1    2    0    0  0.55839925414E+03  0.11582684975E+03 -0.50463264734E+03  0.76579510970E+03  0.81008981725E+02 0.  0.
        254    2    1    2    0    0 -0.55839925414E+03 -0.11582684975E+03 -0.31398407108E+03  0.11105322795E+04  0.89970570782E+03 0.  0.
         23    2    4    4    0    0  0.20966953617E+02 -0.75720434110E+02  0.26229762386E+03  0.28734237852E+03  0.87134388887E+02 0.  0.
         23    2    4    4    0    0 -0.57936620776E+03 -0.40106415640E+02 -0.57628169493E+03  0.82318990094E+03  0.90924660181E+02 0.  0.
          3    1    3    3  502    0  0.84581274711E+02  0.40268101862E+02 -0.11050949837E+03  0.14487187888E+03  0.00000000000E+00 0. -1.
         -4    1    3    3    0  502  0.47381797943E+03  0.75558747887E+02 -0.39412314898E+03  0.62092323082E+03  0.00000000000E+00 0.  1.
         13    1    5    5    0    0  0.45572652583E+02 -0.14681013009E+02  0.76652724042E+02  0.90377203483E+02  0.00000000000E+00 0. -1.
        -13    1    5    5    0    0 -0.24605698965E+02 -0.61039421101E+02  0.18564489981E+03  0.19696517504E+03  0.00000000000E+00 0.  1.
          4    1    6    6  503    0 -0.17967685193E+03  0.17400208006E+02 -0.13782710706E+03  0.22711858092E+03  0.00000000000E+00 0. -1.
         -4    1    6    6    0  503 -0.39968935583E+03 -0.57506623645E+02 -0.43845458787E+03  0.59607132002E+03  0.00000000000E+00 0.  1.
<mgrwt>
<rscale>  0 0.16883338E+04</rscale>
<asrwt>0</asrwt>
<pdfrwt beam="1">  1        1 0.20730339E+00 0.16883338E+04</pdfrwt>
<pdfrwt beam="2">  1       -2 0.81362360E-01 0.16883338E+04</pdfrwt>
<totfact> 0.93051566E+00</totfact>
</mgrwt>
</event>
<event>
12    5  0.5246737E-008  0.2025285E+04  0.7818608E-02  0.8594889E-01
          1   -1    0    0  501    0  0.00000000000E+00  0.00000000000E+00  0.30480406689E+04  0.30480406689E+04  0.00000000000E+00 0. -1.
         -2   -1    0    0    0  501 -0.00000000000E+00 -0.00000000000E+00 -0.33642764777E+03  0.33642764777E+03  0.00000000000E+00 0.  1.
        -24    2    1    2    0    0 -0.32850013676E+02  0.52847026116E+03  0.19199313090E+04  0.19944962983E+04  0.10732805946E+03 0.  0.
        254    2    1    2    0    0  0.32850013676E+02 -0.52847026116E+03  0.79168171213E+03  0.13899720184E+04  0.10123746037E+04 0.  0.
         23    2    4    4    0    0  0.10697476126E+03  0.17286865099E+03  0.61923293792E+03  0.65798354121E+03  0.90364478896E+02 0.  0.
         23    2    4    4    0    0 -0.74124747585E+02 -0.70133891215E+03  0.17244877421E+03  0.73198847716E+03  0.93262012994E+02 0.  0.
          3    1    3    3  502    0 -0.19915060325E+02  0.42813509031E+03  0.16860566669E+04  0.17396790937E+04  0.00000000000E+00 0. -1.
         -4    1    3    3    0  502 -0.12934953351E+02  0.10033517085E+03  0.23387464211E+03  0.25481720458E+03  0.00000000000E+00 0.  1.
         13    1    5    5    0    0  0.69609765197E+02  0.82759058260E+02  0.19804450672E+03  0.22564620045E+03  0.00000000000E+00 0. -1.
        -13    1    5    5    0    0  0.37364996064E+02  0.90109592728E+02  0.42118843121E+03  0.43233734076E+03  0.00000000000E+00 0.  1.
          3    1    6    6  503    0 -0.53839154501E+01 -0.37044828307E+03  0.12336802959E+03  0.39048762810E+03  0.00000000000E+00 0. -1.
         -3    1    6    6    0  503 -0.68740832135E+02 -0.33089062908E+03  0.49080744621E+02  0.34150084906E+03  0.00000000000E+00 0.  1.
<mgrwt>
<rscale>  0 0.20252853E+04</rscale>
<asrwt>0</asrwt>
<pdfrwt beam="1">  1        1 0.46892931E+00 0.20252853E+04</pdfrwt>
<pdfrwt beam="2">  1       -2 0.51758102E-01 0.20252853E+04</pdfrwt>
<totfact> 0.15834640E+00</totfact>
</mgrwt>
</event>
<event>
12    5  0.5246737E-008  0.1696860E+04  0.7818608E-02  0.8763157E-01
         -2   -1    0    0    0  501 -0.00000000000E+00  0.00000000000E+00  0.85710769633E+03  0.85710769633E+03  0.00000000000E+00 0.  1.
          1   -1    0    0  501    0  0.00000000000E+00 -0.00000000000E+00 -0.83984065351E+03  0.83984065351E+03  0.00000000000E+00 0. -1.
        -24    2    1    2    0    0  0.18140915670E+03 -0.14925448715E+03 -0.55363764628E+03  0.60666698796E+03  0.79649273936E+02 0.  0.
        254    2    1    2    0    0 -0.18140915670E+03  0.14925448715E+03  0.57090468910E+03  0.10902813619E+04  0.89866295125E+03 0.  0.
         23    2    4    4    0    0 -0.21097375019E+03  0.50693697772E+03  0.34274805456E+03  0.65376878226E+03  0.91882365567E+02 0.  0.
         23    2    4    4    0    0  0.29564593489E+02 -0.35768249057E+03  0.22815663454E+03  0.43651257962E+03  0.98371505187E+02 0.  0.
          1    1    3    3  502    0  0.15400392847E+03 -0.15444102782E+03 -0.51235271493E+03  0.55684337614E+03  0.00000000000E+00 0. -1.
         -2    1    3    3    0  502  0.27405228226E+02  0.51865406711E+01 -0.41284931351E+02  0.49823611821E+02  0.00000000000E+00 0.  1.
         13    1    5    5    0    0 -0.19653919937E+03  0.37287774632E+03  0.26994115090E+03  0.50053341101E+03  0.00000000000E+00 0. -1.
        -13    1    5    5    0    0 -0.14434550821E+02  0.13405923140E+03  0.72806903658E+02  0.15323537124E+03  0.00000000000E+00 0.  1.
          1    1    6    6  503    0 -0.89186976730E+01 -0.30907841684E+03  0.20124464447E+03  0.36892874360E+03  0.00000000000E+00 0. -1.
         -1    1    6    6    0  503  0.38483291162E+02 -0.48604073728E+02  0.26911990067E+02  0.67583836018E+02  0.00000000000E+00 0.  1.
<mgrwt>
<rscale>  0 0.16968605E+04</rscale>
<asrwt>0</asrwt>
<pdfrwt beam="1">  1        1 0.12920625E+00 0.16968605E+04</pdfrwt>
<pdfrwt beam="2">  1       -2 0.13186272E+00 0.16968605E+04</pdfrwt>
<totfact> 0.71351733E+00</totfact>
</mgrwt>
</event>
<event>
12    5  0.5246737E-008  0.1897904E+04  0.7818608E-02  0.8655900E-01
          1   -1    0    0  501    0  0.00000000000E+00  0.00000000000E+00  0.19181288743E+04  0.19181288743E+04  0.00000000000E+00 0. -1.
         -2   -1    0    0    0  501 -0.00000000000E+00 -0.00000000000E+00 -0.46947331117E+03  0.46947331117E+03  0.00000000000E+00 0.  1.
        -24    2    1    2    0    0 -0.50559246126E+03  0.52797375155E+03  0.61881643103E+03  0.96150132402E+03  0.84681766474E+02 0.  0.
        254    2    1    2    0    0  0.50559246126E+03 -0.52797375155E+03  0.82983913207E+03  0.14261008614E+04  0.90041693820E+03 0.  0.
         23    2    4    4    0    0  0.68273155533E+03 -0.26568966576E+03  0.28891405682E+03  0.79293226251E+03  0.92503327304E+02 0.  0.
         23    2    4    4    0    0 -0.17713909407E+03 -0.26228408580E+03  0.54092507525E+03  0.63316859891E+03  0.90173928072E+02 0.  0.
          1    1    3    3  502    0 -0.40371655721E+03  0.37080810049E+03  0.44656029364E+03  0.70703734117E+03  0.00000000000E+00 0. -1.
         -2    1    3    3    0  502 -0.10187590405E+03  0.15716565107E+03  0.17225613739E+03  0.25446398286E+03  0.00000000000E+00 0.  1.
         13    1    5    5    0    0  0.60776974676E+03 -0.26302281805E+03  0.24561430503E+03  0.70632248635E+03  0.00000000000E+00 0. -1.
        -13    1    5    5    0    0  0.74961808570E+02 -0.26668477128E+01  0.43299751789E+02  0.86609776156E+02  0.00000000000E+00 0.  1.
          3    1    6    6  503    0 -0.14059349029E+03 -0.17355739791E+03  0.30143027959E+03  0.37516518140E+03  0.00000000000E+00 0. -1.
         -3    1    6    6    0  503 -0.36545603775E+02 -0.88726687883E+02  0.23949479566E+03  0.25800341751E+03  0.00000000000E+00 0.  1.
<mgrwt>
<rscale>  0 0.18979044E+04</rscale>
<asrwt>0</asrwt>
<pdfrwt beam="1">  1        1 0.29509674E+00 0.18979044E+04</pdfrwt>
<pdfrwt beam="2">  1       -2 0.72226664E-01 0.18979044E+04</pdfrwt>
<totfact> 0.48296305E+00</totfact>
</mgrwt>
</event>
<event>
12    5  0.5246737E-008  0.2813155E+04  0.7818608E-02  0.8299196E-01
          1   -1    0    0  501    0  0.00000000000E+00  0.00000000000E+00  0.11335020997E+04  0.11335020997E+04  0.00000000000E+00 0. -1.
         -2   -1    0    0    0  501 -0.00000000000E+00 -0.00000000000E+00 -0.17454407073E+04  0.17454407073E+04  0.00000000000E+00 0.  1.
        -24    2    1    2    0    0 -0.54346936632E+03 -0.88911056346E+03 -0.99611470561E+03  0.14440644876E+04  0.84859834315E+02 0.  0.
        254    2    1    2    0    0  0.54346936632E+03  0.88911056346E+03  0.38417609805E+03  0.14348783194E+04  0.90851965909E+03 0.  0.
         23    2    4    4    0    0  0.44656328319E+03  0.10532868327E+04  0.41859751888E+03  0.12216057886E+04  0.90911507024E+02 0.  0.
         23    2    4    4    0    0  0.96906083126E+02 -0.16417626924E+03 -0.34421420833E+02  0.21327253078E+03  0.89194741117E+02 0.  0.
          3    1    3    3  502    0 -0.79313199775E+00 -0.37070447193E+00 -0.96076679579E+01  0.96474744757E+01  0.00000000000E+00 0. -1.
         -4    1    3    3    0  502 -0.54267623432E+03 -0.88873985898E+03 -0.98650703765E+03  0.14344170131E+04  0.00000000000E+00 0.  1.
         13    1    5    5    0    0  0.42161113674E+03  0.10102652857E+04  0.41819609502E+03  0.11718702454E+04  0.00000000000E+00 0.  1.
        -13    1    5    5    0    0  0.24952146456E+02  0.43021546987E+02  0.40142385584E+00  0.49735543216E+02  0.00000000000E+00 0. -1.
          3    1    6    6  503    0 -0.69383206736E+01  0.72461548443E+01 -0.99676352606E+00  0.10081695856E+02  0.00000000000E+00 0. -1.
         -3    1    6    6    0  503  0.10384440380E+03 -0.17142242409E+03 -0.33424657307E+02  0.20319083492E+03  0.00000000000E+00 0.  1.
<mgrwt>
<rscale>  0 0.28131553E+04</rscale>
<asrwt>0</asrwt>
<pdfrwt beam="1">  1        1 0.17438494E+00 0.28131553E+04</pdfrwt>
<pdfrwt beam="2">  1       -2 0.26852934E+00 0.28131553E+04</pdfrwt>
<totfact> 0.44929036E-01</totfact>
</mgrwt>
</event>
<event>
12    5  0.5246737E-008  0.2056234E+04  0.7818608E-02  0.8580772E-01
          1   -1    0    0  501    0  0.00000000000E+00  0.00000000000E+00  0.24167490671E+04  0.24167490671E+04  0.00000000000E+00 0. -1.
         -2   -1    0    0    0  501 -0.00000000000E+00 -0.00000000000E+00 -0.43737436973E+03  0.43737436973E+03  0.00000000000E+00 0.  1.
        -24    2    1    2    0    0 -0.55303831409E+03  0.18207455116E+03 -0.27877659622E+01  0.58724419621E+03  0.76455577339E+02 0.  0.
        254    2    1    2    0    0  0.55303831409E+03 -0.18207455116E+03  0.19821624633E+04  0.22668792406E+04  0.93315108180E+03 0.  0.
         23    2    4    4    0    0  0.79955060501E+02  0.19645014531E+03  0.45147332517E+02  0.23523279765E+03  0.91163129414E+02 0.  0.
         23    2    4    4    0    0  0.47308325359E+03 -0.37852469647E+03  0.19370151308E+04  0.20316464430E+04  0.92037718091E+02 0.  0.
          1    1    3    3  502    0 -0.34135002003E+01  0.11131003390E+02  0.33086344514E-01  0.11642693623E+02  0.00000000000E+00 0. -1.
         -2    1    3    3    0  502 -0.54962481389E+03  0.17094354777E+03 -0.28208523067E+01  0.57560150258E+03  0.00000000000E+00 0.  1.
         13    1    5    5    0    0 -0.14478124436E+02  0.59080488093E+02  0.30069092650E+02  0.67854775021E+02  0.00000000000E+00 0. -1.
        -13    1    5    5    0    0  0.94433184937E+02  0.13736965722E+03  0.15078239868E+02  0.16737802263E+03  0.00000000000E+00 0.  1.
          1    1    6    6  503    0  0.27471441522E+03 -0.21132634927E+03  0.95531914115E+03  0.10162487379E+04  0.00000000000E+00 0. -1.
         -1    1    6    6    0  503  0.19836883837E+03 -0.16719834720E+03  0.98169598968E+03  0.10153977051E+04  0.00000000000E+00 0.  1.
<mgrwt>
<rscale>  0 0.20562335E+04</rscale>
<asrwt>0</asrwt>
<pdfrwt beam="1">  1        1 0.37180754E+00 0.20562335E+04</pdfrwt>
<pdfrwt beam="2">  1       -2 0.67288366E-01 0.20562335E+04</pdfrwt>
<totfact> 0.25423694E+00</totfact>
</mgrwt>
</event>
<event>
12    5  0.5246737E-008  0.1805222E+04  0.7818608E-02  0.8703528E-01
          1   -1    0    0  501    0  0.00000000000E+00  0.00000000000E+00  0.10480659051E+04  0.10480659051E+04  0.00000000000E+00 0. -1.
         -2   -1    0    0    0  501 -0.00000000000E+00 -0.00000000000E+00 -0.77734252843E+03  0.77734252843E+03  0.00000000000E+00 0.  1.
        -24    2    1    2    0    0  0.86637536444E+02  0.44052533506E+03  0.61235085360E+03  0.76341328277E+03  0.79105239157E+02 0.  0.
        254    2    1    2    0    0 -0.86637536444E+02 -0.44052533506E+03 -0.34162747689E+03  0.10619951508E+04  0.89975315159E+03 0.  0.
         23    2    4    4    0    0  0.25849116257E+03 -0.97807985322E+02 -0.46793982072E+03  0.55113018700E+03  0.91611811931E+02 0.  0.
         23    2    4    4    0    0 -0.34512869902E+03 -0.34271734974E+03  0.12631234383E+03  0.51086496380E+03  0.91973922044E+02 0.  0.
          1    1    3    3  502    0  0.66377259726E+02  0.33829877248E+03  0.40900701480E+03  0.53491937545E+03  0.00000000000E+00 0. -1.
         -2    1    3    3    0  502  0.20260276719E+02  0.10222656258E+03  0.20334383880E+03  0.22849390733E+03  0.00000000000E+00 0.  1.
         13    1    5    5    0    0  0.76024738059E+01  0.84378908610E+01 -0.56680503307E+02  0.57807223296E+02  0.00000000000E+00 0. -1.
        -13    1    5    5    0    0  0.25088868877E+03 -0.10624587618E+03 -0.41125931741E+03  0.49332296370E+03  0.00000000000E+00 0.  1.
          1    1    6    6  503    0 -0.22478654113E+02 -0.64901501239E+02  0.93563912260E+01  0.69318372821E+02  0.00000000000E+00 0. -1.
         -1    1    6    6    0  503 -0.32265004491E+03 -0.27781584850E+03  0.11695595260E+03  0.44154659098E+03  0.00000000000E+00 0.  1.
<mgrwt>
<rscale>  0 0.18052215E+04</rscale>
<asrwt>0</asrwt>
<pdfrwt beam="1">  1        1 0.16124091E+00 0.18052215E+04</pdfrwt>
<pdfrwt beam="2">  1       -2 0.11959116E+00 0.18052215E+04</pdfrwt>
<totfact> 0.61497374E+00</totfact>
</mgrwt>
</event>
<event>
12    5  0.5246737E-008  0.1505278E+04  0.7818608E-02  0.8880951E-01
         -2   -1    0    0    0  501 -0.00000000000E+00  0.00000000000E+00  0.46935000226E+03  0.46935000226E+03  0.00000000000E+00 0.  1.
          1   -1    0    0  501    0  0.00000000000E+00 -0.00000000000E+00 -0.12069151927E+04  0.12069151927E+04  0.00000000000E+00 0. -1.
        -24    2    1    2    0    0 -0.97357975429E+02  0.45035839571E+03 -0.35853251895E+03  0.58927158600E+03  0.79963585170E+02 0.  0.
        254    2    1    2    0    0  0.97357975429E+02 -0.45035839571E+03 -0.37903267150E+03  0.10869936090E+04  0.90861877589E+03 0.  0.
         23    2    4    4    0    0 -0.76800631050E+02 -0.34129175483E+03 -0.64510461973E+03  0.73978265079E+03  0.93487973397E+02 0.  0.
         23    2    4    4    0    0  0.17415860648E+03 -0.10906664088E+03  0.26607194823E+03  0.34721095818E+03  0.86801010826E+02 0.  0.
          1    1    3    3  502    0 -0.77526255772E+02  0.34492022516E+03 -0.31495119927E+03  0.47347073825E+03  0.00000000000E+00 0. -1.
         -2    1    3    3    0  502 -0.19831719657E+02  0.10543817055E+03 -0.43581319679E+02  0.11580084775E+03  0.00000000000E+00 0.  1.
         13    1    5    5    0    0  0.53725972722E+01 -0.13259284859E+03 -0.30200831988E+03  0.32987687639E+03  0.00000000000E+00 0.  1.
        -13    1    5    5    0    0 -0.82173228322E+02 -0.20869890624E+03 -0.34309629985E+03  0.40990577440E+03  0.00000000000E+00 0. -1.
          3    1    6    6  503    0  0.16311680444E+02 -0.50297668010E+02  0.46031274211E+02  0.70105666901E+02  0.00000000000E+00 0. -1.
         -3    1    6    6    0  503  0.15784692603E+03 -0.58768972870E+02  0.22004067402E+03  0.27710529128E+03  0.00000000000E+00 0.  1.
<mgrwt>
<rscale>  0 0.15052782E+04</rscale>
<asrwt>0</asrwt>
<pdfrwt beam="1">  1        1 0.18567926E+00 0.15052782E+04</pdfrwt>
<pdfrwt beam="2">  1       -2 0.72207693E-01 0.15052782E+04</pdfrwt>
<totfact> 0.15554399E+01</totfact>
</mgrwt>
</event>
<event>
12    5  0.5246737E-008  0.1685866E+04  0.7818608E-02  0.8769467E-01
         -2   -1    0    0    0  501 -0.00000000000E+00  0.00000000000E+00  0.62327720631E+03  0.62327720631E+03  0.00000000000E+00 0.  1.
          1   -1    0    0  501    0  0.00000000000E+00 -0.00000000000E+00 -0.11400004655E+04  0.11400004655E+04  0.00000000000E+00 0. -1.
        -24    2    1    2    0    0 -0.15059175091E+03  0.14848236878E+03 -0.77861678148E+03  0.81102916076E+03  0.82457976732E+02 0.  0.
        254    2    1    2    0    0  0.15059175091E+03 -0.14848236878E+03  0.26189352226E+03  0.95224851108E+03  0.89076603021E+03 0.  0.
         23    2    4    4    0    0  0.23234615548E+03  0.29503060568E+03  0.30219086994E+03  0.49071467669E+03  0.91944427735E+02 0.  0.
         23    2    4    4    0    0 -0.81754404569E+02 -0.44351297445E+03 -0.40297347683E+02  0.46153383439E+03  0.89454250215E+02 0.  0.
          1    1    3    3  502    0 -0.85993111346E+02  0.13287436443E+03 -0.49302570271E+03  0.51780764329E+03  0.00000000000E+00 0. -1.
         -2    1    3    3    0  502 -0.64598639563E+02  0.15608004343E+02 -0.28559107877E+03  0.29322151747E+03  0.00000000000E+00 0.  1.
         13    1    5    5    0    0 -0.73062414994E+00  0.43008976384E+02  0.27416623807E+02  0.51009578730E+02  0.00000000000E+00 0. -1.
        -13    1    5    5    0    0  0.23307677963E+03  0.25202162929E+03  0.27477424613E+03  0.43970509796E+03  0.00000000000E+00 0.  1.
          2    1    6    6  503    0  0.98510283122E+01 -0.69557239771E+01  0.52444364589E+01  0.13150245953E+02  0.00000000000E+00 0. -1.
         -2    1    6    6    0  503 -0.91605432881E+02 -0.43655725048E+03 -0.45541784142E+02  0.44838358844E+03  0.00000000000E+00 0.  1.
<mgrwt>
<rscale>  0 0.16858663E+04</rscale>
<asrwt>0</asrwt>
<pdfrwt beam="1">  1        1 0.17538469E+00 0.16858663E+04</pdfrwt>
<pdfrwt beam="2">  1       -2 0.95888801E-01 0.16858663E+04</pdfrwt>
<totfact> 0.90161741E+00</totfact>
</mgrwt>
</event>
<event>
12    5  0.5246737E-008  0.1200002E+04  0.7818608E-02  0.9112855E-01
         -2   -1    0    0    0  501 -0.00000000000E+00  0.00000000000E+00  0.13708890117E+03  0.13708890117E+03  0.00000000000E+00 0.  1.
          1   -1    0    0  501    0  0.00000000000E+00 -0.00000000000E+00 -0.26260399869E+04  0.26260399869E+04  0.00000000000E+00 0. -1.
        -24    2    1    2    0    0  0.55724702513E+02  0.30396003934E+02 -0.10834535097E+04  0.10882814935E+04  0.80348875598E+02 0.  0.
        254    2    1    2    0    0 -0.55724702513E+02 -0.30396003934E+02 -0.14054975760E+04  0.16748473946E+04  0.90865901164E+03 0.  0.
         23    2    4    4    0    0  0.42753068148E+02 -0.50957574765E+02  0.10760822589E+03  0.15563997697E+03  0.90662963164E+02 0.  0.
         23    2    4    4    0    0 -0.98477770661E+02  0.20561570831E+02 -0.15131058019E+04  0.15192074176E+04  0.91549770453E+02 0.  0.
          1    1    3    3  502    0  0.55526194138E+02  0.54654959277E+02 -0.85564016645E+03  0.85918008430E+03  0.00000000000E+00 0. -1.
         -2    1    3    3    0  502  0.19850837466E+00 -0.24258955343E+02 -0.22781334329E+03  0.22910140920E+03  0.00000000000E+00 0.  1.
         13    1    5    5    0    0  0.20535542444E+02 -0.58599391977E+01  0.10296088222E+03  0.10515222612E+03  0.00000000000E+00 0. -1.
        -13    1    5    5    0    0  0.22217525705E+02 -0.45097635568E+02  0.46473436684E+01  0.50487750845E+02  0.00000000000E+00 0.  1.
          4    1    6    6  503    0 -0.40631074790E+02 -0.32394930147E+02 -0.82764253358E+03  0.82927225875E+03  0.00000000000E+00 0. -1.
         -4    1    6    6    0  503 -0.57846695871E+02  0.52956500978E+02 -0.68546326830E+03  0.68993515884E+03  0.00000000000E+00 0.  1.
<mgrwt>
<rscale>  0 0.12000016E+04</rscale>
<asrwt>0</asrwt>
<pdfrwt beam="1">  1        1 0.40400613E+00 0.12000016E+04</pdfrwt>
<pdfrwt beam="2">  1       -2 0.21090601E-01 0.12000016E+04</pdfrwt>
<totfact> 0.18857812E+01</totfact>
</mgrwt>
</event>
<event>
12    5  0.5246737E-008  0.1384396E+04  0.7818608E-02  0.8965191E-01
         -2   -1    0    0    0  501 -0.00000000000E+00  0.00000000000E+00  0.18500694745E+03  0.18500694745E+03  0.00000000000E+00 0.  1.
          1   -1    0    0  501    0  0.00000000000E+00 -0.00000000000E+00 -0.25898391436E+04  0.25898391436E+04  0.00000000000E+00 0. -1.
        -24    2    1    2    0    0  0.18939335588E+03 -0.28756081903E+03 -0.10977646456E+04  0.11536021388E+04  0.84555364274E+02 0.  0.
        254    2    1    2    0    0 -0.18939335588E+03  0.28756081903E+03 -0.13070675505E+04  0.16212439522E+04  0.89523477540E+03 0.  0.
         23    2    4    4    0    0 -0.44590009885E+03  0.36383003807E+03 -0.11711168974E+04  0.13075028768E+04  0.82763463010E+02 0.  0.
         23    2    4    4    0    0  0.25650674297E+03 -0.76269219038E+02 -0.13595065316E+03  0.31374107541E+03  0.91313631746E+02 0.  0.
          3    1    3    3  502    0  0.14827798836E+03 -0.23504321615E+03 -0.97567530068E+03  0.10144821180E+04  0.00000000000E+00 0. -1.
         -4    1    3    3    0  502  0.41115367520E+02 -0.52517602880E+02 -0.12208934495E+03  0.13912002087E+03  0.00000000000E+00 0.  1.
         13    1    5    5    0    0 -0.49591356661E+02  0.79270228562E+02 -0.18373968541E+03  0.20616339099E+03  0.00000000000E+00 0. -1.
        -13    1    5    5    0    0 -0.39630874219E+03  0.28455980951E+03 -0.98737721197E+03  0.11013394858E+04  0.00000000000E+00 0.  1.
          1    1    6    6  503    0  0.10307567165E+01  0.36573805106E+01  0.86840106607E+01  0.94789731914E+01  0.00000000000E+00 0. -1.
         -1    1    6    6    0  503  0.25547598626E+03 -0.79926599549E+02 -0.14463466382E+03  0.30426210222E+03  0.00000000000E+00 0.  1.
<mgrwt>
<rscale>  0 0.13843962E+04</rscale>
<asrwt>0</asrwt>
<pdfrwt beam="1">  1        1 0.39843676E+00 0.13843962E+04</pdfrwt>
<pdfrwt beam="2">  1       -2 0.28462609E-01 0.13843962E+04</pdfrwt>
<totfact> 0.11419262E+01</totfact>
</mgrwt>
</event>
<event>
12    5  0.5246737E-008  0.1098840E+04  0.7818608E-02  0.9206323E-01
         -2   -1    0    0    0  501 -0.00000000000E+00  0.00000000000E+00  0.10615662954E+04  0.10615662954E+04  0.00000000000E+00 0.  1.
          1   -1    0    0  501    0  0.00000000000E+00 -0.00000000000E+00 -0.28435568878E+03  0.28435568878E+03  0.00000000000E+00 0. -1.
        -24    2    1    2    0    0 -0.11852463046E+03 -0.11336580881E+03 -0.19162845181E+02  0.18372447631E+03  0.80545477393E+02 0.  0.
        254    2    1    2    0    0  0.11852463046E+03  0.11336580881E+03  0.79637345181E+03  0.11621975079E+04  0.83041705062E+03 0.  0.
         23    2    4    4    0    0  0.27566751517E+03 -0.14377661490E+03  0.19443910109E+02  0.32398481271E+03  0.89015725084E+02 0.  0.
         23    2    4    4    0    0 -0.15714288472E+03  0.25714242371E+03  0.77692954170E+03  0.83821269517E+03  0.90359821216E+02 0.  0.
          3    1    3    3  502    0 -0.10477236195E+03 -0.96008233875E+02 -0.45592877523E+02  0.14924322189E+03  0.00000000000E+00 0. -1.
         -4    1    3    3    0  502 -0.13752268510E+02 -0.17357574935E+02  0.26430032342E+02  0.34481254420E+02  0.00000000000E+00 0.  1.
         13    1    5    5    0    0  0.15707043287E+03 -0.10357947283E+03 -0.27707699742E+02  0.19017766614E+03  0.00000000000E+00 0.  1.
        -13    1    5    5    0    0  0.11859708231E+03 -0.40197142072E+02  0.47151609850E+02  0.13380714657E+03  0.00000000000E+00 0. -1.
          3    1    6    6  503    0 -0.92142419507E+02  0.74130903870E+02  0.34267623282E+03  0.36250878185E+03  0.00000000000E+00 0. -1.
         -3    1    6    6    0  503 -0.65000465210E+02  0.18301151984E+03  0.43425330888E+03  0.47570391332E+03  0.00000000000E+00 0.  1.
<mgrwt>
<rscale>  0 0.10988401E+04</rscale>
<asrwt>0</asrwt>
<pdfrwt beam="1">  1        1 0.43747030E-01 0.10988401E+04</pdfrwt>
<pdfrwt beam="2">  1       -2 0.16331789E+00 0.10988401E+04</pdfrwt>
<totfact> 0.19445753E+01</totfact>
</mgrwt>
</event>
<event>
12    5  0.5246737E-008  0.1559982E+04  0.7818608E-02  0.8845517E-01
         -2   -1    0    0    0  501 -0.00000000000E+00  0.00000000000E+00  0.68904724364E+03  0.68904724364E+03  0.00000000000E+00 0.  1.
          1   -1    0    0  501    0  0.00000000000E+00 -0.00000000000E+00 -0.88293850525E+03  0.88293850525E+03  0.00000000000E+00 0. -1.
        -24    2    1    2    0    0  0.20777337611E+03 -0.27348454837E+02  0.40995077357E+03  0.46744713684E+03  0.80805168046E+02 0.  0.
        254    2    1    2    0    0 -0.20777337611E+03  0.27348454837E+02 -0.60384203517E+03  0.11045386121E+04  0.90081220477E+03 0.  0.
         23    2    4    4    0    0  0.32963956566E+03  0.57312119741E+02 -0.37859887508E+03  0.51336339761E+03  0.90873249525E+02 0.  0.
         23    2    4    4    0    0 -0.53741294177E+03 -0.29963664903E+02 -0.22524316010E+03  0.59117521444E+03  0.95095540402E+02 0.  0.
          1    1    3    3  502    0  0.13122196668E+02 -0.26594964465E+02  0.46461201955E+02  0.55119211419E+02  0.00000000000E+00 0. -1.
         -2    1    3    3    0  502  0.19465117945E+03 -0.75349037280E+00  0.36348957161E+03  0.41232792542E+03  0.00000000000E+00 0.  1.
         13    1    5    5    0    0  0.28163762078E+03  0.56214706365E+02 -0.36301759796E+03  0.46288402336E+03  0.00000000000E+00 0. -1.
        -13    1    5    5    0    0  0.48001944880E+02  0.10974133761E+01 -0.15581277115E+02  0.50479374252E+02  0.00000000000E+00 0.  1.
          3    1    6    6  503    0 -0.23323757809E+03 -0.15407066555E+02 -0.47332197645E+02  0.23849000496E+03  0.00000000000E+00 0. -1.
         -3    1    6    6    0  503 -0.30417536368E+03 -0.14556598348E+02 -0.17791096245E+03  0.35268520948E+03  0.00000000000E+00 0.  1.
<mgrwt>
<rscale>  0 0.15599825E+04</rscale>
<asrwt>0</asrwt>
<pdfrwt beam="1">  1        1 0.13583669E+00 0.15599825E+04</pdfrwt>
<pdfrwt beam="2">  1       -2 0.10600727E+00 0.15599825E+04</pdfrwt>
<totfact> 0.11391000E+01</totfact>
</mgrwt>
</event>
<event>
12    5  0.5246737E-008  0.2311358E+04  0.7818608E-02  0.8473456E-01
          1   -1    0    0  501    0  0.00000000000E+00  0.00000000000E+00  0.25725427279E+04  0.25725427279E+04  0.00000000000E+00 0. -1.
         -2   -1    0    0    0  501 -0.00000000000E+00 -0.00000000000E+00 -0.51917249993E+03  0.51917249993E+03  0.00000000000E+00 0.  1.
        -24    2    1    2    0    0 -0.32228413833E+03  0.54154251540E+03 -0.13001297971E+03  0.64816439509E+03  0.77963750297E+02 0.  0.
        254    2    1    2    0    0  0.32228413833E+03 -0.54154251540E+03  0.21833832077E+04  0.24435508328E+04  0.89813310754E+03 0.  0.
         23    2    4    4    0    0  0.30490359555E+03  0.18151642980E+03  0.66595638769E+03  0.76019249223E+03  0.92088533904E+02 0.  0.
         23    2    4    4    0    0  0.17380542781E+02 -0.72305894520E+03  0.15174268200E+04  0.16833583405E+04  0.89413796826E+02 0.  0.
          1    1    3    3  502    0 -0.43538971253E+02  0.56182648000E+02 -0.39093691607E+02  0.81119964729E+02  0.00000000000E+00 0. -1.
         -2    1    3    3    0  502 -0.27874516708E+03  0.48535986740E+03 -0.90919288102E+02  0.56704443036E+03  0.00000000000E+00 0.  1.
         13    1    5    5    0    0  0.39233626649E+02  0.56607491763E+02  0.86112226254E+02  0.11026786066E+03  0.00000000000E+00 0. -1.
        -13    1    5    5    0    0  0.26566996890E+03  0.12490893804E+03  0.57984416144E+03  0.64992463158E+03  0.00000000000E+00 0.  1.
          1    1    6    6  503    0 -0.12398312398E+02 -0.47114191690E+03  0.90220904568E+03  0.10178946832E+04  0.00000000000E+00 0. -1.
         -1    1    6    6    0  503  0.29778855179E+02 -0.25191702830E+03  0.61521777431E+03  0.66546365731E+03  0.00000000000E+00 0.  1.
<mgrwt>
<rscale>  0 0.23113576E+04</rscale>
<asrwt>0</asrwt>
<pdfrwt beam="1">  1        1 0.39577580E+00 0.23113576E+04</pdfrwt>
<pdfrwt beam="2">  1       -2 0.79872694E-01 0.23113576E+04</pdfrwt>
<totfact> 0.13277672E+00</totfact>
</mgrwt>
</event>
<event>
12    5  0.5246737E-008  0.1787191E+04  0.7818608E-02  0.8713141E-01
          1   -1    0    0  501    0  0.00000000000E+00  0.00000000000E+00  0.50024531752E+03  0.50024531752E+03  0.00000000000E+00 0. -1.
         -2   -1    0    0    0  501 -0.00000000000E+00 -0.00000000000E+00 -0.15962423865E+04  0.15962423865E+04  0.00000000000E+00 0.  1.
        -24    2    1    2    0    0 -0.10214577672E+03 -0.30026782033E+03 -0.10920196998E+04  0.11400067959E+04  0.80709023036E+02 0.  0.
        254    2    1    2    0    0  0.10214577672E+03  0.30026782033E+03 -0.39773692546E+01  0.95648090816E+03  0.90235546465E+03 0.  0.
         23    2    4    4    0    0  0.68102999255E+02 -0.29751871131E+03  0.11803448062E+03  0.33888481781E+03  0.88064629914E+02 0.  0.
         23    2    4    4    0    0  0.34042777463E+02  0.59778653164E+03 -0.12201184988E+03  0.61759609034E+03  0.89612449984E+02 0.  0.
          3    1    3    3  502    0 -0.80545472206E+01 -0.25437216396E+02 -0.20262997855E+03  0.20437914746E+03  0.00000000000E+00 0. -1.
         -4    1    3    3    0  502 -0.94091229497E+02 -0.27483060393E+03 -0.88938972122E+03  0.93562764845E+03  0.00000000000E+00 0.  1.
         13    1    5    5    0    0  0.41391305597E+02 -0.10752831385E+03  0.31568003536E+01  0.11526293353E+03  0.00000000000E+00 0.  1.
        -13    1    5    5    0    0  0.26711693658E+02 -0.18999039746E+03  0.11487768027E+03  0.22362188428E+03  0.00000000000E+00 0. -1.
          1    1    6    6  503    0  0.98291504856E+01  0.10320850778E+03  0.12642711797E+02  0.10444350836E+03  0.00000000000E+00 0.  1.
         -1    1    6    6    0  503  0.24213626977E+02  0.49457802386E+03 -0.13465456167E+03  0.51315258198E+03  0.00000000000E+00 0. -1.
<mgrwt>
<rscale>  0 0.17871908E+04</rscale>
<asrwt>0</asrwt>
<pdfrwt beam="1">  1        1 0.76960818E-01 0.17871908E+04</pdfrwt>
<pdfrwt beam="2">  1       -2 0.24557575E+00 0.17871908E+04</pdfrwt>
<totfact> 0.25047529E+00</totfact>
</mgrwt>
</event>
<event>
12    5  0.5246737E-008  0.1399009E+04  0.7818608E-02  0.8954536E-01
         -2   -1    0    0    0  501 -0.00000000000E+00  0.00000000000E+00  0.27991300266E+03  0.27991300266E+03  0.00000000000E+00 0.  1.
          1   -1    0    0  501    0  0.00000000000E+00 -0.00000000000E+00 -0.17480655172E+04  0.17480655172E+04  0.00000000000E+00 0. -1.
        -24    2    1    2    0    0  0.15514130526E+03  0.38447518470E+03 -0.70239204518E+03  0.81927903766E+03  0.77288835999E+02 0.  0.
        254    2    1    2    0    0 -0.15514130526E+03 -0.38447518470E+03 -0.76576046940E+03  0.12086994822E+04  0.83825732900E+03 0.  0.
         23    2    4    4    0    0  0.19134396719E+03  0.17155707810E+03 -0.19717727544E+03  0.33616798772E+03  0.89920482609E+02 0.  0.
         23    2    4    4    0    0 -0.34648527245E+03 -0.55603226280E+03 -0.56858319396E+03  0.87253149452E+03  0.93810655962E+02 0.  0.
          3    1    3    3  502    0  0.10415153769E+03  0.32502381669E+03 -0.53707675164E+03  0.63634853765E+03  0.00000000000E+00 0. -1.
         -4    1    3    3    0  502  0.50989767576E+02  0.59451368010E+02 -0.16531529355E+03  0.18293050002E+03  0.00000000000E+00 0.  1.
         13    1    5    5    0    0  0.17817206885E+03  0.18113500157E+03 -0.17442272155E+03  0.30818575681E+03  0.00000000000E+00 0.  1.
        -13    1    5    5    0    0  0.13171898337E+02 -0.95779234652E+01 -0.22754553890E+02  0.27982230906E+02  0.00000000000E+00 0. -1.
          1    1    6    6  503    0 -0.44384749011E+02 -0.10840153551E+03 -0.14367909771E+03  0.18537686470E+03  0.00000000000E+00 0. -1.
         -1    1    6    6    0  503 -0.30210052344E+03 -0.44763072729E+03 -0.42490409626E+03  0.68715462982E+03  0.00000000000E+00 0.  1.
<mgrwt>
<rscale>  0 0.13990086E+04</rscale>
<asrwt>0</asrwt>
<pdfrwt beam="1">  1        1 0.26893316E+00 0.13990086E+04</pdfrwt>
<pdfrwt beam="2">  1       -2 0.43063539E-01 0.13990086E+04</pdfrwt>
<totfact> 0.19343731E+01</totfact>
</mgrwt>
</event>
<event>
12    5  0.5246737E-008  0.1333710E+04  0.7818608E-02  0.9003251E-01
         -4   -1    0    0    0  501 -0.00000000000E+00  0.00000000000E+00  0.24172992909E+03  0.24172992909E+03  0.00000000000E+00 0.  1.
          1   -1    0    0  501    0  0.00000000000E+00 -0.00000000000E+00 -0.18396393749E+04  0.18396393749E+04  0.00000000000E+00 0. -1.
        -24    2    1    2    0    0 -0.22847137908E+03  0.22955869809E+03 -0.20311985913E+03  0.39074374081E+03  0.80787541618E+02 0.  0.
        254    2    1    2    0    0  0.22847137908E+03 -0.22955869809E+03 -0.13947895867E+04  0.16906255632E+04  0.89882169355E+03 0.  0.
         23    2    4    4    0    0 -0.76612271001E+01 -0.24837594228E+03 -0.14120244327E+04  0.14364803625E+04  0.88958025215E+02 0.  0.
         23    2    4    4    0    0  0.23613260618E+03  0.18817244190E+02  0.17234846022E+02  0.25414520065E+03  0.90443610702E+02 0.  0.
          3    1    3    3  502    0 -0.10635767684E+03  0.52604534251E+02 -0.77794703092E+02  0.14188448920E+03  0.00000000000E+00 0. -1.
         -4    1    3    3    0  502 -0.12211370224E+03  0.17695416384E+03 -0.12532515604E+03  0.24885925161E+03  0.00000000000E+00 0.  1.
         13    1    5    5    0    0 -0.30463803251E+02 -0.49152517236E+02 -0.20873987973E+03  0.21660182513E+03  0.00000000000E+00 0.  1.
        -13    1    5    5    0    0  0.22802576151E+02 -0.19922342505E+03 -0.12032845529E+04  0.12198785374E+04  0.00000000000E+00 0. -1.
          2    1    6    6  503    0  0.40342749332E+02  0.14069265001E+02  0.38026800259E+02  0.57197195554E+02  0.00000000000E+00 0. -1.
         -2    1    6    6    0  503  0.19578985685E+03  0.47479791889E+01 -0.20791954237E+02  0.19694800510E+03  0.00000000000E+00 0.  1.
<mgrwt>
<rscale>  0 0.13337105E+04</rscale>
<asrwt>0</asrwt>
<pdfrwt beam="1">  1        1 0.28302143E+00 0.13337105E+04</pdfrwt>
<pdfrwt beam="2">  1       -4 0.37189222E-01 0.13337105E+04</pdfrwt>
<totfact> 0.13106397E+01</totfact>
</mgrwt>
</event>
<event>
12    5  0.5246737E-008  0.1631836E+04  0.7818608E-02  0.8801225E-01
          1   -1    0    0  501    0  0.00000000000E+00  0.00000000000E+00  0.26427070749E+03  0.26427070749E+03  0.00000000000E+00 0. -1.
         -2   -1    0    0    0  501 -0.00000000000E+00 -0.00000000000E+00 -0.25190916562E+04  0.25190916562E+04  0.00000000000E+00 0.  1.
        -24    2    1    2    0    0  0.47643194613E+03 -0.29676127683E+03 -0.92674631770E+03  0.10862206268E+04  0.77213068559E+02 0.  0.
        254    2    1    2    0    0 -0.47643194613E+03  0.29676127683E+03 -0.13280746310E+04  0.16971417369E+04  0.89523918307E+03 0.  0.
         23    2    4    4    0    0 -0.51932480617E+03  0.26745860922E+03 -0.29905867272E+03  0.66263958095E+03  0.91775609821E+02 0.  0.
         23    2    4    4    0    0  0.42892860045E+02  0.29302667613E+02 -0.10290159583E+04  0.10345021559E+04  0.92857011084E+02 0.  0.
          3    1    3    3  502    0  0.27945535712E+03 -0.14820778187E+03 -0.58014634927E+03  0.66078031886E+03  0.00000000000E+00 0. -1.
         -4    1    3    3    0  502  0.19697658901E+03 -0.14855349496E+03 -0.34659996843E+03  0.42544030791E+03  0.00000000000E+00 0.  1.
         13    1    5    5    0    0 -0.10519155081E+03  0.21925997546E+02 -0.32168115431E+02  0.11216416264E+03  0.00000000000E+00 0. -1.
        -13    1    5    5    0    0 -0.41413325536E+03  0.24553261167E+03 -0.26689055729E+03  0.55047541831E+03  0.00000000000E+00 0.  1.
          3    1    6    6  503    0 -0.27220633971E+02  0.21425867244E+02 -0.26978355665E+03  0.27199852599E+03  0.00000000000E+00 0. -1.
         -3    1    6    6    0  503  0.70113494016E+02  0.78768003687E+01 -0.75923240162E+03  0.76250362996E+03  0.00000000000E+00 0.  1.
<mgrwt>
<rscale>  0 0.16318359E+04</rscale>
<asrwt>0</asrwt>
<pdfrwt beam="1">  1        1 0.40657032E-01 0.16318359E+04</pdfrwt>
<pdfrwt beam="2">  1       -2 0.38755256E+00 0.16318359E+04</pdfrwt>
<totfact> 0.77878722E-01</totfact>
</mgrwt>
</event>
<event>
12    5  0.5246737E-008  0.2101160E+04  0.7818608E-02  0.8560733E-01
         -2   -1    0    0    0  501 -0.00000000000E+00  0.00000000000E+00  0.36917116215E+03  0.36917116215E+03  0.00000000000E+00 0.  1.
          1   -1    0    0  501    0  0.00000000000E+00 -0.00000000000E+00 -0.29897196781E+04  0.29897196781E+04  0.00000000000E+00 0. -1.
        -24    2    1    2    0    0  0.48015109431E+03  0.56566987966E+03 -0.39233016723E+03  0.84351934166E+03  0.84109651735E+02 0.  0.
        254    2    1    2    0    0 -0.48015109431E+03 -0.56566987966E+03 -0.22282183487E+04  0.25153714986E+04  0.90089360093E+03 0.  0.
         23    2    4    4    0    0 -0.29837475694E+02  0.20946904671E+03 -0.23552725566E+03  0.32875256614E+03  0.88530249624E+02 0.  0.
         23    2    4    4    0    0 -0.45031361861E+03 -0.77513892637E+03 -0.19926910930E+04  0.21866189324E+04  0.82836302886E+02 0.  0.
          3    1    3    3  502    0  0.13086802110E+03  0.14189459191E+03 -0.14395023935E+03  0.24079490354E+03  0.00000000000E+00 0. -1.
         -4    1    3    3    0  502  0.34928307321E+03  0.42377528774E+03 -0.24837992787E+03  0.60272443812E+03  0.00000000000E+00 0.  1.
         13    1    5    5    0    0 -0.30664734144E+02  0.17349396689E+02 -0.22096410221E+02  0.41588205422E+02  0.00000000000E+00 0. -1.
        -13    1    5    5    0    0  0.82725844964E+00  0.19211965002E+03 -0.21343084544E+03  0.28716436072E+03  0.00000000000E+00 0.  1.
          2    1    6    6  503    0 -0.52371631186E+02 -0.48057841572E+02 -0.17403287020E+03  0.18798878637E+03  0.00000000000E+00 0. -1.
         -2    1    6    6    0  503 -0.39794198743E+03 -0.72708108480E+03 -0.18186582228E+04  0.19986301461E+04  0.00000000000E+00 0.  1.
<mgrwt>
<rscale>  0 0.21011600E+04</rscale>
<asrwt>0</asrwt>
<pdfrwt beam="1">  1        1 0.45995685E+00 0.21011600E+04</pdfrwt>
<pdfrwt beam="2">  1       -2 0.56795567E-01 0.21011600E+04</pdfrwt>
<totfact> 0.14305887E+00</totfact>
</mgrwt>
</event>
<event>
12    5  0.5246737E-008  0.1741691E+04  0.7818608E-02  0.8737937E-01
         -2   -1    0    0    0  501 -0.00000000000E+00  0.00000000000E+00  0.64870583775E+03  0.64870583775E+03  0.00000000000E+00 0.  1.
          1   -1    0    0  501    0  0.00000000000E+00 -0.00000000000E+00 -0.11690533723E+04  0.11690533723E+04  0.00000000000E+00 0. -1.
        -24    2    1    2    0    0 -0.11680574676E+03 -0.34726758566E+02  0.45980929744E+03  0.48237098604E+03  0.80047785289E+02 0.  0.
        254    2    1    2    0    0  0.11680574676E+03  0.34726758566E+02 -0.98015683202E+03  0.13353882240E+04  0.89872396390E+03 0.  0.
         23    2    4    4    0    0 -0.10568123265E+03  0.24811352069E+03 -0.97241353048E+03  0.10132234091E+04  0.91130458552E+02 0.  0.
         23    2    4    4    0    0  0.22248697941E+03 -0.21338676213E+03 -0.77433015399E+01  0.32216481489E+03  0.93251503912E+02 0.  0.
          1    1    3    3  502    0 -0.22056745089E+02 -0.43750991089E+02  0.12384223164E+03  0.13318238458E+03  0.00000000000E+00 0. -1.
         -2    1    3    3    0  502 -0.94749001668E+02  0.90242325233E+01  0.33596706580E+03  0.34918860146E+03  0.00000000000E+00 0.  1.
         13    1    5    5    0    0 -0.90820835614E+02  0.17834958112E+03 -0.83196289935E+03  0.85569811450E+03  0.00000000000E+00 0. -1.
        -13    1    5    5    0    0 -0.14860397035E+02  0.69763939574E+02 -0.14045063113E+03  0.15752529464E+03  0.00000000000E+00 0.  1.
          2    1    6    6  503    0  0.50498614025E+02 -0.76614173291E+02  0.35174488343E+02  0.98270474700E+02  0.00000000000E+00 0. -1.
         -2    1    6    6    0  503  0.17198836538E+03 -0.13677258884E+03 -0.42917789883E+02  0.22389434019E+03  0.00000000000E+00 0.  1.
<mgrwt>
<rscale>  0 0.17416908E+04</rscale>
<asrwt>0</asrwt>
<pdfrwt beam="1">  1        1 0.17985436E+00 0.17416908E+04</pdfrwt>
<pdfrwt beam="2">  1       -2 0.99800899E-01 0.17416908E+04</pdfrwt>
<totfact> 0.77726466E+00</totfact>
</mgrwt>
</event>
<event>
12    5  0.5246737E-008  0.1368718E+04  0.7818608E-02  0.8976779E-01
          1   -1    0    0  501    0  0.00000000000E+00  0.00000000000E+00  0.81826880743E+03  0.81826880743E+03  0.00000000000E+00 0. -1.
         -2   -1    0    0    0  501 -0.00000000000E+00 -0.00000000000E+00 -0.57236359551E+03  0.57236359551E+03  0.00000000000E+00 0.  1.
        -24    2    1    2    0    0 -0.30841994442E+03  0.51826710910E+02  0.29201384613E+03  0.43536606969E+03  0.80390660064E+02 0.  0.
        254    2    1    2    0    0  0.30841994442E+03 -0.51826710910E+02 -0.46108634215E+02  0.95526633325E+03  0.90144267217E+03 0.  0.
         23    2    4    4    0    0  0.90331968790E+02  0.37360678367E+03 -0.20121447434E+03  0.44359956777E+03  0.92473879861E+02 0.  0.
         23    2    4    4    0    0  0.21808797563E+03 -0.42543349458E+03  0.15510584012E+03  0.51166676548E+03  0.95859448322E+02 0.  0.
          3    1    3    3  502    0 -0.18301173367E+03  0.18167461150E+02  0.11902472786E+03  0.21906674130E+03  0.00000000000E+00 0. -1.
         -4    1    3    3    0  502 -0.12540821075E+03  0.33659249760E+02  0.17298911828E+03  0.21629932839E+03  0.00000000000E+00 0.  1.
         13    1    5    5    0    0  0.28336162298E+02  0.17826646458E+03 -0.14375739085E+03  0.23075540711E+03  0.00000000000E+00 0. -1.
        -13    1    5    5    0    0  0.61995806492E+02  0.19534031909E+03 -0.57457083488E+02  0.21284416066E+03  0.00000000000E+00 0.  1.
          4    1    6    6  503    0  0.51393328143E+02 -0.19347864839E+03  0.42610548363E+02  0.20467271531E+03  0.00000000000E+00 0.  1.
         -4    1    6    6    0  503  0.16669464749E+03 -0.23195484618E+03  0.11249529176E+03  0.30699405016E+03  0.00000000000E+00 0. -1.
<mgrwt>
<rscale>  0 0.13687181E+04</rscale>
<asrwt>0</asrwt>
<pdfrwt beam="1">  1        1 0.12588751E+00 0.13687181E+04</pdfrwt>
<pdfrwt beam="2">  1       -2 0.88055938E-01 0.13687181E+04</pdfrwt>
<totfact> 0.20289598E+01</totfact>
</mgrwt>
</event>
<event>
12    5  0.5246737E-008  0.1559968E+04  0.7818608E-02  0.8845526E-01
         -2   -1    0    0    0  501 -0.00000000000E+00  0.00000000000E+00  0.15581660315E+04  0.15581660315E+04  0.00000000000E+00 0.  1.
          1   -1    0    0  501    0  0.00000000000E+00 -0.00000000000E+00 -0.39044288071E+03  0.39044288071E+03  0.00000000000E+00 0. -1.
        -24    2    1    2    0    0  0.10824875499E+03 -0.51676103732E+02  0.10238551580E+04  0.10339242527E+04  0.79572375967E+02 0.  0.
        254    2    1    2    0    0 -0.10824875499E+03  0.51676103732E+02  0.14386799280E+03  0.91468465957E+03  0.89529984611E+03 0.  0.
         23    2    4    4    0    0 -0.74192141013E+02 -0.32434692592E+03  0.33543488698E+03  0.48133916086E+03  0.92007729238E+02 0.  0.
         23    2    4    4    0    0 -0.34056613974E+02  0.37602302965E+03 -0.19156689418E+03  0.43334549871E+03  0.92397372929E+02 0.  0.
          3    1    3    3  502    0  0.90487138950E+02 -0.38513884917E+02  0.49869912136E+03  0.50830311360E+03  0.00000000000E+00 0. -1.
         -4    1    3    3    0  502  0.17761616037E+02 -0.13162218814E+02  0.52515603663E+03  0.52562113905E+03  0.00000000000E+00 0.  1.
         13    1    5    5    0    0 -0.73826983539E+02 -0.14923923407E+03  0.12891615973E+03  0.21057575531E+03  0.00000000000E+00 0. -1.
        -13    1    5    5    0    0 -0.36515747451E+00 -0.17510769184E+03  0.20651872725E+03  0.27076340555E+03  0.00000000000E+00 0.  1.
          1    1    6    6  503    0 -0.16158889456E+02  0.32391998498E+03 -0.12657879130E+03  0.34814861307E+03  0.00000000000E+00 0. -1.
         -1    1    6    6    0  503 -0.17897724518E+02  0.52103044670E+02 -0.64988102872E+02  0.85196885634E+02  0.00000000000E+00 0.  1.
<mgrwt>
<rscale>  0 0.15599677E+04</rscale>
<asrwt>0</asrwt>
<pdfrwt beam="1">  1        1 0.60068136E-01 0.15599677E+04</pdfrwt>
<pdfrwt beam="2">  1       -2 0.23971785E+00 0.15599677E+04</pdfrwt>
<totfact> 0.38778392E+00</totfact>
</mgrwt>
</event>
<event>
12    5  0.5246737E-008  0.1144347E+04  0.7818608E-02  0.9163014E-01
         -4   -1    0    0    0  501 -0.00000000000E+00  0.00000000000E+00  0.29933017685E+03  0.29933017685E+03  0.00000000000E+00 0.  1.
          3   -1    0    0  501    0  0.00000000000E+00 -0.00000000000E+00 -0.10937179477E+04  0.10937179477E+04  0.00000000000E+00 0. -1.
        -24    2    1    2    0    0  0.52229975645E+02 -0.15036040005E+03  0.95151863504E+01  0.17272832216E+03  0.66395137197E+02 0.  0.
        254    2    1    2    0    0 -0.52229975645E+02  0.15036040005E+03 -0.80390295724E+03  0.12203198024E+04  0.90420364702E+03 0.  0.
         23    2    4    4    0    0 -0.27111506509E+03 -0.22721447004E+03 -0.65458232292E+03  0.74996641832E+03  0.94030937505E+02 0.  0.
         23    2    4    4    0    0  0.21888508944E+03  0.37757487010E+03 -0.14932063432E+03  0.47035338411E+03  0.91990158185E+02 0.  0.
          1    1    3    3  502    0 -0.36972341129E+01 -0.54837968987E+02 -0.19464236247E+02  0.58307194028E+02  0.00000000000E+00 0. -1.
         -2    1    3    3    0  502  0.55927209758E+02 -0.95522431066E+02  0.28979422597E+02  0.11442112813E+03  0.00000000000E+00 0.  1.
         13    1    5    5    0    0 -0.54615654160E+02 -0.31636491861E+02 -0.20078300132E+03  0.21046983374E+03  0.00000000000E+00 0. -1.
        -13    1    5    5    0    0 -0.21649941093E+03 -0.19557797818E+03 -0.45379932160E+03  0.53949658458E+03  0.00000000000E+00 0.  1.
          4    1    6    6  503    0  0.22008238730E+03  0.32418108548E+03 -0.12211749060E+03  0.41041724487E+03  0.00000000000E+00 0. -1.
         -4    1    6    6    0  503 -0.11972978587E+01  0.53393784622E+02 -0.27203143721E+02  0.59936139237E+02  0.00000000000E+00 0.  1.
<mgrwt>
<rscale>  0 0.11443475E+04</rscale>
<asrwt>0</asrwt>
<pdfrwt beam="1">  1        3 0.16826430E+00 0.11443475E+04</pdfrwt>
<pdfrwt beam="2">  1       -4 0.46050796E-01 0.11443475E+04</pdfrwt>
<totfact> 0.24778846E+00</totfact>
</mgrwt>
</event>
<event>
12    5  0.5246737E-008  0.3943713E+04  0.7818608E-02  0.8015999E-01
          1   -1    0    0  501    0  0.00000000000E+00  0.00000000000E+00  0.29056578436E+04  0.29056578436E+04  0.00000000000E+00 0. -1.
         -2   -1    0    0    0  501 -0.00000000000E+00 -0.00000000000E+00 -0.13381543699E+04  0.13381543699E+04  0.00000000000E+00 0.  1.
        -24    2    1    2    0    0 -0.52569699594E+03  0.16054003428E+04 -0.11548779009E+03  0.16951118583E+04  0.79994938553E+02 0.  0.
        254    2    1    2    0    0  0.52569699594E+03 -0.16054003428E+04  0.16829912638E+04  0.25487003552E+04  0.89985905245E+03 0.  0.
         23    2    4    4    0    0  0.59033450223E+03 -0.12668592216E+04  0.83996683231E+03  0.16334300930E+04  0.95511661976E+02 0.  0.
         23    2    4    4    0    0 -0.64637506284E+02 -0.33854112124E+03  0.84302443149E+03  0.91527026217E+03  0.90781951642E+02 0.  0.
          1    1    3    3  502    0 -0.12728911399E+02  0.55697959851E+02 -0.17604701354E+02  0.59784725698E+02  0.00000000000E+00 0. -1.
         -2    1    3    3    0  502 -0.51296808455E+03  0.15497023830E+04 -0.97883088735E+02  0.16353271326E+04  0.00000000000E+00 0.  1.
         13    1    5    5    0    0  0.97172472093E+02 -0.22595799508E+03  0.19061763107E+03  0.31118256080E+03  0.00000000000E+00 0.  1.
        -13    1    5    5    0    0  0.49316203013E+03 -0.10409012265E+04  0.64934920124E+03  0.13222475322E+04  0.00000000000E+00 0. -1.
          1    1    6    6  503    0 -0.24534030281E+02 -0.29892324103E+03  0.70112672297E+03  0.76258488337E+03  0.00000000000E+00 0. -1.
         -1    1    6    6    0  503 -0.40103476003E+02 -0.39617880205E+02  0.14189770852E+03  0.15268537881E+03  0.00000000000E+00 0.  1.
<mgrwt>
<rscale>  0 0.39437133E+04</rscale>
<asrwt>0</asrwt>
<pdfrwt beam="1">  1        1 0.44702428E+00 0.39437133E+04</pdfrwt>
<pdfrwt beam="2">  1       -2 0.20586990E+00 0.39437133E+04</pdfrwt>
<totfact> 0.58970392E-02</totfact>
</mgrwt>
</event>
<event>
12    5  0.5246737E-008  0.2949962E+04  0.7818608E-02  0.8258166E-01
          1   -1    0    0  501    0  0.00000000000E+00  0.00000000000E+00  0.23217458152E+04  0.23217458152E+04  0.00000000000E+00 0. -1.
         -2   -1    0    0    0  501 -0.00000000000E+00 -0.00000000000E+00 -0.93704008295E+03  0.93704008295E+03  0.00000000000E+00 0.  1.
        -24    2    1    2    0    0 -0.12689229972E+03  0.89944030846E+03 -0.43995123409E+03  0.10128290925E+04  0.84682690307E+02 0.  0.
        254    2    1    2    0    0  0.12689229972E+03 -0.89944030846E+03  0.18246569663E+04  0.22459568056E+04  0.94332094425E+03 0.  0.
         23    2    4    4    0    0  0.40544501048E+03 -0.63530542292E+03  0.63033525002E+03  0.98733055448E+03  0.97470300504E+02 0.  0.
         23    2    4    4    0    0 -0.27855271077E+03 -0.26413488554E+03  0.11943217163E+04  0.12586262512E+04  0.10186671510E+03 0.  0.
          1    1    3    3  502    0 -0.88813867609E+02  0.33537539602E+03 -0.16648987817E+03  0.38481611046E+03  0.00000000000E+00 0. -1.
         -2    1    3    3    0  502 -0.38078432107E+02  0.56406491244E+03 -0.27346135591E+03  0.62801298204E+03  0.00000000000E+00 0.  1.
         13    1    5    5    0    0  0.35536231115E+03 -0.48788659612E+03  0.48421990582E+03  0.77381174717E+03  0.00000000000E+00 0.  1.
        -13    1    5    5    0    0  0.50082699335E+02 -0.14741882680E+03  0.14611534420E+03  0.21351880732E+03  0.00000000000E+00 0. -1.
          4    1    6    6  503    0 -0.70393904886E+02 -0.14397520420E+02  0.23172698393E+03  0.24261076959E+03  0.00000000000E+00 0. -1.
         -4    1    6    6    0  503 -0.20815880588E+03 -0.24973736512E+03  0.96259473236E+03  0.10160154816E+04  0.00000000000E+00 0.  1.
<mgrwt>
<rscale>  0 0.29499620E+04</rscale>
<asrwt>0</asrwt>
<pdfrwt beam="1">  1        1 0.35719166E+00 0.29499620E+04</pdfrwt>
<pdfrwt beam="2">  1       -2 0.14416001E+00 0.29499620E+04</pdfrwt>
<totfact> 0.44969652E-01</totfact>
</mgrwt>
</event>
<event>
12    5  0.5246737E-008  0.1740373E+04  0.7818608E-02  0.8738667E-01
         -2   -1    0    0    0  501 -0.00000000000E+00  0.00000000000E+00  0.75615099319E+03  0.75615099319E+03  0.00000000000E+00 0.  1.
          1   -1    0    0  501    0  0.00000000000E+00 -0.00000000000E+00 -0.10014198368E+04  0.10014198368E+04  0.00000000000E+00 0. -1.
        -24    2    1    2    0    0 -0.33648794559E+03 -0.20094693014E+03 -0.59475298463E+03  0.71666001443E+03  0.79162221431E+02 0.  0.
        254    2    1    2    0    0  0.33648794559E+03  0.20094693014E+03  0.34948414099E+03  0.10409108156E+04  0.89875044087E+03 0.  0.
         23    2    4    4    0    0  0.84575755047E+02  0.16282315837E+03 -0.28527456446E+03  0.35098763995E+03  0.90256894617E+02 0.  0.
         23    2    4    4    0    0  0.25191219055E+03  0.38123771771E+02  0.63475870545E+03  0.68992317564E+03  0.90344897039E+02 0.  0.
          3    1    3    3  502    0 -0.31747761780E+03 -0.19060803995E+03 -0.58625634602E+03  0.69341182997E+03  0.00000000000E+00 0. -1.
         -4    1    3    3    0  502 -0.19010327792E+02 -0.10338890187E+02 -0.84966386094E+01  0.23248184461E+02  0.00000000000E+00 0.  1.
         13    1    5    5    0    0  0.10336291982E+03  0.12471299118E+03 -0.22727420832E+03  0.27908921357E+03  0.00000000000E+00 0.  1.
        -13    1    5    5    0    0 -0.18787164776E+02  0.38110167187E+02 -0.58000356145E+02  0.71898426383E+02  0.00000000000E+00 0. -1.
          1    1    6    6  503    0  0.15848145076E+03  0.43052743862E+02  0.29626443270E+03  0.33873665741E+03  0.00000000000E+00 0. -1.
         -1    1    6    6    0  503  0.93430739784E+02 -0.49289720910E+01  0.33849427275E+03  0.35118651823E+03  0.00000000000E+00 0.  1.
<mgrwt>
<rscale>  0 0.17403731E+04</rscale>
<asrwt>0</asrwt>
<pdfrwt beam="1">  1        1 0.15406459E+00 0.17403731E+04</pdfrwt>
<pdfrwt beam="2">  1       -2 0.11633092E+00 0.17403731E+04</pdfrwt>
<totfact> 0.71931410E+00</totfact>
</mgrwt>
</event>
<event>
12    5  0.5246737E-008  0.2690881E+04  0.7818608E-02  0.8337970E-01
         -2   -1    0    0    0  501 -0.00000000000E+00  0.00000000000E+00  0.15728318496E+04  0.15728318496E+04  0.00000000000E+00 0.  1.
          1   -1    0    0  501    0  0.00000000000E+00 -0.00000000000E+00 -0.11509243439E+04  0.11509243439E+04  0.00000000000E+00 0. -1.
        -24    2    1    2    0    0  0.29830968559E+03  0.91451014310E+03  0.88652084149E+03  0.13106808490E+04  0.81532908218E+02 0.  0.
        254    2    1    2    0    0 -0.29830968559E+03 -0.91451014310E+03 -0.46461333579E+03  0.14130753446E+04  0.92498589580E+03 0.  0.
         23    2    4    4    0    0 -0.12809282132E+03 -0.54421481376E+02  0.23465069347E+03  0.28790494806E+03  0.91971966744E+02 0.  0.
         23    2    4    4    0    0 -0.17021686427E+03 -0.86008866172E+03 -0.69926402925E+03  0.11251703966E+04  0.91169906067E+02 0.  0.
          3    1    3    3  502    0  0.54096809830E+02  0.11710622822E+03  0.15209145636E+03  0.19942954800E+03  0.00000000000E+00 0. -1.
         -4    1    3    3    0  502  0.24421287576E+03  0.79740391488E+03  0.73442938514E+03  0.11112513010E+04  0.00000000000E+00 0.  1.
         13    1    5    5    0    0 -0.12487911329E+02 -0.37833946005E+02  0.11046338361E+03  0.11742876359E+03  0.00000000000E+00 0.  1.
        -13    1    5    5    0    0 -0.11560490999E+03 -0.16587535371E+02  0.12418730986E+03  0.17047618448E+03  0.00000000000E+00 0. -1.
          4    1    6    6  503    0 -0.26000379447E+02 -0.29405257269E+03 -0.27266600561E+03  0.40185779307E+03  0.00000000000E+00 0. -1.
         -4    1    6    6    0  503 -0.14421648482E+03 -0.56603608903E+03 -0.42659802364E+03  0.72331260348E+03  0.00000000000E+00 0.  1.
<mgrwt>
<rscale>  0 0.26908812E+04</rscale>
<asrwt>0</asrwt>
<pdfrwt beam="1">  1        1 0.17706528E+00 0.26908812E+04</pdfrwt>
<pdfrwt beam="2">  1       -2 0.24197413E+00 0.26908812E+04</pdfrwt>
<totfact> 0.64134711E-01</totfact>
</mgrwt>
</event>
<event>
12    5  0.5246737E-008  0.1059934E+04  0.7818608E-02  0.9245147E-01
          1   -1    0    0  501    0  0.00000000000E+00  0.00000000000E+00  0.59145273865E+03  0.59145273865E+03  0.00000000000E+00 0. -1.
         -2   -1    0    0    0  501 -0.00000000000E+00 -0.00000000000E+00 -0.47487323485E+03  0.47487323485E+03  0.00000000000E+00 0.  1.
        -24    2    1    2    0    0  0.61209670128E+01  0.83320082559E+02  0.12628020565E+03  0.17041242407E+03  0.78192081080E+02 0.  0.
        254    2    1    2    0    0 -0.61209670128E+01 -0.83320082559E+02 -0.97007018417E+01  0.89591354943E+03  0.89195699563E+03 0.  0.
         23    2    4    4    0    0  0.18027078976E+03 -0.53872396149E+02 -0.40055706164E+03  0.45239175284E+03  0.93875160198E+02 0.  0.
         23    2    4    4    0    0 -0.18639175677E+03 -0.29447686410E+02  0.39085635980E+03  0.44352179659E+03  0.91289850624E+02 0.  0.
          3    1    3    3  502    0  0.19760424936E+02  0.89290997374E+02  0.12578378446E+03  0.15551500583E+03  0.00000000000E+00 0. -1.
         -4    1    3    3    0  502 -0.13639457924E+02 -0.59709148150E+01  0.49642118955E+00  0.14897418239E+02  0.00000000000E+00 0.  1.
         13    1    5    5    0    0  0.22398001170E+02 -0.17267539223E+02 -0.15907812745E+03  0.16157255027E+03  0.00000000000E+00 0. -1.
        -13    1    5    5    0    0  0.15787278859E+03 -0.36604856926E+02 -0.24147893419E+03  0.29081920257E+03  0.00000000000E+00 0.  1.
          1    1    6    6  503    0 -0.70727670346E+02  0.33074571881E+02  0.15102902521E+03  0.17001793174E+03  0.00000000000E+00 0. -1.
         -1    1    6    6    0  503 -0.11566408643E+03 -0.62522258291E+02  0.23982733459E+03  0.27350386485E+03  0.00000000000E+00 0.  1.
<mgrwt>
<rscale>  0 0.10599341E+04</rscale>
<asrwt>0</asrwt>
<pdfrwt beam="1">  1        1 0.90992728E-01 0.10599341E+04</pdfrwt>
<pdfrwt beam="2">  1       -2 0.73057421E-01 0.10599341E+04</pdfrwt>
<totfact> 0.51764355E+01</totfact>
</mgrwt>
</event>
<event>
12    5  0.5246737E-008  0.1337897E+04  0.7818608E-02  0.9000041E-01
          1   -1    0    0  501    0  0.00000000000E+00  0.00000000000E+00  0.73228912150E+03  0.73228912150E+03  0.00000000000E+00 0. -1.
         -2   -1    0    0    0  501 -0.00000000000E+00 -0.00000000000E+00 -0.61108698273E+03  0.61108698273E+03  0.00000000000E+00 0.  1.
        -24    2    1    2    0    0  0.15713055058E+03  0.97119871788E+02  0.35278266819E+03  0.40594260886E+03  0.78813141596E+02 0.  0.
        254    2    1    2    0    0 -0.15713055058E+03 -0.97119871788E+02 -0.23158052942E+03  0.93743349536E+03  0.88939852552E+03 0.  0.
         23    2    4    4    0    0 -0.17181972695E+03 -0.43318990040E+03 -0.32602307715E+03  0.57613450523E+03  0.92002243950E+02 0.  0.
         23    2    4    4    0    0  0.14689176369E+02  0.33607002862E+03  0.94442547736E+02  0.36129899014E+03  0.91971351066E+02 0.  0.
          1    1    3    3  502    0  0.14383212759E+03  0.10467675259E+03  0.28119726498E+03  0.33274134893E+03  0.00000000000E+00 0. -1.
         -2    1    3    3    0  502  0.13298422994E+02 -0.75568807975E+01  0.71585403213E+02  0.73201259926E+02  0.00000000000E+00 0.  1.
         13    1    5    5    0    0 -0.32558387866E+02 -0.22890030450E+02 -0.14005363003E+02  0.42191851195E+02  0.00000000000E+00 0. -1.
        -13    1    5    5    0    0 -0.13926133909E+03 -0.41029986995E+03 -0.31201771415E+03  0.53394265403E+03  0.00000000000E+00 0.  1.
          1    1    6    6  503    0  0.41959834943E+02  0.83589648374E+02  0.39191289561E+02  0.10140914279E+03  0.00000000000E+00 0. -1.
         -1    1    6    6    0  503 -0.27270658574E+02  0.25248038024E+03  0.55251258175E+02  0.25988984735E+03  0.00000000000E+00 0.  1.
<mgrwt>
<rscale>  0 0.13378974E+04</rscale>
<asrwt>0</asrwt>
<pdfrwt beam="1">  1        1 0.11265986E+00 0.13378974E+04</pdfrwt>
<pdfrwt beam="2">  1       -2 0.94013382E-01 0.13378974E+04</pdfrwt>
<totfact> 0.20833389E+01</totfact>
</mgrwt>
</event>
<event>
12    5  0.5246737E-008  0.2707229E+04  0.7818608E-02  0.8332663E-01
          1   -1    0    0  501    0  0.00000000000E+00  0.00000000000E+00  0.81843255999E+03  0.81843255999E+03  0.00000000000E+00 0. -1.
         -2   -1    0    0    0  501 -0.00000000000E+00 -0.00000000000E+00 -0.22387579740E+04  0.22387579740E+04  0.00000000000E+00 0.  1.
        -24    2    1    2    0    0  0.11796537691E+04  0.19756284950E+03 -0.50889557442E+03  0.13022558633E+04  0.79256125719E+02 0.  0.
        254    2    1    2    0    0 -0.11796537691E+04 -0.19756284950E+03 -0.91142983958E+03  0.17549346706E+04  0.90469732576E+03 0.  0.
         23    2    4    4    0    0 -0.41100882708E+03  0.25977981899E+03 -0.29565483683E+02  0.49552834808E+03  0.90886828701E+02 0.  0.
         23    2    4    4    0    0 -0.76864494203E+03 -0.45734266849E+03 -0.88186435590E+03  0.12594063226E+04  0.91881335261E+02 0.  0.
          1    1    3    3  502    0  0.66749165897E+03  0.15073016490E+03 -0.28186804412E+03  0.74007722009E+03  0.00000000000E+00 0. -1.
         -4    1    3    3    0  502  0.51216211015E+03  0.46832684602E+02 -0.22702753030E+03  0.56217864325E+03  0.00000000000E+00 0.  1.
         13    1    5    5    0    0 -0.96528057377E+02  0.92733744648E+02 -0.38635282783E+02  0.13931941119E+03  0.00000000000E+00 0. -1.
        -13    1    5    5    0    0 -0.31448076971E+03  0.16704607434E+03  0.90697990997E+01  0.35620893689E+03  0.00000000000E+00 0.  1.
          2    1    6    6  503    0 -0.69561665666E+03 -0.43056655280E+03 -0.77231195653E+03  0.11250492645E+04  0.00000000000E+00 0.  1.
         -2    1    6    6    0  503 -0.73028285373E+02 -0.26776115682E+02 -0.10955239937E+03  0.13435705803E+03  0.00000000000E+00 0. -1.
<mgrwt>
<rscale>  0 0.27072292E+04</rscale>
<asrwt>0</asrwt>
<pdfrwt beam="1">  1        1 0.12591270E+00 0.27072292E+04</pdfrwt>
<pdfrwt beam="2">  1       -2 0.34442429E+00 0.27072292E+04</pdfrwt>
<totfact> 0.27510366E-01</totfact>
</mgrwt>
</event>
<event>
12    5  0.5246737E-008  0.2106386E+04  0.7818608E-02  0.8558436E-01
          1   -1    0    0  501    0  0.00000000000E+00  0.00000000000E+00  0.16541616672E+04  0.16541616672E+04  0.00000000000E+00 0. -1.
         -2   -1    0    0    0  501 -0.00000000000E+00 -0.00000000000E+00 -0.67056047396E+03  0.67056047396E+03  0.00000000000E+00 0.  1.
        -24    2    1    2    0    0 -0.54056128707E+03 -0.24683187845E+03  0.10872970827E+04  0.12416557815E+04  0.79759967513E+02 0.  0.
        254    2    1    2    0    0  0.54056128707E+03  0.24683187845E+03 -0.10369588946E+03  0.10830663597E+04  0.89952622008E+03 0.  0.
         23    2    4    4    0    0  0.51526275036E+02  0.49754593759E+03 -0.13280268084E+03  0.52573362003E+03  0.92479025554E+02 0.  0.
         23    2    4    4    0    0  0.48903501204E+03 -0.25071405914E+03  0.29106791382E+02  0.55733273962E+03  0.88089698024E+02 0.  0.
          1    1    3    3  502    0 -0.32247027209E+03 -0.16764003863E+03  0.73281260020E+03  0.81798812091E+03  0.00000000000E+00 0. -1.
         -2    1    3    3    0  502 -0.21809101498E+03 -0.79191839816E+02  0.35448448250E+03  0.42366766061E+03  0.00000000000E+00 0.  1.
         13    1    5    5    0    0 -0.82860708867E+01  0.25228395443E+01 -0.78561779567E+01  0.11693725762E+02  0.00000000000E+00 0. -1.
        -13    1    5    5    0    0  0.59812345923E+02  0.49502309804E+03 -0.12494650288E+03  0.51403989427E+03  0.00000000000E+00 0.  1.
          4    1    6    6  503    0  0.10438864109E+03 -0.15097050306E+02  0.35319824870E+01  0.10553380604E+03  0.00000000000E+00 0. -1.
         -4    1    6    6    0  503  0.38464637094E+03 -0.23561700883E+03  0.25574808895E+02  0.45179893358E+03  0.00000000000E+00 0.  1.
<mgrwt>
<rscale>  0 0.21063859E+04</rscale>
<asrwt>0</asrwt>
<pdfrwt beam="1">  1        1 0.25448641E+00 0.21063859E+04</pdfrwt>
<pdfrwt beam="2">  1       -2 0.10316315E+00 0.21063859E+04</pdfrwt>
<totfact> 0.31703373E+00</totfact>
</mgrwt>
</event>
<event>
12    5  0.5246737E-008  0.1631721E+04  0.7818608E-02  0.8801294E-01
         -2   -1    0    0    0  501 -0.00000000000E+00  0.00000000000E+00  0.10472523133E+04  0.10472523133E+04  0.00000000000E+00 0.  1.
          1   -1    0    0  501    0  0.00000000000E+00 -0.00000000000E+00 -0.63559503766E+03  0.63559503766E+03  0.00000000000E+00 0. -1.
        -24    2    1    2    0    0 -0.51458130721E+03 -0.19395966353E+03  0.27144637839E+03  0.61877166329E+03  0.82346597616E+02 0.  0.
        254    2    1    2    0    0  0.51458130721E+03  0.19395966353E+03  0.14021089725E+03  0.10640756877E+04  0.90010205007E+03 0.  0.
         23    2    4    4    0    0  0.24081996740E+03  0.40311100858E+03 -0.24666338012E+03  0.53793631205E+03  0.89665549620E+02 0.  0.
         23    2    4    4    0    0  0.27376133982E+03 -0.20915134505E+03  0.38687427737E+03  0.52613937561E+03  0.91985758456E+02 0.  0.
          1    1    3    3  502    0 -0.50313325963E+03 -0.19119760692E+03  0.27746489027E+03  0.60554633775E+03  0.00000000000E+00 0. -1.
         -2    1    3    3    0  502 -0.11448047588E+02 -0.27620566161E+01 -0.60185118812E+01  0.13225325538E+02  0.00000000000E+00 0.  1.
         13    1    5    5    0    0  0.10203831233E+02 -0.69307492324E+00 -0.15655691381E+02  0.18700245915E+02  0.00000000000E+00 0. -1.
        -13    1    5    5    0    0  0.23061613616E+03  0.40380408350E+03 -0.23100768874E+03  0.51923606613E+03  0.00000000000E+00 0.  1.
          1    1    6    6  503    0  0.30071650253E+02 -0.54227981317E+02  0.35935240805E+02  0.71668121494E+02  0.00000000000E+00 0. -1.
         -1    1    6    6    0  503  0.24368968956E+03 -0.15492336373E+03  0.35093903657E+03  0.45447125411E+03  0.00000000000E+00 0.  1.
<mgrwt>
<rscale>  0 0.16317210E+04</rscale>
<asrwt>0</asrwt>
<pdfrwt beam="1">  1        1 0.97783852E-01 0.16317210E+04</pdfrwt>
<pdfrwt beam="2">  1       -2 0.16111574E+00 0.16317210E+04</pdfrwt>
<totfact> 0.65140123E+00</totfact>
</mgrwt>
</event>
<event>
12    5  0.5246737E-008  0.1406504E+04  0.7818608E-02  0.8949124E-01
         -2   -1    0    0    0  501 -0.00000000000E+00  0.00000000000E+00  0.76296705008E+03  0.76296705008E+03  0.00000000000E+00 0.  1.
          1   -1    0    0  501    0  0.00000000000E+00 -0.00000000000E+00 -0.64821094861E+03  0.64821094861E+03  0.00000000000E+00 0. -1.
        -24    2    1    2    0    0  0.27999765120E+03  0.27960350370E+03  0.12394334122E+03  0.42232332404E+03  0.80113882940E+02 0.  0.
        254    2    1    2    0    0 -0.27999765120E+03 -0.27960350370E+03 -0.91872397409E+01  0.98885467465E+03  0.90618560916E+03 0.  0.
         23    2    4    4    0    0 -0.42802486000E+03 -0.15494498233E+03  0.34285243793E+03  0.57689578091E+03  0.89709082668E+02 0.  0.
         23    2    4    4    0    0  0.14802720880E+03 -0.12465852137E+03 -0.35203967767E+03  0.41195889374E+03  0.91249076586E+02 0.  0.
          3    1    3    3  502    0  0.28479849934E+03  0.26905391379E+03  0.12321736828E+03  0.41071001157E+03  0.00000000000E+00 0. -1.
         -4    1    3    3    0  502 -0.48008481382E+01  0.10549589902E+02  0.72597293417E+00  0.11613312475E+02  0.00000000000E+00 0.  1.
         13    1    5    5    0    0 -0.11022656116E+03 -0.73607078959E+01  0.11183854111E+03  0.15720029925E+03  0.00000000000E+00 0. -1.
        -13    1    5    5    0    0 -0.31779829884E+03 -0.14758427443E+03  0.23101389682E+03  0.41969548166E+03  0.00000000000E+00 0.  1.
          3    1    6    6  503    0  0.94345217496E+01 -0.58315809338E+02 -0.78866452324E+02  0.98537612725E+02  0.00000000000E+00 0. -1.
         -3    1    6    6    0  503  0.13859268705E+03 -0.66342712029E+02 -0.27317322535E+03  0.31342128101E+03  0.00000000000E+00 0.  1.
<mgrwt>
<rscale>  0 0.14065043E+04</rscale>
<asrwt>0</asrwt>
<pdfrwt beam="1">  1        1 0.99724761E-01 0.14065043E+04</pdfrwt>
<pdfrwt beam="2">  1       -2 0.11737955E+00 0.14065043E+04</pdfrwt>
<totfact> 0.14627749E+01</totfact>
</mgrwt>
</event>
<event>
12    5  0.5246737E-008  0.1498001E+04  0.7818608E-02  0.8885783E-01
         -2   -1    0    0    0  501 -0.00000000000E+00  0.00000000000E+00  0.10708845574E+04  0.10708845574E+04  0.00000000000E+00 0.  1.
          1   -1    0    0  501    0  0.00000000000E+00 -0.00000000000E+00 -0.52386750289E+03  0.52386750289E+03  0.00000000000E+00 0. -1.
        -24    2    1    2    0    0 -0.31439658799E+03 -0.21454762771E+03  0.47427404151E+03  0.61295913212E+03  0.76857869456E+02 0.  0.
        254    2    1    2    0    0  0.31439658799E+03  0.21454762771E+03  0.72743013037E+02  0.98179292821E+03  0.90208087710E+03 0.  0.
         23    2    4    4    0    0  0.40117382769E+03  0.49994852204E+03  0.14044657588E+03  0.66252826373E+03  0.91266066262E+02 0.  0.
         23    2    4    4    0    0 -0.86777239699E+02 -0.28540089433E+03 -0.67703562841E+02  0.31926466448E+03  0.91445031294E+02 0.  0.
          1    1    3    3  502    0 -0.21372604824E+02 -0.43737349962E+02  0.69768529306E+02  0.85072861127E+02  0.00000000000E+00 0. -1.
         -2    1    3    3    0  502 -0.29302398317E+03 -0.17081027775E+03  0.40450551220E+03  0.52788627099E+03  0.00000000000E+00 0.  1.
         13    1    5    5    0    0  0.56944025747E+02  0.95216318896E+02 -0.68847408878E+01  0.11115830653E+03  0.00000000000E+00 0. -1.
        -13    1    5    5    0    0  0.34422980195E+03  0.40473220314E+03  0.14733131677E+03  0.55136995721E+03  0.00000000000E+00 0.  1.
          4    1    6    6  503    0 -0.46409821257E+01 -0.92987002763E+01 -0.26255692451E+02  0.28237668600E+02  0.00000000000E+00 0. -1.
         -4    1    6    6    0  503 -0.82136257574E+02 -0.27610219405E+03 -0.41447870391E+02  0.29102699588E+03  0.00000000000E+00 0.  1.
<mgrwt>
<rscale>  0 0.14980008E+04</rscale>
<asrwt>0</asrwt>
<pdfrwt beam="1">  1        1 0.80595001E-01 0.14980008E+04</pdfrwt>
<pdfrwt beam="2">  1       -2 0.16475147E+00 0.14980008E+04</pdfrwt>
<totfact> 0.81653134E+00</totfact>
</mgrwt>
</event>
<event>
12    5  0.5246737E-008  0.1373391E+04  0.7818608E-02  0.8973308E-01
          1   -1    0    0  501    0  0.00000000000E+00  0.00000000000E+00  0.16031589038E+04  0.16031589038E+04  0.00000000000E+00 0. -1.
         -2   -1    0    0    0  501 -0.00000000000E+00 -0.00000000000E+00 -0.29413855852E+03  0.29413855852E+03  0.00000000000E+00 0.  1.
        -24    2    1    2    0    0 -0.16800821307E+03  0.35955229875E+03  0.28688238395E+03  0.49599521574E+03  0.78772689585E+02 0.  0.
        254    2    1    2    0    0  0.16800821307E+03 -0.35955229875E+03  0.10221379613E+04  0.14013022465E+04  0.87256940070E+03 0.  0.
         23    2    4    4    0    0  0.44605393268E+03 -0.21006413222E+03  0.24619466355E+03  0.55867837704E+03  0.91753289326E+02 0.  0.
         23    2    4    4    0    0 -0.27804571961E+03 -0.14948816652E+03  0.77594329775E+03  0.84262386951E+03  0.90944213698E+02 0.  0.
          3    1    3    3  502    0 -0.59962960059E+02  0.21734441708E+03  0.17286626469E+03  0.28410719400E+03  0.00000000000E+00 0. -1.
         -4    1    3    3    0  502 -0.10804525301E+03  0.14220788167E+03  0.11401611926E+03  0.21188802174E+03  0.00000000000E+00 0.  1.
         13    1    5    5    0    0  0.43249641463E+03 -0.18580281241E+03  0.24546682278E+03  0.53087644029E+03  0.00000000000E+00 0.  1.
        -13    1    5    5    0    0  0.13557518049E+02 -0.24261319815E+02  0.72784077123E+00  0.27801936749E+02  0.00000000000E+00 0. -1.
          3    1    6    6  503    0 -0.11806178636E+02 -0.13481637773E+02  0.12536885859E+03  0.12664316451E+03  0.00000000000E+00 0. -1.
         -3    1    6    6    0  503 -0.26623954098E+03 -0.13600652875E+03  0.65057443916E+03  0.71598070500E+03  0.00000000000E+00 0.  1.
<mgrwt>
<rscale>  0 0.13733912E+04</rscale>
<asrwt>0</asrwt>
<pdfrwt beam="1">  1        1 0.24663983E+00 0.13733912E+04</pdfrwt>
<pdfrwt beam="2">  1       -2 0.45252087E-01 0.13733912E+04</pdfrwt>
<totfact> 0.22048603E+01</totfact>
</mgrwt>
</event>
<event>
12    5  0.5246737E-008  0.1916122E+04  0.7818608E-02  0.8646873E-01
         -4   -1    0    0    0  501 -0.00000000000E+00  0.00000000000E+00  0.47861390698E+03  0.47861390698E+03  0.00000000000E+00 0.  1.
          1   -1    0    0  501    0  0.00000000000E+00 -0.00000000000E+00 -0.19177896028E+04  0.19177896028E+04  0.00000000000E+00 0. -1.
        -24    2    1    2    0    0 -0.26039966220E+03 -0.69563665633E+03 -0.52440282213E+03  0.91265781300E+03  0.78915284140E+02 0.  0.
        254    2    1    2    0    0  0.26039966220E+03  0.69563665633E+03 -0.91477287374E+03  0.14837456968E+04  0.90165045365E+03 0.  0.
         23    2    4    4    0    0  0.37730065091E+03  0.81939354517E+03 -0.91778148447E+03  0.12902358693E+04  0.92866474219E+02 0.  0.
         23    2    4    4    0    0 -0.11690098871E+03 -0.12375688884E+03  0.30086107352E+01  0.19350982755E+03  0.91953210517E+02 0.  0.
          3    1    3    3  502    0 -0.10359976370E+03 -0.25539213822E+03 -0.24094852556E+03  0.36607956413E+03  0.00000000000E+00 0. -1.
         -4    1    3    3    0  502 -0.15679989850E+03 -0.44024451812E+03 -0.28345429656E+03  0.54657824887E+03  0.00000000000E+00 0.  1.
         13    1    5    5    0    0  0.80247756136E+02  0.11827974876E+03 -0.11192728204E+03  0.18154205517E+03  0.00000000000E+00 0. -1.
        -13    1    5    5    0    0  0.29705289478E+03  0.70111379641E+03 -0.80585420243E+03  0.11086938141E+04  0.00000000000E+00 0.  1.
          1    1    6    6  503    0 -0.47545951230E+02 -0.85232807057E+02 -0.37347835892E+02  0.10449932882E+03  0.00000000000E+00 0. -1.
         -1    1    6    6    0  503 -0.69355037478E+02 -0.38524081782E+02  0.40356446627E+02  0.89010498735E+02  0.00000000000E+00 0.  1.
<mgrwt>
<rscale>  0 0.19161219E+04</rscale>
<asrwt>0</asrwt>
<pdfrwt beam="1">  1        1 0.29504455E+00 0.19161219E+04</pdfrwt>
<pdfrwt beam="2">  1       -4 0.73632909E-01 0.19161219E+04</pdfrwt>
<totfact> 0.26084663E+00</totfact>
</mgrwt>
</event>
<event>
12    5  0.5246737E-008  0.2804192E+04  0.7818608E-02  0.8301968E-01
         -2   -1    0    0    0  501 -0.00000000000E+00  0.00000000000E+00  0.20827214944E+04  0.20827214944E+04  0.00000000000E+00 0.  1.
          1   -1    0    0  501    0  0.00000000000E+00 -0.00000000000E+00 -0.94389650984E+03  0.94389650984E+03  0.00000000000E+00 0. -1.
        -24    2    1    2    0    0 -0.77839635403E+03  0.19835990737E+03 -0.53316534782E+03  0.96721669623E+03  0.77429403576E+02 0.  0.
        254    2    1    2    0    0  0.77839635403E+03 -0.19835990737E+03  0.16719903324E+04  0.20594013080E+04  0.89461418445E+03 0.  0.
         23    2    4    4    0    0 -0.14167141775E+03 -0.17443638590E+03  0.57792653624E+03  0.62678682897E+03  0.91453837259E+02 0.  0.
         23    2    4    4    0    0  0.92006777178E+03 -0.23923521474E+02  0.10940637961E+04  0.14326144790E+04  0.91168064394E+02 0.  0.
          3    1    3    3  502    0 -0.77228168302E+03  0.18955522348E+03 -0.53122935998E+03  0.95632359250E+03  0.00000000000E+00 0. -1.
         -4    1    3    3    0  502 -0.61146710141E+01  0.88046838909E+01 -0.19359878431E+01  0.10893103734E+02  0.00000000000E+00 0.  1.
         13    1    5    5    0    0 -0.10094662306E+03 -0.16185558186E+03  0.52651032260E+03  0.56000050883E+03  0.00000000000E+00 0. -1.
        -13    1    5    5    0    0 -0.40724794690E+02 -0.12580804040E+02  0.51416213637E+02  0.66786320138E+02  0.00000000000E+00 0.  1.
          1    1    6    6  503    0  0.87523722020E+03 -0.13381295797E+02  0.10081444503E+04  0.13351308863E+04  0.00000000000E+00 0. -1.
         -1    1    6    6    0  503  0.44830551579E+02 -0.10542225677E+02  0.85919345786E+02  0.97483592760E+02  0.00000000000E+00 0.  1.
<mgrwt>
<rscale>  0 0.28041923E+04</rscale>
<asrwt>0</asrwt>
<pdfrwt beam="1">  1        1 0.14521485E+00 0.28041923E+04</pdfrwt>
<pdfrwt beam="2">  1       -2 0.32041869E+00 0.28041923E+04</pdfrwt>
<totfact> 0.30290269E-01</totfact>
</mgrwt>
</event>
<event>
12    5  0.5246737E-008  0.1467569E+04  0.7818608E-02  0.8906310E-01
          1   -1    0    0  501    0  0.00000000000E+00  0.00000000000E+00  0.60131521101E+03  0.60131521101E+03  0.00000000000E+00 0. -1.
         -2   -1    0    0    0  501 -0.00000000000E+00 -0.00000000000E+00 -0.89543686084E+03  0.89543686084E+03  0.00000000000E+00 0.  1.
        -24    2    1    2    0    0  0.24492227928E+03  0.25187434605E+03 -0.38875638120E+03  0.53148456699E+03  0.88975906529E+02 0.  0.
        254    2    1    2    0    0 -0.24492227928E+03 -0.25187434605E+03  0.94634731367E+02  0.96526750486E+03  0.89406823815E+03 0.  0.
         23    2    4    4    0    0  0.16120929193E+03  0.21720584259E+03 -0.10966333027E+03  0.30558248495E+03  0.90486436790E+02 0.  0.
         23    2    4    4    0    0 -0.40613157122E+03 -0.46908018864E+03  0.20429806164E+03  0.65968501991E+03  0.92019296827E+02 0.  0.
          3    1    3    3  502    0  0.10783438856E+03  0.92544946273E+02 -0.97615032294E+02  0.17239929515E+03  0.00000000000E+00 0. -1.
         -4    1    3    3    0  502  0.13708789072E+03  0.15932939978E+03 -0.29114134890E+03  0.35908527185E+03  0.00000000000E+00 0.  1.
         13    1    5    5    0    0  0.58055336407E+02  0.12481135101E+03 -0.92946458013E+02  0.16609436921E+03  0.00000000000E+00 0.  1.
        -13    1    5    5    0    0  0.10315395553E+03  0.92394491584E+02 -0.16716872255E+02  0.13948811574E+03  0.00000000000E+00 0. -1.
          1    1    6    6  503    0 -0.37120382876E+03 -0.45619241718E+03  0.17936828432E+03  0.61487948852E+03  0.00000000000E+00 0. -1.
         -1    1    6    6    0  503 -0.34927742459E+02 -0.12887771462E+02  0.24929777312E+02  0.44805531392E+02  0.00000000000E+00 0.  1.
<mgrwt>
<rscale>  0 0.14675692E+04</rscale>
<asrwt>0</asrwt>
<pdfrwt beam="1">  1        1 0.92510032E-01 0.14675692E+04</pdfrwt>
<pdfrwt beam="2">  1       -2 0.13775952E+00 0.14675692E+04</pdfrwt>
<totfact> 0.10846163E+01</totfact>
</mgrwt>
</event>
<event>
12    5  0.5246737E-008  0.1796177E+04  0.7818608E-02  0.8708335E-01
         -2   -1    0    0    0  501 -0.00000000000E+00  0.00000000000E+00  0.70040110778E+03  0.70040110778E+03  0.00000000000E+00 0.  1.
          1   -1    0    0  501    0  0.00000000000E+00 -0.00000000000E+00 -0.11515727979E+04  0.11515727979E+04  0.00000000000E+00 0. -1.
        -24    2    1    2    0    0  0.73508448290E+01 -0.62736327133E+03  0.91954524502E+02  0.63892085262E+03  0.78265651482E+02 0.  0.
        254    2    1    2    0    0 -0.73508448290E+01  0.62736327133E+03 -0.54312621466E+03  0.12130530531E+04  0.88480105980E+03 0.  0.
         23    2    4    4    0    0 -0.37523308835E+03  0.58893313729E+03 -0.34677427565E+03  0.78439012639E+03  0.85868278948E+02 0.  0.
         23    2    4    4    0    0  0.36788224353E+03  0.38430134046E+02 -0.19635193900E+03  0.42866292670E+03  0.91562003449E+02 0.  0.
          1    1    3    3  502    0  0.25315936415E+01 -0.48086125789E+02  0.29004588627E+02  0.56213438083E+02  0.00000000000E+00 0. -1.
         -2    1    3    3    0  502  0.48192511875E+01 -0.57927714554E+03  0.62949935875E+02  0.58270741454E+03  0.00000000000E+00 0.  1.
         13    1    5    5    0    0 -0.10395171211E+03  0.13861456157E+03 -0.48378926164E+02  0.17989017657E+03  0.00000000000E+00 0. -1.
        -13    1    5    5    0    0 -0.27128137625E+03  0.45031857572E+03 -0.29839534949E+03  0.60449994982E+03  0.00000000000E+00 0.  1.
          2    1    6    6  503    0  0.15656152512E+03  0.58285268832E+02 -0.10688829050E+03  0.19832748261E+03  0.00000000000E+00 0. -1.
         -2    1    6    6    0  503  0.21132071840E+03 -0.19855134786E+02 -0.89463648509E+02  0.23033544410E+03  0.00000000000E+00 0.  1.
<mgrwt>
<rscale>  0 0.17961769E+04</rscale>
<asrwt>0</asrwt>
<pdfrwt beam="1">  1        1 0.17716505E+00 0.17961769E+04</pdfrwt>
<pdfrwt beam="2">  1       -2 0.10775402E+00 0.17961769E+04</pdfrwt>
<totfact> 0.66329478E+00</totfact>
</mgrwt>
</event>
<event>
12    5  0.5246737E-008  0.1606176E+04  0.7818608E-02  0.8816763E-01
         -2   -1    0    0    0  501 -0.00000000000E+00  0.00000000000E+00  0.44208671421E+03  0.44208671421E+03  0.00000000000E+00 0.  1.
          1   -1    0    0  501    0  0.00000000000E+00 -0.00000000000E+00 -0.14588774127E+04  0.14588774127E+04  0.00000000000E+00 0. -1.
        -24    2    1    2    0    0 -0.48933104684E+03  0.57781565383E+01 -0.79443510009E+02  0.50210954718E+03  0.79526508760E+02 0.  0.
        254    2    1    2    0    0  0.48933104684E+03 -0.57781565383E+01 -0.93734718845E+03  0.13988545797E+04  0.91580353949E+03 0.  0.
         23    2    4    4    0    0  0.39809511229E+03  0.40685848295E+03 -0.36930501332E+03  0.68504729562E+03  0.94287118927E+02 0.  0.
         23    2    4    4    0    0  0.91235934546E+02 -0.41263663949E+03 -0.56804217513E+03  0.71380728407E+03  0.90862170673E+02 0.  0.
          3    1    3    3  502    0 -0.14441395268E+03 -0.23208338096E+02 -0.50620027670E+02  0.15477856404E+03  0.00000000000E+00 0. -1.
         -4    1    3    3    0  502 -0.34491709416E+03  0.28986494634E+02 -0.28823482339E+02  0.34733098314E+03  0.00000000000E+00 0.  1.
         13    1    5    5    0    0  0.27300805973E+03  0.28837437505E+03 -0.30661321935E+03  0.50170195050E+03  0.00000000000E+00 0.  1.
        -13    1    5    5    0    0  0.12508705256E+03  0.11848410791E+03 -0.62691793968E+02  0.18334534512E+03  0.00000000000E+00 0. -1.
          2    1    6    6  503    0  0.65305306650E+02 -0.37601929435E+03 -0.46601498606E+03  0.60234978213E+03  0.00000000000E+00 0. -1.
         -2    1    6    6    0  503  0.25930627896E+02 -0.36617345137E+02 -0.10202718908E+03  0.11145750194E+03  0.00000000000E+00 0.  1.
<mgrwt>
<rscale>  0 0.16061760E+04</rscale>
<asrwt>0</asrwt>
<pdfrwt beam="1">  1        1 0.22444268E+00 0.16061760E+04</pdfrwt>
<pdfrwt beam="2">  1       -2 0.68013340E-01 0.16061760E+04</pdfrwt>
<totfact> 0.11637549E+01</totfact>
</mgrwt>
</event>
<event>
12    5  0.5246737E-008  0.1373780E+04  0.7818608E-02  0.8973020E-01
          1   -1    0    0  501    0  0.00000000000E+00  0.00000000000E+00  0.52776940776E+03  0.52776940776E+03  0.00000000000E+00 0. -1.
         -2   -1    0    0    0  501 -0.00000000000E+00 -0.00000000000E+00 -0.89398465660E+03  0.89398465660E+03  0.00000000000E+00 0.  1.
        -24    2    1    2    0    0  0.30422427208E+03  0.88577240256E+02 -0.33752238774E+03  0.46971440001E+03  0.79447593640E+02 0.  0.
        254    2    1    2    0    0 -0.30422427208E+03 -0.88577240256E+02 -0.28692861100E+02  0.95203966434E+03  0.89730591606E+03 0.  0.
         23    2    4    4    0    0 -0.54941013558E+03 -0.24814155066E+03  0.10339518399E+03  0.61857357575E+03  0.92287476439E+02 0.  0.
         23    2    4    4    0    0  0.24518586350E+03  0.15956431040E+03 -0.13208804509E+03  0.33346608859E+03  0.90418492428E+02 0.  0.
          1    1    3    3  502    0  0.57354625258E+02  0.15030881307E+02 -0.24053200310E+02  0.63984661259E+02  0.00000000000E+00 0. -1.
         -4    1    3    3    0  502  0.24686964682E+03  0.73546358949E+02 -0.31346918743E+03  0.40572973875E+03  0.00000000000E+00 0.  1.
         13    1    5    5    0    0 -0.11647568627E+03 -0.27724944603E+02 -0.85277427689E+01  0.12003324724E+03  0.00000000000E+00 0. -1.
        -13    1    5    5    0    0 -0.43293444930E+03 -0.22041660606E+03  0.11192292676E+03  0.49854032851E+03  0.00000000000E+00 0.  1.
          2    1    6    6  503    0  0.48877006335E+02 -0.19420187965E+01 -0.47416512902E+01  0.49144851635E+02  0.00000000000E+00 0. -1.
         -2    1    6    6    0  503  0.19630885716E+03  0.16150632920E+03 -0.12734639380E+03  0.28432123696E+03  0.00000000000E+00 0.  1.
<mgrwt>
<rscale>  0 0.13737798E+04</rscale>
<asrwt>0</asrwt>
<pdfrwt beam="1">  1        1 0.81195295E-01 0.13737798E+04</pdfrwt>
<pdfrwt beam="2">  1       -2 0.13753610E+00 0.13737798E+04</pdfrwt>
<totfact> 0.13204729E+01</totfact>
</mgrwt>
</event>
<event>
12    5  0.5246737E-008  0.1577261E+04  0.7818608E-02  0.8834641E-01
          1   -1    0    0  501    0  0.00000000000E+00  0.00000000000E+00  0.21343370659E+04  0.21343370659E+04  0.00000000000E+00 0. -1.
         -2   -1    0    0    0  501 -0.00000000000E+00 -0.00000000000E+00 -0.29139618568E+03  0.29139618568E+03  0.00000000000E+00 0.  1.
        -24    2    1    2    0    0 -0.39473115953E+03  0.67385640563E+02  0.10083594365E+03  0.42061048376E+03  0.79948600098E+02 0.  0.
        254    2    1    2    0    0  0.39473115953E+03 -0.67385640563E+02  0.17421049366E+04  0.20051227678E+04  0.90842401509E+03 0.  0.
         23    2    4    4    0    0  0.69052211080E+02 -0.42091757173E+03  0.47462719455E+03  0.64648348608E+03  0.10358626319E+03 0.  0.
         23    2    4    4    0    0  0.32567894845E+03  0.35353193117E+03  0.12674777420E+04  0.13586392818E+04  0.91374326671E+02 0.  0.
          1    1    3    3  502    0 -0.21115849358E+02  0.20359553144E+02  0.19905172048E+02  0.35448644157E+02  0.00000000000E+00 0. -1.
         -2    1    3    3    0  502 -0.37361531017E+03  0.47026087419E+02  0.80930771605E+02  0.38516183960E+03  0.00000000000E+00 0.  1.
         13    1    5    5    0    0  0.63879663059E+02 -0.11706375757E+03  0.17154099655E+03  0.21728057480E+03  0.00000000000E+00 0.  1.
        -13    1    5    5    0    0  0.51725480211E+01 -0.30385381416E+03  0.30308619800E+03  0.42920291128E+03  0.00000000000E+00 0. -1.
          3    1    6    6  503    0  0.23369515547E+03  0.26179408345E+03  0.80292339200E+03  0.87626225597E+03  0.00000000000E+00 0. -1.
         -3    1    6    6    0  503  0.91983792983E+02  0.91737847721E+02  0.46455435003E+03  0.48237702579E+03  0.00000000000E+00 0.  1.
<mgrwt>
<rscale>  0 0.15772605E+04</rscale>
<asrwt>0</asrwt>
<pdfrwt beam="1">  1        1 0.32835954E+00 0.15772605E+04</pdfrwt>
<pdfrwt beam="2">  1       -2 0.44830184E-01 0.15772605E+04</pdfrwt>
<totfact> 0.96259779E+00</totfact>
</mgrwt>
</event>
<event>
12    5  0.5246737E-008  0.1204646E+04  0.7818608E-02  0.9108800E-01
         -2   -1    0    0    0  501 -0.00000000000E+00  0.00000000000E+00  0.16541485625E+03  0.16541485625E+03  0.00000000000E+00 0.  1.
          1   -1    0    0  501    0  0.00000000000E+00 -0.00000000000E+00 -0.21932311203E+04  0.21932311203E+04  0.00000000000E+00 0. -1.
        -24    2    1    2    0    0  0.14586921963E+03  0.17866963206E+03 -0.35125970994E+03  0.43074679581E+03  0.94650682075E+02 0.  0.
        254    2    1    2    0    0 -0.14586921963E+03 -0.17866963206E+03 -0.16765565541E+04  0.19278991807E+04  0.92344610309E+03 0.  0.
         23    2    4    4    0    0 -0.39192415492E+03 -0.22860324496E+03 -0.36794805095E+03  0.59223719900E+03  0.97443033963E+02 0.  0.
         23    2    4    4    0    0  0.24605493529E+03  0.49933612900E+02 -0.13086085032E+04  0.13356619817E+04  0.92197169433E+02 0.  0.
          3    1    3    3  502    0  0.61065681518E+02  0.17044145430E+02 -0.12397815619E+03  0.13924835211E+03  0.00000000000E+00 0. -1.
         -4    1    3    3    0  502  0.84803538112E+02  0.16162548663E+03 -0.22728155374E+03  0.29149844369E+03  0.00000000000E+00 0.  1.
         13    1    5    5    0    0 -0.33752045516E+03 -0.18801248071E+03 -0.26344151913E+03  0.46762183926E+03  0.00000000000E+00 0. -1.
        -13    1    5    5    0    0 -0.54403699761E+02 -0.40590764249E+02 -0.10450653182E+03  0.12461535974E+03  0.00000000000E+00 0.  1.
          2    1    6    6  503    0  0.13231120534E+03 -0.19718267457E+02 -0.62284315772E+03  0.63704683049E+03  0.00000000000E+00 0. -1.
         -2    1    6    6    0  503  0.11374372994E+03  0.69651880357E+02 -0.68576534544E+03  0.69861515124E+03  0.00000000000E+00 0.  1.
<mgrwt>
<rscale>  0 0.12046460E+04</rscale>
<asrwt>0</asrwt>
<pdfrwt beam="1">  1        1 0.33742016E+00 0.12046460E+04</pdfrwt>
<pdfrwt beam="2">  1       -2 0.25448440E-01 0.12046460E+04</pdfrwt>
<totfact> 0.26651613E+01</totfact>
</mgrwt>
</event>
<event>
12    5  0.5246737E-008  0.2221821E+04  0.7818608E-02  0.8509400E-01
         -2   -1    0    0    0  501 -0.00000000000E+00  0.00000000000E+00  0.53101313485E+03  0.53101313485E+03  0.00000000000E+00 0.  1.
          1   -1    0    0  501    0  0.00000000000E+00 -0.00000000000E+00 -0.23240890927E+04  0.23240890927E+04  0.00000000000E+00 0. -1.
        -24    2    1    2    0    0 -0.78548711091E+03 -0.90173546515E+02 -0.13018526889E+03  0.80514093499E+03  0.78628563941E+02 0.  0.
        254    2    1    2    0    0  0.78548711091E+03  0.90173546515E+02 -0.16628906889E+04  0.20499612925E+04  0.90111852029E+03 0.  0.
         23    2    4    4    0    0  0.65642621298E+03  0.40199017546E+01 -0.17341516345E+04  0.18565765800E+04  0.93183546036E+02 0.  0.
         23    2    4    4    0    0  0.12906089794E+03  0.86153644761E+02  0.71260945559E+02  0.19338471254E+03  0.90776422054E+02 0.  0.
          3    1    3    3  502    0 -0.17529935953E+02  0.97472301831E+01 -0.17649454647E+01  0.20135098293E+02  0.00000000000E+00 0. -1.
         -4    1    3    3    0  502 -0.76795717496E+03 -0.99920776698E+02 -0.12842032342E+03  0.78500583670E+03  0.00000000000E+00 0.  1.
         13    1    5    5    0    0  0.15394614647E+03  0.40295323872E+02 -0.43013004663E+03  0.45862292372E+03  0.00000000000E+00 0.  1.
        -13    1    5    5    0    0  0.50248006650E+03 -0.36275422118E+02 -0.13040215878E+04  0.13979536563E+04  0.00000000000E+00 0. -1.
          3    1    6    6  503    0  0.11948012906E+03  0.78129010780E+02  0.91524606069E+02  0.16957711249E+03  0.00000000000E+00 0. -1.
         -3    1    6    6    0  503  0.95807688782E+01  0.80246339807E+01 -0.20263660510E+02  0.23807600049E+02  0.00000000000E+00 0.  1.
<mgrwt>
<rscale>  0 0.22218207E+04</rscale>
<asrwt>0</asrwt>
<pdfrwt beam="1">  1        1 0.35755216E+00 0.22218207E+04</pdfrwt>
<pdfrwt beam="2">  1       -2 0.81694330E-01 0.22218207E+04</pdfrwt>
<totfact> 0.18886973E+00</totfact>
</mgrwt>
</event>
<event>
12    5  0.5246737E-008  0.1318643E+04  0.7818608E-02  0.9014911E-01
          1   -1    0    0  501    0  0.00000000000E+00  0.00000000000E+00  0.86739265448E+03  0.86739265448E+03  0.00000000000E+00 0. -1.
         -2   -1    0    0    0  501 -0.00000000000E+00 -0.00000000000E+00 -0.50116240734E+03  0.50116240734E+03  0.00000000000E+00 0.  1.
        -24    2    1    2    0    0  0.20163180476E+03 -0.31348777405E+02 -0.19069236780E+03  0.28574605782E+03  0.60407780048E+02 0.  0.
        254    2    1    2    0    0 -0.20163180476E+03  0.31348777405E+02  0.55692261495E+03  0.10828090040E+04  0.90591081767E+03 0.  0.
         23    2    4    4    0    0  0.17138961653E+03  0.33616397890E+03  0.75501815521E+02  0.39591657794E+03  0.93106343341E+02 0.  0.
         23    2    4    4    0    0 -0.37302142129E+03 -0.30481520150E+03  0.48142079943E+03  0.68689242606E+03  0.89431152583E+02 0.  0.
          1    1    3    3  502    0  0.28687689757E+02  0.13966409566E+02 -0.44748517001E+02  0.54958838357E+02  0.00000000000E+00 0. -1.
         -2    1    3    3    0  502  0.17294411500E+03 -0.45315186970E+02 -0.14594385080E+03  0.23078721947E+03  0.00000000000E+00 0.  1.
         13    1    5    5    0    0  0.10625944000E+01  0.63865552181E+02  0.33120391369E+02  0.71950664950E+02  0.00000000000E+00 0.  1.
        -13    1    5    5    0    0  0.17032702213E+03  0.27229842672E+03  0.42381424151E+02  0.32396591299E+03  0.00000000000E+00 0. -1.
          2    1    6    6  503    0 -0.25207163803E+03 -0.15301216225E+03  0.26886360266E+03  0.39904945725E+03  0.00000000000E+00 0. -1.
         -2    1    6    6    0  503 -0.12094978326E+03 -0.15180303925E+03  0.21255719677E+03  0.28784296881E+03  0.00000000000E+00 0.  1.
<mgrwt>
<rscale>  0 0.13186426E+04</rscale>
<asrwt>0</asrwt>
<pdfrwt beam="1">  1        1 0.13344502E+00 0.13186426E+04</pdfrwt>
<pdfrwt beam="2">  1       -2 0.77101909E-01 0.13186426E+04</pdfrwt>
<totfact> 0.25003746E+01</totfact>
</mgrwt>
</event>
<event>
12    5  0.5246737E-008  0.1909116E+04  0.7818608E-02  0.8650332E-01
         -4   -1    0    0    0  501 -0.00000000000E+00  0.00000000000E+00  0.19594796581E+04  0.19594796581E+04  0.00000000000E+00 0.  1.
          3   -1    0    0  501    0  0.00000000000E+00 -0.00000000000E+00 -0.46501149679E+03  0.46501149679E+03  0.00000000000E+00 0. -1.
        -24    2    1    2    0    0 -0.21566004705E+03  0.66701410791E+03  0.81703713042E+03  0.10796816737E+04  0.82132623950E+02 0.  0.
        254    2    1    2    0    0  0.21566004705E+03 -0.66701410791E+03  0.67743103086E+03  0.13448094812E+04  0.92638148896E+03 0.  0.
         23    2    4    4    0    0  0.27831629912E+03  0.15070405404E+03  0.13466406186E+03  0.35716120723E+03  0.96218730691E+02 0.  0.
         23    2    4    4    0    0 -0.62656252067E+02 -0.81771816194E+03  0.54276696900E+03  0.98764827396E+03  0.90908372082E+02 0.  0.
          1    1    3    3  502    0 -0.28039263170E+02  0.27626187816E+02  0.41563766508E+02  0.57244678519E+02  0.00000000000E+00 0. -1.
         -2    1    3    3    0  502 -0.18762078388E+03  0.63938792009E+03  0.77547336391E+03  0.10224369951E+04  0.00000000000E+00 0.  1.
         13    1    5    5    0    0  0.23150819505E+03  0.95006990801E+02  0.70068510014E+02  0.25986913778E+03  0.00000000000E+00 0.  1.
        -13    1    5    5    0    0  0.46808104071E+02  0.55697063236E+02  0.64595551842E+02  0.97292069448E+02  0.00000000000E+00 0. -1.
          2    1    6    6  503    0  0.11017440473E+02 -0.24334829487E+02  0.29745756317E+02  0.39979719104E+02  0.00000000000E+00 0. -1.
         -2    1    6    6    0  503 -0.73673692540E+02 -0.79338333246E+03  0.51302121268E+03  0.94766855485E+03  0.00000000000E+00 0.  1.
<mgrwt>
<rscale>  0 0.19091156E+04</rscale>
<asrwt>0</asrwt>
<pdfrwt beam="1">  1        3 0.71540231E-01 0.19091156E+04</pdfrwt>
<pdfrwt beam="2">  1       -4 0.30145840E+00 0.19091156E+04</pdfrwt>
<totfact> 0.12059987E-01</totfact>
</mgrwt>
</event>
<event>
12    5  0.5246737E-008  0.2473884E+04  0.7818608E-02  0.8412349E-01
          1   -1    0    0  501    0  0.00000000000E+00  0.00000000000E+00  0.10123389952E+04  0.10123389952E+04  0.00000000000E+00 0. -1.
         -2   -1    0    0    0  501 -0.00000000000E+00 -0.00000000000E+00 -0.15113770517E+04  0.15113770517E+04  0.00000000000E+00 0.  1.
        -24    2    1    2    0    0 -0.94838297628E+03  0.54285276934E+02  0.27919769522E+03  0.99343552747E+03  0.81151914539E+02 0.  0.
        254    2    1    2    0    0  0.94838297628E+03 -0.54285276934E+02 -0.77823575165E+03  0.15302805194E+04  0.91308839771E+03 0.  0.
         23    2    4    4    0    0  0.10929899385E+04 -0.14093870983E+03 -0.75039737178E+03  0.13362200998E+04  0.88866270461E+02 0.  0.
         23    2    4    4    0    0 -0.14460696221E+03  0.86653432893E+02 -0.27838379869E+02  0.19406041961E+03  0.92002609273E+02 0.  0.
          1    1    3    3  502    0 -0.83949128362E+03  0.25414020650E+02  0.25966709833E+03  0.87910095533E+03  0.00000000000E+00 0. -1.
         -2    1    3    3    0  502 -0.10889169267E+03  0.28871256284E+02  0.19530596887E+02  0.11433457214E+03  0.00000000000E+00 0.  1.
         13    1    5    5    0    0  0.73329484334E+03 -0.86627264508E+02 -0.55155369715E+03  0.92164911494E+03  0.00000000000E+00 0. -1.
        -13    1    5    5    0    0  0.35969509516E+03 -0.54311445319E+02 -0.19884367463E+03  0.41457098489E+03  0.00000000000E+00 0.  1.
          1    1    6    6  503    0 -0.14369799772E+03  0.81514960115E+02 -0.48954670446E+02  0.17230891744E+03  0.00000000000E+00 0. -1.
         -1    1    6    6    0  503 -0.90896449480E+00  0.51384727777E+01  0.21116290577E+02  0.21751502171E+02  0.00000000000E+00 0.  1.
<mgrwt>
<rscale>  0 0.24738843E+04</rscale>
<asrwt>0</asrwt>
<pdfrwt beam="1">  1        1 0.15574446E+00 0.24738843E+04</pdfrwt>
<pdfrwt beam="2">  1       -2 0.23251955E+00 0.24738843E+04</pdfrwt>
<totfact> 0.95282108E-01</totfact>
</mgrwt>
</event>
<event>
12    5  0.5246737E-008  0.1660319E+04  0.7818608E-02  0.8784325E-01
          1   -1    0    0  501    0  0.00000000000E+00  0.00000000000E+00  0.14361963513E+04  0.14361963513E+04  0.00000000000E+00 0. -1.
         -2   -1    0    0    0  501 -0.00000000000E+00 -0.00000000000E+00 -0.47985429436E+03  0.47985429436E+03  0.00000000000E+00 0.  1.
        -24    2    1    2    0    0  0.18741974260E+03 -0.51469740679E+03  0.57211686315E+03  0.79598268618E+03  0.78937640742E+02 0.  0.
        254    2    1    2    0    0 -0.18741974260E+03  0.51469740679E+03  0.38422519379E+03  0.11200679595E+04  0.89826702813E+03 0.  0.
         23    2    4    4    0    0 -0.52015397067E+03  0.32801720252E+03  0.37468041189E+03  0.72723792891E+03  0.10165705008E+03 0.  0.
         23    2    4    4    0    0  0.33273422807E+03  0.18668020427E+03  0.95447819001E+01  0.39283003057E+03  0.93073975189E+02 0.  0.
          1    1    3    3  502    0  0.18739290851E+03 -0.50894130362E+03  0.57422231669E+03  0.78985354445E+03  0.00000000000E+00 0. -1.
         -2    1    3    3    0  502  0.26834093059E-01 -0.57561031754E+01 -0.21054535400E+01  0.61291417379E+01  0.00000000000E+00 0.  1.
         13    1    5    5    0    0 -0.51957130618E+03  0.31455376269E+03  0.37490653666E+03  0.71375998981E+03  0.00000000000E+00 0. -1.
        -13    1    5    5    0    0 -0.58266449264E+00  0.13463439828E+02 -0.22612476092E+00  0.13477939098E+02  0.00000000000E+00 0.  1.
          3    1    6    6  503    0  0.20502410397E+03  0.16089535940E+03 -0.11410032093E+02  0.26086852765E+03  0.00000000000E+00 0. -1.
         -3    1    6    6    0  503  0.12771012410E+03  0.25784844870E+02  0.20954813994E+02  0.13196150292E+03  0.00000000000E+00 0.  1.
<mgrwt>
<rscale>  0 0.16603192E+04</rscale>
<asrwt>0</asrwt>
<pdfrwt beam="1">  1        1 0.22095328E+00 0.16603192E+04</pdfrwt>
<pdfrwt beam="2">  1       -2 0.73823738E-01 0.16603192E+04</pdfrwt>
<totfact> 0.10039338E+01</totfact>
</mgrwt>
</event>
<event>
12    5  0.5246737E-008  0.1165739E+04  0.7818608E-02  0.9143385E-01
         -2   -1    0    0    0  501 -0.00000000000E+00  0.00000000000E+00  0.27703319187E+03  0.27703319187E+03  0.00000000000E+00 0.  1.
          1   -1    0    0  501    0  0.00000000000E+00 -0.00000000000E+00 -0.12263406915E+04  0.12263406915E+04  0.00000000000E+00 0. -1.
        -24    2    1    2    0    0 -0.17447650163E+03 -0.10817272817E+03 -0.82097153828E+02  0.23483350163E+03  0.79141911031E+02 0.  0.
        254    2    1    2    0    0  0.17447650163E+03  0.10817272817E+03 -0.86721034584E+03  0.12685403818E+04  0.90277213487E+03 0.  0.
         23    2    4    4    0    0 -0.31497722100E+03  0.24469336702E+03 -0.40519873555E+03  0.57580303335E+03  0.90981450403E+02 0.  0.
         23    2    4    4    0    0  0.48945372262E+03 -0.13652063885E+03 -0.46201161029E+03  0.69273734842E+03  0.90705426660E+02 0.  0.
          3    1    3    3  502    0 -0.51270937753E+02 -0.18531894983E+02 -0.59673349751E+02  0.80827277947E+02  0.00000000000E+00 0. -1.
         -4    1    3    3    0  502 -0.12320556387E+03 -0.89640833188E+02 -0.22423804076E+02  0.15400622368E+03  0.00000000000E+00 0.  1.
         13    1    5    5    0    0 -0.32416550674E+02  0.40933435900E+02 -0.99315504417E+02  0.11220493906E+03  0.00000000000E+00 0. -1.
        -13    1    5    5    0    0 -0.28256067032E+03  0.20375993112E+03 -0.30588323114E+03  0.46359809429E+03  0.00000000000E+00 0.  1.
          1    1    6    6  503    0  0.11477350544E+03 -0.56389049373E+02 -0.16026817836E+03  0.20503309838E+03  0.00000000000E+00 0. -1.
         -1    1    6    6    0  503  0.37468021719E+03 -0.80131589475E+02 -0.30174343193E+03  0.48770425003E+03  0.00000000000E+00 0.  1.
<mgrwt>
<rscale>  0 0.11657394E+04</rscale>
<asrwt>0</asrwt>
<pdfrwt beam="1">  1        1 0.18866780E+00 0.11657394E+04</pdfrwt>
<pdfrwt beam="2">  1       -2 0.42620491E-01 0.11657394E+04</pdfrwt>
<totfact> 0.46409745E+01</totfact>
</mgrwt>
</event>
<event>
12    5  0.5246737E-008  0.2036781E+04  0.7818608E-02  0.8589615E-01
         -2   -1    0    0    0  501 -0.00000000000E+00  0.00000000000E+00  0.15184038907E+04  0.15184038907E+04  0.00000000000E+00 0.  1.
          1   -1    0    0  501    0  0.00000000000E+00 -0.00000000000E+00 -0.68303227806E+03  0.68303227806E+03  0.00000000000E+00 0. -1.
        -24    2    1    2    0    0 -0.17676780719E+03 -0.69613513301E+03  0.72772252909E+03  0.10254306289E+04  0.77954564866E+02 0.  0.
        254    2    1    2    0    0  0.17676780719E+03  0.69613513301E+03  0.10764908355E+03  0.11760055399E+04  0.92495930916E+03 0.  0.
         23    2    4    4    0    0  0.30405446359E+03  0.48739747428E+03  0.45714703232E+03  0.73966042228E+03  0.90048411266E+02 0.  0.
         23    2    4    4    0    0 -0.12728665640E+03  0.20873765873E+03 -0.34949794877E+03  0.43634511761E+03  0.92059450357E+02 0.  0.
          3    1    3    3  502    0 -0.12078178577E+03 -0.37133169916E+03  0.43578792683E+03  0.58513809288E+03  0.00000000000E+00 0. -1.
         -4    1    3    3    0  502 -0.55986021422E+02 -0.32480343385E+03  0.29193460225E+03  0.44029253597E+03  0.00000000000E+00 0.  1.
         13    1    5    5    0    0  0.19586231388E+01  0.12804311087E+02  0.31932693548E+02  0.34459882534E+02  0.00000000000E+00 0.  1.
        -13    1    5    5    0    0  0.30209584045E+03  0.47459316319E+03  0.42521433877E+03  0.70520053975E+03  0.00000000000E+00 0. -1.
          3    1    6    6  503    0 -0.78548813540E+02  0.72063647102E+02 -0.20772053131E+03  0.23347570424E+03  0.00000000000E+00 0. -1.
         -3    1    6    6    0  503 -0.48737842860E+02  0.13667401163E+03 -0.14177741746E+03  0.20286941338E+03  0.00000000000E+00 0.  1.
<mgrwt>
<rscale>  0 0.20367807E+04</rscale>
<asrwt>0</asrwt>
<pdfrwt beam="1">  1        1 0.10508189E+00 0.20367807E+04</pdfrwt>
<pdfrwt beam="2">  1       -2 0.23360060E+00 0.20367807E+04</pdfrwt>
<totfact> 0.18587198E+00</totfact>
</mgrwt>
</event>
<event>
12    5  0.5246737E-008  0.1292095E+04  0.7818608E-02  0.9035857E-01
         -2   -1    0    0    0  501 -0.00000000000E+00  0.00000000000E+00  0.69372555812E+03  0.69372555812E+03  0.00000000000E+00 0.  1.
          1   -1    0    0  501    0  0.00000000000E+00 -0.00000000000E+00 -0.60164651084E+03  0.60164651084E+03  0.00000000000E+00 0. -1.
        -24    2    1    2    0    0  0.24981112300E+02 -0.39968115655E+02 -0.30077796116E+03  0.31480992889E+03  0.80102454182E+02 0.  0.
        254    2    1    2    0    0 -0.24981112300E+02  0.39968115655E+02  0.39285700844E+03  0.98056214007E+03  0.89718670031E+03 0.  0.
         23    2    4    4    0    0 -0.20615824660E+03  0.20653102548E+03  0.58160067514E+03  0.65713180138E+03  0.91687359731E+02 0.  0.
         23    2    4    4    0    0  0.18117713430E+03 -0.16656290982E+03 -0.18874366670E+03  0.32343033869E+03  0.91731430509E+02 0.  0.
          1    1    3    3  502    0  0.24323788018E+02 -0.61621633206E+02 -0.17381780931E+03  0.18601479289E+03  0.00000000000E+00 0. -1.
         -2    1    3    3    0  502  0.65732428192E+00  0.21653517551E+02 -0.12696015185E+03  0.12879513599E+03  0.00000000000E+00 0.  1.
         13    1    5    5    0    0 -0.10290073516E+03  0.41823887470E+02  0.22799227390E+03  0.25361048050E+03  0.00000000000E+00 0.  1.
        -13    1    5    5    0    0 -0.10325751144E+03  0.16470713801E+03  0.35360840124E+03  0.40352132088E+03  0.00000000000E+00 0. -1.
          4    1    6    6  503    0  0.24769484473E+02 -0.79477852156E+02 -0.51905008332E+02  0.98103956262E+02  0.00000000000E+00 0. -1.
         -4    1    6    6    0  503  0.15640764983E+03 -0.87085057666E+02 -0.13683865837E+03  0.22532638243E+03  0.00000000000E+00 0.  1.
<mgrwt>
<rscale>  0 0.12920953E+04</rscale>
<asrwt>0</asrwt>
<pdfrwt beam="1">  1        1 0.92561002E-01 0.12920953E+04</pdfrwt>
<pdfrwt beam="2">  1       -2 0.10672701E+00 0.12920953E+04</pdfrwt>
<totfact> 0.20743042E+01</totfact>
</mgrwt>
</event>
<event>
12    5  0.5246737E-008  0.1331796E+04  0.7818608E-02  0.9004723E-01
          1   -1    0    0  501    0  0.00000000000E+00  0.00000000000E+00  0.13156557892E+04  0.13156557892E+04  0.00000000000E+00 0. -1.
         -2   -1    0    0    0  501 -0.00000000000E+00 -0.00000000000E+00 -0.33703378033E+03  0.33703378033E+03  0.00000000000E+00 0.  1.
        -24    2    1    2    0    0  0.32363641364E+03  0.16495147303E+03  0.21459006597E+03  0.42945197823E+03  0.80190950279E+02 0.  0.
        254    2    1    2    0    0 -0.32363641364E+03 -0.16495147303E+03  0.76403194290E+03  0.12232375913E+04  0.88352469027E+03 0.  0.
         23    2    4    4    0    0  0.24672253085E+03 -0.19208226302E+03  0.47780450586E+03  0.57813525247E+03  0.90419142522E+02 0.  0.
         23    2    4    4    0    0 -0.57035894449E+03  0.27130789999E+02  0.28622743704E+03  0.64510233883E+03  0.90473623321E+02 0.  0.
          3    1    3    3  502    0  0.70303960151E+02  0.19095704626E+02  0.12100417503E+02  0.73849257625E+02  0.00000000000E+00 0. -1.
         -4    1    3    3    0  502  0.25333245349E+03  0.14585576840E+03  0.20248964846E+03  0.35560272061E+03  0.00000000000E+00 0.  1.
         13    1    5    5    0    0  0.18449557483E+03 -0.88870018779E+02  0.31014396463E+03  0.37165276289E+03  0.00000000000E+00 0.  1.
        -13    1    5    5    0    0  0.62226956021E+02 -0.10321224425E+03  0.16766054123E+03  0.20648248958E+03  0.00000000000E+00 0. -1.
          1    1    6    6  503    0 -0.18622055293E+02 -0.23612759883E+01 -0.64490181728E+01  0.19848083107E+02  0.00000000000E+00 0. -1.
         -1    1    6    6    0  503 -0.55173688920E+03  0.29492065987E+02  0.29267645521E+03  0.62525425572E+03  0.00000000000E+00 0.  1.
<mgrwt>
<rscale>  0 0.13317964E+04</rscale>
<asrwt>0</asrwt>
<pdfrwt beam="1">  1        1 0.20240858E+00 0.13317964E+04</pdfrwt>
<pdfrwt beam="2">  1       -2 0.51851352E-01 0.13317964E+04</pdfrwt>
<totfact> 0.26621568E+01</totfact>
</mgrwt>
</event>
<event>
12    5  0.5246737E-008  0.1118888E+04  0.7818608E-02  0.9186975E-01
          1   -1    0    0  501    0  0.00000000000E+00  0.00000000000E+00  0.21307295790E+04  0.21307295790E+04  0.00000000000E+00 0. -1.
         -2   -1    0    0    0  501 -0.00000000000E+00 -0.00000000000E+00 -0.14688752912E+03  0.14688752912E+03  0.00000000000E+00 0.  1.
        -24    2    1    2    0    0 -0.10482323359E+03  0.13153784111E+03  0.46770794036E+03  0.50344771724E+03  0.80117242644E+02 0.  0.
        254    2    1    2    0    0  0.10482323359E+03 -0.13153784111E+03  0.15161341095E+04  0.17741693909E+04  0.90593833982E+03 0.  0.
         23    2    4    4    0    0  0.36909838713E+02 -0.20358080863E+03 -0.25728413834E+02  0.22647905226E+03  0.88449578833E+02 0.  0.
         23    2    4    4    0    0  0.67913394874E+02  0.72042967525E+02  0.15418625234E+04  0.15476903386E+04  0.90570000347E+02 0.  0.
          1    1    3    3  502    0 -0.10018709590E+03  0.12365066864E+03  0.46797498491E+03  0.49429498130E+03  0.00000000000E+00 0. -1.
         -2    1    3    3    0  502 -0.46361376895E+01  0.78871724741E+01 -0.26704454676E+00  0.91527359353E+01  0.00000000000E+00 0.  1.
         13    1    5    5    0    0  0.22704430958E+02 -0.16927135468E+03  0.14901545448E+02  0.17143610692E+03  0.00000000000E+00 0.  1.
        -13    1    5    5    0    0  0.14205407755E+02 -0.34309453959E+02 -0.40629959283E+02  0.55042945341E+02  0.00000000000E+00 0. -1.
          2    1    6    6  503    0  0.17487128812E+02  0.24674610857E+02  0.10785666999E+03  0.11201650484E+03  0.00000000000E+00 0. -1.
         -2    1    6    6    0  503  0.50426266063E+02  0.47368356668E+02  0.14340058534E+04  0.14356738338E+04  0.00000000000E+00 0.  1.
<mgrwt>
<rscale>  0 0.11188880E+04</rscale>
<asrwt>0</asrwt>
<pdfrwt beam="1">  1        1 0.32780453E+00 0.11188880E+04</pdfrwt>
<pdfrwt beam="2">  1       -2 0.22598083E-01 0.11188880E+04</pdfrwt>
<totfact> 0.36663719E+01</totfact>
</mgrwt>
</event>
<event>
12    5  0.5246737E-008  0.2204202E+04  0.7818608E-02  0.8516681E-01
         -2   -1    0    0    0  501 -0.00000000000E+00  0.00000000000E+00  0.70943948028E+03  0.70943948028E+03  0.00000000000E+00 0.  1.
          1   -1    0    0  501    0  0.00000000000E+00 -0.00000000000E+00 -0.17120937158E+04  0.17120937158E+04  0.00000000000E+00 0. -1.
        -24    2    1    2    0    0 -0.76783833682E+02  0.60008870320E+02  0.58302630589E+03  0.59668251186E+03  0.81323581885E+02 0.  0.
        254    2    1    2    0    0  0.76783833682E+02 -0.60008870320E+02 -0.15856805414E+04  0.18248506842E+04  0.89788664020E+03 0.  0.
         23    2    4    4    0    0 -0.11017739294E+03  0.37552986461E+03 -0.90607291471E+03  0.99124069282E+03  0.91805485755E+02 0.  0.
         23    2    4    4    0    0  0.18696122662E+03 -0.43553873493E+03 -0.67960762665E+03  0.83360999135E+03  0.91600227011E+02 0.  0.
          1    1    3    3  502    0 -0.94286457219E+01  0.45828768985E+02  0.36661469634E+03  0.36958829933E+03  0.00000000000E+00 0. -1.
         -2    1    3    3    0  502 -0.67355187960E+02  0.14180101335E+02  0.21641160955E+03  0.22709421253E+03  0.00000000000E+00 0.  1.
         13    1    5    5    0    0 -0.12663322045E+03  0.32584188772E+03 -0.78238248352E+03  0.85693130345E+03  0.00000000000E+00 0.  1.
        -13    1    5    5    0    0  0.16455827511E+02  0.49687976887E+02 -0.12369043119E+03  0.13430938937E+03  0.00000000000E+00 0. -1.
          3    1    6    6  503    0  0.31006617880E+02 -0.40454348782E+02 -0.12534247291E+03  0.13530964564E+03  0.00000000000E+00 0. -1.
         -3    1    6    6    0  503  0.15595460874E+03 -0.39508438615E+03 -0.55426515374E+03  0.69830034571E+03  0.00000000000E+00 0.  1.
<mgrwt>
<rscale>  0 0.22042022E+04</rscale>
<asrwt>0</asrwt>
<pdfrwt beam="1">  1        1 0.26339903E+00 0.22042022E+04</pdfrwt>
<pdfrwt beam="2">  1       -2 0.10914454E+00 0.22042022E+04</pdfrwt>
<totfact> 0.25059266E+00</totfact>
</mgrwt>
</event>
<event>
12    5  0.5246737E-008  0.2163479E+04  0.7818608E-02  0.8533785E-01
         -2   -1    0    0    0  501 -0.00000000000E+00  0.00000000000E+00  0.15565570153E+04  0.15565570153E+04  0.00000000000E+00 0.  1.
          1   -1    0    0  501    0  0.00000000000E+00 -0.00000000000E+00 -0.75176172301E+03  0.75176172301E+03  0.00000000000E+00 0. -1.
        -24    2    1    2    0    0  0.63744453525E+03 -0.49200794495E+03 -0.65158713378E+02  0.81168385206E+03  0.78598119310E+02 0.  0.
        254    2    1    2    0    0 -0.63744453525E+03  0.49200794495E+03  0.86995400564E+03  0.14966348862E+04  0.91361296909E+03 0.  0.
         23    2    4    4    0    0 -0.57011838435E+03  0.74329242321E+03  0.64729377568E+03  0.11422088235E+04  0.90184066630E+02 0.  0.
         23    2    4    4    0    0 -0.67326150902E+02 -0.25128447826E+03  0.22266022996E+03  0.35442606272E+03  0.91452481171E+02 0.  0.
          3    1    3    3  502    0  0.44141637144E+03 -0.37862473390E+03 -0.65460502629E+02  0.58522660526E+03  0.00000000000E+00 0. -1.
         -4    1    3    3    0  502  0.19602816381E+03 -0.11338321105E+03  0.30178925034E+00  0.22645724680E+03  0.00000000000E+00 0.  1.
         13    1    5    5    0    0 -0.10521872430E+03  0.11327630274E+03  0.71667169236E+02  0.17040740551E+03  0.00000000000E+00 0. -1.
        -13    1    5    5    0    0 -0.46489966005E+03  0.63001612047E+03  0.57562660644E+03  0.97180141799E+03  0.00000000000E+00 0.  1.
          3    1    6    6  503    0 -0.22938495235E+01  0.45660495519E+00 -0.70841660198E+01  0.74602709011E+01  0.00000000000E+00 0. -1.
         -3    1    6    6    0  503 -0.65032301378E+02 -0.25174108322E+03  0.22974439598E+03  0.34696579181E+03  0.00000000000E+00 0.  1.
<mgrwt>
<rscale>  0 0.21634787E+04</rscale>
<asrwt>0</asrwt>
<pdfrwt beam="1">  1        1 0.11565565E+00 0.21634787E+04</pdfrwt>
<pdfrwt beam="2">  1       -2 0.23947031E+00 0.21634787E+04</pdfrwt>
<totfact> 0.14593528E+00</totfact>
</mgrwt>
</event>
<event>
12    5  0.5246737E-008  0.1541157E+04  0.7818608E-02  0.8857536E-01
         -2   -1    0    0    0  501 -0.00000000000E+00  0.00000000000E+00  0.31418198627E+03  0.31418198627E+03  0.00000000000E+00 0.  1.
          1   -1    0    0  501    0  0.00000000000E+00 -0.00000000000E+00 -0.18899603632E+04  0.18899603632E+04  0.00000000000E+00 0. -1.
        -24    2    1    2    0    0  0.89544735419E+02  0.22952645344E+03  0.89506000329E+02  0.27552302552E+03  0.84858476461E+02 0.  0.
        254    2    1    2    0    0 -0.89544735419E+02 -0.22952645344E+03 -0.16652843772E+04  0.19286193239E+04  0.94111624527E+03 0.  0.
         23    2    4    4    0    0 -0.24137901792E+03  0.38427259115E+02 -0.31046307514E+02  0.26268510178E+03  0.91099423437E+02 0.  0.
         23    2    4    4    0    0  0.15183428250E+03 -0.26795371255E+03 -0.16342380697E+04  0.16659342221E+04  0.98741696433E+02 0.  0.
          3    1    3    3  502    0  0.47035786834E+02  0.63459931257E+02 -0.61314439310E+01  0.79228294965E+02  0.00000000000E+00 0. -1.
         -4    1    3    3    0  502  0.42508948585E+02  0.16606652218E+03  0.95637444260E+02  0.19629473055E+03  0.00000000000E+00 0.  1.
         13    1    5    5    0    0 -0.20346428872E+02  0.11627122096E+02 -0.32452632050E+02  0.40029245097E+02  0.00000000000E+00 0. -1.
        -13    1    5    5    0    0 -0.22103258905E+03  0.26800137019E+02  0.14063245355E+01  0.22265585668E+03  0.00000000000E+00 0.  1.
          1    1    6    6  503    0  0.24110061387E+02 -0.99687338518E+02 -0.36084812567E+03  0.37514028086E+03  0.00000000000E+00 0. -1.
         -1    1    6    6    0  503  0.12772422111E+03 -0.16826637403E+03 -0.12733899440E+04  0.12907939413E+04  0.00000000000E+00 0.  1.
<mgrwt>
<rscale>  0 0.15411574E+04</rscale>
<asrwt>0</asrwt>
<pdfrwt beam="1">  1        1 0.29076313E+00 0.15411574E+04</pdfrwt>
<pdfrwt beam="2">  1       -2 0.48335690E-01 0.15411574E+04</pdfrwt>
<totfact> 0.12148360E+01</totfact>
</mgrwt>
</event>
<event>
12    5  0.5246737E-008  0.1450615E+04  0.7818608E-02  0.8917974E-01
          1   -1    0    0  501    0  0.00000000000E+00  0.00000000000E+00  0.90383829413E+03  0.90383829413E+03  0.00000000000E+00 0. -1.
         -2   -1    0    0    0  501 -0.00000000000E+00 -0.00000000000E+00 -0.58204084949E+03  0.58204084949E+03  0.00000000000E+00 0.  1.
        -24    2    1    2    0    0  0.17957101410E+03  0.16726295095E+03  0.46811070271E+03  0.53388988657E+03  0.75419739667E+02 0.  0.
        254    2    1    2    0    0 -0.17957101410E+03 -0.16726295095E+03 -0.14631325807E+03  0.95198925705E+03  0.90810425183E+03 0.  0.
         23    2    4    4    0    0  0.20445599811E+03 -0.39962815722E+03 -0.18206570720E+03  0.49300271552E+03  0.91645166618E+02 0.  0.
         23    2    4    4    0    0 -0.38402701222E+03  0.23236520628E+03  0.35752449129E+02  0.45898654153E+03  0.88994789083E+02 0.  0.
          3    1    3    3  502    0  0.14350875852E+03  0.14595900159E+03  0.43408673457E+03  0.47992716848E+03  0.00000000000E+00 0. -1.
         -4    1    3    3    0  502  0.36062255585E+02  0.21303949358E+02  0.34023968134E+02  0.53962718090E+02  0.00000000000E+00 0.  1.
         13    1    5    5    0    0  0.14784283108E+03 -0.28026848284E+03 -0.17192680705E+03  0.36050901813E+03  0.00000000000E+00 0. -1.
        -13    1    5    5    0    0  0.56613167040E+02 -0.11935967439E+03 -0.10138900147E+02  0.13249369739E+03  0.00000000000E+00 0.  1.
          3    1    6    6  503    0 -0.21750387568E+02 -0.53052338501E+01  0.11143919824E+02  0.25008234936E+02  0.00000000000E+00 0. -1.
         -3    1    6    6    0  503 -0.36227662465E+03  0.23767044013E+03  0.24608529305E+02  0.43397830659E+03  0.00000000000E+00 0.  1.
<mgrwt>
<rscale>  0 0.14506148E+04</rscale>
<asrwt>0</asrwt>
<pdfrwt beam="1">  1        1 0.13905205E+00 0.14506148E+04</pdfrwt>
<pdfrwt beam="2">  1       -2 0.89544746E-01 0.14506148E+04</pdfrwt>
<totfact> 0.16442008E+01</totfact>
</mgrwt>
</event>
<event>
12    5  0.5246737E-008  0.1166379E+04  0.7818608E-02  0.9142805E-01
         -2   -1    0    0    0  501 -0.00000000000E+00  0.00000000000E+00  0.66204778977E+03  0.66204778977E+03  0.00000000000E+00 0.  1.
          1   -1    0    0  501    0  0.00000000000E+00 -0.00000000000E+00 -0.51372383987E+03  0.51372383987E+03  0.00000000000E+00 0. -1.
        -24    2    1    2    0    0  0.19893566394E+03  0.11042851724E+03  0.16619391803E+02  0.24222206931E+03  0.81396995481E+02 0.  0.
        254    2    1    2    0    0 -0.19893566394E+03 -0.11042851724E+03  0.13170455810E+03  0.93354956032E+03  0.89576717686E+03 0.  0.
         23    2    4    4    0    0 -0.46385037161E+03 -0.72889006976E+02 -0.18197390408E+03  0.51177900699E+03  0.91286776910E+02 0.  0.
         23    2    4    4    0    0  0.26491470768E+03 -0.37539510262E+02  0.31367846218E+03  0.42177055334E+03  0.88922465387E+02 0.  0.
          1    1    3    3  502    0  0.16144739693E+03  0.80599800122E+02 -0.20511016562E+02  0.18161027382E+03  0.00000000000E+00 0. -1.
         -2    1    3    3    0  502  0.37488267005E+02  0.29828717116E+02  0.37130408366E+02  0.60611795496E+02  0.00000000000E+00 0.  1.
         13    1    5    5    0    0 -0.15609680043E+03 -0.55319843617E+02 -0.97418961951E+02  0.19213784205E+03  0.00000000000E+00 0. -1.
        -13    1    5    5    0    0 -0.30775357119E+03 -0.17569163359E+02 -0.84554942132E+02  0.31964116493E+03  0.00000000000E+00 0.  1.
          1    1    6    6  503    0  0.12252656281E+03 -0.13936189613E+02  0.21187260938E+03  0.24514685105E+03  0.00000000000E+00 0. -1.
         -1    1    6    6    0  503  0.14238814487E+03 -0.23603320649E+02  0.10180585281E+03  0.17662370229E+03  0.00000000000E+00 0.  1.
<mgrwt>
<rscale>  0 0.11663786E+04</rscale>
<asrwt>0</asrwt>
<pdfrwt beam="1">  1        1 0.79034437E-01 0.11663786E+04</pdfrwt>
<pdfrwt beam="2">  1       -2 0.10185351E+00 0.11663786E+04</pdfrwt>
<totfact> 0.29286772E+01</totfact>
</mgrwt>
</event>
<event>
12    5  0.5246737E-008  0.1759987E+04  0.7818608E-02  0.8727872E-01
         -2   -1    0    0    0  501 -0.00000000000E+00  0.00000000000E+00  0.39656054828E+03  0.39656054828E+03  0.00000000000E+00 0.  1.
          1   -1    0    0  501    0  0.00000000000E+00 -0.00000000000E+00 -0.19527630321E+04  0.19527630321E+04  0.00000000000E+00 0. -1.
        -24    2    1    2    0    0 -0.57126178509E+02 -0.59804248306E+03 -0.24882903431E+03  0.65509277990E+03  0.79450929210E+02 0.  0.
        254    2    1    2    0    0  0.57126178509E+02  0.59804248306E+03 -0.13073734495E+04  0.16942308005E+04  0.89458060394E+03 0.  0.
         23    2    4    4    0    0  0.18712312304E+01  0.82380444534E+03 -0.97093752741E+03  0.12763280960E+04  0.87386845529E+02 0.  0.
         23    2    4    4    0    0  0.55254947278E+02 -0.22576196228E+03 -0.33643592211E+03  0.41790270450E+03  0.86208862268E+02 0.  0.
          1    1    3    3  502    0 -0.13746863350E+02 -0.37562325568E+03 -0.18900449019E+03  0.42071903186E+03  0.00000000000E+00 0. -1.
         -2    1    3    3    0  502 -0.43379315158E+02 -0.22241922738E+03 -0.59824544118E+02  0.23437374805E+03  0.00000000000E+00 0.  1.
         13    1    5    5    0    0 -0.92602674116E+01  0.79195260934E+03 -0.90772277442E+03  0.12046722887E+04  0.00000000000E+00 0. -1.
        -13    1    5    5    0    0  0.11131498642E+02  0.31851836003E+02 -0.63214752996E+02  0.71655807267E+02  0.00000000000E+00 0.  1.
          1    1    6    6  503    0  0.29009327334E+02 -0.21884041725E+03 -0.29933252813E+03  0.37193095016E+03  0.00000000000E+00 0. -1.
         -1    1    6    6    0  503  0.26245619944E+02 -0.69215450262E+01 -0.37103393985E+02  0.45971754339E+02  0.00000000000E+00 0.  1.
<mgrwt>
<rscale>  0 0.17599872E+04</rscale>
<asrwt>0</asrwt>
<pdfrwt beam="1">  1        1 0.30042508E+00 0.17599872E+04</pdfrwt>
<pdfrwt beam="2">  1       -2 0.61009316E-01 0.17599872E+04</pdfrwt>
<totfact> 0.66683996E+00</totfact>
</mgrwt>
</event>
<event>
12    5  0.5246737E-008  0.2330843E+04  0.7818608E-02  0.8465859E-01
          1   -1    0    0  501    0  0.00000000000E+00  0.00000000000E+00  0.23619419719E+04  0.23619419719E+04  0.00000000000E+00 0. -1.
         -2   -1    0    0    0  501 -0.00000000000E+00 -0.00000000000E+00 -0.57503817768E+03  0.57503817768E+03  0.00000000000E+00 0.  1.
        -24    2    1    2    0    0 -0.40245748266E+03 -0.54108485557E+03  0.16762530310E+04  0.18085820764E+04  0.80000356375E+02 0.  0.
        254    2    1    2    0    0  0.40245748266E+03  0.54108485557E+03  0.11065076325E+03  0.11283980732E+04  0.89793862477E+03 0.  0.
         23    2    4    4    0    0  0.31241651619E+03 -0.18713607485E+03  0.98413432573E+02  0.38887240414E+03  0.94406318097E+02 0.  0.
         23    2    4    4    0    0  0.90040966476E+02  0.72822093042E+03  0.12237330678E+02  0.73952566903E+03  0.91298213300E+02 0.  0.
          3    1    3    3  502    0 -0.30782932819E+03 -0.43082235678E+03  0.12257438844E+04  0.13352209063E+04  0.00000000000E+00 0. -1.
         -4    1    3    3    0  502 -0.94628154469E+02 -0.11026249878E+03  0.45050914660E+03  0.47336117017E+03  0.00000000000E+00 0.  1.
         13    1    5    5    0    0  0.76556266482E+02 -0.37147942702E+02 -0.16470538599E+02  0.86672430602E+02  0.00000000000E+00 0.  1.
        -13    1    5    5    0    0  0.23586024970E+03 -0.14998813215E+03  0.11488397117E+03  0.30219997354E+03  0.00000000000E+00 0. -1.
          3    1    6    6  503    0  0.82904027252E+02  0.72752936953E+03  0.12600427423E+02  0.73234611492E+03  0.00000000000E+00 0. -1.
         -3    1    6    6    0  503  0.71369392237E+01  0.69156088111E+00 -0.36309674514E+00  0.71795541074E+01  0.00000000000E+00 0.  1.
<mgrwt>
<rscale>  0 0.23308426E+04</rscale>
<asrwt>0</asrwt>
<pdfrwt beam="1">  1        1 0.36337568E+00 0.23308426E+04</pdfrwt>
<pdfrwt beam="2">  1       -2 0.88467413E-01 0.23308426E+04</pdfrwt>
<totfact> 0.14697931E+00</totfact>
</mgrwt>
</event>
<event>
12    5  0.5246737E-008  0.1424057E+04  0.7818608E-02  0.8936587E-01
          3   -1    0    0  501    0  0.00000000000E+00  0.00000000000E+00  0.51096365897E+03  0.51096365897E+03  0.00000000000E+00 0. -1.
         -4   -1    0    0    0  501 -0.00000000000E+00 -0.00000000000E+00 -0.99221267543E+03  0.99221267543E+03  0.00000000000E+00 0.  1.
        -24    2    1    2    0    0  0.44853989280E+02 -0.33255869417E+02 -0.59484686851E+03  0.60240198054E+03  0.76990362926E+02 0.  0.
        254    2    1    2    0    0 -0.44853989280E+02  0.33255869417E+02  0.11359785205E+03  0.90077435385E+03  0.89183638150E+03 0.  0.
         23    2    4    4    0    0 -0.95134366809E+02 -0.37205390983E+03 -0.13173828845E+03  0.41565982802E+03  0.89126070353E+02 0.  0.
         23    2    4    4    0    0  0.50280377529E+02  0.40530977925E+03  0.24533614050E+03  0.48511452583E+03  0.91335359101E+02 0.  0.
          3    1    3    3  502    0  0.41654215167E+02  0.12918051104E+02 -0.19122817486E+03  0.19613812619E+03  0.00000000000E+00 0. -1.
         -4    1    3    3    0  502  0.31997741124E+01 -0.46173920520E+02 -0.40361869365E+03  0.40626385435E+03  0.00000000000E+00 0.  1.
         13    1    5    5    0    0 -0.64361313396E+02 -0.32286423742E+03 -0.13866030278E+03  0.35722594256E+03  0.00000000000E+00 0. -1.
        -13    1    5    5    0    0 -0.30773053413E+02 -0.49189672410E+02  0.69220143274E+01  0.58433885465E+02  0.00000000000E+00 0.  1.
          1    1    6    6  503    0  0.20678733479E+01  0.32179739232E+03  0.18133516386E+03  0.36937823360E+03  0.00000000000E+00 0. -1.
         -1    1    6    6    0  503  0.48212504181E+02  0.83512386929E+02  0.64000976639E+02  0.11573629224E+03  0.00000000000E+00 0.  1.
<mgrwt>
<rscale>  0 0.14240570E+04</rscale>
<asrwt>0</asrwt>
<pdfrwt beam="1">  1        3 0.78609794E-01 0.14240570E+04</pdfrwt>
<pdfrwt beam="2">  1       -4 0.15264810E+00 0.14240570E+04</pdfrwt>
<totfact> 0.95583571E-01</totfact>
</mgrwt>
</event>
<event>
12    5  0.5246737E-008  0.3751426E+04  0.7818608E-02  0.8056660E-01
          1   -1    0    0  501    0  0.00000000000E+00  0.00000000000E+00  0.11270319007E+04  0.11270319007E+04  0.00000000000E+00 0. -1.
         -2   -1    0    0    0  501 -0.00000000000E+00 -0.00000000000E+00 -0.31217386547E+04  0.31217386547E+04  0.00000000000E+00 0.  1.
        -24    2    1    2    0    0  0.52765590237E+03  0.48677204005E+03  0.88911081768E+03  0.11456458799E+04  0.81355183255E+02 0.  0.
        254    2    1    2    0    0 -0.52765590237E+03 -0.48677204005E+03 -0.28838175717E+04  0.31031246754E+04  0.89309080957E+03 0.  0.
         23    2    4    4    0    0  0.83033830437E+02 -0.12404163105E+03 -0.54537307154E+02  0.18445786834E+03  0.93645310042E+02 0.  0.
         23    2    4    4    0    0 -0.61068973281E+03 -0.36273040900E+03 -0.28292802645E+04  0.29186668071E+04  0.96300654562E+02 0.  0.
          1    1    3    3  502    0  0.35590650110E+03  0.28968407396E+03  0.52305179710E+03  0.69582288169E+03  0.00000000000E+00 0. -1.
         -2    1    3    3    0  502  0.17174940127E+03  0.19708796609E+03  0.36605902057E+03  0.44982299825E+03  0.00000000000E+00 0.  1.
         13    1    5    5    0    0  0.56579067567E+02 -0.39880153386E+02 -0.65818653062E+02  0.95518127137E+02  0.00000000000E+00 0. -1.
        -13    1    5    5    0    0  0.26454762870E+02 -0.84161477661E+02  0.11281345908E+02  0.88939741208E+02  0.00000000000E+00 0.  1.
          2    1    6    6  503    0 -0.22263779996E+03 -0.91647745015E+02 -0.83832986970E+03  0.87221778792E+03  0.00000000000E+00 0. -1.
         -2    1    6    6    0  503 -0.38805193285E+03 -0.27108266399E+03 -0.19909503948E+04  0.20464490191E+04  0.00000000000E+00 0.  1.
<mgrwt>
<rscale>  0 0.37514259E+04</rscale>
<asrwt>0</asrwt>
<pdfrwt beam="1">  1        1 0.17338952E+00 0.37514259E+04</pdfrwt>
<pdfrwt beam="2">  1       -2 0.48026749E+00 0.37514259E+04</pdfrwt>
<totfact> 0.18654057E-02</totfact>
</mgrwt>
</event>
<event>
12    5  0.5246737E-008  0.1108928E+04  0.7818608E-02  0.9196533E-01
         -2   -1    0    0    0  501 -0.00000000000E+00  0.00000000000E+00  0.20646680182E+03  0.20646680182E+03  0.00000000000E+00 0.  1.
          1   -1    0    0  501    0  0.00000000000E+00 -0.00000000000E+00 -0.14890064460E+04  0.14890064460E+04  0.00000000000E+00 0. -1.
        -24    2    1    2    0    0  0.94784581161E+02 -0.13356807255E+03 -0.30458134594E+03  0.35477158913E+03  0.79174095060E+02 0.  0.
        254    2    1    2    0    0 -0.94784581161E+02  0.13356807255E+03 -0.97795829822E+03  0.13407016587E+04  0.90236021503E+03 0.  0.
         23    2    4    4    0    0 -0.19403653321E+03 -0.21729919425E+03 -0.13200625599E+02  0.30586572720E+03  0.92252211473E+02 0.  0.
         23    2    4    4    0    0  0.99251952047E+02  0.35086726680E+03 -0.96475767262E+03  0.10348359315E+04  0.84671419443E+02 0.  0.
          1    1    3    3  502    0  0.10293138335E+03 -0.12183634415E+03 -0.30001511484E+03  0.33977644646E+03  0.00000000000E+00 0. -1.
         -2    1    3    3    0  502 -0.81468021904E+01 -0.11731728405E+02 -0.45662310951E+01  0.14995142670E+02  0.00000000000E+00 0.  1.
         13    1    5    5    0    0 -0.21447331060E+02 -0.13276445356E+02 -0.28671079624E+02  0.38187469380E+02  0.00000000000E+00 0.  1.
        -13    1    5    5    0    0 -0.17258920215E+03 -0.20402274889E+03  0.15470454025E+02  0.26767825782E+03  0.00000000000E+00 0. -1.
          1    1    6    6  503    0  0.10079541789E+03  0.35544410553E+03 -0.95405067472E+03  0.10230898877E+04  0.00000000000E+00 0. -1.
         -1    1    6    6    0  503 -0.15434658399E+01 -0.45768387298E+01 -0.10706997897E+02  0.11746043740E+02  0.00000000000E+00 0.  1.
<mgrwt>
<rscale>  0 0.11089281E+04</rscale>
<asrwt>0</asrwt>
<pdfrwt beam="1">  1        1 0.22907791E+00 0.11089281E+04</pdfrwt>
<pdfrwt beam="2">  1       -2 0.31764124E-01 0.11089281E+04</pdfrwt>
<totfact> 0.53586348E+01</totfact>
</mgrwt>
</event>
<event>
12    5  0.5246737E-008  0.1229941E+04  0.7818608E-02  0.9087046E-01
         -4   -1    0    0    0  501 -0.00000000000E+00  0.00000000000E+00  0.27847570771E+03  0.27847570771E+03  0.00000000000E+00 0.  1.
          1   -1    0    0  501    0  0.00000000000E+00 -0.00000000000E+00 -0.13580664593E+04  0.13580664593E+04  0.00000000000E+00 0. -1.
        -24    2    1    2    0    0 -0.24868076057E+03  0.32281989386E+02 -0.41835553544E+03  0.49422888723E+03  0.79728234819E+02 0.  0.
        254    2    1    2    0    0  0.24868076057E+03 -0.32281989386E+02 -0.66123521614E+03  0.11423132798E+04  0.89708604412E+03 0.  0.
         23    2    4    4    0    0 -0.32224227746E+03  0.62852398261E+02 -0.18726681543E+03  0.38874028901E+03  0.90882576890E+02 0.  0.
         23    2    4    4    0    0  0.57092303803E+03 -0.95134387648E+02 -0.47396840070E+03  0.75357299076E+03  0.90678224894E+02 0.  0.
          3    1    3    3  502    0 -0.24432557552E+03  0.46102704146E+02 -0.39622006450E+03  0.46777215148E+03  0.00000000000E+00 0. -1.
         -4    1    3    3    0  502 -0.43551850468E+01 -0.13820714759E+02 -0.22135470939E+02  0.26456735758E+02  0.00000000000E+00 0.  1.
         13    1    5    5    0    0 -0.45495587097E+02  0.16775607164E+02 -0.68862961755E+02  0.84222187947E+02  0.00000000000E+00 0. -1.
        -13    1    5    5    0    0 -0.27674669037E+03  0.46076791097E+02 -0.11840385368E+03  0.30451810106E+03  0.00000000000E+00 0.  1.
          1    1    6    6  503    0  0.33185892329E+03 -0.83472414390E+02 -0.23336494091E+03  0.41419462162E+03  0.00000000000E+00 0. -1.
         -1    1    6    6    0  503  0.23906411474E+03 -0.11661973258E+02 -0.24060345979E+03  0.33937836914E+03  0.00000000000E+00 0.  1.
<mgrwt>
<rscale>  0 0.12299407E+04</rscale>
<asrwt>0</asrwt>
<pdfrwt beam="1">  1        1 0.20893330E+00 0.12299407E+04</pdfrwt>
<pdfrwt beam="2">  1       -4 0.42842417E-01 0.12299407E+04</pdfrwt>
<totfact> 0.21169288E+01</totfact>
</mgrwt>
</event>
<event>
12    5  0.5246737E-008  0.1554008E+04  0.7818608E-02  0.8849312E-01
          1   -1    0    0  501    0  0.00000000000E+00  0.00000000000E+00  0.13845624364E+04  0.13845624364E+04  0.00000000000E+00 0. -1.
         -2   -1    0    0    0  501 -0.00000000000E+00 -0.00000000000E+00 -0.43604778767E+03  0.43604778767E+03  0.00000000000E+00 0.  1.
        -24    2    1    2    0    0  0.38954550603E+02 -0.33087304043E+03 -0.14585799107E+03  0.37219987001E+03  0.79143943436E+02 0.  0.
        254    2    1    2    0    0 -0.38954550603E+02  0.33087304043E+03  0.10943726398E+04  0.14484103541E+04  0.88839554993E+03 0.  0.
         23    2    4    4    0    0 -0.41491215809E+03 -0.75285711987E+01  0.60134868337E+03  0.73624640464E+03  0.90717975327E+02 0.  0.
         23    2    4    4    0    0  0.37595760748E+03  0.33840161163E+03  0.49302395642E+03  0.71216394942E+03  0.90802510294E+02 0.  0.
          3    1    3    3  502    0 -0.71422422296E+01 -0.48944674780E+02  0.39684833125E+01  0.49621987800E+02  0.00000000000E+00 0. -1.
         -4    1    3    3    0  502  0.46096792832E+02 -0.28192836565E+03 -0.14982647438E+03  0.32257788221E+03  0.00000000000E+00 0.  1.
         13    1    5    5    0    0 -0.41537703314E+03 -0.92553162332E+01  0.60396704587E+03  0.73307566665E+03  0.00000000000E+00 0. -1.
        -13    1    5    5    0    0  0.46487505079E+00  0.17267450345E+01 -0.26183625018E+01  0.31707379926E+01  0.00000000000E+00 0.  1.
          4    1    6    6  503    0  0.84976514703E+02  0.11889039903E+03  0.17880947247E+03  0.23093021127E+03  0.00000000000E+00 0.  1.
         -4    1    6    6    0  503  0.29098109278E+03  0.21951121260E+03  0.31421448396E+03  0.48123373816E+03  0.00000000000E+00 0. -1.
<mgrwt>
<rscale>  0 0.15540082E+04</rscale>
<asrwt>0</asrwt>
<pdfrwt beam="1">  1        1 0.21300960E+00 0.15540082E+04</pdfrwt>
<pdfrwt beam="2">  1       -2 0.67084276E-01 0.15540082E+04</pdfrwt>
<totfact> 0.13574215E+01</totfact>
</mgrwt>
</event>
<event>
12    5  0.5246737E-008  0.1446934E+04  0.7818608E-02  0.8920529E-01
          1   -1    0    0  501    0  0.00000000000E+00  0.00000000000E+00  0.68934065497E+03  0.68934065497E+03  0.00000000000E+00 0. -1.
         -2   -1    0    0    0  501 -0.00000000000E+00 -0.00000000000E+00 -0.75928314925E+03  0.75928314925E+03  0.00000000000E+00 0.  1.
        -24    2    1    2    0    0  0.38228389291E+03  0.16824865415E+03  0.11348300637E+03  0.44011547916E+03  0.79841454531E+02 0.  0.
        254    2    1    2    0    0 -0.38228389291E+03 -0.16824865415E+03 -0.18342550065E+03  0.10085083251E+04  0.89944179525E+03 0.  0.
         23    2    4    4    0    0 -0.60659483834E+03 -0.33316813778E+03 -0.14281227328E+03  0.71261400178E+03  0.92005783483E+02 0.  0.
         23    2    4    4    0    0  0.22431094544E+03  0.16491948363E+03 -0.40613227374E+02  0.29589432329E+03  0.91597925707E+02 0.  0.
          1    1    3    3  502    0  0.29668337179E+03  0.96443371728E+02  0.99862649440E+02  0.32755899591E+03  0.00000000000E+00 0. -1.
         -2    1    3    3    0  502  0.85600521118E+02  0.71805282421E+02  0.13620356931E+02  0.11255648325E+03  0.00000000000E+00 0.  1.
         13    1    5    5    0    0 -0.69393310296E+02 -0.53224689878E+02 -0.47102576023E+02  0.99332531401E+02  0.00000000000E+00 0. -1.
        -13    1    5    5    0    0 -0.53720152804E+03 -0.27994344790E+03 -0.95709697256E+02  0.61328147037E+03  0.00000000000E+00 0.  1.
          4    1    6    6  503    0  0.20306391446E+03  0.15502704562E+03 -0.63378613425E+02  0.26322079491E+03  0.00000000000E+00 0.  1.
         -4    1    6    6    0  503  0.21247030971E+02  0.98924380066E+01  0.22765386051E+02  0.32673528381E+02  0.00000000000E+00 0. -1.
<mgrwt>
<rscale>  0 0.14469343E+04</rscale>
<asrwt>0</asrwt>
<pdfrwt beam="1">  1        1 0.10605241E+00 0.14469343E+04</pdfrwt>
<pdfrwt beam="2">  1       -2 0.11681279E+00 0.14469343E+04</pdfrwt>
<totfact> 0.13458653E+01</totfact>
</mgrwt>
</event>
<event>
12    5  0.5246737E-008  0.2378234E+04  0.7818608E-02  0.8447697E-01
          1   -1    0    0  501    0  0.00000000000E+00  0.00000000000E+00  0.17933319700E+04  0.17933319700E+04  0.00000000000E+00 0. -1.
         -2   -1    0    0    0  501 -0.00000000000E+00 -0.00000000000E+00 -0.78847624301E+03  0.78847624301E+03  0.00000000000E+00 0.  1.
        -24    2    1    2    0    0  0.65147767000E+03  0.73690715183E+03  0.71782223644E+03  0.12210871463E+04  0.91267468647E+02 0.  0.
        254    2    1    2    0    0 -0.65147767000E+03 -0.73690715183E+03  0.28703349052E+03  0.13607210667E+04  0.89538723001E+03 0.  0.
         23    2    4    4    0    0 -0.75456123798E+02 -0.30851829105E+03  0.50720468580E+03  0.60539394140E+03  0.91477147168E+02 0.  0.
         23    2    4    4    0    0 -0.57602154620E+03 -0.42838886077E+03 -0.22017119527E+03  0.75532712527E+03  0.82011421267E+02 0.  0.
          3    1    3    3  502    0  0.44344671204E+03  0.46604167528E+03  0.51335691509E+03  0.82302803827E+03  0.00000000000E+00 0. -1.
         -4    1    3    3    0  502  0.20803095796E+03  0.27086547655E+03  0.20446532135E+03  0.39805910803E+03  0.00000000000E+00 0.  1.
         13    1    5    5    0    0 -0.64018165869E+02 -0.96235401554E+02  0.14526811522E+03  0.18564052191E+03  0.00000000000E+00 0. -1.
        -13    1    5    5    0    0 -0.11437957930E+02 -0.21228288950E+03  0.36193657057E+03  0.41975341949E+03  0.00000000000E+00 0.  1.
          1    1    6    6  503    0 -0.30844961346E+01 -0.98727295192E+01 -0.12126889724E+02  0.15938831793E+02  0.00000000000E+00 0. -1.
         -1    1    6    6    0  503 -0.57293705007E+03 -0.41851613125E+03 -0.20804430555E+03  0.73938829348E+03  0.00000000000E+00 0.  1.
<mgrwt>
<rscale>  0 0.23782343E+04</rscale>
<asrwt>0</asrwt>
<pdfrwt beam="1">  1        1 0.27589722E+00 0.23782343E+04</pdfrwt>
<pdfrwt beam="2">  1       -2 0.12130404E+00 0.23782343E+04</pdfrwt>
<totfact> 0.16782191E+00</totfact>
</mgrwt>
</event>
<event>
12    5  0.5246737E-008  0.1758737E+04  0.7818608E-02  0.8728556E-01
         -4   -1    0    0    0  501 -0.00000000000E+00  0.00000000000E+00  0.73276402015E+03  0.73276402015E+03  0.00000000000E+00 0.  1.
          1   -1    0    0  501    0  0.00000000000E+00 -0.00000000000E+00 -0.10553045378E+04  0.10553045378E+04  0.00000000000E+00 0. -1.
        -24    2    1    2    0    0 -0.49308367993E+03 -0.40464910156E+03 -0.11677537888E+02  0.64351180827E+03  0.84253615272E+02 0.  0.
        254    2    1    2    0    0  0.49308367993E+03  0.40464910156E+03 -0.31086297981E+03  0.11445567497E+04  0.89805453639E+03 0.  0.
         23    2    4    4    0    0  0.61443632181E+03  0.31935627269E+03  0.94411324797E+02  0.70476014915E+03  0.90845732454E+02 0.  0.
         23    2    4    4    0    0 -0.12135264189E+03  0.85292828870E+02 -0.40527430461E+03  0.43979660058E+03  0.84690362848E+02 0.  0.
          3    1    3    3  502    0 -0.30582656565E+03 -0.21689298340E+03  0.25245563053E+02  0.37577891500E+03  0.00000000000E+00 0. -1.
         -4    1    3    3    0  502 -0.18725711427E+03 -0.18775611817E+03 -0.36923100941E+02  0.26773289327E+03  0.00000000000E+00 0.  1.
         13    1    5    5    0    0  0.30875429870E+03  0.10939556622E+03  0.45221550292E+02  0.33066840715E+03  0.00000000000E+00 0.  1.
        -13    1    5    5    0    0  0.30568202311E+03  0.20996070647E+03  0.49189774505E+02  0.37409174200E+03  0.00000000000E+00 0. -1.
          2    1    6    6  503    0 -0.92041178694E+02  0.44116794451E+02 -0.35140593200E+03  0.36592895373E+03  0.00000000000E+00 0. -1.
         -2    1    6    6    0  503 -0.29311463195E+02  0.41176034419E+02 -0.53868372603E+02  0.73867646855E+02  0.00000000000E+00 0.  1.
<mgrwt>
<rscale>  0 0.17587373E+04</rscale>
<asrwt>0</asrwt>
<pdfrwt beam="1">  1        1 0.16235454E+00 0.17587373E+04</pdfrwt>
<pdfrwt beam="2">  1       -4 0.11273293E+00 0.17587373E+04</pdfrwt>
<totfact> 0.38984827E+00</totfact>
</mgrwt>
</event>
<event>
12    5  0.5246737E-008  0.1650444E+04  0.7818608E-02  0.8790144E-01
         -2   -1    0    0    0  501 -0.00000000000E+00  0.00000000000E+00  0.84329607374E+03  0.84329607374E+03  0.00000000000E+00 0.  1.
          1   -1    0    0  501    0  0.00000000000E+00 -0.00000000000E+00 -0.80753547186E+03  0.80753547186E+03  0.00000000000E+00 0. -1.
        -24    2    1    2    0    0 -0.81361516329E+02  0.30808699166E+03 -0.47658184886E+03  0.57877602473E+03  0.79461546432E+02 0.  0.
        254    2    1    2    0    0  0.81361516329E+02 -0.30808699166E+03  0.51234245075E+03  0.10720555209E+04  0.88615515697E+03 0.  0.
         23    2    4    4    0    0  0.23020110209E+03 -0.56361778697E+03  0.43309190289E+03  0.75312231762E+03  0.94694623700E+02 0.  0.
         23    2    4    4    0    0 -0.14883958576E+03  0.25553079531E+03  0.79250547862E+02  0.31893320325E+03  0.89378572124E+02 0.  0.
          1    1    3    3  502    0 -0.73444505560E+02  0.25692247225E+03 -0.33819193505E+03  0.43101860410E+03  0.00000000000E+00 0. -1.
         -2    1    3    3    0  502 -0.79170107691E+01  0.51164519412E+02 -0.13838991381E+03  0.14775742063E+03  0.00000000000E+00 0.  1.
         13    1    5    5    0    0  0.19167156584E+03 -0.40819660048E+03  0.36035441448E+03  0.57725016919E+03  0.00000000000E+00 0. -1.
        -13    1    5    5    0    0  0.38529536255E+02 -0.15542118649E+03  0.72737488409E+02  0.17587214843E+03  0.00000000000E+00 0.  1.
          3    1    6    6  503    0 -0.14156808139E+03  0.16620764077E+03  0.44515773401E+02  0.22281866080E+03  0.00000000000E+00 0. -1.
         -3    1    6    6    0  503 -0.72715043703E+01  0.89323154539E+02  0.34734774461E+02  0.96114542446E+02  0.00000000000E+00 0.  1.
<mgrwt>
<rscale>  0 0.16504442E+04</rscale>
<asrwt>0</asrwt>
<pdfrwt beam="1">  1        1 0.12423623E+00 0.16504442E+04</pdfrwt>
<pdfrwt beam="2">  1       -2 0.12973786E+00 0.16504442E+04</pdfrwt>
<totfact> 0.79560110E+00</totfact>
</mgrwt>
</event>
<event>
12    5  0.5246737E-008  0.2266251E+04  0.7818608E-02  0.8491348E-01
         -2   -1    0    0    0  501 -0.00000000000E+00  0.00000000000E+00  0.72740994374E+03  0.72740994374E+03  0.00000000000E+00 0.  1.
          1   -1    0    0  501    0  0.00000000000E+00 -0.00000000000E+00 -0.17651301329E+04  0.17651301329E+04  0.00000000000E+00 0. -1.
        -24    2    1    2    0    0 -0.27458756567E+03  0.70469178172E+03  0.19637005578E+03  0.78579007620E+03  0.83162531245E+02 0.  0.
        254    2    1    2    0    0  0.27458756567E+03 -0.70469178172E+03 -0.12340902449E+04  0.17067500004E+04  0.90444899960E+03 0.  0.
         23    2    4    4    0    0 -0.93816091789E+02 -0.44601518319E+03 -0.11487555232E+04  0.12396076780E+04  0.96212996320E+02 0.  0.
         23    2    4    4    0    0  0.36840365746E+03 -0.25867659853E+03 -0.85334721728E+02  0.46714232238E+03  0.91132305849E+02 0.  0.
          1    1    3    3  502    0 -0.27447111821E+03  0.64308930831E+03  0.17818731948E+03  0.72156009730E+03  0.00000000000E+00 0. -1.
         -2    1    3    3    0  502 -0.11644746588E+00  0.61602473411E+02  0.18182736300E+02  0.64229978902E+02  0.00000000000E+00 0.  1.
         13    1    5    5    0    0 -0.35747382375E+02 -0.43288552074E+02 -0.18902575323E+03  0.19718648400E+03  0.00000000000E+00 0.  1.
        -13    1    5    5    0    0 -0.58068709414E+02 -0.40272663112E+03 -0.95972976998E+03  0.10424211941E+04  0.00000000000E+00 0. -1.
          2    1    6    6  503    0  0.29846311344E+03 -0.24745781963E+03 -0.81662955544E+02  0.39621262081E+03  0.00000000000E+00 0. -1.
         -2    1    6    6    0  503  0.69940544016E+02 -0.11218778895E+02 -0.36717661837E+01  0.70929701565E+02  0.00000000000E+00 0.  1.
<mgrwt>
<rscale>  0 0.22662508E+04</rscale>
<asrwt>0</asrwt>
<pdfrwt beam="1">  1        1 0.27155848E+00 0.22662508E+04</pdfrwt>
<pdfrwt beam="2">  1       -2 0.11190922E+00 0.22662508E+04</pdfrwt>
<totfact> 0.21587110E+00</totfact>
</mgrwt>
</event>
<event>
12    5  0.5246737E-008  0.1061371E+04  0.7818608E-02  0.9243682E-01
          1   -1    0    0  501    0  0.00000000000E+00  0.00000000000E+00  0.49169782142E+03  0.49169782142E+03  0.00000000000E+00 0. -1.
         -4   -1    0    0    0  501 -0.00000000000E+00 -0.00000000000E+00 -0.57276445855E+03  0.57276445855E+03  0.00000000000E+00 0.  1.
        -24    2    1    2    0    0 -0.10588708315E+03  0.68426852058E+01  0.56576861716E+02  0.14773159529E+03  0.85818332810E+02 0.  0.
        254    2    1    2    0    0  0.10588708315E+03 -0.68426852058E+01 -0.13764349885E+03  0.91673068468E+03  0.90010583752E+03 0.  0.
         23    2    4    4    0    0  0.42086092615E+02 -0.76535779828E+02  0.37122654381E+03  0.39164874541E+03  0.89166295000E+02 0.  0.
         23    2    4    4    0    0  0.63800990533E+02  0.69693094622E+02 -0.50887004266E+03  0.52508193928E+03  0.88513438559E+02 0.  0.
          3    1    3    3  502    0 -0.11420417251E+03  0.24448918750E+02  0.51267860667E+02  0.12754895603E+03  0.00000000000E+00 0. -1.
         -4    1    3    3    0  502  0.83170893671E+01 -0.17606233544E+02  0.53090010493E+01  0.20182639255E+02  0.00000000000E+00 0.  1.
         13    1    5    5    0    0 -0.98587999214E+01 -0.11788157311E+02  0.20762612659E+03  0.20819405619E+03  0.00000000000E+00 0. -1.
        -13    1    5    5    0    0  0.51944892536E+02 -0.64747622517E+02  0.16360041722E+03  0.18345468922E+03  0.00000000000E+00 0.  1.
          3    1    6    6  503    0 -0.12479145818E+02 -0.60509622015E+01 -0.18809123356E+02  0.23369346276E+02  0.00000000000E+00 0. -1.
         -3    1    6    6    0  503  0.76280136351E+02  0.75744056823E+02 -0.49006091931E+03  0.50171259300E+03  0.00000000000E+00 0.  1.
<mgrwt>
<rscale>  0 0.10613709E+04</rscale>
<asrwt>0</asrwt>
<pdfrwt beam="1">  1        1 0.75645819E-01 0.10613709E+04</pdfrwt>
<pdfrwt beam="2">  1       -4 0.88117609E-01 0.10613709E+04</pdfrwt>
<totfact> 0.24183346E+01</totfact>
</mgrwt>
</event>
<event>
12    5  0.5246737E-008  0.1683227E+04  0.7818608E-02  0.8770989E-01
          1   -1    0    0  501    0  0.00000000000E+00  0.00000000000E+00  0.87580992310E+03  0.87580992310E+03  0.00000000000E+00 0. -1.
         -2   -1    0    0    0  501 -0.00000000000E+00 -0.00000000000E+00 -0.80875203805E+03  0.80875203805E+03  0.00000000000E+00 0.  1.
        -24    2    1    2    0    0  0.36681290347E+03  0.11903020883E+03 -0.42560994105E+03  0.57983083203E+03  0.79624588457E+02 0.  0.
        254    2    1    2    0    0 -0.36681290347E+03 -0.11903020883E+03  0.49266782610E+03  0.11047311291E+04  0.91048854139E+03 0.  0.
         23    2    4    4    0    0  0.20663172601E+03  0.16257538479E+03  0.34237675442E+03  0.44137162263E+03  0.91976308701E+02 0.  0.
         23    2    4    4    0    0 -0.57344462948E+03 -0.28160559362E+03  0.15029107168E+03  0.66335950649E+03  0.96529659621E+02 0.  0.
          3    1    3    3  502    0  0.75492063742E+02  0.30990383632E+02 -0.14229744090E+03  0.16403663387E+03  0.00000000000E+00 0. -1.
         -4    1    3    3    0  502  0.29132083972E+03  0.88039825202E+02 -0.28331250015E+03  0.41579419815E+03  0.00000000000E+00 0.  1.
         13    1    5    5    0    0  0.73211383314E+01  0.44591150370E+01  0.62732904911E+02  0.63315875829E+02  0.00000000000E+00 0.  1.
        -13    1    5    5    0    0  0.19931058768E+03  0.15811626975E+03  0.27964384951E+03  0.37805574680E+03  0.00000000000E+00 0. -1.
          1    1    6    6  503    0 -0.54504035234E+03 -0.28656442730E+03  0.15267526643E+03  0.63442721699E+03  0.00000000000E+00 0. -1.
         -1    1    6    6    0  503 -0.28404277133E+02  0.49588336808E+01 -0.23841947544E+01  0.28932289497E+02  0.00000000000E+00 0.  1.
<mgrwt>
<rscale>  0 0.16832267E+04</rscale>
<asrwt>0</asrwt>
<pdfrwt beam="1">  1        1 0.13473999E+00 0.16832267E+04</pdfrwt>
<pdfrwt beam="2">  1       -2 0.12442339E+00 0.16832267E+04</pdfrwt>
<totfact> 0.77169289E+00</totfact>
</mgrwt>
</event>
<event>
12    5  0.5246737E-008  0.1743164E+04  0.7818608E-02  0.8737122E-01
         -2   -1    0    0    0  501 -0.00000000000E+00  0.00000000000E+00  0.58522945896E+03  0.58522945896E+03  0.00000000000E+00 0.  1.
          1   -1    0    0  501    0  0.00000000000E+00 -0.00000000000E+00 -0.12980470842E+04  0.12980470842E+04  0.00000000000E+00 0. -1.
        -24    2    1    2    0    0 -0.37096409447E+03  0.46921875465E+03 -0.25866674644E+02  0.60428956044E+03  0.81952357500E+02 0.  0.
        254    2    1    2    0    0  0.37096409447E+03 -0.46921875465E+03 -0.68695095061E+03  0.12789869827E+04  0.89784491666E+03 0.  0.
         23    2    4    4    0    0  0.46225006015E+03 -0.60368570111E+03 -0.25545875675E+03  0.80809394710E+03  0.98209506162E+02 0.  0.
         23    2    4    4    0    0 -0.91285965679E+02  0.13446694646E+03 -0.43149219385E+03  0.47089303564E+03  0.95604656994E+02 0.  0.
          1    1    3    3  502    0 -0.31232478926E+03  0.42522552554E+03 -0.41853799254E+02  0.52925916343E+03  0.00000000000E+00 0. -1.
         -2    1    3    3    0  502 -0.58639305212E+02  0.43993229108E+02  0.15987124610E+02  0.75030397016E+02  0.00000000000E+00 0.  1.
         13    1    5    5    0    0  0.12434456018E+02 -0.19549753248E+02 -0.28424442918E+02  0.36670935408E+02  0.00000000000E+00 0. -1.
        -13    1    5    5    0    0  0.44981560413E+03 -0.58413594786E+03 -0.22703431384E+03  0.77142301169E+03  0.00000000000E+00 0.  1.
          2    1    6    6  503    0  0.13440757644E+02  0.56031840728E+02 -0.13892624902E+03  0.15040187435E+03  0.00000000000E+00 0. -1.
         -2    1    6    6    0  503 -0.10472672332E+03  0.78435105731E+02 -0.29256594484E+03  0.32049116129E+03  0.00000000000E+00 0.  1.
<mgrwt>
<rscale>  0 0.17431642E+04</rscale>
<asrwt>0</asrwt>
<pdfrwt beam="1">  1        1 0.19969955E+00 0.17431642E+04</pdfrwt>
<pdfrwt beam="2">  1       -2 0.90035302E-01 0.17431642E+04</pdfrwt>
<totfact> 0.79701681E+00</totfact>
</mgrwt>
</event>
<event>
12    5  0.5246737E-008  0.1651008E+04  0.7818608E-02  0.8789810E-01
         -2   -1    0    0    0  501 -0.00000000000E+00  0.00000000000E+00  0.26048393510E+03  0.26048393510E+03  0.00000000000E+00 0.  1.
          1   -1    0    0  501    0  0.00000000000E+00 -0.00000000000E+00 -0.26161185285E+04  0.26161185285E+04  0.00000000000E+00 0. -1.
        -24    2    1    2    0    0  0.17526898289E+03 -0.53563877615E+03 -0.62280948176E+03  0.84371935689E+03  0.79640364970E+02 0.  0.
        254    2    1    2    0    0 -0.17526898289E+03  0.53563877615E+03 -0.17328251117E+04  0.20328831067E+04  0.90127839382E+03 0.  0.
         23    2    4    4    0    0 -0.18865813764E+03  0.10964860658E+03 -0.15370503095E+04  0.15551752505E+04  0.91824267497E+02 0.  0.
         23    2    4    4    0    0  0.13389154754E+02  0.42599016958E+03 -0.19577480215E+03  0.47770785620E+03  0.90720056629E+02 0.  0.
          3    1    3    3  502    0  0.94815556385E+02 -0.22200691135E+03 -0.31599642468E+03  0.39765663433E+03  0.00000000000E+00 0. -1.
         -4    1    3    3    0  502  0.80453426501E+02 -0.31363186480E+03 -0.30681305709E+03  0.44606272256E+03  0.00000000000E+00 0.  1.
         13    1    5    5    0    0 -0.13445991561E+03  0.10882892629E+03 -0.94939959300E+03  0.96502994321E+03  0.00000000000E+00 0. -1.
        -13    1    5    5    0    0 -0.54198222028E+02  0.81968028404E+00 -0.58765071651E+03  0.59014530732E+03  0.00000000000E+00 0.  1.
          1    1    6    6  503    0  0.39859936331E+00  0.59812063801E+02  0.47779724784E+01  0.60003923860E+02  0.00000000000E+00 0. -1.
         -1    1    6    6    0  503  0.12990555391E+02  0.36617810578E+03 -0.20055277463E+03  0.41770393234E+03  0.00000000000E+00 0.  1.
<mgrwt>
<rscale>  0 0.16510080E+04</rscale>
<asrwt>0</asrwt>
<pdfrwt beam="1">  1        1 0.40247977E+00 0.16510080E+04</pdfrwt>
<pdfrwt beam="2">  1       -2 0.40074452E-01 0.16510080E+04</pdfrwt>
<totfact> 0.55715622E+00</totfact>
</mgrwt>
</event>
<event>
12    5  0.5246737E-008  0.1093224E+04  0.7818608E-02  0.9211821E-01
         -2   -1    0    0    0  501 -0.00000000000E+00  0.00000000000E+00  0.17879727134E+04  0.17879727134E+04  0.00000000000E+00 0.  1.
          1   -1    0    0  501    0  0.00000000000E+00 -0.00000000000E+00 -0.16710820961E+03  0.16710820961E+03  0.00000000000E+00 0. -1.
        -24    2    1    2    0    0 -0.18073823574E+02 -0.12174981868E+03  0.46116194743E+03  0.48393469563E+03  0.79829608717E+02 0.  0.
        254    2    1    2    0    0  0.18073823574E+02  0.12174981868E+03  0.11597025563E+04  0.14711462273E+04  0.89677841278E+03 0.  0.
         23    2    4    4    0    0 -0.42105817137E+03  0.35395385854E+02  0.70366891793E+03  0.82570731502E+03  0.89998927837E+02 0.  0.
         23    2    4    4    0    0  0.43913199494E+03  0.86354432827E+02  0.45603363840E+03  0.64543891232E+03  0.91272740360E+02 0.  0.
          1    1    3    3  502    0 -0.15505555441E+02 -0.71644176597E+02  0.13214608945E+03  0.15111551623E+03  0.00000000000E+00 0. -1.
         -2    1    3    3    0  502 -0.25682681331E+01 -0.50105642084E+02  0.32901585799E+03  0.33281917940E+03  0.00000000000E+00 0.  1.
         13    1    5    5    0    0 -0.20147829897E+03  0.25937343059E+02  0.25435133134E+03  0.32551628296E+03  0.00000000000E+00 0. -1.
        -13    1    5    5    0    0 -0.21957987240E+03  0.94580427942E+01  0.44931758659E+03  0.50019103206E+03  0.00000000000E+00 0.  1.
          4    1    6    6  503    0  0.21297937626E+03  0.34903512275E+01  0.25038692307E+03  0.32873394791E+03  0.00000000000E+00 0. -1.
         -4    1    6    6    0  503  0.22615261868E+03  0.82864081600E+02  0.20564671534E+03  0.31670496442E+03  0.00000000000E+00 0.  1.
<mgrwt>
<rscale>  0 0.10932244E+04</rscale>
<asrwt>0</asrwt>
<pdfrwt beam="1">  1        1 0.25708957E-01 0.10932244E+04</pdfrwt>
<pdfrwt beam="2">  1       -2 0.27507271E+00 0.10932244E+04</pdfrwt>
<totfact> 0.74338028E+00</totfact>
</mgrwt>
</event>
<event>
12    5  0.5246737E-008  0.1757701E+04  0.7818608E-02  0.8729123E-01
         -2   -1    0    0    0  501 -0.00000000000E+00  0.00000000000E+00  0.76184352020E+03  0.76184352020E+03  0.00000000000E+00 0.  1.
          1   -1    0    0  501    0  0.00000000000E+00 -0.00000000000E+00 -0.10138279031E+04  0.10138279031E+04  0.00000000000E+00 0. -1.
        -24    2    1    2    0    0 -0.30813328097E+03 -0.13029101050E+03  0.47385365747E+03  0.58550525315E+03  0.79732342937E+02 0.  0.
        254    2    1    2    0    0  0.30813328097E+03  0.13029101050E+03 -0.72583804038E+03  0.11901661702E+04  0.88189159509E+03 0.  0.
         23    2    4    4    0    0  0.42141692262E+03 -0.10108926176E+03 -0.31398484714E+02  0.44399747247E+03  0.91305143386E+02 0.  0.
         23    2    4    4    0    0 -0.11328364165E+03  0.23138027226E+03 -0.69443955566E+03  0.74616869769E+03  0.90285187572E+02 0.  0.
          3    1    3    3  502    0 -0.27650453672E+02 -0.15611311538E+01  0.83013256391E+02  0.87511059046E+02  0.00000000000E+00 0. -1.
         -4    1    3    3    0  502 -0.28048282730E+03 -0.12872987934E+03  0.39084040108E+03  0.49799419410E+03  0.00000000000E+00 0.  1.
         13    1    5    5    0    0  0.74791321250E+02 -0.27482722618E+02  0.28483236072E+02  0.84618771641E+02  0.00000000000E+00 0.  1.
        -13    1    5    5    0    0  0.34662560137E+03 -0.73606539144E+02 -0.59881720787E+02  0.35937870083E+03  0.00000000000E+00 0. -1.
          1    1    6    6  503    0 -0.72306596081E+02  0.58887362735E+02 -0.28864059948E+03  0.30333044851E+03  0.00000000000E+00 0. -1.
         -1    1    6    6    0  503 -0.40977045566E+02  0.17249290953E+03 -0.40579895618E+03  0.44283824918E+03  0.00000000000E+00 0.  1.
<mgrwt>
<rscale>  0 0.17577010E+04</rscale>
<asrwt>0</asrwt>
<pdfrwt beam="1">  1        1 0.15597352E+00 0.17577010E+04</pdfrwt>
<pdfrwt beam="2">  1       -2 0.11720670E+00 0.17577010E+04</pdfrwt>
<totfact> 0.68965617E+00</totfact>
</mgrwt>
</event>
<event>
12    5  0.5246737E-008  0.1359329E+04  0.7818608E-02  0.8983796E-01
          1   -1    0    0  501    0  0.00000000000E+00  0.00000000000E+00  0.22587728746E+04  0.22587728746E+04  0.00000000000E+00 0. -1.
         -2   -1    0    0    0  501 -0.00000000000E+00 -0.00000000000E+00 -0.20451089376E+03  0.20451089376E+03  0.00000000000E+00 0.  1.
        -24    2    1    2    0    0  0.37177123657E+03 -0.43098583258E+02  0.55899721993E+03  0.67736056227E+03  0.79171328181E+02 0.  0.
        254    2    1    2    0    0 -0.37177123657E+03  0.43098583258E+02  0.14952647609E+04  0.17859232061E+04  0.90201643702E+03 0.  0.
         23    2    4    4    0    0 -0.43092221118E+03 -0.29371382813E+03  0.48971751098E+03  0.72007101581E+03  0.81958906309E+02 0.  0.
         23    2    4    4    0    0  0.59150974613E+02  0.33681241139E+03  0.10055472500E+04  0.10658521903E+04  0.89298272314E+02 0.  0.
          1    1    3    3  502    0  0.27970290738E+03 -0.64991998426E+02  0.43824003726E+03  0.52393893395E+03  0.00000000000E+00 0. -1.
         -2    1    3    3    0  502  0.92068329195E+02  0.21893415168E+02  0.12075718268E+03  0.15342162832E+03  0.00000000000E+00 0.  1.
         13    1    5    5    0    0 -0.39746616421E+01  0.47446647027E+01  0.21006830156E+01  0.65362563783E+01  0.00000000000E+00 0. -1.
        -13    1    5    5    0    0 -0.42694754954E+03 -0.29845849283E+03  0.48761682796E+03  0.71353475943E+03  0.00000000000E+00 0.  1.
          2    1    6    6  503    0  0.24546484365E+01  0.23743510512E+03  0.62992958877E+03  0.67319591595E+03  0.00000000000E+00 0. -1.
         -2    1    6    6    0  503  0.56696326176E+02  0.99377306273E+02  0.37561766119E+03  0.39265627437E+03  0.00000000000E+00 0.  1.
<mgrwt>
<rscale>  0 0.13593287E+04</rscale>
<asrwt>0</asrwt>
<pdfrwt beam="1">  1        1 0.34750350E+00 0.13593287E+04</pdfrwt>
<pdfrwt beam="2">  1       -2 0.31463216E-01 0.13593287E+04</pdfrwt>
<totfact> 0.16033335E+01</totfact>
</mgrwt>
</event>
<event>
12    5  0.5246737E-008  0.2561266E+04  0.7818608E-02  0.8381479E-01
         -2   -1    0    0    0  501 -0.00000000000E+00  0.00000000000E+00  0.67162163506E+03  0.67162163506E+03  0.00000000000E+00 0.  1.
          1   -1    0    0  501    0  0.00000000000E+00 -0.00000000000E+00 -0.24418822767E+04  0.24418822767E+04  0.00000000000E+00 0. -1.
        -24    2    1    2    0    0  0.41596557634E+03 -0.10283477644E+04 -0.61720130659E+03  0.12720566472E+04  0.81634401737E+02 0.  0.
        254    2    1    2    0    0 -0.41596557634E+03  0.10283477644E+04 -0.11530593351E+04  0.18414472646E+04  0.91151287044E+03 0.  0.
         23    2    4    4    0    0 -0.50960960245E+03  0.10957612691E+04 -0.78198499537E+03  0.14420286223E+04  0.86898266871E+02 0.  0.
         23    2    4    4    0    0  0.93644026104E+02 -0.67413504688E+02 -0.37107433968E+03  0.39941864234E+03  0.92332562158E+02 0.  0.
          3    1    3    3  502    0  0.13648654868E+03 -0.27504735162E+03 -0.13901799212E+03  0.33705433648E+03  0.00000000000E+00 0. -1.
         -4    1    3    3    0  502  0.27947902766E+03 -0.75330041274E+03 -0.47818331447E+03  0.93500231068E+03  0.00000000000E+00 0.  1.
         13    1    5    5    0    0 -0.17756728842E+02  0.93035653975E+02 -0.59382490767E+02  0.11179094122E+03  0.00000000000E+00 0.  1.
        -13    1    5    5    0    0 -0.49185287360E+03  0.10027256151E+04 -0.72260250460E+03  0.13302376810E+04  0.00000000000E+00 0. -1.
          1    1    6    6  503    0  0.10465787352E+03 -0.30409954856E+02 -0.28259951249E+03  0.30288697612E+03  0.00000000000E+00 0. -1.
         -1    1    6    6    0  503 -0.11013847419E+02 -0.37003549832E+02 -0.88474827193E+02  0.96531666214E+02  0.00000000000E+00 0.  1.
<mgrwt>
<rscale>  0 0.25612661E+04</rscale>
<asrwt>0</asrwt>
<pdfrwt beam="1">  1        1 0.37567419E+00 0.25612661E+04</pdfrwt>
<pdfrwt beam="2">  1       -2 0.10332641E+00 0.25612661E+04</pdfrwt>
<totfact> 0.88202705E-01</totfact>
</mgrwt>
</event>
<event>
12    5  0.5246737E-008  0.1914411E+04  0.7818608E-02  0.8647716E-01
          1   -1    0    0  501    0  0.00000000000E+00  0.00000000000E+00  0.78131833598E+03  0.78131833598E+03  0.00000000000E+00 0. -1.
         -2   -1    0    0    0  501 -0.00000000000E+00 -0.00000000000E+00 -0.11726878740E+04  0.11726878740E+04  0.00000000000E+00 0.  1.
        -24    2    1    2    0    0 -0.33236247467E+03  0.63962768494E+03 -0.25054273594E+02  0.72563021853E+03  0.79517969782E+02 0.  0.
        254    2    1    2    0    0  0.33236247467E+03 -0.63962768494E+03 -0.36631526437E+03  0.12283759914E+04  0.92473364459E+03 0.  0.
         23    2    4    4    0    0  0.46263730167E+02 -0.71814840547E+03  0.27747553921E+02  0.72582352388E+03  0.90401305663E+02 0.  0.
         23    2    4    4    0    0  0.28609874450E+03  0.78520720529E+02 -0.39406281829E+03  0.50255246752E+03  0.96205419244E+02 0.  0.
          1    1    3    3  502    0 -0.95844488582E+02  0.15910616821E+03  0.26303207160E+02  0.18759743458E+03  0.00000000000E+00 0. -1.
         -2    1    3    3    0  502 -0.23651798609E+03  0.48052151672E+03 -0.51357480753E+02  0.53803278395E+03  0.00000000000E+00 0.  1.
         13    1    5    5    0    0 -0.15688898710E+02 -0.43019491258E+03  0.26189247925E+02  0.43127680329E+03  0.00000000000E+00 0. -1.
        -13    1    5    5    0    0  0.61952628877E+02 -0.28795349288E+03  0.15583059965E+01  0.29454672058E+03  0.00000000000E+00 0.  1.
          1    1    6    6  503    0  0.16509316104E+03 -0.32342225191E+01 -0.19194705519E+03  0.25319929703E+03  0.00000000000E+00 0. -1.
         -1    1    6    6    0  503  0.12100558346E+03  0.81754943048E+02 -0.20211576310E+03  0.24935317050E+03  0.00000000000E+00 0.  1.
<mgrwt>
<rscale>  0 0.19144112E+04</rscale>
<asrwt>0</asrwt>
<pdfrwt beam="1">  1        1 0.12020282E+00 0.19144112E+04</pdfrwt>
<pdfrwt beam="2">  1       -2 0.18041352E+00 0.19144112E+04</pdfrwt>
<totfact> 0.33844347E+00</totfact>
</mgrwt>
</event>
<event>
12    5  0.5246737E-008  0.1046094E+04  0.7818608E-02  0.9259386E-01
          1   -1    0    0  501    0  0.00000000000E+00  0.00000000000E+00  0.21912544470E+04  0.21912544470E+04  0.00000000000E+00 0. -1.
         -2   -1    0    0    0  501 -0.00000000000E+00 -0.00000000000E+00 -0.12485013686E+03  0.12485013686E+03  0.00000000000E+00 0.  1.
        -24    2    1    2    0    0 -0.37251523060E+02  0.80047745679E+01  0.35651036797E+02  0.94926162071E+02  0.79298344464E+02 0.  0.
        254    2    1    2    0    0  0.37251523060E+02 -0.80047745679E+01  0.20307532733E+04  0.22211784218E+04  0.89901222009E+03 0.  0.
         23    2    4    4    0    0  0.34396887030E+03 -0.25796412573E+03  0.67468970940E+03  0.80559668752E+03  0.94444402032E+02 0.  0.
         23    2    4    4    0    0 -0.30671734724E+03  0.24995935116E+03  0.13560635639E+04  0.14155817342E+04  0.91695412239E+02 0.  0.
          3    1    3    3  502    0 -0.17658190521E+02 -0.67851121129E+01  0.58442954556E+02  0.61428237612E+02  0.00000000000E+00 0. -1.
         -4    1    3    3    0  502 -0.19593332539E+02  0.14789886681E+02 -0.22791917758E+02  0.33497924460E+02  0.00000000000E+00 0.  1.
         13    1    5    5    0    0  0.34681375598E+03 -0.23987639205E+03  0.65126310311E+03  0.77586345079E+03  0.00000000000E+00 0. -1.
        -13    1    5    5    0    0 -0.28448856807E+01 -0.18087733678E+02  0.23426606291E+02  0.29733236730E+02  0.00000000000E+00 0.  1.
          4    1    6    6  503    0 -0.23497384088E+03  0.14063393105E+03  0.85818421311E+03  0.90081671393E+03  0.00000000000E+00 0. -1.
         -4    1    6    6    0  503 -0.71743506366E+02  0.10932542011E+03  0.49787935079E+03  0.51476502031E+03  0.00000000000E+00 0.  1.
<mgrwt>
<rscale>  0 0.10460945E+04</rscale>
<asrwt>0</asrwt>
<pdfrwt beam="1">  1        1 0.33711604E+00 0.10460945E+04</pdfrwt>
<pdfrwt beam="2">  1       -2 0.19207715E-01 0.10460945E+04</pdfrwt>
<totfact> 0.44755731E+01</totfact>
</mgrwt>
</event>
<event>
12    5  0.5246737E-008  0.2399748E+04  0.7818608E-02  0.8439598E-01
          1   -1    0    0  501    0  0.00000000000E+00  0.00000000000E+00  0.31597211125E+04  0.31597211125E+04  0.00000000000E+00 0. -1.
         -2   -1    0    0    0  501 -0.00000000000E+00 -0.00000000000E+00 -0.45564084828E+03  0.45564084828E+03  0.00000000000E+00 0.  1.
        -24    2    1    2    0    0  0.79116817941E+03  0.41096974227E+03  0.19342384227E+04  0.21313505714E+04  0.80831708738E+02 0.  0.
        254    2    1    2    0    0 -0.79116817941E+03 -0.41096974227E+03  0.76984184153E+03  0.14840113894E+04  0.90265725815E+03 0.  0.
         23    2    4    4    0    0 -0.67675833165E+03 -0.12603755906E+03  0.50076695643E+02  0.69625948330E+03  0.91554829921E+02 0.  0.
         23    2    4    4    0    0 -0.11440984776E+03 -0.28493218321E+03  0.71976514588E+03  0.78775190609E+03  0.90637950240E+02 0.  0.
          3    1    3    3  502    0  0.77408174394E+03  0.38901190616E+03  0.18899378039E+04  0.20790376889E+04  0.00000000000E+00 0. -1.
         -4    1    3    3    0  502  0.17086435473E+02  0.21957836115E+02  0.44300618816E+02  0.52312882463E+02  0.00000000000E+00 0.  1.
         13    1    5    5    0    0 -0.49598556539E+03 -0.12226575954E+03  0.93568859284E+01  0.51091892541E+03  0.00000000000E+00 0. -1.
        -13    1    5    5    0    0 -0.18077276627E+03 -0.37717995156E+01  0.40719809714E+02  0.18534055789E+03  0.00000000000E+00 0.  1.
          1    1    6    6  503    0 -0.10343812962E+03 -0.28212139524E+03  0.63816815682E+03  0.70537261408E+03  0.00000000000E+00 0. -1.
         -1    1    6    6    0  503 -0.10971718131E+02 -0.28107879708E+01  0.81596989064E+02  0.82379292010E+02  0.00000000000E+00 0.  1.
<mgrwt>
<rscale>  0 0.23997483E+04</rscale>
<asrwt>0</asrwt>
<pdfrwt beam="1">  1        1 0.48611093E+00 0.23997483E+04</pdfrwt>
<pdfrwt beam="2">  1       -2 0.70098594E-01 0.23997483E+04</pdfrwt>
<totfact> 0.66561827E-01</totfact>
</mgrwt>
</event>
<event>
12    5  0.5246737E-008  0.2344379E+04  0.7818608E-02  0.8460626E-01
          1   -1    0    0  501    0  0.00000000000E+00  0.00000000000E+00  0.15409678860E+04  0.15409678860E+04  0.00000000000E+00 0. -1.
         -2   -1    0    0    0  501 -0.00000000000E+00 -0.00000000000E+00 -0.89166553671E+03  0.89166553671E+03  0.00000000000E+00 0.  1.
        -24    2    1    2    0    0 -0.51480774273E+03 -0.30968331068E+03 -0.54645891211E+03  0.81601622764E+03  0.79588794787E+02 0.  0.
        254    2    1    2    0    0  0.51480774273E+03  0.30968331068E+03  0.11957612614E+04  0.16166171950E+04  0.90701455128E+03 0.  0.
         23    2    4    4    0    0 -0.15045435580E+02  0.17462339331E+03 -0.88796452968E+02  0.21732223236E+03  0.92867906161E+02 0.  0.
         23    2    4    4    0    0  0.52985317831E+03  0.13505991737E+03  0.12845577143E+04  0.13992949627E+04  0.94616591001E+02 0.  0.
          3    1    3    3  502    0 -0.59323267588E+02 -0.41628570812E+02 -0.10393623012E+03  0.12670804204E+03  0.00000000000E+00 0. -1.
         -4    1    3    3    0  502 -0.45548447514E+03 -0.26805473987E+03 -0.44252268199E+03  0.68930818560E+03  0.00000000000E+00 0.  1.
         13    1    5    5    0    0 -0.51070283561E+02  0.13485453123E+03 -0.71426392007E+02  0.16092124760E+03  0.00000000000E+00 0.  1.
        -13    1    5    5    0    0  0.36024847981E+02  0.39768862082E+02 -0.17370060962E+02  0.56400984754E+02  0.00000000000E+00 0. -1.
          4    1    6    6  503    0  0.46127062065E+03  0.14869406382E+03  0.11054228668E+04  0.12069963648E+04  0.00000000000E+00 0.  1.
         -4    1    6    6    0  503  0.68582557665E+02 -0.13634146444E+02  0.17913484751E+03  0.19229859791E+03  0.00000000000E+00 0. -1.
<mgrwt>
<rscale>  0 0.23443788E+04</rscale>
<asrwt>0</asrwt>
<pdfrwt beam="1">  1        1 0.23707198E+00 0.23443788E+04</pdfrwt>
<pdfrwt beam="2">  1       -2 0.13717931E+00 0.23443788E+04</pdfrwt>
<totfact> 0.18345206E+00</totfact>
</mgrwt>
</event>
<event>
12    5  0.5246737E-008  0.1431352E+04  0.7818608E-02  0.8931432E-01
         -2   -1    0    0    0  501 -0.00000000000E+00  0.00000000000E+00  0.97318112443E+03  0.97318112443E+03  0.00000000000E+00 0.  1.
          1   -1    0    0  501    0  0.00000000000E+00 -0.00000000000E+00 -0.52630710279E+03  0.52630710279E+03  0.00000000000E+00 0. -1.
        -24    2    1    2    0    0  0.90123070969E+02  0.37833906918E+02 -0.29904222432E+03  0.32852021225E+03  0.94581739746E+02 0.  0.
        254    2    1    2    0    0 -0.90123070969E+02 -0.37833906918E+02  0.74591624597E+03  0.11709680150E+04  0.89734133621E+03 0.  0.
         23    2    4    4    0    0 -0.90267484937E+02  0.21171674084E+03  0.84969716420E+03  0.88498598022E+03  0.90789410949E+02 0.  0.
         23    2    4    4    0    0  0.14441396756E+00 -0.24955064776E+03 -0.10378091823E+03  0.28598203476E+03  0.93486354967E+02 0.  0.
          1    1    3    3  502    0  0.72849079001E+02  0.68189939350E+01 -0.27752377102E+03  0.28700684743E+03  0.00000000000E+00 0. -1.
         -2    1    3    3    0  502  0.17273991968E+02  0.31014912983E+02 -0.21518453297E+02  0.41513364814E+02  0.00000000000E+00 0.  1.
         13    1    5    5    0    0 -0.43423753454E+02  0.44835753193E+02  0.36341436298E+03  0.36873549646E+03  0.00000000000E+00 0. -1.
        -13    1    5    5    0    0 -0.46843731482E+02  0.16688098765E+03  0.48628280122E+03  0.51625048376E+03  0.00000000000E+00 0.  1.
          3    1    6    6  503    0  0.54377922597E+01 -0.21001845618E+03 -0.12110755037E+03  0.24249610363E+03  0.00000000000E+00 0. -1.
         -3    1    6    6    0  503 -0.52933782922E+01 -0.39532191578E+02  0.17326632138E+02  0.43485931126E+02  0.00000000000E+00 0.  1.
<mgrwt>
<rscale>  0 0.14313520E+04</rscale>
<asrwt>0</asrwt>
<pdfrwt beam="1">  1        1 0.80970324E-01 0.14313520E+04</pdfrwt>
<pdfrwt beam="2">  1       -2 0.14972017E+00 0.14313520E+04</pdfrwt>
<totfact> 0.10564010E+01</totfact>
</mgrwt>
</event>
<event>
12    5  0.5246737E-008  0.1888147E+04  0.7818608E-02  0.8660779E-01
          1   -1    0    0  501    0  0.00000000000E+00  0.00000000000E+00  0.99843811831E+03  0.99843811831E+03  0.00000000000E+00 0. -1.
         -2   -1    0    0    0  501 -0.00000000000E+00 -0.00000000000E+00 -0.89266857756E+03  0.89266857756E+03  0.00000000000E+00 0.  1.
        -24    2    1    2    0    0  0.43232763956E+03 -0.58089657300E+03 -0.19195966879E+02  0.72900242830E+03  0.82024623632E+02 0.  0.
        254    2    1    2    0    0 -0.43232763956E+03  0.58089657300E+03  0.12496550762E+03  0.11621042676E+04  0.90028991672E+03 0.  0.
         23    2    4    4    0    0 -0.19329476076E+03  0.26703068912E+03  0.50277879462E+03  0.60822859294E+03  0.92126280102E+02 0.  0.
         23    2    4    4    0    0 -0.23903287880E+03  0.31386588388E+03 -0.37781328700E+03  0.55387567462E+03  0.91579871645E+02 0.  0.
          1    1    3    3  502    0  0.39227730832E+02 -0.63788409204E+02  0.22252002630E+02  0.78121236780E+02  0.00000000000E+00 0. -1.
         -2    1    3    3    0  502  0.39309990873E+03 -0.51710816379E+03 -0.41447969509E+02  0.65088119152E+03  0.00000000000E+00 0.  1.
         13    1    5    5    0    0 -0.14323846444E+03  0.13191524423E+03  0.24553187089E+03  0.31337643335E+03  0.00000000000E+00 0. -1.
        -13    1    5    5    0    0 -0.50056296319E+02  0.13511544489E+03  0.25724692373E+03  0.29485215960E+03  0.00000000000E+00 0.  1.
          1    1    6    6  503    0 -0.14020369205E+03  0.23054836325E+03 -0.29774612951E+03  0.40182381798E+03  0.00000000000E+00 0. -1.
         -1    1    6    6    0  503 -0.98829186754E+02  0.83317520630E+02 -0.80067157495E+02  0.15205185664E+03  0.00000000000E+00 0.  1.
<mgrwt>
<rscale>  0 0.18881465E+04</rscale>
<asrwt>0</asrwt>
<pdfrwt beam="1">  1        1 0.15360587E+00 0.18881465E+04</pdfrwt>
<pdfrwt beam="2">  1       -2 0.13733363E+00 0.18881465E+04</pdfrwt>
<totfact> 0.47028428E+00</totfact>
</mgrwt>
</event>
<event>
12    5  0.5246737E-008  0.3274179E+04  0.7818608E-02  0.8169497E-01
         -2   -1    0    0    0  501 -0.00000000000E+00  0.00000000000E+00  0.16031563739E+04  0.16031563739E+04  0.00000000000E+00 0.  1.
          1   -1    0    0  501    0  0.00000000000E+00 -0.00000000000E+00 -0.16717407623E+04  0.16717407623E+04  0.00000000000E+00 0. -1.
        -24    2    1    2    0    0 -0.86834806361E+03 -0.11365529794E+04 -0.53220689612E+03  0.15283656634E+04  0.82923979699E+02 0.  0.
        254    2    1    2    0    0  0.86834806361E+03  0.11365529794E+04  0.46362250772E+03  0.17465314728E+04  0.88861989701E+03 0.  0.
         23    2    4    4    0    0  0.71347571939E+03  0.12660588466E+04  0.35245943858E+03  0.14986374887E+04  0.98661346943E+02 0.  0.
         23    2    4    4    0    0  0.15487234421E+03 -0.12950586727E+03  0.11116306915E+03  0.24789398411E+03  0.91307101356E+02 0.  0.
          3    1    3    3  502    0 -0.81086901798E+03 -0.10429302148E+04 -0.51115931877E+03  0.14165083291E+04  0.00000000000E+00 0. -1.
         -4    1    3    3    0  502 -0.57479045629E+02 -0.93622764542E+02 -0.21047577354E+02  0.11185733431E+03  0.00000000000E+00 0.  1.
         13    1    5    5    0    0  0.12878255205E+03  0.20278688623E+03  0.94168709577E+02  0.25802172933E+03  0.00000000000E+00 0.  1.
        -13    1    5    5    0    0  0.58469316734E+03  0.10632719604E+04  0.25829072900E+03  0.12406157594E+04  0.00000000000E+00 0. -1.
          4    1    6    6  503    0  0.16424258313E+03 -0.10920963555E+03  0.88905686164E+02  0.21634831093E+03  0.00000000000E+00 0. -1.
         -4    1    6    6    0  503 -0.93702389160E+01 -0.20296231717E+02  0.22257382983E+02  0.31545673182E+02  0.00000000000E+00 0.  1.
<mgrwt>
<rscale>  0 0.32741789E+04</rscale>
<asrwt>0</asrwt>
<pdfrwt beam="1">  1        1 0.25719089E+00 0.32741789E+04</pdfrwt>
<pdfrwt beam="2">  1       -2 0.24663944E+00 0.32741789E+04</pdfrwt>
<totfact> 0.24533967E-01</totfact>
</mgrwt>
</event>
<event>
12    5  0.5246737E-008  0.2441383E+04  0.7818608E-02  0.8424171E-01
          1   -1    0    0  501    0  0.00000000000E+00  0.00000000000E+00  0.18987466639E+04  0.18987466639E+04  0.00000000000E+00 0. -1.
         -2   -1    0    0    0  501 -0.00000000000E+00 -0.00000000000E+00 -0.78477452770E+03  0.78477452770E+03  0.00000000000E+00 0.  1.
        -24    2    1    2    0    0 -0.23409926006E+03  0.33963024017E+03  0.15465884884E+04  0.16025927762E+04  0.78844723120E+02 0.  0.
        254    2    1    2    0    0  0.23409926006E+03 -0.33963024017E+03 -0.43261635214E+03  0.10809284154E+04  0.90060988643E+03 0.  0.
         23    2    4    4    0    0  0.41052870698E+03 -0.52070749535E+03 -0.14075337167E+03  0.68402194054E+03  0.91675452150E+02 0.  0.
         23    2    4    4    0    0 -0.17642944693E+03  0.18107725518E+03 -0.29186298047E+03  0.39690647489E+03  0.91839143892E+02 0.  0.
          1    1    3    3  502    0 -0.16502532631E+03  0.24622488975E+03  0.96427969585E+03  0.10088088949E+04  0.00000000000E+00 0. -1.
         -2    1    3    3    0  502 -0.69073933745E+02  0.93405350427E+02  0.58230879252E+03  0.59378388127E+03  0.00000000000E+00 0.  1.
         13    1    5    5    0    0  0.25265343104E+03 -0.38690580493E+03 -0.87071309919E+02  0.47022470279E+03  0.00000000000E+00 0. -1.
        -13    1    5    5    0    0  0.15787527594E+03 -0.13380169042E+03 -0.53682061752E+02  0.21379723775E+03  0.00000000000E+00 0.  1.
          2    1    6    6  503    0 -0.11960186951E+03  0.58047919775E+02 -0.15683487429E+03  0.20559996589E+03  0.00000000000E+00 0.  1.
         -2    1    6    6    0  503 -0.56827577415E+02  0.12302933541E+03 -0.13502810619E+03  0.19130650900E+03  0.00000000000E+00 0. -1.
<mgrwt>
<rscale>  0 0.24413832E+04</rscale>
<asrwt>0</asrwt>
<pdfrwt beam="1">  1        1 0.29211487E+00 0.24413832E+04</pdfrwt>
<pdfrwt beam="2">  1       -2 0.12073454E+00 0.24413832E+04</pdfrwt>
<totfact> 0.14323031E+00</totfact>
</mgrwt>
</event>
<event>
12    5  0.5246737E-008  0.1392095E+04  0.7818608E-02  0.8959560E-01
         -2   -1    0    0    0  501 -0.00000000000E+00  0.00000000000E+00  0.31760342516E+03  0.31760342516E+03  0.00000000000E+00 0.  1.
          1   -1    0    0  501    0  0.00000000000E+00 -0.00000000000E+00 -0.15254318213E+04  0.15254318213E+04  0.00000000000E+00 0. -1.
        -24    2    1    2    0    0  0.22615713851E+03  0.28723263036E+03 -0.10619433715E+03  0.38915590036E+03  0.80718289753E+02 0.  0.
        254    2    1    2    0    0 -0.22615713851E+03 -0.28723263036E+03 -0.11016340590E+04  0.14538793461E+04  0.87551009010E+03 0.  0.
         23    2    4    4    0    0  0.73773203231E+02  0.10386918269E+03  0.76896967816E+02  0.17350080803E+03  0.89208150419E+02 0.  0.
         23    2    4    4    0    0 -0.29993034174E+03 -0.39110181304E+03 -0.11785310268E+04  0.12803785381E+04  0.86688993312E+02 0.  0.
          1    1    3    3  502    0  0.35156689744E+02  0.10359095905E+03 -0.33239638340E+02  0.11433264271E+03  0.00000000000E+00 0. -1.
         -2    1    3    3    0  502  0.19100044877E+03  0.18364167130E+03 -0.72954698808E+02  0.27482325765E+03  0.00000000000E+00 0.  1.
         13    1    5    5    0    0  0.73226711256E+02  0.42172079853E+02  0.73018308012E+02  0.11167949170E+03  0.00000000000E+00 0. -1.
        -13    1    5    5    0    0  0.54649197429E+00  0.61697102834E+02  0.38786598044E+01  0.61821316335E+02  0.00000000000E+00 0.  1.
          1    1    6    6  503    0 -0.74171552754E+02 -0.15473922820E+03 -0.35307147047E+03  0.39256223869E+03  0.00000000000E+00 0.  1.
         -1    1    6    6    0  503 -0.22575878899E+03 -0.23636258484E+03 -0.82545955633E+03  0.88781629939E+03  0.00000000000E+00 0. -1.
<mgrwt>
<rscale>  0 0.13920954E+04</rscale>
<asrwt>0</asrwt>
<pdfrwt beam="1">  1        1 0.23468181E+00 0.13920954E+04</pdfrwt>
<pdfrwt beam="2">  1       -2 0.48862066E-01 0.13920954E+04</pdfrwt>
<totfact> 0.21328456E+01</totfact>
</mgrwt>
</event>
<event>
12    5  0.5246737E-008  0.1461189E+04  0.7818608E-02  0.8910680E-01
          1   -1    0    0  501    0  0.00000000000E+00  0.00000000000E+00  0.32602031618E+04  0.32602031618E+04  0.00000000000E+00 0. -1.
         -2   -1    0    0    0  501 -0.00000000000E+00 -0.00000000000E+00 -0.16372245691E+03  0.16372245691E+03  0.00000000000E+00 0.  1.
        -24    2    1    2    0    0  0.12239067375E+03 -0.28598995845E+03  0.21334395211E+03  0.38564010649E+03  0.80205464145E+02 0.  0.
        254    2    1    2    0    0 -0.12239067375E+03  0.28598995845E+03  0.28831367528E+04  0.30382855122E+04  0.90660442598E+03 0.  0.
         23    2    4    4    0    0  0.16008788237E+03 -0.26200300691E+03  0.12442661709E+04  0.12849154389E+04  0.92388719508E+02 0.  0.
         23    2    4    4    0    0 -0.28247855612E+03  0.54799296536E+03  0.16388705819E+04  0.17533700733E+04  0.91210772160E+02 0.  0.
          3    1    3    3  502    0  0.43206940615E+02 -0.11207199102E+03  0.37183348142E+02  0.12573612157E+03  0.00000000000E+00 0. -1.
         -4    1    3    3    0  502  0.79183733131E+02 -0.17391796743E+03  0.17616060397E+03  0.25990398492E+03  0.00000000000E+00 0.  1.
         13    1    5    5    0    0  0.16365475008E+03 -0.22624556537E+03  0.11631273893E+04  0.11961752617E+04  0.00000000000E+00 0. -1.
        -13    1    5    5    0    0 -0.35668677085E+01 -0.35757441540E+02  0.81138781616E+02  0.88740177218E+02  0.00000000000E+00 0.  1.
          3    1    6    6  503    0 -0.28078968401E+03  0.54239921271E+03  0.15757346611E+04  0.16899643413E+04  0.00000000000E+00 0. -1.
         -3    1    6    6    0  503 -0.16888721111E+01  0.55937526497E+01  0.63135920778E+02  0.63405731998E+02  0.00000000000E+00 0.  1.
<mgrwt>
<rscale>  0 0.14611892E+04</rscale>
<asrwt>0</asrwt>
<pdfrwt beam="1">  1        1 0.50156967E+00 0.14611892E+04</pdfrwt>
<pdfrwt beam="2">  1       -2 0.25188073E-01 0.14611892E+04</pdfrwt>
<totfact> 0.46620331E+00</totfact>
</mgrwt>
</event>
<event>
12    5  0.5246737E-008  0.1333184E+04  0.7818608E-02  0.9003656E-01
          1   -1    0    0  501    0  0.00000000000E+00  0.00000000000E+00  0.17197571220E+04  0.17197571220E+04  0.00000000000E+00 0. -1.
         -2   -1    0    0    0  501 -0.00000000000E+00 -0.00000000000E+00 -0.25837656608E+03  0.25837656608E+03  0.00000000000E+00 0.  1.
        -24    2    1    2    0    0 -0.34807113480E+03  0.42680757892E+02  0.46708414403E+03  0.58955618473E+03  0.80210568961E+02 0.  0.
        254    2    1    2    0    0  0.34807113480E+03 -0.42680757892E+02  0.99429641192E+03  0.13885775034E+04  0.90362988340E+03 0.  0.
         23    2    4    4    0    0 -0.26061896925E+03  0.98169356351E+02  0.13627316490E+03  0.32324213056E+03  0.91409134338E+02 0.  0.
         23    2    4    4    0    0  0.60869010405E+03 -0.14085011424E+03  0.85802324702E+03  0.10653353728E+04  0.91614227662E+02 0.  0.
          1    1    3    3  502    0 -0.33681133281E+03  0.49229220607E+02  0.41953164993E+03  0.54025197396E+03  0.00000000000E+00 0. -1.
         -2    1    3    3    0  502 -0.11259801989E+02 -0.65484627150E+01  0.47552494100E+02  0.49304210772E+02  0.00000000000E+00 0.  1.
         13    1    5    5    0    0 -0.25472056528E+03  0.92408813117E+02  0.10450098170E+03  0.29041764804E+03  0.00000000000E+00 0. -1.
        -13    1    5    5    0    0 -0.58984039714E+01  0.57605432340E+01  0.31772183196E+02  0.32824482522E+02  0.00000000000E+00 0.  1.
          1    1    6    6  503    0  0.59793146432E+03 -0.15057870311E+03  0.84319243036E+03  0.10445905688E+04  0.00000000000E+00 0. -1.
         -1    1    6    6    0  503  0.10758639729E+02  0.97285888704E+01  0.14830816664E+02  0.20744804004E+02  0.00000000000E+00 0.  1.
<mgrwt>
<rscale>  0 0.13331841E+04</rscale>
<asrwt>0</asrwt>
<pdfrwt beam="1">  1        1 0.26457801E+00 0.13331841E+04</pdfrwt>
<pdfrwt beam="2">  1       -2 0.39750242E-01 0.13331841E+04</pdfrwt>
<totfact> 0.23801676E+01</totfact>
</mgrwt>
</event>
<event>
12    5  0.5246737E-008  0.1754998E+04  0.7818608E-02  0.8730604E-01
          1   -1    0    0  501    0  0.00000000000E+00  0.00000000000E+00  0.24035808575E+04  0.24035808575E+04  0.00000000000E+00 0. -1.
         -2   -1    0    0    0  501 -0.00000000000E+00 -0.00000000000E+00 -0.32035708942E+03  0.32035708942E+03  0.00000000000E+00 0.  1.
        -24    2    1    2    0    0  0.19011556519E+03  0.83124473969E+02  0.17337715226E+04  0.17479765030E+04  0.80028471112E+02 0.  0.
        254    2    1    2    0    0 -0.19011556519E+03 -0.83124473969E+02  0.34945224550E+03  0.97596144393E+03  0.88731632570E+03 0.  0.
         23    2    4    4    0    0  0.37148098069E+02 -0.27095523673E+03  0.54126196305E+03  0.61318520645E+03  0.90746147388E+02 0.  0.
         23    2    4    4    0    0 -0.22726366326E+03  0.18783076276E+03 -0.19180971755E+03  0.36277623748E+03  0.88805758016E+02 0.  0.
          1    1    3    3  502    0  0.19539222739E+03  0.70714335081E+02  0.16629761015E+04  0.16759081579E+04  0.00000000000E+00 0. -1.
         -2    1    3    3    0  502 -0.52766622001E+01  0.12410138887E+02  0.70795421087E+02  0.72068345049E+02  0.00000000000E+00 0.  1.
         13    1    5    5    0    0  0.52286334445E+01 -0.23862644601E+03  0.41165542011E+03  0.47584672348E+03  0.00000000000E+00 0.  1.
        -13    1    5    5    0    0  0.31919464624E+02 -0.32328790716E+02  0.12960654294E+03  0.13733848297E+03  0.00000000000E+00 0. -1.
          3    1    6    6  503    0 -0.22184017208E+03  0.16132685684E+03 -0.14905317263E+03  0.31217985995E+03  0.00000000000E+00 0. -1.
         -3    1    6    6    0  503 -0.54234911764E+01  0.26503905918E+02 -0.42756544923E+02  0.50596377530E+02  0.00000000000E+00 0.  1.
<mgrwt>
<rscale>  0 0.17549976E+04</rscale>
<asrwt>0</asrwt>
<pdfrwt beam="1">  1        1 0.36978166E+00 0.17549976E+04</pdfrwt>
<pdfrwt beam="2">  1       -2 0.49285708E-01 0.17549976E+04</pdfrwt>
<totfact> 0.51260239E+00</totfact>
</mgrwt>
</event>
<event>
12    5  0.5246737E-008  0.1425253E+04  0.7818608E-02  0.8935739E-01
          1   -1    0    0  501    0  0.00000000000E+00  0.00000000000E+00  0.22553353388E+04  0.22553353388E+04  0.00000000000E+00 0. -1.
         -2   -1    0    0    0  501 -0.00000000000E+00 -0.00000000000E+00 -0.22517129478E+03  0.22517129478E+03  0.00000000000E+00 0.  1.
        -24    2    1    2    0    0  0.20158009513E+03  0.35487133653E+03  0.79243887906E+03  0.89511541066E+03  0.81878086945E+02 0.  0.
        254    2    1    2    0    0 -0.20158009513E+03 -0.35487133653E+03  0.12377251649E+04  0.15853912229E+04  0.90273669774E+03 0.  0.
         23    2    4    4    0    0 -0.27771680570E+03 -0.46810466531E+03  0.12980631034E+04  0.14104642520E+04  0.90515103891E+02 0.  0.
         23    2    4    4    0    0  0.76136710572E+02  0.11323332878E+03 -0.60337938428E+02  0.17492697088E+03  0.91324656487E+02 0.  0.
          1    1    3    3  502    0  0.18638714563E+03  0.29258659357E+03  0.71395244069E+03  0.79377274478E+03  0.00000000000E+00 0. -1.
         -2    1    3    3    0  502  0.15192949497E+02  0.62284742962E+02  0.78486438373E+02  0.10134266589E+03  0.00000000000E+00 0.  1.
         13    1    5    5    0    0 -0.12455564186E+03 -0.28300884955E+03  0.79375581455E+03  0.85185468830E+03  0.00000000000E+00 0. -1.
        -13    1    5    5    0    0 -0.15316116384E+03 -0.18509581576E+03  0.50430728880E+03  0.55860956371E+03  0.00000000000E+00 0.  1.
          3    1    6    6  503    0 -0.18295138870E+02  0.36446410727E+02 -0.45312283853E+01  0.41031512181E+02  0.00000000000E+00 0. -1.
         -3    1    6    6    0  503  0.94431849442E+02  0.76786918056E+02 -0.55806710043E+02  0.13389545870E+03  0.00000000000E+00 0.  1.
<mgrwt>
<rscale>  0 0.14252534E+04</rscale>
<asrwt>0</asrwt>
<pdfrwt beam="1">  1        1 0.34697465E+00 0.14252534E+04</pdfrwt>
<pdfrwt beam="2">  1       -2 0.34641739E-01 0.14252534E+04</pdfrwt>
<totfact> 0.13355703E+01</totfact>
</mgrwt>
</event>
<event>
12    5  0.5246737E-008  0.4195195E+04  0.7818608E-02  0.7966287E-01
          1   -1    0    0  501    0  0.00000000000E+00  0.00000000000E+00  0.26847314860E+04  0.26847314860E+04  0.00000000000E+00 0. -1.
         -2   -1    0    0    0  501 -0.00000000000E+00 -0.00000000000E+00 -0.16388661369E+04  0.16388661369E+04  0.00000000000E+00 0.  1.
        -24    2    1    2    0    0  0.14124683520E+04  0.99766648199E+03 -0.53227113539E+03  0.18110827150E+04  0.79390076985E+02 0.  0.
        254    2    1    2    0    0 -0.14124683520E+04 -0.99766648199E+03  0.15781364845E+04  0.25125149080E+04  0.91203681098E+03 0.  0.
         23    2    4    4    0    0 -0.13869137497E+04 -0.72655440176E+03  0.98141674465E+03  0.18503124018E+04  0.95216120194E+02 0.  0.
         23    2    4    4    0    0 -0.25554602254E+02 -0.27111208024E+03  0.59671973984E+03  0.66220250623E+03  0.91010513681E+02 0.  0.
          1    1    3    3  502    0  0.69504822861E+03  0.49828802709E+03 -0.22218449391E+03  0.88359999285E+03  0.00000000000E+00 0. -1.
         -2    1    3    3    0  502  0.71742012338E+03  0.49937845491E+03 -0.31008664147E+03  0.92748272214E+03  0.00000000000E+00 0.  1.
         13    1    5    5    0    0 -0.11063028074E+04 -0.61150520543E+03  0.82024498782E+03  0.15068664035E+04  0.00000000000E+00 0. -1.
        -13    1    5    5    0    0 -0.28061094232E+03 -0.11504919633E+03  0.16117175683E+03  0.34344599826E+03  0.00000000000E+00 0.  1.
          3    1    6    6  503    0 -0.49846801400E+02 -0.23988942907E+03  0.54069907366E+03  0.59362204310E+03  0.00000000000E+00 0. -1.
         -3    1    6    6    0  503  0.24292199146E+02 -0.31222651167E+02  0.56020666174E+02  0.68580463135E+02  0.00000000000E+00 0.  1.
<mgrwt>
<rscale>  0 0.41951951E+04</rscale>
<asrwt>0</asrwt>
<pdfrwt beam="1">  1        1 0.41303561E+00 0.41951951E+04</pdfrwt>
<pdfrwt beam="2">  1       -2 0.25213325E+00 0.41951951E+04</pdfrwt>
<totfact> 0.42515577E-02</totfact>
</mgrwt>
</event>
<event>
12    5  0.5246737E-008  0.1679156E+04  0.7818608E-02  0.8773343E-01
         -2   -1    0    0    0  501 -0.00000000000E+00  0.00000000000E+00  0.24631429088E+04  0.24631429088E+04  0.00000000000E+00 0.  1.
          1   -1    0    0  501    0  0.00000000000E+00 -0.00000000000E+00 -0.28617554340E+03  0.28617554340E+03  0.00000000000E+00 0. -1.
        -24    2    1    2    0    0  0.28224784615E+03 -0.43969820547E+03  0.12458503641E+04  0.13533240600E+04  0.79652515076E+02 0.  0.
        254    2    1    2    0    0 -0.28224784615E+03  0.43969820547E+03  0.93111700127E+03  0.13959943922E+04  0.89934593696E+03 0.  0.
         23    2    4    4    0    0 -0.16240335379E+03  0.69723515006E+03  0.77475018506E+03  0.10588833404E+04  0.92110670152E+02 0.  0.
         23    2    4    4    0    0 -0.11984449235E+03 -0.25753694459E+03  0.15636681621E+03  0.33711105174E+03  0.92224182375E+02 0.  0.
          1    1    3    3  502    0  0.13856377575E+03 -0.18258606592E+03  0.63674724817E+03  0.67674563129E+03  0.00000000000E+00 0. -1.
         -2    1    3    3    0  502  0.14368407040E+03 -0.25711213955E+03  0.60910311596E+03  0.67657842876E+03  0.00000000000E+00 0.  1.
         13    1    5    5    0    0 -0.23958549201E+02  0.80636146263E+02  0.52349237844E+02  0.99078972879E+02  0.00000000000E+00 0. -1.
        -13    1    5    5    0    0 -0.13844480459E+03  0.61659900380E+03  0.72240094722E+03  0.95980436754E+03  0.00000000000E+00 0.  1.
          1    1    6    6  503    0 -0.39288002947E+02 -0.32292925115E+02  0.61418461724E+02  0.79740878027E+02  0.00000000000E+00 0. -1.
         -1    1    6    6    0  503 -0.80556489406E+02 -0.22524401948E+03  0.94948354484E+02  0.25737017371E+03  0.00000000000E+00 0.  1.
<mgrwt>
<rscale>  0 0.16791561E+04</rscale>
<asrwt>0</asrwt>
<pdfrwt beam="1">  1        1 0.44027008E-01 0.16791561E+04</pdfrwt>
<pdfrwt beam="2">  1       -2 0.37894505E+00 0.16791561E+04</pdfrwt>
<totfact> 0.79445397E-01</totfact>
</mgrwt>
</event>
<event>
12    5  0.5246737E-008  0.2746397E+04  0.7818608E-02  0.8320106E-01
          1   -1    0    0  501    0  0.00000000000E+00  0.00000000000E+00  0.11748922043E+04  0.11748922043E+04  0.00000000000E+00 0. -1.
         -2   -1    0    0    0  501 -0.00000000000E+00 -0.00000000000E+00 -0.16049765480E+04  0.16049765480E+04  0.00000000000E+00 0.  1.
        -24    2    1    2    0    0 -0.77593524409E+03 -0.19545892213E+03 -0.10722589508E+04  0.13403795441E+04  0.81230359691E+02 0.  0.
        254    2    1    2    0    0  0.77593524409E+03  0.19545892213E+03  0.64217460713E+03  0.14394892082E+04  0.10096837432E+04 0.  0.
         23    2    4    4    0    0 -0.15309362511E+03 -0.28051118752E+02 -0.11749437184E+03  0.21457339172E+03  0.89511394287E+02 0.  0.
         23    2    4    4    0    0  0.92902886920E+03  0.22351004089E+03  0.75966897897E+03  0.12249158165E+04  0.10134308888E+03 0.  0.
          1    1    3    3  502    0 -0.39197833629E+03 -0.95341243998E+02 -0.60797569412E+03  0.72963786468E+03  0.00000000000E+00 0. -1.
         -2    1    3    3    0  502 -0.38395690779E+03 -0.10011767813E+03 -0.46428325673E+03  0.61074167943E+03  0.00000000000E+00 0.  1.
         13    1    5    5    0    0 -0.12178411295E+02  0.38567564982E+01 -0.56188543565E+02  0.57622397558E+02  0.00000000000E+00 0.  1.
        -13    1    5    5    0    0 -0.14091521382E+03 -0.31907875250E+02 -0.61305828275E+02  0.15695099416E+03  0.00000000000E+00 0. -1.
          2    1    6    6  503    0  0.12249145388E+03  0.55319749626E+01  0.13023224269E+03  0.17887201026E+03  0.00000000000E+00 0.  1.
         -2    1    6    6    0  503  0.80653741532E+03  0.21797806592E+03  0.62943673628E+03  0.10460438062E+04  0.00000000000E+00 0. -1.
<mgrwt>
<rscale>  0 0.27463972E+04</rscale>
<asrwt>0</asrwt>
<pdfrwt beam="1">  1        1 0.18075265E+00 0.27463972E+04</pdfrwt>
<pdfrwt beam="2">  1       -2 0.24691947E+00 0.27463972E+04</pdfrwt>
<totfact> 0.57124783E-01</totfact>
</mgrwt>
</event>
<event>
12    5  0.5246737E-008  0.1210960E+04  0.7818608E-02  0.9103317E-01
         -2   -1    0    0    0  501 -0.00000000000E+00  0.00000000000E+00  0.13397714498E+04  0.13397714498E+04  0.00000000000E+00 0.  1.
          1   -1    0    0  501    0  0.00000000000E+00 -0.00000000000E+00 -0.27363315484E+03  0.27363315484E+03  0.00000000000E+00 0. -1.
        -24    2    1    2    0    0  0.17707308598E+03  0.21213040100E+03  0.27955646475E+03  0.40194723850E+03  0.83997504395E+02 0.  0.
        254    2    1    2    0    0 -0.17707308598E+03 -0.21213040100E+03  0.78658183020E+03  0.12114573661E+04  0.87895607942E+03 0.  0.
         23    2    4    4    0    0  0.21930602313E+03  0.22121520919E+03  0.23395155879E+03  0.39996390442E+03  0.90589692671E+02 0.  0.
         23    2    4    4    0    0 -0.39637910911E+03 -0.43334561019E+03  0.55263027140E+03  0.81149346171E+03  0.90645493618E+02 0.  0.
          3    1    3    3  502    0  0.13202339269E+03  0.19044601407E+03  0.25994853595E+03  0.34824287765E+03  0.00000000000E+00 0. -1.
         -4    1    3    3    0  502  0.45049693288E+02  0.21684386932E+02  0.19607928799E+02  0.53704360844E+02  0.00000000000E+00 0.  1.
         13    1    5    5    0    0  0.76569476392E+02  0.58097515541E+02  0.25955709999E+02  0.99558550153E+02  0.00000000000E+00 0. -1.
        -13    1    5    5    0    0  0.14273654674E+03  0.16311769365E+03  0.20799584880E+03  0.30040535427E+03  0.00000000000E+00 0.  1.
          2    1    6    6  503    0 -0.91017588422E+02 -0.16151365265E+03  0.16927027391E+03  0.25104439254E+03  0.00000000000E+00 0. -1.
         -2    1    6    6    0  503 -0.30536152069E+03 -0.27183195754E+03  0.38335999749E+03  0.56044906917E+03  0.00000000000E+00 0.  1.
<mgrwt>
<rscale>  0 0.12109598E+04</rscale>
<asrwt>0</asrwt>
<pdfrwt beam="1">  1        1 0.42097409E-01 0.12109598E+04</pdfrwt>
<pdfrwt beam="2">  1       -2 0.20611868E+00 0.12109598E+04</pdfrwt>
<totfact> 0.10344473E+01</totfact>
</mgrwt>
</event>
<event>
12    5  0.5246737E-008  0.2038964E+04  0.7818608E-02  0.8588618E-01
          1   -1    0    0  501    0  0.00000000000E+00  0.00000000000E+00  0.23022077974E+04  0.23022077974E+04  0.00000000000E+00 0. -1.
         -2   -1    0    0    0  501 -0.00000000000E+00 -0.00000000000E+00 -0.45145493476E+03  0.45145493476E+03  0.00000000000E+00 0.  1.
        -24    2    1    2    0    0  0.31428061429E+03  0.74080467299E+03  0.90698636618E+03  0.12153688780E+04  0.83266879512E+02 0.  0.
        254    2    1    2    0    0 -0.31428061429E+03 -0.74080467299E+03  0.94376649649E+03  0.15382938541E+04  0.90999390863E+03 0.  0.
         23    2    4    4    0    0 -0.43754543355E+03 -0.24704209780E+03  0.88012766492E+03  0.10176637074E+04  0.92406224809E+02 0.  0.
         23    2    4    4    0    0  0.12326481925E+03 -0.49376257519E+03  0.63638831570E+02  0.52063014670E+03  0.89499455005E+02 0.  0.
          1    1    3    3  502    0  0.15662197484E+03  0.31073437100E+03  0.34040509911E+03  0.48678734970E+03  0.00000000000E+00 0. -1.
         -2    1    3    3    0  502  0.15765863945E+03  0.43007030199E+03  0.56658126707E+03  0.72858152834E+03  0.00000000000E+00 0.  1.
         13    1    5    5    0    0 -0.21805670415E+03 -0.13231734320E+03  0.35570600368E+03  0.43770237216E+03  0.00000000000E+00 0. -1.
        -13    1    5    5    0    0 -0.21948872940E+03 -0.11472475460E+03  0.52442166123E+03  0.57996133528E+03  0.00000000000E+00 0.  1.
          2    1    6    6  503    0  0.50933902695E+02 -0.23200254996E+03  0.74222857134E+02  0.24885433119E+03  0.00000000000E+00 0. -1.
         -2    1    6    6    0  503  0.72330916559E+02 -0.26176002523E+03 -0.10584025564E+02  0.27177581551E+03  0.00000000000E+00 0.  1.
<mgrwt>
<rscale>  0 0.20389635E+04</rscale>
<asrwt>0</asrwt>
<pdfrwt beam="1">  1        1 0.35418581E+00 0.20389635E+04</pdfrwt>
<pdfrwt beam="2">  1       -2 0.69454606E-01 0.20389635E+04</pdfrwt>
<totfact> 0.28487430E+00</totfact>
</mgrwt>
</event>
<event>
12    5  0.5246737E-008  0.3931957E+04  0.7818608E-02  0.8018415E-01
         -2   -1    0    0    0  501 -0.00000000000E+00  0.00000000000E+00  0.14983166458E+04  0.14983166458E+04  0.00000000000E+00 0.  1.
          1   -1    0    0  501    0  0.00000000000E+00 -0.00000000000E+00 -0.25796097021E+04  0.25796097021E+04  0.00000000000E+00 0. -1.
        -24    2    1    2    0    0 -0.14835229986E+04  0.10994625435E+04 -0.65076883986E+03  0.19593700252E+04  0.77281569296E+02 0.  0.
        254    2    1    2    0    0  0.14835229986E+04 -0.10994625435E+04 -0.43052421640E+03  0.21185563226E+04  0.94513037168E+03 0.  0.
         23    2    4    4    0    0  0.10077931414E+04 -0.76821359485E+03  0.16669740604E+03  0.12812284181E+04  0.89213737644E+02 0.  0.
         23    2    4    4    0    0  0.47572985720E+03 -0.33124894862E+03 -0.59722162244E+03  0.83732790456E+03  0.91649279629E+02 0.  0.
          3    1    3    3  502    0 -0.11862338982E+04  0.91475260462E+03 -0.51701778729E+03  0.15846862722E+04  0.00000000000E+00 0. -1.
         -4    1    3    3    0  502 -0.29728910034E+03  0.18470993885E+03 -0.13375105257E+03  0.37468375298E+03  0.00000000000E+00 0.  1.
         13    1    5    5    0    0  0.19500600230E+03 -0.16362442755E+03  0.67723539400E+02  0.26341368987E+03  0.00000000000E+00 0. -1.
        -13    1    5    5    0    0  0.81278713909E+03 -0.60458916730E+03  0.98973866636E+02  0.10178147282E+04  0.00000000000E+00 0.  1.
          3    1    6    6  503    0  0.21700245710E+01  0.88731631392E+00  0.29669530485E+01  0.37814213296E+01  0.00000000000E+00 0. -1.
         -3    1    6    6    0  503  0.47355983263E+03 -0.33213626493E+03 -0.60018857549E+03  0.83354648323E+03  0.00000000000E+00 0.  1.
<mgrwt>
<rscale>  0 0.39319574E+04</rscale>
<asrwt>0</asrwt>
<pdfrwt beam="1">  1        1 0.39686303E+00 0.39319574E+04</pdfrwt>
<pdfrwt beam="2">  1       -2 0.23051025E+00 0.39319574E+04</pdfrwt>
<totfact> 0.70080653E-02</totfact>
</mgrwt>
</event>
<event>
12    5  0.5246737E-008  0.1056728E+04  0.7818608E-02  0.9248425E-01
         -2   -1    0    0    0  501 -0.00000000000E+00  0.00000000000E+00  0.20423636851E+03  0.20423636851E+03  0.00000000000E+00 0.  1.
          1   -1    0    0  501    0  0.00000000000E+00 -0.00000000000E+00 -0.13668903821E+04  0.13668903821E+04  0.00000000000E+00 0. -1.
        -24    2    1    2    0    0  0.11765190595E+03 -0.33489014723E+02 -0.16959091813E+03  0.22474075746E+03  0.82364090932E+02 0.  0.
        254    2    1    2    0    0 -0.11765190595E+03  0.33489014723E+02 -0.99306309542E+03  0.13463859931E+04  0.90089813289E+03 0.  0.
         23    2    4    4    0    0  0.25098779457E+03 -0.28402378565E+02 -0.91490337353E+03  0.95348687590E+03  0.91035550634E+02 0.  0.
         23    2    4    4    0    0 -0.36863970052E+03  0.61891393288E+02 -0.78159721887E+02  0.39289911720E+03  0.92385068115E+02 0.  0.
          3    1    3    3  502    0  0.30224662659E+02  0.15652987543E+02 -0.91519030315E+02  0.97643633493E+02  0.00000000000E+00 0. -1.
         -4    1    3    3    0  502  0.87427243288E+02 -0.49142002265E+02 -0.78071887811E+02  0.12709712397E+03  0.00000000000E+00 0.  1.
         13    1    5    5    0    0  0.24006690502E+03 -0.17863112349E+02 -0.90198379839E+03  0.93355555926E+03  0.00000000000E+00 0. -1.
        -13    1    5    5    0    0  0.10920889552E+02 -0.10539266216E+02 -0.12919575134E+02  0.19931316631E+02  0.00000000000E+00 0.  1.
          2    1    6    6  503    0 -0.21547855046E+03 -0.14145939675E+01 -0.16655409057E+02  0.21612591107E+03  0.00000000000E+00 0. -1.
         -2    1    6    6    0  503 -0.15316115006E+03  0.63305987255E+02 -0.61504312831E+02  0.17677320613E+03  0.00000000000E+00 0.  1.
<mgrwt>
<rscale>  0 0.10567284E+04</rscale>
<asrwt>0</asrwt>
<pdfrwt beam="1">  1        1 0.21029082E+00 0.10567284E+04</pdfrwt>
<pdfrwt beam="2">  1       -2 0.31420981E-01 0.10567284E+04</pdfrwt>
<totfact> 0.66793334E+01</totfact>
</mgrwt>
</event>
<event>
12    5  0.5246737E-008  0.1340312E+04  0.7818608E-02  0.8998194E-01
          1   -1    0    0  501    0  0.00000000000E+00  0.00000000000E+00  0.77164886896E+03  0.77164886896E+03  0.00000000000E+00 0. -1.
         -2   -1    0    0    0  501 -0.00000000000E+00 -0.00000000000E+00 -0.58201211061E+03  0.58201211061E+03  0.00000000000E+00 0.  1.
        -24    2    1    2    0    0 -0.56629121616E+02 -0.11368599791E+03 -0.27399289833E+03  0.31210983892E+03  0.78797713684E+02 0.  0.
        254    2    1    2    0    0  0.56629121616E+02  0.11368599791E+03  0.46362965668E+03  0.10415511406E+04  0.92398320142E+03 0.  0.
         23    2    4    4    0    0  0.21093286913E+03  0.34137377336E+03 -0.85695569317E+02  0.42081004197E+03  0.93320053611E+02 0.  0.
         23    2    4    4    0    0 -0.15430374751E+03 -0.22768777546E+03  0.54932522599E+03  0.62074109868E+03  0.88937832699E+02 0.  0.
          3    1    3    3  502    0 -0.51753744381E+02 -0.34471387469E+02 -0.72291481264E+02  0.95356095111E+02  0.00000000000E+00 0. -1.
         -4    1    3    3    0  502 -0.48753772354E+01 -0.79214610437E+02 -0.20170141706E+03  0.21675374381E+03  0.00000000000E+00 0.  1.
         13    1    5    5    0    0  0.12129656634E+03  0.10998688924E+03 -0.29265549287E+02  0.16633233355E+03  0.00000000000E+00 0. -1.
        -13    1    5    5    0    0  0.89636302790E+02  0.23138688413E+03 -0.56430020030E+02  0.25447770842E+03  0.00000000000E+00 0.  1.
          3    1    6    6  503    0 -0.15530104308E+03 -0.17429047694E+03  0.47445001421E+03  0.52877065001E+03  0.00000000000E+00 0. -1.
         -3    1    6    6    0  503  0.99729557073E+00 -0.53397298517E+02  0.74875211788E+02  0.91970448665E+02  0.00000000000E+00 0.  1.
<mgrwt>
<rscale>  0 0.13403119E+04</rscale>
<asrwt>0</asrwt>
<pdfrwt beam="1">  1        1 0.11871521E+00 0.13403119E+04</pdfrwt>
<pdfrwt beam="2">  1       -2 0.89540324E-01 0.13403119E+04</pdfrwt>
<totfact> 0.21492924E+01</totfact>
</mgrwt>
</event>
<event>
12    5  0.5246737E-008  0.3959153E+04  0.7818608E-02  0.8012838E-01
          1   -1    0    0  501    0  0.00000000000E+00  0.00000000000E+00  0.25007292839E+04  0.25007292839E+04  0.00000000000E+00 0. -1.
         -2   -1    0    0    0  501 -0.00000000000E+00 -0.00000000000E+00 -0.15670322548E+04  0.15670322548E+04  0.00000000000E+00 0.  1.
        -24    2    1    2    0    0  0.15931127543E+04 -0.97033588085E+03  0.63888758338E+03  0.19733763683E+04  0.80479668719E+02 0.  0.
        254    2    1    2    0    0 -0.15931127543E+04  0.97033588085E+03  0.29480944577E+03  0.20943851704E+04  0.90552562809E+03 0.  0.
         23    2    4    4    0    0 -0.95513650745E+03  0.32403407769E+03 -0.23483591143E+03  0.10394995639E+04  0.90153239534E+02 0.  0.
         23    2    4    4    0    0 -0.63797624690E+03  0.64630180316E+03  0.52964535720E+03  0.10548856066E+04  0.86831596743E+02 0.  0.
          3    1    3    3  502    0  0.86049156647E+03 -0.53793127884E+03  0.38798123668E+03  0.10864369456E+04  0.00000000000E+00 0. -1.
         -4    1    3    3    0  502  0.73262118787E+03 -0.43240460201E+03  0.25090634670E+03  0.88693942272E+03  0.00000000000E+00 0.  1.
         13    1    5    5    0    0 -0.89131765805E+03  0.31915063589E+03 -0.23512394206E+03  0.97549349771E+03  0.00000000000E+00 0.  1.
        -13    1    5    5    0    0 -0.63818849400E+02  0.48834418010E+01  0.28803062973E+00  0.64006066152E+02  0.00000000000E+00 0. -1.
          4    1    6    6  503    0 -0.38440592488E+02  0.41901758218E+02  0.10683821954E+02  0.57858279824E+02  0.00000000000E+00 0. -1.
         -4    1    6    6    0  503 -0.59953565441E+03  0.60440004494E+03  0.51896153525E+03  0.99702732676E+03  0.00000000000E+00 0.  1.
<mgrwt>
<rscale>  0 0.39591532E+04</rscale>
<asrwt>0</asrwt>
<pdfrwt beam="1">  1        1 0.38472758E+00 0.39591532E+04</pdfrwt>
<pdfrwt beam="2">  1       -2 0.24108189E+00 0.39591532E+04</pdfrwt>
<totfact> 0.68193174E-02</totfact>
</mgrwt>
</event>
<event>
12    5  0.5246737E-008  0.1286132E+04  0.7818608E-02  0.9040636E-01
          1   -1    0    0  501    0  0.00000000000E+00  0.00000000000E+00  0.13383370654E+04  0.13383370654E+04  0.00000000000E+00 0. -1.
         -2   -1    0    0    0  501 -0.00000000000E+00 -0.00000000000E+00 -0.30899065132E+03  0.30899065132E+03  0.00000000000E+00 0.  1.
        -24    2    1    2    0    0  0.22801510419E+03 -0.15231069122E+03  0.35613599538E+02  0.28755565651E+03  0.78933470229E+02 0.  0.
        254    2    1    2    0    0 -0.22801510419E+03  0.15231069122E+03  0.99373281452E+03  0.13597720602E+04  0.88672753119E+03 0.  0.
         23    2    4    4    0    0 -0.54972794890E+03 -0.20562402765E+01  0.57162238683E+03  0.79807405354E+03  0.89246825590E+02 0.  0.
         23    2    4    4    0    0  0.32171284471E+03  0.15436693150E+03  0.42211042769E+03  0.56169800664E+03  0.99995667440E+02 0.  0.
          1    1    3    3  502    0  0.95159104049E+02 -0.19158984807E+02  0.73287496585E+01  0.97344914370E+02  0.00000000000E+00 0. -1.
         -2    1    3    3    0  502  0.13285600014E+03 -0.13315170641E+03  0.28284849879E+02  0.19021074214E+03  0.00000000000E+00 0.  1.
         13    1    5    5    0    0 -0.32284078659E+03  0.88650584432E+01  0.27306538366E+03  0.42292962358E+03  0.00000000000E+00 0. -1.
        -13    1    5    5    0    0 -0.22688716231E+03 -0.10921298720E+02  0.29855700317E+03  0.37514442996E+03  0.00000000000E+00 0.  1.
          3    1    6    6  503    0  0.25158887397E+03  0.92989045987E+02  0.36298274014E+03  0.45133180014E+03  0.00000000000E+00 0. -1.
         -3    1    6    6    0  503  0.70123970737E+02  0.61377885508E+02  0.59127687552E+02  0.11036620650E+03  0.00000000000E+00 0.  1.
<mgrwt>
<rscale>  0 0.12861316E+04</rscale>
<asrwt>0</asrwt>
<pdfrwt beam="1">  1        1 0.20589801E+00 0.12861316E+04</pdfrwt>
<pdfrwt beam="2">  1       -2 0.47537024E-01 0.12861316E+04</pdfrwt>
<totfact> 0.30728912E+01</totfact>
</mgrwt>
</event>
<event>
12    5  0.5246737E-008  0.1750456E+04  0.7818608E-02  0.8733100E-01
         -2   -1    0    0    0  501 -0.00000000000E+00  0.00000000000E+00  0.36563933017E+03  0.36563933017E+03  0.00000000000E+00 0.  1.
          1   -1    0    0  501    0  0.00000000000E+00 -0.00000000000E+00 -0.20950252867E+04  0.20950252867E+04  0.00000000000E+00 0. -1.
        -24    2    1    2    0    0  0.99243533619E+02  0.62451337668E+03 -0.71628315524E+03  0.95886559175E+03  0.80594217809E+02 0.  0.
        254    2    1    2    0    0 -0.99243533619E+02 -0.62451337668E+03 -0.10131028013E+04  0.15017990251E+04  0.91058046831E+03 0.  0.
         23    2    4    4    0    0  0.39481578942E+03 -0.28569742246E+03 -0.37427594935E+03  0.62107724989E+03  0.90288090549E+02 0.  0.
         23    2    4    4    0    0 -0.49405932304E+03 -0.33881595422E+03 -0.63882685195E+03  0.88072177524E+03  0.93167768536E+02 0.  0.
          3    1    3    3  502    0  0.52438787769E+02  0.51432820618E+03 -0.59933781246E+03  0.79151067181E+03  0.00000000000E+00 0. -1.
         -4    1    3    3    0  502  0.46804745850E+02  0.11018517050E+03 -0.11694534278E+03  0.16735491995E+03  0.00000000000E+00 0.  1.
         13    1    5    5    0    0  0.36111721029E+02 -0.20680898549E+02 -0.47296881649E+01  0.41882286358E+02  0.00000000000E+00 0. -1.
        -13    1    5    5    0    0  0.35870406839E+03 -0.26501652391E+03 -0.36954626118E+03  0.57919496353E+03  0.00000000000E+00 0.  1.
          2    1    6    6  503    0 -0.21333713865E+03 -0.11732680159E+03 -0.20314854879E+03  0.31709248804E+03  0.00000000000E+00 0.  1.
         -2    1    6    6    0  503 -0.28072218440E+03 -0.22148915263E+03 -0.43567830316E+03  0.56362928720E+03  0.00000000000E+00 0. -1.
<mgrwt>
<rscale>  0 0.17504555E+04</rscale>
<asrwt>0</asrwt>
<pdfrwt beam="1">  1        1 0.32231159E+00 0.17504555E+04</pdfrwt>
<pdfrwt beam="2">  1       -2 0.56252204E-01 0.17504555E+04</pdfrwt>
<totfact> 0.63412271E+00</totfact>
</mgrwt>
</event>
<event>
12    5  0.5246737E-008  0.2459859E+04  0.7818608E-02  0.8417427E-01
          1   -1    0    0  501    0  0.00000000000E+00  0.00000000000E+00  0.14667470359E+04  0.14667470359E+04  0.00000000000E+00 0. -1.
         -2   -1    0    0    0  501 -0.00000000000E+00 -0.00000000000E+00 -0.10313478567E+04  0.10313478567E+04  0.00000000000E+00 0.  1.
        -24    2    1    2    0    0 -0.43109611658E+03  0.36030054317E+03  0.11037015974E+04  0.12412054410E+04  0.82300592817E+02 0.  0.
        254    2    1    2    0    0  0.43109611658E+03 -0.36030054317E+03 -0.66830241820E+03  0.12568894515E+04  0.90414745927E+03 0.  0.
         23    2    4    4    0    0 -0.27413045059E+03 -0.11475592554E+03 -0.21172265835E+03  0.37693464692E+03  0.94534742838E+02 0.  0.
         23    2    4    4    0    0  0.70522656717E+03 -0.24554461763E+03 -0.45657975985E+03  0.87995480463E+03  0.90657105528E+02 0.  0.
          1    1    3    3  502    0 -0.29682836514E+03  0.21034754671E+03  0.76747161521E+03  0.84933259028E+03  0.00000000000E+00 0. -1.
         -4    1    3    3    0  502 -0.13426775144E+03  0.14995299646E+03  0.33622998218E+03  0.39187285073E+03  0.00000000000E+00 0.  1.
         13    1    5    5    0    0 -0.27849639027E+03 -0.11670028460E+03 -0.19477941945E+03  0.35933023538E+03  0.00000000000E+00 0.  1.
        -13    1    5    5    0    0  0.43659396739E+01  0.19443590648E+01 -0.16943238891E+02  0.17604411536E+02  0.00000000000E+00 0. -1.
          3    1    6    6  503    0  0.48747774411E+02 -0.17203280534E+02 -0.69880908522E+01  0.52164468606E+02  0.00000000000E+00 0. -1.
         -3    1    6    6    0  503  0.65647879276E+03 -0.22834133710E+03 -0.44959166900E+03  0.82779033602E+03  0.00000000000E+00 0.  1.
<mgrwt>
<rscale>  0 0.24598589E+04</rscale>
<asrwt>0</asrwt>
<pdfrwt beam="1">  1        1 0.22565339E+00 0.24598589E+04</pdfrwt>
<pdfrwt beam="2">  1       -2 0.15866890E+00 0.24598589E+04</pdfrwt>
<totfact> 0.13916323E+00</totfact>
</mgrwt>
</event>
<event>
12    5  0.5246737E-008  0.2178495E+04  0.7818608E-02  0.8527433E-01
         -2   -1    0    0    0  501 -0.00000000000E+00  0.00000000000E+00  0.10428458982E+04  0.10428458982E+04  0.00000000000E+00 0.  1.
          1   -1    0    0  501    0  0.00000000000E+00 -0.00000000000E+00 -0.11377138552E+04  0.11377138552E+04  0.00000000000E+00 0. -1.
        -24    2    1    2    0    0  0.52626879345E+03  0.56294930603E+03  0.42464858759E+03  0.88398267331E+03  0.85018701700E+02 0.  0.
        254    2    1    2    0    0 -0.52626879345E+03 -0.56294930603E+03 -0.51951654458E+03  0.12965770800E+04  0.90407074955E+03 0.  0.
         23    2    4    4    0    0 -0.56043899749E+03 -0.59583151075E+02 -0.53712191891E+03  0.78388123732E+03  0.91256871835E+02 0.  0.
         23    2    4    4    0    0  0.34170204041E+02 -0.50336615496E+03  0.17605374329E+02  0.51269584269E+03  0.89453837834E+02 0.  0.
          3    1    3    3  502    0  0.39796014490E+02  0.60749952423E+02  0.16814040572E+02  0.74545230894E+02  0.00000000000E+00 0. -1.
         -4    1    3    3    0  502  0.48647277896E+03  0.50219935361E+03  0.40783454702E+03  0.80943744241E+03  0.00000000000E+00 0.  1.
         13    1    5    5    0    0 -0.15979291538E+03 -0.58800078721E+02 -0.15699782138E+03  0.23160211783E+03  0.00000000000E+00 0. -1.
        -13    1    5    5    0    0 -0.40064608211E+03 -0.78307235469E+00 -0.38012409752E+03  0.55227911949E+03  0.00000000000E+00 0.  1.
          3    1    6    6  503    0  0.27669316830E+02 -0.74455302736E+02  0.26229366413E+02  0.83649045791E+02  0.00000000000E+00 0. -1.
         -3    1    6    6    0  503  0.65008872111E+01 -0.42891085222E+03 -0.86239920840E+01  0.42904679690E+03  0.00000000000E+00 0.  1.
<mgrwt>
<rscale>  0 0.21784951E+04</rscale>
<asrwt>0</asrwt>
<pdfrwt beam="1">  1        1 0.17503290E+00 0.21784951E+04</pdfrwt>
<pdfrwt beam="2">  1       -2 0.16043783E+00 0.21784951E+04</pdfrwt>
<totfact> 0.23796030E+00</totfact>
</mgrwt>
</event>
<event>
12    5  0.5246737E-008  0.1761167E+04  0.7818608E-02  0.8727227E-01
         -2   -1    0    0    0  501 -0.00000000000E+00  0.00000000000E+00  0.10829730989E+04  0.10829730989E+04  0.00000000000E+00 0.  1.
          1   -1    0    0  501    0  0.00000000000E+00 -0.00000000000E+00 -0.71601716584E+03  0.71601716584E+03  0.00000000000E+00 0. -1.
        -24    2    1    2    0    0 -0.65508772105E+03  0.19928419428E+03  0.17300821009E+03  0.71066767336E+03  0.79136520318E+02 0.  0.
        254    2    1    2    0    0  0.65508772105E+03 -0.19928419428E+03  0.19394772296E+03  0.10883225914E+04  0.82339312075E+03 0.  0.
         23    2    4    4    0    0  0.19027032937E+03  0.16715737530E+03 -0.22944966412E+03  0.35481514656E+03  0.95405730981E+02 0.  0.
         23    2    4    4    0    0  0.46481739168E+03 -0.36644156958E+03  0.42339738708E+03  0.73350744481E+03  0.91832416355E+02 0.  0.
          1    1    3    3  502    0 -0.88469491698E+02  0.56132107186E+02  0.22169952870E+02  0.10709421660E+03  0.00000000000E+00 0. -1.
         -4    1    3    3    0  502 -0.56661822935E+03  0.14315208709E+03  0.15083825722E+03  0.60357345676E+03  0.00000000000E+00 0.  1.
         13    1    5    5    0    0  0.89640206408E+02  0.54757758088E+02 -0.15326365536E+03  0.18580507725E+03  0.00000000000E+00 0.  1.
        -13    1    5    5    0    0  0.10063012296E+03  0.11239961722E+03 -0.76186008758E+02  0.16901006931E+03  0.00000000000E+00 0. -1.
          2    1    6    6  503    0  0.39571052946E+03 -0.26680800052E+03  0.34900728346E+03  0.59125241325E+03  0.00000000000E+00 0. -1.
         -2    1    6    6    0  503  0.69106862214E+02 -0.99633569059E+02  0.74390103621E+02  0.14225503156E+03  0.00000000000E+00 0.  1.
<mgrwt>
<rscale>  0 0.17611670E+04</rscale>
<asrwt>0</asrwt>
<pdfrwt beam="1">  1        1 0.11015649E+00 0.17611670E+04</pdfrwt>
<pdfrwt beam="2">  1       -2 0.16661125E+00 0.17611670E+04</pdfrwt>
<totfact> 0.49148733E+00</totfact>
</mgrwt>
</event>
<event>
12    5  0.5246737E-008  0.1511962E+04  0.7818608E-02  0.8876537E-01
          1   -1    0    0  501    0  0.00000000000E+00  0.00000000000E+00  0.25915176670E+03  0.25915176670E+03  0.00000000000E+00 0. -1.
         -2   -1    0    0    0  501 -0.00000000000E+00 -0.00000000000E+00 -0.22052998292E+04  0.22052998292E+04  0.00000000000E+00 0.  1.
        -24    2    1    2    0    0  0.53994099267E+02  0.57275164088E+00  0.15177853161E+03  0.17950597540E+03  0.79183216320E+02 0.  0.
        254    2    1    2    0    0 -0.53994099267E+02 -0.57275164088E+00 -0.20979265941E+04  0.22849456205E+04  0.90375040999E+03 0.  0.
         23    2    4    4    0    0  0.19204881604E+03  0.18875615638E+03 -0.18629717235E+04  0.18845239528E+04  0.90858416847E+02 0.  0.
         23    2    4    4    0    0 -0.24604291530E+03 -0.18932890803E+03 -0.23495487066E+03  0.40042166772E+03  0.93547683803E+02 0.  0.
          1    1    3    3  502    0  0.50935363527E+02 -0.26162255327E+02  0.13771056908E+03  0.14914112679E+03  0.00000000000E+00 0. -1.
         -2    1    3    3    0  502  0.30587357395E+01  0.26735006968E+02  0.14067962530E+02  0.30364848619E+02  0.00000000000E+00 0.  1.
         13    1    5    5    0    0  0.19265653112E+02 -0.11088873195E+01 -0.52343706287E+02  0.55787620569E+02  0.00000000000E+00 0.  1.
        -13    1    5    5    0    0  0.17278316293E+03  0.18986504370E+03 -0.18106280172E+04  0.18287363322E+04  0.00000000000E+00 0. -1.
          4    1    6    6  503    0 -0.32965251379E+02 -0.26683446359E+02 -0.80653907610E+02  0.91125007110E+02  0.00000000000E+00 0.  1.
         -4    1    6    6    0  503 -0.21307766393E+03 -0.16264546167E+03 -0.15430096305E+03  0.30929666061E+03  0.00000000000E+00 0. -1.
<mgrwt>
<rscale>  0 0.15119621E+04</rscale>
<asrwt>0</asrwt>
<pdfrwt beam="1">  1        1 0.39869503E-01 0.15119621E+04</pdfrwt>
<pdfrwt beam="2">  1       -2 0.33927690E+00 0.15119621E+04</pdfrwt>
<totfact> 0.16369149E+00</totfact>
</mgrwt>
</event>
<event>
12    5  0.5246737E-008  0.2218996E+04  0.7818608E-02  0.8510563E-01
         -2   -1    0    0    0  501 -0.00000000000E+00  0.00000000000E+00  0.64542436473E+03  0.64542436473E+03  0.00000000000E+00 0.  1.
          1   -1    0    0  501    0  0.00000000000E+00 -0.00000000000E+00 -0.19072499046E+04  0.19072499046E+04  0.00000000000E+00 0. -1.
        -24    2    1    2    0    0  0.59750700375E+03  0.66427792602E+03 -0.24575545274E+03  0.93011871081E+03  0.80282570511E+02 0.  0.
        254    2    1    2    0    0 -0.59750700375E+03 -0.66427792602E+03 -0.10160700871E+04  0.16225555585E+04  0.89554918119E+03 0.  0.
         23    2    4    4    0    0 -0.22806448255E+03  0.18478360393E+03 -0.12417261345E+03  0.33377765260E+03  0.99147843948E+02 0.  0.
         23    2    4    4    0    0 -0.36944252120E+03 -0.84906152995E+03 -0.89189747366E+03  0.12887779059E+04  0.89856157757E+02 0.  0.
          3    1    3    3  502    0  0.11365155606E+03  0.85361693898E+02 -0.28479651298E+02  0.14496339372E+03  0.00000000000E+00 0. -1.
         -4    1    3    3    0  502  0.48385544769E+03  0.57891623212E+03 -0.21727580144E+03  0.78515531710E+03  0.00000000000E+00 0.  1.
         13    1    5    5    0    0 -0.23670817625E+03  0.16880005479E+03 -0.11043699617E+03  0.31099927544E+03  0.00000000000E+00 0. -1.
        -13    1    5    5    0    0  0.86436936996E+01  0.15983549136E+02 -0.13735617281E+02  0.22778377155E+02  0.00000000000E+00 0.  1.
          2    1    6    6  503    0 -0.12150487614E+03 -0.19145368089E+03 -0.19564761644E+03  0.29949279904E+03  0.00000000000E+00 0.  1.
         -2    1    6    6    0  503 -0.24793764506E+03 -0.65760784905E+03 -0.69624985722E+03  0.98928510686E+03  0.00000000000E+00 0. -1.
<mgrwt>
<rscale>  0 0.22189958E+04</rscale>
<asrwt>0</asrwt>
<pdfrwt beam="1">  1        1 0.29342306E+00 0.22189958E+04</pdfrwt>
<pdfrwt beam="2">  1       -2 0.99296057E-01 0.22189958E+04</pdfrwt>
<totfact> 0.23132610E+00</totfact>
</mgrwt>
</event>
<event>
12    5  0.5246737E-008  0.1310207E+04  0.7818608E-02  0.9021510E-01
         -2   -1    0    0    0  501 -0.00000000000E+00  0.00000000000E+00  0.35505428065E+03  0.35505428065E+03  0.00000000000E+00 0.  1.
          1   -1    0    0  501    0  0.00000000000E+00 -0.00000000000E+00 -0.12087177526E+04  0.12087177526E+04  0.00000000000E+00 0. -1.
        -24    2    1    2    0    0  0.13145862322E+03 -0.19990545708E+03 -0.54685896909E+03  0.60236260904E+03  0.80885223009E+02 0.  0.
        254    2    1    2    0    0 -0.13145862322E+03  0.19990545708E+03 -0.30680450288E+03  0.96140942424E+03  0.87916751341E+03 0.  0.
         23    2    4    4    0    0 -0.21006857443E+03  0.21788201135E+03  0.24202621642E+03  0.39909608841E+03  0.95391936335E+02 0.  0.
         23    2    4    4    0    0  0.78609951208E+02 -0.17976554264E+02 -0.54883071930E+03  0.56231333583E+03  0.92078489778E+02 0.  0.
          3    1    3    3  502    0  0.13926242038E+03 -0.16438871089E+03 -0.48306336472E+03  0.52893088805E+03  0.00000000000E+00 0. -1.
         -4    1    3    3    0  502 -0.78037971621E+01 -0.35516746188E+02 -0.63795604365E+02  0.73431720981E+02  0.00000000000E+00 0.  1.
         13    1    5    5    0    0 -0.11501460502E+02 -0.94118024058E+01  0.17302380930E+02  0.22808726489E+02  0.00000000000E+00 0.  1.
        -13    1    5    5    0    0 -0.19856711392E+03  0.22729381375E+03  0.22472383549E+03  0.37628736192E+03  0.00000000000E+00 0. -1.
          3    1    6    6  503    0  0.81329345256E+02 -0.13277888677E+02 -0.24602933847E+03  0.25946329242E+03  0.00000000000E+00 0. -1.
         -3    1    6    6    0  503 -0.27193940479E+01 -0.46986655870E+01 -0.30280138083E+03  0.30285004341E+03  0.00000000000E+00 0.  1.
<mgrwt>
<rscale>  0 0.13102067E+04</rscale>
<asrwt>0</asrwt>
<pdfrwt beam="1">  1        1 0.18595658E+00 0.13102067E+04</pdfrwt>
<pdfrwt beam="2">  1       -2 0.54623735E-01 0.13102067E+04</pdfrwt>
<totfact> 0.28592896E+01</totfact>
</mgrwt>
</event>
<event>
12    5  0.5246737E-008  0.1421092E+04  0.7818608E-02  0.8938691E-01
         -2   -1    0    0    0  501 -0.00000000000E+00  0.00000000000E+00  0.62338428150E+03  0.62338428150E+03  0.00000000000E+00 0.  1.
          1   -1    0    0  501    0  0.00000000000E+00 -0.00000000000E+00 -0.80989464009E+03  0.80989464009E+03  0.00000000000E+00 0. -1.
        -24    2    1    2    0    0 -0.15367182648E+03  0.15266853604E+03  0.30925397533E+03  0.38594198063E+03  0.79940471635E+02 0.  0.
        254    2    1    2    0    0  0.15367182648E+03 -0.15266853604E+03 -0.49576433393E+03  0.10473369410E+04  0.89677738651E+03 0.  0.
         23    2    4    4    0    0  0.35715368511E+03  0.16814379131E+03  0.14392875188E+02  0.40503667254E+03  0.89534696660E+02 0.  0.
         23    2    4    4    0    0 -0.20348185863E+03 -0.32081232735E+03 -0.51015720911E+03  0.64230026841E+03  0.89240353103E+02 0.  0.
          3    1    3    3  502    0 -0.17165276746E+02  0.61354190590E+01  0.88541779636E+00  0.18250316640E+02  0.00000000000E+00 0. -1.
         -4    1    3    3    0  502 -0.13650654973E+03  0.14653311698E+03  0.30836855753E+03  0.36769166399E+03  0.00000000000E+00 0.  1.
         13    1    5    5    0    0  0.44778628220E+02  0.47014194285E+02  0.25649631867E+02  0.69809480907E+02  0.00000000000E+00 0.  1.
        -13    1    5    5    0    0  0.31237505689E+03  0.12112959702E+03 -0.11256756679E+02  0.33522719164E+03  0.00000000000E+00 0. -1.
          1    1    6    6  503    0 -0.13092400208E+03 -0.18917070377E+03 -0.23562365526E+03  0.32931012193E+03  0.00000000000E+00 0. -1.
         -1    1    6    6    0  503 -0.72557856555E+02 -0.13164162358E+03 -0.27453355386E+03  0.31299014649E+03  0.00000000000E+00 0.  1.
<mgrwt>
<rscale>  0 0.14210920E+04</rscale>
<asrwt>0</asrwt>
<pdfrwt beam="1">  1        1 0.12459918E+00 0.14210920E+04</pdfrwt>
<pdfrwt beam="2">  1       -2 0.95905274E-01 0.14210920E+04</pdfrwt>
<totfact> 0.16851084E+01</totfact>
</mgrwt>
</event>
<event>
12    5  0.5246737E-008  0.1199324E+04  0.7818608E-02  0.9113448E-01
         -2   -1    0    0    0  501 -0.00000000000E+00  0.00000000000E+00  0.18577629327E+03  0.18577629327E+03  0.00000000000E+00 0.  1.
          1   -1    0    0  501    0  0.00000000000E+00 -0.00000000000E+00 -0.19356325457E+04  0.19356325457E+04  0.00000000000E+00 0. -1.
        -24    2    1    2    0    0 -0.15509030255E+03  0.83209914827E+02 -0.51631699464E+02  0.20014394806E+03  0.80092919062E+02 0.  0.
        254    2    1    2    0    0  0.15509030255E+03 -0.83209914827E+02 -0.16982245529E+04  0.19212648909E+04  0.88108754212E+03 0.  0.
         23    2    4    4    0    0  0.27857746187E+03  0.16416019170E+03 -0.19008634060E+03  0.38512989600E+03  0.87397077235E+02 0.  0.
         23    2    4    4    0    0 -0.12348715932E+03 -0.24737010653E+03 -0.15081382123E+04  0.15361349949E+04  0.93748636638E+02 0.  0.
          3    1    3    3  502    0 -0.37822266146E+02 -0.81389835386E+01  0.88076525262E+01  0.39677973896E+02  0.00000000000E+00 0. -1.
         -4    1    3    3    0  502 -0.11726803641E+03  0.91348898365E+02 -0.60439351990E+02  0.16046597416E+03  0.00000000000E+00 0.  1.
         13    1    5    5    0    0  0.24993349131E+03  0.13852974432E+03 -0.13032056511E+03  0.31407115409E+03  0.00000000000E+00 0. -1.
        -13    1    5    5    0    0  0.28643970560E+02  0.25630447384E+02 -0.59765775486E+02  0.71058741911E+02  0.00000000000E+00 0.  1.
          3    1    6    6  503    0 -0.64535763905E+02 -0.21396485154E+03 -0.12002308713E+04  0.12208603388E+04  0.00000000000E+00 0. -1.
         -3    1    6    6    0  503 -0.58951395412E+02 -0.33405254992E+02 -0.30790734103E+03  0.31527465604E+03  0.00000000000E+00 0.  1.
<mgrwt>
<rscale>  0 0.11993242E+04</rscale>
<asrwt>0</asrwt>
<pdfrwt beam="1">  1        1 0.29778963E+00 0.11993242E+04</pdfrwt>
<pdfrwt beam="2">  1       -2 0.28580968E-01 0.11993242E+04</pdfrwt>
<totfact> 0.32179422E+01</totfact>
</mgrwt>
</event>
<event>
12    5  0.5246737E-008  0.1649045E+04  0.7818608E-02  0.8790971E-01
          1   -1    0    0  501    0  0.00000000000E+00  0.00000000000E+00  0.13616126681E+04  0.13616126681E+04  0.00000000000E+00 0. -1.
         -2   -1    0    0    0  501 -0.00000000000E+00 -0.00000000000E+00 -0.49928863585E+03  0.49928863585E+03  0.00000000000E+00 0.  1.
        -24    2    1    2    0    0 -0.45305610719E+02 -0.57269823810E+03  0.27471901366E+03  0.64142164028E+03  0.76911077708E+02 0.  0.
        254    2    1    2    0    0  0.45305610719E+02  0.57269823810E+03  0.58760501861E+03  0.12194796637E+04  0.90100783680E+03 0.  0.
         23    2    4    4    0    0 -0.17479976339E+03  0.57372729276E+03  0.24814778672E+02  0.60810772764E+03  0.97269067207E+02 0.  0.
         23    2    4    4    0    0  0.22010537410E+03 -0.10290546676E+01  0.56279023994E+03  0.61137193605E+03  0.92711139330E+02 0.  0.
          3    1    3    3  502    0 -0.57942287264E+02 -0.47025570092E+03  0.24804319022E+03  0.53481132852E+03  0.00000000000E+00 0. -1.
         -4    1    3    3    0  502  0.12636676545E+02 -0.10244253718E+03  0.26675823440E+02  0.10661031176E+03  0.00000000000E+00 0.  1.
         13    1    5    5    0    0 -0.13903220658E+03  0.40495220437E+03  0.59089143256E+02  0.43221264343E+03  0.00000000000E+00 0. -1.
        -13    1    5    5    0    0 -0.35767556810E+02  0.16877508839E+03 -0.34274364584E+02  0.17589508421E+03  0.00000000000E+00 0.  1.
          3    1    6    6  503    0  0.10714930567E+03 -0.31541176223E+02  0.18731633939E+03  0.21808995966E+03  0.00000000000E+00 0. -1.
         -3    1    6    6    0  503  0.11295606844E+03  0.30512121556E+02  0.37547390056E+03  0.39328197640E+03  0.00000000000E+00 0.  1.
<mgrwt>
<rscale>  0 0.16490455E+04</rscale>
<asrwt>0</asrwt>
<pdfrwt beam="1">  1        1 0.20947887E+00 0.16490455E+04</pdfrwt>
<pdfrwt beam="2">  1       -2 0.76813637E-01 0.16490455E+04</pdfrwt>
<totfact> 0.10380629E+01</totfact>
</mgrwt>
</event>
<event>
12    5  0.5246737E-008  0.2861911E+04  0.7818608E-02  0.8284301E-01
         -2   -1    0    0    0  501 -0.00000000000E+00  0.00000000000E+00  0.87093429990E+03  0.87093429990E+03  0.00000000000E+00 0.  1.
          1   -1    0    0  501    0  0.00000000000E+00 -0.00000000000E+00 -0.23510777351E+04  0.23510777351E+04  0.00000000000E+00 0. -1.
        -24    2    1    2    0    0 -0.62614116781E+02 -0.19829244461E+03  0.75381598668E+03  0.78639256549E+03  0.83272468965E+02 0.  0.
        254    2    1    2    0    0  0.62614116781E+02  0.19829244461E+03 -0.22339594219E+04  0.24356194696E+04  0.94785393415E+03 0.  0.
         23    2    4    4    0    0  0.20145528274E+03 -0.29421758219E+03 -0.14389141937E+04  0.14851116651E+04  0.89075161524E+02 0.  0.
         23    2    4    4    0    0 -0.13884116596E+03  0.49251002680E+03 -0.79504522819E+03  0.95050780441E+03  0.97597005710E+02 0.  0.
          3    1    3    3  502    0 -0.68207150461E+02 -0.14733388428E+03  0.45246097229E+03  0.48070824860E+03  0.00000000000E+00 0. -1.
         -4    1    3    3    0  502  0.55930336795E+01 -0.50958560326E+02  0.30135501439E+03  0.30568431689E+03  0.00000000000E+00 0.  1.
         13    1    5    5    0    0  0.17138365982E+03 -0.18316356935E+03 -0.91893818102E+03  0.95255899163E+03  0.00000000000E+00 0. -1.
        -13    1    5    5    0    0  0.30071622924E+02 -0.11105401284E+03 -0.51997601271E+03  0.53255267351E+03  0.00000000000E+00 0.  1.
          2    1    6    6  503    0 -0.13027656453E+03  0.42240539435E+03 -0.73557848906E+03  0.85818064183E+03  0.00000000000E+00 0. -1.
         -2    1    6    6    0  503 -0.85646014274E+01  0.70104632449E+02 -0.59466739129E+02  0.92327162585E+02  0.00000000000E+00 0.  1.
<mgrwt>
<rscale>  0 0.28619114E+04</rscale>
<asrwt>0</asrwt>
<pdfrwt beam="1">  1        1 0.36170427E+00 0.28619114E+04</pdfrwt>
<pdfrwt beam="2">  1       -2 0.13398989E+00 0.28619114E+04</pdfrwt>
<totfact> 0.52279199E-01</totfact>
</mgrwt>
</event>
<event>
12    5  0.5795724E-008  0.1537897E+04  0.7818608E-02  0.8859636E-01
         -2   -1    0    0    0  501 -0.00000000000E+00  0.00000000000E+00  0.63442733069E+03  0.63442733069E+03  0.00000000000E+00 0.  1.
          1   -1    0    0  501    0  0.00000000000E+00 -0.00000000000E+00 -0.93199299041E+03  0.93199299041E+03  0.00000000000E+00 0. -1.
        -24    2    1    2    0    0  0.81986208718E+02 -0.34386494202E+03  0.32161126143E+03  0.48485593128E+03  0.81771840185E+02 0.  0.
        254    2    1    2    0    0 -0.81986208718E+02  0.34386494202E+03 -0.61917692116E+03  0.10815643898E+04  0.81328754624E+03 0.  0.
         23    2    4    4    0    0 -0.14421378087E+03  0.99907527086E+02  0.16171703922E+03  0.25600059085E+03  0.92761916660E+02 0.  0.
         23    2    4    4    0    0  0.62227572148E+02  0.24395741493E+03 -0.78089396038E+03  0.82556379897E+03  0.91502556123E+02 0.  0.
          1    1    3    3  502    0  0.10871723402E+02 -0.56908075627E+02  0.17025864863E+02  0.60387113821E+02  0.00000000000E+00 0. -1.
         -2    1    3    3    0  502  0.71114485315E+02 -0.28695686639E+03  0.30458539657E+03  0.42446881746E+03  0.00000000000E+00 0.  1.
         13    1    5    5    0    0 -0.56276028332E+02 -0.19133702073E+01  0.82463472769E+02  0.99854277282E+02  0.00000000000E+00 0.  1.
        -13    1    5    5    0    0 -0.87937752534E+02  0.10182089729E+03  0.79253566452E+02  0.15614631357E+03  0.00000000000E+00 0. -1.
          3    1    6    6  503    0  0.19493273062E+02  0.16116305506E+03 -0.36681564889E+03  0.40113244481E+03  0.00000000000E+00 0. -1.
         -3    1    6    6    0  503  0.42734299086E+02  0.82794359867E+02 -0.41407831149E+03  0.42443135415E+03  0.00000000000E+00 0.  1.
<mgrwt>
<rscale>  0 0.15378970E+04</rscale>
<asrwt>0</asrwt>
<pdfrwt beam="1">  1        1 0.14338354E+00 0.15378970E+04</pdfrwt>
<pdfrwt beam="2">  1       -2 0.97604205E-01 0.15378970E+04</pdfrwt>
<totfact> 0.12670349E+01</totfact>
</mgrwt>
</event>
<event>
12    5  0.5246737E-008  0.2062334E+04  0.7818608E-02  0.8578020E-01
          1   -1    0    0  501    0  0.00000000000E+00  0.00000000000E+00  0.52076931689E+03  0.52076931689E+03  0.00000000000E+00 0. -1.
         -2   -1    0    0    0  501 -0.00000000000E+00 -0.00000000000E+00 -0.20417970127E+04  0.20417970127E+04  0.00000000000E+00 0.  1.
        -24    2    1    2    0    0 -0.44267219703E+03 -0.40293931028E+03  0.10489433670E+03  0.61278631373E+03  0.78647839299E+02 0.  0.
        254    2    1    2    0    0  0.44267219703E+03  0.40293931028E+03 -0.16259220325E+04  0.19497800159E+04  0.89425996928E+03 0.  0.
         23    2    4    4    0    0  0.43998849457E+03 -0.17931297909E+03 -0.66275684089E+03  0.82065901783E+03  0.92149734577E+02 0.  0.
         23    2    4    4    0    0  0.26837024547E+01  0.58225228937E+03 -0.96316519166E+03  0.11291209981E+04  0.90565507198E+02 0.  0.
          3    1    3    3  502    0 -0.37396480645E+03 -0.32118541381E+03  0.58738634934E+02  0.49644735243E+03  0.00000000000E+00 0. -1.
         -4    1    3    3    0  502 -0.68707390583E+02 -0.81753896475E+02  0.46155701770E+02  0.11633896130E+03  0.00000000000E+00 0.  1.
         13    1    5    5    0    0  0.31006408181E+02  0.88494842908E+01 -0.29616364779E+02  0.43781728874E+02  0.00000000000E+00 0.  1.
        -13    1    5    5    0    0  0.40898208639E+03 -0.18816246338E+03 -0.63314047611E+03  0.77687728896E+03  0.00000000000E+00 0. -1.
          3    1    6    6  503    0  0.12387714068E+02  0.56303371846E+03 -0.94842880789E+03  0.11030311089E+04  0.00000000000E+00 0. -1.
         -3    1    6    6    0  503 -0.97040116135E+01  0.19218570910E+02 -0.14736383769E+02  0.26089889149E+02  0.00000000000E+00 0.  1.
<mgrwt>
<rscale>  0 0.20623339E+04</rscale>
<asrwt>0</asrwt>
<pdfrwt beam="1">  1        1 0.80118355E-01 0.20623339E+04</pdfrwt>
<pdfrwt beam="2">  1       -2 0.31412262E+00 0.20623339E+04</pdfrwt>
<totfact> 0.88181277E-01</totfact>
</mgrwt>
</event>
<event>
12    5  0.5246737E-008  0.1957551E+04  0.7818608E-02  0.8626728E-01
          1   -1    0    0  501    0  0.00000000000E+00  0.00000000000E+00  0.28004060672E+04  0.28004060672E+04  0.00000000000E+00 0. -1.
         -2   -1    0    0    0  501 -0.00000000000E+00 -0.00000000000E+00 -0.34209375232E+03  0.34209375232E+03  0.00000000000E+00 0.  1.
        -24    2    1    2    0    0  0.69809464672E+00 -0.35482037468E+02  0.22020796594E+04  0.22045629010E+04  0.98403737782E+02 0.  0.
        254    2    1    2    0    0 -0.69809464672E+00  0.35482037468E+02  0.25623265546E+03  0.93793691854E+03  0.90156032916E+03 0.  0.
         23    2    4    4    0    0  0.37734253612E+03 -0.14786512287E+03 -0.39621110989E+02  0.41636781499E+03  0.86838014673E+02 0.  0.
         23    2    4    4    0    0 -0.37804063077E+03  0.18334716034E+03  0.29585376645E+03  0.52156910355E+03  0.89297138459E+02 0.  0.
          1    1    3    3  502    0 -0.34305295674E+02 -0.13037534854E+02  0.17929713889E+04  0.17933469357E+04  0.00000000000E+00 0. -1.
         -2    1    3    3    0  502  0.35003390320E+02 -0.22444502614E+02  0.40910827055E+03  0.41121596523E+03  0.00000000000E+00 0.  1.
         13    1    5    5    0    0  0.30574559691E+03 -0.15005549997E+03 -0.16059445019E+02  0.34096177041E+03  0.00000000000E+00 0. -1.
        -13    1    5    5    0    0  0.71596939210E+02  0.21903771042E+01 -0.23561665971E+02  0.75406044582E+02  0.00000000000E+00 0.  1.
          4    1    6    6  503    0 -0.16665115880E+03  0.10637065708E+03  0.92338467359E+02  0.21820567814E+03  0.00000000000E+00 0. -1.
         -4    1    6    6    0  503 -0.21138947197E+03  0.76976503257E+02  0.20351529909E+03  0.30336342541E+03  0.00000000000E+00 0.  1.
<mgrwt>
<rscale>  0 0.19575509E+04</rscale>
<asrwt>0</asrwt>
<pdfrwt beam="1">  1        1 0.43083169E+00 0.19575509E+04</pdfrwt>
<pdfrwt beam="2">  1       -2 0.52629810E-01 0.19575509E+04</pdfrwt>
<totfact> 0.23234785E+00</totfact>
</mgrwt>
</event>
<event>
12    5  0.5246737E-008  0.2602028E+04  0.7818608E-02  0.8367513E-01
         -2   -1    0    0    0  501 -0.00000000000E+00  0.00000000000E+00  0.11416453097E+04  0.11416453097E+04  0.00000000000E+00 0.  1.
          1   -1    0    0  501    0  0.00000000000E+00 -0.00000000000E+00 -0.14826301534E+04  0.14826301534E+04  0.00000000000E+00 0. -1.
        -24    2    1    2    0    0 -0.57660389869E+03 -0.97747455395E+03 -0.11636969301E+02  0.11377248208E+04  0.79710659291E+02 0.  0.
        254    2    1    2    0    0  0.57660389869E+03  0.97747455395E+03 -0.32934787435E+03  0.14865506423E+04  0.90190588767E+03 0.  0.
         23    2    4    4    0    0  0.62065607794E+03  0.35810769445E+03 -0.44479456674E+03  0.84850279356E+03  0.93057488494E+02 0.  0.
         23    2    4    4    0    0 -0.44052179252E+02  0.61936685950E+03  0.11544669239E+03  0.63804784875E+03  0.90670929054E+02 0.  0.
          1    1    3    3  502    0 -0.95933939193E+02 -0.11159760555E+03 -0.77962825041E+01  0.14737071716E+03  0.00000000000E+00 0. -1.
         -2    1    3    3    0  502 -0.48066995950E+03 -0.86587694840E+03 -0.38406867971E+01  0.99035410364E+03  0.00000000000E+00 0.  1.
         13    1    5    5    0    0  0.36730099441E+02  0.36479632041E+02 -0.58126119458E+02  0.77836427989E+02  0.00000000000E+00 0.  1.
        -13    1    5    5    0    0  0.58392597850E+03  0.32162806241E+03 -0.38666844728E+03  0.77066636557E+03  0.00000000000E+00 0. -1.
          3    1    6    6  503    0 -0.59939358593E+02  0.59743893761E+03  0.11038795702E+03  0.61050103352E+03  0.00000000000E+00 0. -1.
         -3    1    6    6    0  503  0.15887179341E+02  0.21927921891E+02  0.50587353663E+01  0.27546815231E+02  0.00000000000E+00 0.  1.
<mgrwt>
<rscale>  0 0.26020283E+04</rscale>
<asrwt>0</asrwt>
<pdfrwt beam="1">  1        1 0.22809695E+00 0.26020283E+04</pdfrwt>
<pdfrwt beam="2">  1       -2 0.17563774E+00 0.26020283E+04</pdfrwt>
<totfact> 0.10114080E+00</totfact>
</mgrwt>
</event>
<event>
12    5  0.5246737E-008  0.2722501E+04  0.7818608E-02  0.8327741E-01
          3   -1    0    0  501    0  0.00000000000E+00  0.00000000000E+00  0.22439492540E+04  0.22439492540E+04  0.00000000000E+00 0. -1.
         -4   -1    0    0    0  501 -0.00000000000E+00 -0.00000000000E+00 -0.82577775696E+03  0.82577775696E+03  0.00000000000E+00 0.  1.
        -24    2    1    2    0    0 -0.76590994140E+03 -0.12649612129E+03  0.16885448098E+04  0.18602184335E+04  0.81300298968E+02 0.  0.
        254    2    1    2    0    0  0.76590994140E+03  0.12649612129E+03 -0.27037331280E+03  0.12095085774E+04  0.88723726449E+03 0.  0.
         23    2    4    4    0    0  0.92372957412E+03  0.23436411951E+03 -0.16091162424E+03  0.97072527121E+03  0.90620829407E+02 0.  0.
         23    2    4    4    0    0 -0.15781963272E+03 -0.10786799822E+03 -0.10946168856E+03  0.23878330620E+03  0.92157824110E+02 0.  0.
          1    1    3    3  502    0 -0.59166113102E+03 -0.10765586500E+03  0.12251672980E+04  0.13648031313E+04  0.00000000000E+00 0. -1.
         -2    1    3    3    0  502 -0.17424881038E+03 -0.18840256296E+02  0.46337751183E+03  0.49541530219E+03  0.00000000000E+00 0.  1.
         13    1    5    5    0    0  0.92423201889E+03  0.23075128199E+03 -0.16311111015E+03  0.96646583651E+03  0.00000000000E+00 0. -1.
        -13    1    5    5    0    0 -0.50244476835E+00  0.36128375178E+01  0.21994859112E+01  0.42594346983E+01  0.00000000000E+00 0.  1.
          4    1    6    6  503    0  0.48305011402E+01  0.88089309693E+01 -0.13420314280E+02  0.16764123641E+02  0.00000000000E+00 0.  1.
         -4    1    6    6    0  503 -0.16265013386E+03 -0.11667692919E+03 -0.96041374284E+02  0.22201918256E+03  0.00000000000E+00 0. -1.
<mgrwt>
<rscale>  0 0.27225013E+04</rscale>
<asrwt>0</asrwt>
<pdfrwt beam="1">  1        3 0.34522296E+00 0.27225013E+04</pdfrwt>
<pdfrwt beam="2">  1       -4 0.12704273E+00 0.27225013E+04</pdfrwt>
<totfact> 0.20078077E-02</totfact>
</mgrwt>
</event>
<event>
12    5  0.5246737E-008  0.1640652E+04  0.7818608E-02  0.8795956E-01
          1   -1    0    0  501    0  0.00000000000E+00  0.00000000000E+00  0.80771978818E+03  0.80771978818E+03  0.00000000000E+00 0. -1.
         -2   -1    0    0    0  501 -0.00000000000E+00 -0.00000000000E+00 -0.83312851590E+03  0.83312851590E+03  0.00000000000E+00 0.  1.
        -24    2    1    2    0    0  0.23844464526E+03  0.50685770248E+03  0.98730282533E+02  0.57441177946E+03  0.80253624662E+02 0.  0.
        254    2    1    2    0    0 -0.23844464526E+03 -0.50685770248E+03 -0.12413901025E+03  0.10664365246E+04  0.89895260597E+03 0.  0.
         23    2    4    4    0    0  0.22873663971E+03  0.22683627298E+02 -0.24089861428E+03  0.34490671692E+03  0.89963902298E+02 0.  0.
         23    2    4    4    0    0 -0.46718128498E+03 -0.52954132978E+03  0.11675960403E+03  0.72152980771E+03  0.91104803957E+02 0.  0.
          3    1    3    3  502    0  0.14524840724E+03  0.33821024211E+03  0.27958348828E+02  0.36914080910E+03  0.00000000000E+00 0. -1.
         -4    1    3    3    0  502  0.93196238021E+02  0.16864746037E+03  0.70771933705E+02  0.20527097036E+03  0.00000000000E+00 0.  1.
         13    1    5    5    0    0  0.15552964351E+03 -0.70705458713E+01 -0.10528018988E+03  0.18794515426E+03  0.00000000000E+00 0. -1.
        -13    1    5    5    0    0  0.73206996208E+02  0.29754173169E+02 -0.13561842441E+03  0.15696156266E+03  0.00000000000E+00 0.  1.
          1    1    6    6  503    0 -0.14186235656E+03 -0.11684030046E+03  0.27706801978E+01  0.18380495284E+03  0.00000000000E+00 0. -1.
         -1    1    6    6    0  503 -0.32531892842E+03 -0.41270102932E+03  0.11398892383E+03  0.53772485487E+03  0.00000000000E+00 0.  1.
<mgrwt>
<rscale>  0 0.16406516E+04</rscale>
<asrwt>0</asrwt>
<pdfrwt beam="1">  1        1 0.12426458E+00 0.16406516E+04</pdfrwt>
<pdfrwt beam="2">  1       -2 0.12817362E+00 0.16406516E+04</pdfrwt>
<totfact> 0.82076956E+00</totfact>
</mgrwt>
</event>
<event>
12    5  0.5246737E-008  0.1704935E+04  0.7818608E-02  0.8758555E-01
          1   -1    0    0  501    0  0.00000000000E+00  0.00000000000E+00  0.25758247661E+04  0.25758247661E+04  0.00000000000E+00 0. -1.
         -2   -1    0    0    0  501 -0.00000000000E+00 -0.00000000000E+00 -0.28212359060E+03  0.28212359060E+03  0.00000000000E+00 0.  1.
        -24    2    1    2    0    0  0.31074634595E+03 -0.32609349353E+03  0.13243458645E+03  0.47618063803E+03  0.79428095153E+02 0.  0.
        254    2    1    2    0    0 -0.31074634595E+03  0.32609349353E+03  0.21612665891E+04  0.23817677187E+04  0.89378069948E+03 0.  0.
         23    2    4    4    0    0 -0.81469003570E+02 -0.20936780301E+03  0.13923820712E+04  0.14132859802E+04  0.90428724115E+02 0.  0.
         23    2    4    4    0    0 -0.22927734238E+03  0.53546129654E+03  0.76888451792E+03  0.96848173855E+03  0.86525003244E+02 0.  0.
          1    1    3    3  502    0  0.35471527720E+02 -0.66071663955E+02  0.45326008336E+02  0.87625002643E+02  0.00000000000E+00 0. -1.
         -2    1    3    3    0  502  0.27527481823E+03 -0.26002182957E+03  0.87108578115E+02  0.38855563538E+03  0.00000000000E+00 0.  1.
         13    1    5    5    0    0 -0.89370263835E+02 -0.10717381379E+03  0.77968701260E+03  0.79207645340E+03  0.00000000000E+00 0.  1.
        -13    1    5    5    0    0  0.79012602648E+01 -0.10219398922E+03  0.61269505858E+03  0.62120952677E+03  0.00000000000E+00 0. -1.
          3    1    6    6  503    0 -0.17402798556E+03  0.33819227327E+03  0.54983851187E+03  0.66856723117E+03  0.00000000000E+00 0. -1.
         -3    1    6    6    0  503 -0.55249356826E+02  0.19726902327E+03  0.21904600604E+03  0.29991450738E+03  0.00000000000E+00 0.  1.
<mgrwt>
<rscale>  0 0.17049351E+04</rscale>
<asrwt>0</asrwt>
<pdfrwt beam="1">  1        1 0.39628072E+00 0.17049351E+04</pdfrwt>
<pdfrwt beam="2">  1       -2 0.43403631E-01 0.17049351E+04</pdfrwt>
<totfact> 0.50532056E+00</totfact>
</mgrwt>
</event>
<event>
12    5  0.5246737E-008  0.1104554E+04  0.7818608E-02  0.9200765E-01
          1   -1    0    0  501    0  0.00000000000E+00  0.00000000000E+00  0.14386025379E+04  0.14386025379E+04  0.00000000000E+00 0. -1.
         -2   -1    0    0    0  501 -0.00000000000E+00 -0.00000000000E+00 -0.21201815059E+03  0.21201815059E+03  0.00000000000E+00 0.  1.
        -24    2    1    2    0    0  0.58948730982E+02 -0.14927929268E+03  0.10785330174E+03  0.21010028994E+03  0.82161651830E+02 0.  0.
        254    2    1    2    0    0 -0.58948730982E+02  0.14927929268E+03  0.11187310856E+04  0.14405203986E+04  0.89318560040E+03 0.  0.
         23    2    4    4    0    0 -0.35473787302E+03  0.19206734240E+03  0.10367687411E+04  0.11159404282E+04  0.87776957436E+02 0.  0.
         23    2    4    4    0    0  0.29578914204E+03 -0.42788049727E+02  0.81962344531E+02  0.32457997039E+03  0.96500246165E+02 0.  0.
          3    1    3    3  502    0 -0.69314447587E+01 -0.83003248972E+02  0.30199529885E+02  0.88597945075E+02  0.00000000000E+00 0. -1.
         -4    1    3    3    0  502  0.65880175741E+02 -0.66276043705E+02  0.77653771860E+02  0.12150234487E+03  0.00000000000E+00 0.  1.
         13    1    5    5    0    0 -0.17962011270E+03  0.71008156965E+02  0.39325631327E+03  0.43812791645E+03  0.00000000000E+00 0.  1.
        -13    1    5    5    0    0 -0.17511776033E+03  0.12105918544E+03  0.64351242779E+03  0.67781251175E+03  0.00000000000E+00 0. -1.
          2    1    6    6  503    0  0.27210053627E+03 -0.21297048801E+02  0.46571553551E+02  0.27687754644E+03  0.00000000000E+00 0. -1.
         -2    1    6    6    0  503  0.23688605772E+02 -0.21491000926E+02  0.35390790980E+02  0.47702423947E+02  0.00000000000E+00 0.  1.
<mgrwt>
<rscale>  0 0.11045539E+04</rscale>
<asrwt>0</asrwt>
<pdfrwt beam="1">  1        1 0.22132346E+00 0.11045539E+04</pdfrwt>
<pdfrwt beam="2">  1       -2 0.32618178E-01 0.11045539E+04</pdfrwt>
<totfact> 0.55265990E+01</totfact>
</mgrwt>
</event>
<event>
12    5  0.5246737E-008  0.2141791E+04  0.7818608E-02  0.8543054E-01
         -2   -1    0    0    0  501 -0.00000000000E+00  0.00000000000E+00  0.66758132219E+03  0.66758132219E+03  0.00000000000E+00 0.  1.
          1   -1    0    0  501    0  0.00000000000E+00 -0.00000000000E+00 -0.17178688607E+04  0.17178688607E+04  0.00000000000E+00 0. -1.
        -24    2    1    2    0    0  0.68146432680E+03 -0.19842683002E+03  0.14209912148E+03  0.72823184954E+03  0.79766100456E+02 0.  0.
        254    2    1    2    0    0 -0.68146432680E+03  0.19842683002E+03 -0.11923866600E+04  0.16572183334E+04  0.90599107166E+03 0.  0.
         23    2    4    4    0    0  0.13169738789E+03 -0.83448005414E+02  0.33978191238E+01  0.18090422911E+03  0.91689821402E+02 0.  0.
         23    2    4    4    0    0 -0.81316171469E+03  0.28187483543E+03 -0.11957844791E+04  0.14763141043E+04  0.94432075172E+02 0.  0.
          1    1    3    3  502    0  0.27450449342E+03 -0.74581753068E+02  0.96636245995E+02  0.30042256712E+03  0.00000000000E+00 0. -1.
         -2    1    3    3    0  502  0.40695983338E+03 -0.12384507695E+03  0.45462875488E+02  0.42780928241E+03  0.00000000000E+00 0.  1.
         13    1    5    5    0    0  0.47005707188E+02  0.15668383765E+02 -0.73496519478E+01  0.50090439624E+02  0.00000000000E+00 0.  1.
        -13    1    5    5    0    0  0.84691680706E+02 -0.99116389178E+02  0.10747471072E+02  0.13081378948E+03  0.00000000000E+00 0. -1.
          4    1    6    6  503    0 -0.45826612629E+03  0.20746793806E+03 -0.68162450543E+03  0.84714978264E+03  0.00000000000E+00 0. -1.
         -4    1    6    6    0  503 -0.35489558840E+03  0.74406897375E+02 -0.51415997370E+03  0.62916432162E+03  0.00000000000E+00 0.  1.
<mgrwt>
<rscale>  0 0.21417910E+04</rscale>
<asrwt>0</asrwt>
<pdfrwt beam="1">  1        1 0.26428751E+00 0.21417910E+04</pdfrwt>
<pdfrwt beam="2">  1       -2 0.10270482E+00 0.21417910E+04</pdfrwt>
<totfact> 0.28900957E+00</totfact>
</mgrwt>
</event>
<event>
12    5  0.5246737E-008  0.2175000E+04  0.7818608E-02  0.8528906E-01
         -2   -1    0    0    0  501 -0.00000000000E+00  0.00000000000E+00  0.89226269257E+03  0.89226269257E+03  0.00000000000E+00 0.  1.
          1   -1    0    0  501    0  0.00000000000E+00 -0.00000000000E+00 -0.13254575165E+04  0.13254575165E+04  0.00000000000E+00 0. -1.
        -24    2    1    2    0    0  0.71932665517E+03  0.52527543656E+03 -0.31290991790E+03  0.94747361337E+03  0.80302616485E+02 0.  0.
        254    2    1    2    0    0 -0.71932665517E+03 -0.52527543656E+03 -0.12028490600E+03  0.12702465957E+04  0.89761508128E+03 0.  0.
         23    2    4    4    0    0 -0.84380537076E+03 -0.64044103575E+03 -0.15526429616E+03  0.10745236529E+04  0.91224201495E+02 0.  0.
         23    2    4    4    0    0  0.12447871558E+03  0.11516559919E+03  0.34979390156E+02  0.19572294281E+03  0.91246077913E+02 0.  0.
          3    1    3    3  502    0  0.52682867088E+03  0.42536360960E+03 -0.22614016153E+03  0.71387815591E+03  0.00000000000E+00 0. -1.
         -4    1    3    3    0  502  0.19249798429E+03  0.99911826961E+02 -0.86769756375E+02  0.23359545746E+03  0.00000000000E+00 0.  1.
         13    1    5    5    0    0 -0.74830552654E+03 -0.54451522624E+03 -0.11085413741E+03  0.93206578761E+03  0.00000000000E+00 0.  1.
        -13    1    5    5    0    0 -0.95499844221E+02 -0.95925809510E+02 -0.44410158748E+02  0.14245786527E+03  0.00000000000E+00 0. -1.
          2    1    6    6  503    0  0.61667465941E+01  0.50013147222E+02 -0.13587136969E+02  0.52191512238E+02  0.00000000000E+00 0. -1.
         -2    1    6    6    0  503  0.11831196899E+03  0.65152451966E+02  0.48566527126E+02  0.14353143057E+03  0.00000000000E+00 0.  1.
<mgrwt>
<rscale>  0 0.21750000E+04</rscale>
<asrwt>0</asrwt>
<pdfrwt beam="1">  1        1 0.20391654E+00 0.21750000E+04</pdfrwt>
<pdfrwt beam="2">  1       -2 0.13727118E+00 0.21750000E+04</pdfrwt>
<totfact> 0.26291802E+00</totfact>
</mgrwt>
</event>
<event>
12    5  0.5246737E-008  0.1550180E+04  0.7818608E-02  0.8851753E-01
          1   -1    0    0  501    0  0.00000000000E+00  0.00000000000E+00  0.12364264360E+04  0.12364264360E+04  0.00000000000E+00 0. -1.
         -2   -1    0    0    0  501 -0.00000000000E+00 -0.00000000000E+00 -0.48588794334E+03  0.48588794334E+03  0.00000000000E+00 0.  1.
        -24    2    1    2    0    0 -0.19244197940E+03  0.17431218149E+03  0.73414743504E+03  0.78306898131E+03  0.82498006457E+02 0.  0.
        254    2    1    2    0    0  0.19244197940E+03 -0.17431218149E+03  0.16391057637E+02  0.93924539805E+03  0.90249354509E+03 0.  0.
         23    2    4    4    0    0 -0.22607479059E+03 -0.39717488399E+02  0.31464050725E+03  0.40001496692E+03  0.91247110277E+02 0.  0.
         23    2    4    4    0    0  0.41851676999E+03 -0.13459469309E+03 -0.29824944961E+03  0.53923043113E+03  0.92437576148E+02 0.  0.
          3    1    3    3  502    0 -0.14828591811E+03  0.16934156545E+03  0.56509605419E+03  0.60827529110E+03  0.00000000000E+00 0. -1.
         -4    1    3    3    0  502 -0.44156061293E+02  0.49706160432E+01  0.16905138085E+03  0.17479369022E+03  0.00000000000E+00 0.  1.
         13    1    5    5    0    0 -0.98635475019E+02 -0.59221412926E+02  0.11737324365E+03  0.16435513684E+03  0.00000000000E+00 0.  1.
        -13    1    5    5    0    0 -0.12743931557E+03  0.19503924527E+02  0.19726726361E+03  0.23565983008E+03  0.00000000000E+00 0. -1.
          2    1    6    6  503    0  0.19685275739E+03 -0.11031115549E+03 -0.13612038167E+03  0.26353048671E+03  0.00000000000E+00 0. -1.
         -2    1    6    6    0  503  0.22166401260E+03 -0.24283537606E+02 -0.16212906795E+03  0.27569994442E+03  0.00000000000E+00 0.  1.
<mgrwt>
<rscale>  0 0.15501802E+04</rscale>
<asrwt>0</asrwt>
<pdfrwt beam="1">  1        1 0.19021945E+00 0.15501802E+04</pdfrwt>
<pdfrwt beam="2">  1       -2 0.74751992E-01 0.15501802E+04</pdfrwt>
<totfact> 0.13663967E+01</totfact>
</mgrwt>
</event>
<event>
12    5  0.5246737E-008  0.2134339E+04  0.7818608E-02  0.8546266E-01
          1   -1    0    0  501    0  0.00000000000E+00  0.00000000000E+00  0.88692748458E+03  0.88692748458E+03  0.00000000000E+00 0. -1.
         -2   -1    0    0    0  501 -0.00000000000E+00 -0.00000000000E+00 -0.12840408220E+04  0.12840408220E+04  0.00000000000E+00 0.  1.
        -24    2    1    2    0    0 -0.17002648322E+01 -0.69189797299E+03 -0.72510694974E+03  0.10053793635E+04  0.79258312396E+02 0.  0.
        254    2    1    2    0    0  0.17002648322E+01  0.69189797299E+03  0.32799361232E+03  0.11655889431E+04  0.87880150123E+03 0.  0.
         23    2    4    4    0    0  0.34417902999E+03  0.37857640256E+03  0.43760045130E+03  0.67949255310E+03  0.91851387972E+02 0.  0.
         23    2    4    4    0    0 -0.34247876516E+03  0.31332157043E+03 -0.10960683899E+03  0.48609638998E+03  0.93882533593E+02 0.  0.
          1    1    3    3  502    0 -0.64391776295E+01 -0.91424069795E+02 -0.61283016002E+02  0.11025167389E+03  0.00000000000E+00 0. -1.
         -2    1    3    3    0  502  0.47389127973E+01 -0.60047390319E+03 -0.66382393374E+03  0.89512768962E+03  0.00000000000E+00 0.  1.
         13    1    5    5    0    0  0.29375505747E+03  0.35950631115E+03  0.37434794416E+03  0.59638343777E+03  0.00000000000E+00 0.  1.
        -13    1    5    5    0    0  0.50423972519E+02  0.19070091410E+02  0.63252507138E+02  0.83109115326E+02  0.00000000000E+00 0. -1.
          4    1    6    6  503    0 -0.10032738802E+03  0.62569492103E+02  0.72001499879E+01  0.11845829768E+03  0.00000000000E+00 0. -1.
         -4    1    6    6    0  503 -0.24215137714E+03  0.25075207833E+03 -0.11680698897E+03  0.36763809230E+03  0.00000000000E+00 0.  1.
<mgrwt>
<rscale>  0 0.21343393E+04</rscale>
<asrwt>0</asrwt>
<pdfrwt beam="1">  1        1 0.13645038E+00 0.21343393E+04</pdfrwt>
<pdfrwt beam="2">  1       -2 0.19754474E+00 0.21343393E+04</pdfrwt>
<totfact> 0.20689929E+00</totfact>
</mgrwt>
</event>
<event>
12    5  0.5246737E-008  0.1799657E+04  0.7818608E-02  0.8706482E-01
          1   -1    0    0  501    0  0.00000000000E+00  0.00000000000E+00  0.15376183593E+04  0.15376183593E+04  0.00000000000E+00 0. -1.
         -2   -1    0    0    0  501 -0.00000000000E+00 -0.00000000000E+00 -0.52658771884E+03  0.52658771884E+03  0.00000000000E+00 0.  1.
        -24    2    1    2    0    0 -0.94908325510E+02 -0.48921008302E+03  0.89626291917E+03  0.10285100350E+04  0.78813553815E+02 0.  0.
        254    2    1    2    0    0  0.94908325510E+02  0.48921008302E+03  0.11476772125E+03  0.10356960431E+04  0.90064452935E+03 0.  0.
         23    2    4    4    0    0  0.79741773487E+01  0.71074204071E+03 -0.71449648719E+02  0.72027805799E+03  0.92073843098E+02 0.  0.
         23    2    4    4    0    0  0.86934148162E+02 -0.22153195769E+03  0.18621736997E+03  0.31541798510E+03  0.90430316003E+02 0.  0.
          1    1    3    3  502    0 -0.80134306331E+02 -0.44376950602E+03  0.84884895811E+03  0.96119583604E+03  0.00000000000E+00 0. -1.
         -2    1    3    3    0  502 -0.14774019179E+02 -0.45440577002E+02  0.47413961059E+02  0.67314198980E+02  0.00000000000E+00 0.  1.
         13    1    5    5    0    0  0.21684766304E+02  0.69691714333E+03 -0.69627266468E+02  0.70072226309E+03  0.00000000000E+00 0.  1.
        -13    1    5    5    0    0 -0.13710588956E+02  0.13824897384E+02 -0.18223822514E+01  0.19555794902E+02  0.00000000000E+00 0. -1.
          2    1    6    6  503    0  0.10991455526E+02 -0.80751257917E+02  0.18336317272E+02  0.83533216632E+02  0.00000000000E+00 0. -1.
         -2    1    6    6    0  503  0.75942692636E+02 -0.14078069977E+03  0.16788105270E+03  0.23188476847E+03  0.00000000000E+00 0.  1.
<mgrwt>
<rscale>  0 0.17996566E+04</rscale>
<asrwt>0</asrwt>
<pdfrwt beam="1">  1        1 0.23655667E+00 0.17996566E+04</pdfrwt>
<pdfrwt beam="2">  1       -2 0.81013496E-01 0.17996566E+04</pdfrwt>
<totfact> 0.68551879E+00</totfact>
</mgrwt>
</event>
<event>
12    5  0.5246737E-008  0.1270851E+04  0.7818608E-02  0.9053005E-01
          1   -1    0    0  501    0  0.00000000000E+00  0.00000000000E+00  0.85101032367E+03  0.85101032367E+03  0.00000000000E+00 0. -1.
         -2   -1    0    0    0  501 -0.00000000000E+00 -0.00000000000E+00 -0.47445439469E+03  0.47445439469E+03  0.00000000000E+00 0.  1.
        -24    2    1    2    0    0  0.28057195418E+03  0.63533370647E+02 -0.49174872031E+02  0.30425772871E+03  0.86008643646E+02 0.  0.
        254    2    1    2    0    0 -0.28057195418E+03 -0.63533370647E+02  0.42573080100E+03  0.10212069897E+04  0.88253039049E+03 0.  0.
         23    2    4    4    0    0  0.63937854175E+02 -0.70850787716E+02 -0.23530845124E+03  0.27004848936E+03  0.91914286517E+02 0.  0.
         23    2    4    4    0    0 -0.34450980835E+03  0.73174170696E+01  0.66103925224E+03  0.75115850029E+03  0.92334429759E+02 0.  0.
          3    1    3    3  502    0  0.17488287572E+03  0.40088244599E+02  0.12162522667E+02  0.17983051613E+03  0.00000000000E+00 0. -1.
         -4    1    3    3    0  502  0.10568907846E+03  0.23445126048E+02 -0.61337394697E+02  0.12442721257E+03  0.00000000000E+00 0.  1.
         13    1    5    5    0    0  0.72026482665E+02 -0.13492485686E+02 -0.14985456270E+03  0.16681202396E+03  0.00000000000E+00 0. -1.
        -13    1    5    5    0    0 -0.80886284903E+01 -0.57358302031E+02 -0.85453888535E+02  0.10323646540E+03  0.00000000000E+00 0.  1.
          4    1    6    6  503    0 -0.26576843071E+03  0.70084654943E+01  0.41527037511E+03  0.49308362556E+03  0.00000000000E+00 0. -1.
         -4    1    6    6    0  503 -0.78741377643E+02  0.30895157527E+00  0.24576887713E+03  0.25807487473E+03  0.00000000000E+00 0.  1.
<mgrwt>
<rscale>  0 0.12708510E+04</rscale>
<asrwt>0</asrwt>
<pdfrwt beam="1">  1        1 0.13092467E+00 0.12708510E+04</pdfrwt>
<pdfrwt beam="2">  1       -2 0.72992984E-01 0.12708510E+04</pdfrwt>
<totfact> 0.29248385E+01</totfact>
</mgrwt>
</event>
<event>
12    5  0.5246737E-008  0.1846439E+04  0.7818608E-02  0.8681987E-01
         -2   -1    0    0    0  501 -0.00000000000E+00  0.00000000000E+00  0.43652505041E+03  0.43652505041E+03  0.00000000000E+00 0.  1.
          1   -1    0    0  501    0  0.00000000000E+00 -0.00000000000E+00 -0.19525426708E+04  0.19525426708E+04  0.00000000000E+00 0. -1.
        -24    2    1    2    0    0  0.27576044613E+03 -0.98608951187E+02  0.24670197775E+03  0.39100661166E+03  0.79099656337E+02 0.  0.
        254    2    1    2    0    0 -0.27576044613E+03  0.98608951187E+02 -0.17627195981E+04  0.19980611095E+04  0.89403594271E+03 0.  0.
         23    2    4    4    0    0 -0.50687207505E+03 -0.16877392861E+03 -0.13017126114E+04  0.14100911118E+04  0.92180699340E+02 0.  0.
         23    2    4    4    0    0  0.23111162891E+03  0.26738287979E+03 -0.46100698669E+03  0.58796999773E+03  0.90967505369E+02 0.  0.
          3    1    3    3  502    0  0.86260239906E+02 -0.41521776709E+02  0.36933155881E+02  0.10261064727E+03  0.00000000000E+00 0. -1.
         -4    1    3    3    0  502  0.18950020623E+03 -0.57087174478E+02  0.20976882187E+03  0.28839596440E+03  0.00000000000E+00 0.  1.
         13    1    5    5    0    0 -0.21550166673E+02  0.24899805469E+01 -0.10805993767E+03  0.11021596897E+03  0.00000000000E+00 0.  1.
        -13    1    5    5    0    0 -0.48532190837E+03 -0.17126390915E+03 -0.11936526738E+04  0.12998751428E+04  0.00000000000E+00 0. -1.
          2    1    6    6  503    0  0.23956685119E+03  0.25720259504E+03 -0.44782394017E+03  0.56929055189E+03  0.00000000000E+00 0. -1.
         -2    1    6    6    0  503 -0.84552222771E+01  0.10180284755E+02 -0.13183046524E+02  0.18679445846E+02  0.00000000000E+00 0.  1.
<mgrwt>
<rscale>  0 0.18464385E+04</rscale>
<asrwt>0</asrwt>
<pdfrwt beam="1">  1        1 0.30039118E+00 0.18464385E+04</pdfrwt>
<pdfrwt beam="2">  1       -2 0.67157700E-01 0.18464385E+04</pdfrwt>
<totfact> 0.53887942E+00</totfact>
</mgrwt>
</event>
<event>
12    5  0.5246737E-008  0.1685323E+04  0.7818608E-02  0.8769780E-01
          1   -1    0    0  501    0  0.00000000000E+00  0.00000000000E+00  0.10360647763E+04  0.10360647763E+04  0.00000000000E+00 0. -1.
         -2   -1    0    0    0  501 -0.00000000000E+00 -0.00000000000E+00 -0.68536077832E+03  0.68536077832E+03  0.00000000000E+00 0.  1.
        -24    2    1    2    0    0  0.26326639257E+03 -0.35858376532E+03  0.53378248752E+03  0.69955230014E+03  0.80982506975E+02 0.  0.
        254    2    1    2    0    0 -0.26326639257E+03  0.35858376532E+03 -0.18307848950E+03  0.10218732545E+04  0.90156292337E+03 0.  0.
         23    2    4    4    0    0 -0.20822637024E+03  0.62771415893E+02 -0.51377306890E+03  0.56526718989E+03  0.90916212642E+02 0.  0.
         23    2    4    4    0    0 -0.55040022336E+02  0.29581234942E+03  0.33069457940E+03  0.45660606464E+03  0.92713770771E+02 0.  0.
          3    1    3    3  502    0  0.25617726167E+03 -0.31232150523E+03  0.49398903625E+03  0.63811964393E+03  0.00000000000E+00 0. -1.
         -4    1    3    3    0  502  0.70891308995E+01 -0.46262260086E+02  0.39793451270E+02  0.61432656211E+02  0.00000000000E+00 0.  1.
         13    1    5    5    0    0 -0.25737703726E+02  0.34340827380E+02 -0.16643884733E+03  0.17188255211E+03  0.00000000000E+00 0.  1.
        -13    1    5    5    0    0 -0.18248866651E+03  0.28430588514E+02 -0.34733422157E+03  0.39338463778E+03  0.00000000000E+00 0. -1.
          3    1    6    6  503    0 -0.77475177735E+01  0.18018794306E+02 -0.30062822186E+01  0.19842850417E+02  0.00000000000E+00 0.  1.
         -3    1    6    6    0  503 -0.47292504562E+02  0.27779355512E+03  0.33370086162E+03  0.43676321422E+03  0.00000000000E+00 0. -1.
<mgrwt>
<rscale>  0 0.16853227E+04</rscale>
<asrwt>0</asrwt>
<pdfrwt beam="1">  1        1 0.15939458E+00 0.16853227E+04</pdfrwt>
<pdfrwt beam="2">  1       -2 0.10544012E+00 0.16853227E+04</pdfrwt>
<totfact> 0.86232806E+00</totfact>
</mgrwt>
</event>
<event>
12    5  0.5246737E-008  0.1706081E+04  0.7818608E-02  0.8757904E-01
          1   -1    0    0  501    0  0.00000000000E+00  0.00000000000E+00  0.31779411830E+03  0.31779411830E+03  0.00000000000E+00 0. -1.
         -2   -1    0    0    0  501 -0.00000000000E+00 -0.00000000000E+00 -0.22897778503E+04  0.22897778503E+04  0.00000000000E+00 0.  1.
        -24    2    1    2    0    0 -0.55257060954E+03 -0.11487709847E+03 -0.35269848630E+03  0.67031024827E+03  0.79928595716E+02 0.  0.
        254    2    1    2    0    0  0.55257060954E+03  0.11487709847E+03 -0.16192852457E+04  0.19372617203E+04  0.90131417374E+03 0.  0.
         23    2    4    4    0    0 -0.23309153490E+03 -0.28303841740E+02 -0.49081760392E+03  0.55186742246E+03  0.92319881681E+02 0.  0.
         23    2    4    4    0    0  0.78566214444E+03  0.14318094021E+03 -0.11284676417E+04  0.13853942978E+04  0.90068613587E+02 0.  0.
          3    1    3    3  502    0 -0.43329227567E+03 -0.80900284945E+02 -0.23584782687E+03  0.49991124182E+03  0.00000000000E+00 0. -1.
         -4    1    3    3    0  502 -0.11927833387E+03 -0.33976813525E+02 -0.11685065943E+03  0.17039900644E+03  0.00000000000E+00 0.  1.
         13    1    5    5    0    0 -0.81440285228E+02 -0.38209794705E+02 -0.11167853936E+03  0.14340364229E+03  0.00000000000E+00 0. -1.
        -13    1    5    5    0    0 -0.15165124967E+03  0.99059529649E+01 -0.37913906456E+03  0.40846378017E+03  0.00000000000E+00 0.  1.
          4    1    6    6  503    0  0.21507938301E+03 -0.21975444902E+00 -0.28669351007E+03  0.35840250836E+03  0.00000000000E+00 0.  1.
         -4    1    6    6    0  503  0.57058276143E+03  0.14340069466E+03 -0.84177413167E+03  0.10269917895E+04  0.00000000000E+00 0. -1.
<mgrwt>
<rscale>  0 0.17060808E+04</rscale>
<asrwt>0</asrwt>
<pdfrwt beam="1">  1        1 0.48891406E-01 0.17060808E+04</pdfrwt>
<pdfrwt beam="2">  1       -2 0.35227350E+00 0.17060808E+04</pdfrwt>
<totfact> 0.10220226E+00</totfact>
</mgrwt>
</event>
<event>
12    5  0.5246737E-008  0.1404676E+04  0.7818608E-02  0.8950441E-01
          1   -1    0    0  501    0  0.00000000000E+00  0.00000000000E+00  0.29997713779E+03  0.29997713779E+03  0.00000000000E+00 0. -1.
         -2   -1    0    0    0  501 -0.00000000000E+00 -0.00000000000E+00 -0.16443864846E+04  0.16443864846E+04  0.00000000000E+00 0.  1.
        -24    2    1    2    0    0  0.38070949928E+01  0.29926464019E+03 -0.22007787191E+02  0.31239345900E+03  0.86784282488E+02 0.  0.
        254    2    1    2    0    0 -0.38070949928E+01 -0.29926464019E+03 -0.13224015597E+04  0.16319701634E+04  0.90829891031E+03 0.  0.
         23    2    4    4    0    0  0.36462140158E+03  0.56753309513E+02 -0.83940379054E+03  0.92186932098E+03  0.95260782950E+02 0.  0.
         23    2    4    4    0    0 -0.36842849657E+03 -0.35601794971E+03 -0.48299776913E+03  0.71010084245E+03  0.92021866204E+02 0.  0.
          1    1    3    3  502    0 -0.65809070640E+01  0.75684955492E+02  0.31537951030E+02  0.82256690796E+02  0.00000000000E+00 0. -1.
         -4    1    3    3    0  502  0.10388002057E+02  0.22357968470E+03 -0.53545738221E+02  0.23013676821E+03  0.00000000000E+00 0.  1.
         13    1    5    5    0    0  0.33073092640E+03  0.48266758121E+02 -0.80984431943E+03  0.87610527183E+03  0.00000000000E+00 0.  1.
        -13    1    5    5    0    0  0.33890475184E+02  0.84865513925E+01 -0.29559471110E+02  0.45764049155E+02  0.00000000000E+00 0. -1.
          3    1    6    6  503    0 -0.70254789162E+02 -0.91528016947E+02 -0.15897927743E+03  0.19643707373E+03  0.00000000000E+00 0. -1.
         -3    1    6    6    0  503 -0.29817370741E+03 -0.26448993276E+03 -0.32401849170E+03  0.51366376871E+03  0.00000000000E+00 0.  1.
<mgrwt>
<rscale>  0 0.14046756E+04</rscale>
<asrwt>0</asrwt>
<pdfrwt beam="1">  1        1 0.46150328E-01 0.14046756E+04</pdfrwt>
<pdfrwt beam="2">  1       -2 0.25298254E+00 0.14046756E+04</pdfrwt>
<totfact> 0.46028559E+00</totfact>
</mgrwt>
</event>
<event>
12    5  0.5246737E-008  0.1465354E+04  0.7818608E-02  0.8907825E-01
         -4   -1    0    0    0  501 -0.00000000000E+00  0.00000000000E+00  0.11807086208E+03  0.11807086208E+03  0.00000000000E+00 0.  1.
          1   -1    0    0  501    0  0.00000000000E+00 -0.00000000000E+00 -0.45465558394E+04  0.45465558394E+04  0.00000000000E+00 0. -1.
        -24    2    1    2    0    0  0.35019239727E+03  0.28419409076E+03 -0.11732301783E+04  0.12594363811E+04  0.79435196054E+02 0.  0.
        254    2    1    2    0    0 -0.35019239727E+03 -0.28419409076E+03 -0.32552547990E+04  0.34051903204E+04  0.89176023417E+03 0.  0.
         23    2    4    4    0    0  0.17821496866E+03 -0.37420516222E+03 -0.10053981767E+04  0.10905723611E+04  0.82051829096E+02 0.  0.
         23    2    4    4    0    0 -0.52840736593E+03  0.90011071454E+02 -0.22498566223E+04  0.23146179593E+04  0.91022738998E+02 0.  0.
          3    1    3    3  502    0  0.30556760310E+03  0.27717222096E+03 -0.10686411594E+04  0.11455085891E+04  0.00000000000E+00 0. -1.
         -4    1    3    3    0  502  0.44624794167E+02  0.70218697999E+01 -0.10458901895E+03  0.11392779202E+03  0.00000000000E+00 0.  1.
         13    1    5    5    0    0  0.15933135300E+03 -0.35150097078E+03 -0.86631514219E+03  0.94838881167E+03  0.00000000000E+00 0.  1.
        -13    1    5    5    0    0  0.18883615654E+02 -0.22704191443E+02 -0.13908303448E+03  0.14218354943E+03  0.00000000000E+00 0. -1.
          2    1    6    6  503    0 -0.75535950036E+01 -0.80793566269E+01 -0.22514961773E+02  0.25084981655E+02  0.00000000000E+00 0. -1.
         -2    1    6    6    0  503 -0.52085377092E+03  0.98090428081E+02 -0.22273416605E+04  0.22895329776E+04  0.00000000000E+00 0.  1.
<mgrwt>
<rscale>  0 0.14653542E+04</rscale>
<asrwt>0</asrwt>
<pdfrwt beam="1">  1        1 0.69947008E+00 0.14653542E+04</pdfrwt>
<pdfrwt beam="2">  1       -4 0.18164749E-01 0.14653542E+04</pdfrwt>
<totfact> 0.40264654E-01</totfact>
</mgrwt>
</event>
<event>
12    5  0.5246737E-008  0.1314333E+04  0.7818608E-02  0.9018275E-01
         -2   -1    0    0    0  501 -0.00000000000E+00  0.00000000000E+00  0.21875623730E+03  0.21875623730E+03  0.00000000000E+00 0.  1.
          1   -1    0    0  501    0  0.00000000000E+00 -0.00000000000E+00 -0.19741980224E+04  0.19741980224E+04  0.00000000000E+00 0. -1.
        -24    2    1    2    0    0 -0.22824283828E+02 -0.29935457216E+03 -0.73443890813E+03  0.79732643192E+03  0.78707188130E+02 0.  0.
        254    2    1    2    0    0  0.22824283828E+02  0.29935457216E+03 -0.10210028769E+04  0.13956278277E+04  0.90288208037E+03 0.  0.
         23    2    4    4    0    0  0.22179957950E+03 -0.25800309294E+03 -0.35418675269E+03  0.49942599893E+03  0.90650003785E+02 0.  0.
         23    2    4    4    0    0 -0.19897529568E+03  0.55735766511E+03 -0.66681612425E+03  0.89620182882E+03  0.91078204156E+02 0.  0.
          3    1    3    3  502    0  0.25623739093E+02 -0.17536499696E+03 -0.41459462959E+03  0.45088597788E+03  0.00000000000E+00 0. -1.
         -4    1    3    3    0  502 -0.48448022921E+02 -0.12398957520E+03 -0.31984427854E+03  0.34644045405E+03  0.00000000000E+00 0.  1.
         13    1    5    5    0    0  0.10928777106E+03 -0.10676304453E+03 -0.22080119324E+03  0.26850573833E+03  0.00000000000E+00 0. -1.
        -13    1    5    5    0    0  0.11251180844E+03 -0.15124004842E+03 -0.13338555945E+03  0.23092026060E+03  0.00000000000E+00 0.  1.
          3    1    6    6  503    0 -0.16060026268E+03  0.38200470760E+03 -0.41059831226E+03  0.58336182171E+03  0.00000000000E+00 0. -1.
         -3    1    6    6    0  503 -0.38375032998E+02  0.17535295750E+03 -0.25621781199E+03  0.31284000710E+03  0.00000000000E+00 0.  1.
<mgrwt>
<rscale>  0 0.13143335E+04</rscale>
<asrwt>0</asrwt>
<pdfrwt beam="1">  1        1 0.30372278E+00 0.13143335E+04</pdfrwt>
<pdfrwt beam="2">  1       -2 0.33654805E-01 0.13143335E+04</pdfrwt>
<totfact> 0.22094727E+01</totfact>
</mgrwt>
</event>
<event>
12    5  0.5246737E-008  0.1276137E+04  0.7818608E-02  0.9048706E-01
         -2   -1    0    0    0  501 -0.00000000000E+00  0.00000000000E+00  0.26861924733E+03  0.26861924733E+03  0.00000000000E+00 0.  1.
          1   -1    0    0  501    0  0.00000000000E+00 -0.00000000000E+00 -0.15156447761E+04  0.15156447761E+04  0.00000000000E+00 0. -1.
        -24    2    1    2    0    0 -0.16406036485E+03 -0.28455694001E+01  0.61659032038E+02  0.19185693737E+03  0.77995817875E+02 0.  0.
        254    2    1    2    0    0  0.16406036485E+03  0.28455694001E+01 -0.13086845608E+04  0.15924070861E+04  0.89228983376E+03 0.  0.
         23    2    4    4    0    0  0.24627548000E+03  0.12150640953E+03 -0.20642705097E+02  0.29290985482E+03  0.99772953115E+02 0.  0.
         23    2    4    4    0    0 -0.82215115146E+02 -0.11866084013E+03 -0.12880418557E+04  0.12994972312E+04  0.93816372637E+02 0.  0.
          1    1    3    3  502    0 -0.33608154223E+02  0.32229744887E+02  0.17306676827E+02  0.49676810974E+02  0.00000000000E+00 0. -1.
         -2    1    3    3    0  502 -0.13045221063E+03 -0.35075314287E+02  0.44352355211E+02  0.14218012640E+03  0.00000000000E+00 0.  1.
         13    1    5    5    0    0  0.36796675018E+02  0.16754814777E+02  0.33519047377E+02  0.52519002729E+02  0.00000000000E+00 0. -1.
        -13    1    5    5    0    0  0.20947880498E+03  0.10475159475E+03 -0.54161752474E+02  0.24039085209E+03  0.00000000000E+00 0.  1.
          1    1    6    6  503    0 -0.76650145682E+02 -0.10323610509E+03 -0.12632256800E+04  0.12697527542E+04  0.00000000000E+00 0. -1.
         -1    1    6    6    0  503 -0.55649694647E+01 -0.15424735042E+02 -0.24816175738E+02  0.29744477042E+02  0.00000000000E+00 0.  1.
<mgrwt>
<rscale>  0 0.12761369E+04</rscale>
<asrwt>0</asrwt>
<pdfrwt beam="1">  1        1 0.23317612E+00 0.12761369E+04</pdfrwt>
<pdfrwt beam="2">  1       -2 0.41326037E-01 0.12761369E+04</pdfrwt>
<totfact> 0.30564004E+01</totfact>
</mgrwt>
</event>
<event>
12    5  0.5246737E-008  0.1305820E+04  0.7818608E-02  0.9024963E-01
          3   -1    0    0  501    0  0.00000000000E+00  0.00000000000E+00  0.33754379600E+03  0.33754379600E+03  0.00000000000E+00 0. -1.
         -2   -1    0    0    0  501 -0.00000000000E+00 -0.00000000000E+00 -0.12629214707E+04  0.12629214707E+04  0.00000000000E+00 0.  1.
        -24    2    1    2    0    0 -0.13772300659E+03  0.16829563467E+03 -0.57694782962E+03  0.62184534508E+03  0.80819477311E+02 0.  0.
        254    2    1    2    0    0  0.13772300659E+03 -0.16829563467E+03 -0.34842984507E+03  0.97861992161E+03  0.88825815327E+03 0.  0.
         23    2    4    4    0    0  0.96827213518E+02 -0.49275399660E+03 -0.37705710405E+03  0.63451372572E+03  0.90849314592E+02 0.  0.
         23    2    4    4    0    0  0.40895793068E+02  0.32445836193E+03  0.28627258976E+02  0.34410619590E+03  0.10316908247E+03 0.  0.
          3    1    3    3  502    0 -0.11026478755E+02 -0.87574215536E+01 -0.29280430655E+02  0.32490295249E+02  0.00000000000E+00 0. -1.
         -4    1    3    3    0  502 -0.12669652783E+03  0.17705305622E+03 -0.54766739896E+03  0.58935504984E+03  0.00000000000E+00 0.  1.
         13    1    5    5    0    0 -0.91479236454E+01 -0.16533025082E+03 -0.10824499903E+03  0.19782506454E+03  0.00000000000E+00 0. -1.
        -13    1    5    5    0    0  0.10597513716E+03 -0.32742374579E+03 -0.26881210502E+03  0.43668866118E+03  0.00000000000E+00 0.  1.
          4    1    6    6  503    0  0.35898041840E+02  0.54766085911E+02 -0.23128411048E+02  0.69447224362E+02  0.00000000000E+00 0. -1.
         -4    1    6    6    0  503  0.49977512275E+01  0.26969227602E+03  0.51755670024E+02  0.27465897153E+03  0.00000000000E+00 0.  1.
<mgrwt>
<rscale>  0 0.13058198E+04</rscale>
<asrwt>0</asrwt>
<pdfrwt beam="1">  1        3 0.51929815E-01 0.13058198E+04</pdfrwt>
<pdfrwt beam="2">  1       -2 0.19429561E+00 0.13058198E+04</pdfrwt>
<totfact> 0.21902342E+00</totfact>
</mgrwt>
</event>
<event>
12    5  0.5246737E-008  0.1737291E+04  0.7818608E-02  0.8740377E-01
         -2   -1    0    0    0  501 -0.00000000000E+00  0.00000000000E+00  0.71518776772E+03  0.71518776772E+03  0.00000000000E+00 0.  1.
          1   -1    0    0  501    0  0.00000000000E+00 -0.00000000000E+00 -0.10550301653E+04  0.10550301653E+04  0.00000000000E+00 0. -1.
        -24    2    1    2    0    0 -0.54384313725E+03  0.31634061382E+03 -0.13527601856E+03  0.64825201305E+03  0.78066185628E+02 0.  0.
        254    2    1    2    0    0  0.54384313725E+03 -0.31634061382E+03 -0.20456637906E+03  0.11219659200E+04  0.90615858455E+03 0.  0.
         23    2    4    4    0    0  0.77391902326E+03 -0.34659015202E+03 -0.13735122156E+03  0.86384758394E+03  0.91059882351E+02 0.  0.
         23    2    4    4    0    0 -0.23007588601E+03  0.30249538198E+02 -0.67215157497E+02  0.25811833608E+03  0.90869412561E+02 0.  0.
          3    1    3    3  502    0 -0.36518158200E+03  0.21213181350E+03 -0.12798803293E+03  0.44129177502E+03  0.00000000000E+00 0. -1.
         -4    1    3    3    0  502 -0.17866155525E+03  0.10420880032E+03 -0.72879856284E+01  0.20696023802E+03  0.00000000000E+00 0.  1.
         13    1    5    5    0    0  0.29892285686E+03 -0.12288697352E+03 -0.88702134433E+01  0.32331836215E+03  0.00000000000E+00 0. -1.
        -13    1    5    5    0    0  0.47499616639E+03 -0.22370317850E+03 -0.12848100812E+03  0.54052922179E+03  0.00000000000E+00 0.  1.
          1    1    6    6  503    0 -0.19933767472E+03  0.44439480457E+02 -0.83387093648E+02  0.22059869304E+03  0.00000000000E+00 0. -1.
         -1    1    6    6    0  503 -0.30738211292E+02 -0.14189942259E+02  0.16171936152E+02  0.37519643038E+02  0.00000000000E+00 0.  1.
<mgrwt>
<rscale>  0 0.17372906E+04</rscale>
<asrwt>0</asrwt>
<pdfrwt beam="1">  1        1 0.16231233E+00 0.17372906E+04</pdfrwt>
<pdfrwt beam="2">  1       -2 0.11002889E+00 0.17372906E+04</pdfrwt>
<totfact> 0.74911776E+00</totfact>
</mgrwt>
</event>
<event>
12    5  0.5246737E-008  0.1277724E+04  0.7818608E-02  0.9047419E-01
          1   -1    0    0  501    0  0.00000000000E+00  0.00000000000E+00  0.16261472998E+03  0.16261472998E+03  0.00000000000E+00 0. -1.
         -2   -1    0    0    0  501 -0.00000000000E+00 -0.00000000000E+00 -0.25098881305E+04  0.25098881305E+04  0.00000000000E+00 0.  1.
        -24    2    1    2    0    0 -0.79542768823E+02  0.91451295223E+02 -0.12213757257E+04  0.12292846294E+04  0.68495585102E+02 0.  0.
        254    2    1    2    0    0  0.79542768823E+02 -0.91451295223E+02 -0.11258976748E+04  0.14432182311E+04  0.89473062816E+03 0.  0.
         23    2    4    4    0    0  0.84177955423E+02  0.27928903607E+03 -0.60494986212E+02  0.31165216525E+03  0.91537614672E+02 0.  0.
         23    2    4    4    0    0 -0.46351865998E+01 -0.37074033129E+03 -0.10654026886E+04  0.11315660658E+04  0.88820010867E+02 0.  0.
          3    1    3    3  502    0 -0.56102435189E+01  0.43641195508E+02 -0.24267969210E+03  0.24663629444E+03  0.00000000000E+00 0. -1.
         -4    1    3    3    0  502 -0.73932525305E+02  0.47810099715E+02 -0.97869603362E+03  0.98264833494E+03  0.00000000000E+00 0.  1.
         13    1    5    5    0    0  0.59050053162E+02  0.16467145651E+03 -0.80581353883E+02  0.19260569037E+03  0.00000000000E+00 0.  1.
        -13    1    5    5    0    0  0.25127902262E+02  0.11461757955E+03  0.20086367671E+02  0.11904647488E+03  0.00000000000E+00 0. -1.
          2    1    6    6  503    0 -0.36906732418E+02 -0.10004055897E+03 -0.35426346956E+03  0.36996327682E+03  0.00000000000E+00 0. -1.
         -2    1    6    6    0  503  0.32271545818E+02 -0.27069977232E+03 -0.71113921901E+03  0.76160278900E+03  0.00000000000E+00 0.  1.
<mgrwt>
<rscale>  0 0.12777242E+04</rscale>
<asrwt>0</asrwt>
<pdfrwt beam="1">  1        1 0.25017653E-01 0.12777242E+04</pdfrwt>
<pdfrwt beam="2">  1       -2 0.38613660E+00 0.12777242E+04</pdfrwt>
<totfact> 0.15521349E+00</totfact>
</mgrwt>
</event>
<event>
12    5  0.5246737E-008  0.3132674E+04  0.7818608E-02  0.8206828E-01
         -2   -1    0    0    0  501 -0.00000000000E+00  0.00000000000E+00  0.14836121922E+04  0.14836121922E+04  0.00000000000E+00 0.  1.
          1   -1    0    0  501    0  0.00000000000E+00 -0.00000000000E+00 -0.16536744770E+04  0.16536744770E+04  0.00000000000E+00 0. -1.
        -24    2    1    2    0    0  0.13251238550E+04 -0.24224064782E+03 -0.56557767862E+03  0.14641575498E+04  0.96153301973E+02 0.  0.
        254    2    1    2    0    0 -0.13251238550E+04  0.24224064782E+03  0.39551539390E+03  0.16731291194E+04  0.91010706007E+03 0.  0.
         23    2    4    4    0    0 -0.85703858406E+03 -0.22596769662E+03  0.45766269620E+03  0.10017202969E+04  0.91716275286E+02 0.  0.
         23    2    4    4    0    0 -0.46808527096E+03  0.46820834444E+03 -0.62147302299E+02  0.67140882255E+03  0.92761226373E+02 0.  0.
          1    1    3    3  502    0  0.12710471816E+03 -0.28450949903E+00 -0.71722465815E+02  0.14594451832E+03  0.00000000000E+00 0. -1.
         -2    1    3    3    0  502  0.11980191368E+04 -0.24195613832E+03 -0.49385521281E+03  0.13182130315E+04  0.00000000000E+00 0.  1.
         13    1    5    5    0    0 -0.17278086524E+01  0.38734200881E+01  0.65302856419E+01  0.77867410694E+01  0.00000000000E+00 0. -1.
        -13    1    5    5    0    0 -0.85531077540E+03 -0.22984111671E+03  0.45113241056E+03  0.99393355578E+03  0.00000000000E+00 0.  1.
          3    1    6    6  503    0 -0.20478874417E+03  0.15818086860E+03 -0.55283654832E+02  0.26460517648E+03  0.00000000000E+00 0. -1.
         -3    1    6    6    0  503 -0.26329652679E+03  0.31002747584E+03 -0.68636474668E+01  0.40680364606E+03  0.00000000000E+00 0.  1.
<mgrwt>
<rscale>  0 0.31326740E+04</rscale>
<asrwt>0</asrwt>
<pdfrwt beam="1">  1        1 0.25441146E+00 0.31326740E+04</pdfrwt>
<pdfrwt beam="2">  1       -2 0.22824803E+00 0.31326740E+04</pdfrwt>
<totfact> 0.33236409E-01</totfact>
</mgrwt>
</event>
<event>
12    5  0.5246737E-008  0.2030344E+04  0.7818608E-02  0.8592564E-01
          1   -1    0    0  501    0  0.00000000000E+00  0.00000000000E+00  0.11339008961E+04  0.11339008961E+04  0.00000000000E+00 0. -1.
         -2   -1    0    0    0  501 -0.00000000000E+00 -0.00000000000E+00 -0.90887465125E+03  0.90887465125E+03  0.00000000000E+00 0.  1.
        -24    2    1    2    0    0  0.11746213162E+03  0.65064998351E+03  0.56824903796E+03  0.87534510868E+03  0.78608757372E+02 0.  0.
        254    2    1    2    0    0 -0.11746213162E+03 -0.65064998351E+03 -0.34322279307E+03  0.11674304387E+04  0.89885993912E+03 0.  0.
         23    2    4    4    0    0  0.33717533885E+03 -0.29722630321E+03  0.52771413195E+02  0.46230153406E+03  0.94377973567E+02 0.  0.
         23    2    4    4    0    0 -0.45463747047E+03 -0.35342368029E+03 -0.39599420627E+03  0.70512890465E+03  0.93764777140E+02 0.  0.
          3    1    3    3  502    0  0.12034069871E+03  0.51137289341E+03  0.46974660044E+03  0.70473114626E+03  0.00000000000E+00 0. -1.
         -4    1    3    3    0  502 -0.28785670888E+01  0.13927709009E+03  0.98502437521E+02  0.17061396241E+03  0.00000000000E+00 0.  1.
         13    1    5    5    0    0  0.96013626096E+02 -0.11549238723E+03 -0.20461894930E+02  0.15157769311E+03  0.00000000000E+00 0.  1.
        -13    1    5    5    0    0  0.24116171275E+03 -0.18173391598E+03  0.73233308126E+02  0.31072384095E+03  0.00000000000E+00 0. -1.
          2    1    6    6  503    0 -0.12567534242E+03 -0.13195167798E+03 -0.84550720462E+02  0.20088394994E+03  0.00000000000E+00 0.  1.
         -2    1    6    6    0  503 -0.32896212805E+03 -0.22147200232E+03 -0.31144348581E+03  0.50424495472E+03  0.00000000000E+00 0. -1.
<mgrwt>
<rscale>  0 0.20303436E+04</rscale>
<asrwt>0</asrwt>
<pdfrwt beam="1">  1        1 0.17444629E+00 0.20303436E+04</pdfrwt>
<pdfrwt beam="2">  1       -2 0.13982687E+00 0.20303436E+04</pdfrwt>
<totfact> 0.34962085E+00</totfact>
</mgrwt>
</event>
<event>
12    5  0.5246737E-008  0.2007152E+04  0.7818608E-02  0.8603284E-01
         -2   -1    0    0    0  501 -0.00000000000E+00  0.00000000000E+00  0.16886638273E+04  0.16886638273E+04  0.00000000000E+00 0.  1.
          1   -1    0    0  501    0  0.00000000000E+00 -0.00000000000E+00 -0.59642683482E+03  0.59642683482E+03  0.00000000000E+00 0. -1.
        -24    2    1    2    0    0 -0.71687789118E+02 -0.27071321818E+03  0.12620486376E+04  0.12951046147E+04  0.78130746606E+02 0.  0.
        254    2    1    2    0    0  0.71687789118E+02  0.27071321818E+03 -0.16981164516E+03  0.98998604745E+03  0.93424386202E+03 0.  0.
         23    2    4    4    0    0  0.47940373895E+03  0.80362171971E+02  0.15284138647E+02  0.49497580610E+03  0.92094625950E+02 0.  0.
         23    2    4    4    0    0 -0.40771594983E+03  0.19035104621E+03 -0.18509578381E+03  0.49501024135E+03  0.91153021468E+02 0.  0.
          3    1    3    3  502    0 -0.11806760533E+02  0.16029010061E+01  0.52634879561E+02  0.53966651113E+02  0.00000000000E+00 0. -1.
         -4    1    3    3    0  502 -0.59881028584E+02 -0.27231611919E+03  0.12094137581E+04  0.12411379636E+04  0.00000000000E+00 0.  1.
         13    1    5    5    0    0  0.30044358766E+02  0.24207830989E+02  0.16890387685E+02  0.42118496780E+02  0.00000000000E+00 0.  1.
        -13    1    5    5    0    0  0.44935938018E+03  0.56154340982E+02 -0.16062490378E+01  0.45285730932E+03  0.00000000000E+00 0. -1.
          1    1    6    6  503    0 -0.30593403248E+03  0.98354777557E+02 -0.11853092318E+03  0.34251842906E+03  0.00000000000E+00 0. -1.
         -1    1    6    6    0  503 -0.10178191735E+03  0.91996268654E+02 -0.66564860628E+02  0.15249181229E+03  0.00000000000E+00 0.  1.
<mgrwt>
<rscale>  0 0.20071516E+04</rscale>
<asrwt>0</asrwt>
<pdfrwt beam="1">  1        1 0.91757975E-01 0.20071516E+04</pdfrwt>
<pdfrwt beam="2">  1       -2 0.25979443E+00 0.20071516E+04</pdfrwt>
<totfact> 0.15692741E+00</totfact>
</mgrwt>
</event>
<event>
12    5  0.5246737E-008  0.1132374E+04  0.7818608E-02  0.9174200E-01
          1   -1    0    0  501    0  0.00000000000E+00  0.00000000000E+00  0.25145147295E+04  0.25145147295E+04  0.00000000000E+00 0. -1.
         -2   -1    0    0    0  501 -0.00000000000E+00 -0.00000000000E+00 -0.12748700727E+03  0.12748700727E+03  0.00000000000E+00 0.  1.
        -24    2    1    2    0    0 -0.28061391842E+02  0.12867788916E+03  0.83160117788E+03  0.84571521873E+03  0.79550432211E+02 0.  0.
        254    2    1    2    0    0  0.28061391842E+02 -0.12867788916E+03  0.15554265443E+04  0.17962865180E+04  0.88879023349E+03 0.  0.
         23    2    4    4    0    0 -0.42672315942E+02 -0.26489207595E+03  0.15923062050E+04  0.16173941199E+04  0.92390205906E+02 0.  0.
         23    2    4    4    0    0  0.70733707784E+02  0.13621418679E+03 -0.36879660648E+02  0.17889239815E+03  0.84171364756E+02 0.  0.
          1    1    3    3  502    0 -0.40521033152E+02  0.11325544888E+03  0.79536809645E+03  0.80441230702E+03  0.00000000000E+00 0. -1.
         -2    1    3    3    0  502  0.12459641310E+02  0.15422440286E+02  0.36233081428E+02  0.41302911710E+02  0.00000000000E+00 0.  1.
         13    1    5    5    0    0  0.27656804611E+02 -0.61131307614E+02  0.44231948111E+03  0.44737954689E+03  0.00000000000E+00 0. -1.
        -13    1    5    5    0    0 -0.70329120553E+02 -0.20376076834E+03  0.11499867239E+04  0.11700145730E+04  0.00000000000E+00 0.  1.
          2    1    6    6  503    0  0.71476414782E+02  0.14331442370E+03 -0.46637257034E+02  0.16680208528E+03  0.00000000000E+00 0.  1.
         -2    1    6    6    0  503 -0.74270699752E+00 -0.71002369115E+01  0.97575963861E+01  0.12090312863E+02  0.00000000000E+00 0. -1.
<mgrwt>
<rscale>  0 0.11323744E+04</rscale>
<asrwt>0</asrwt>
<pdfrwt beam="1">  1        1 0.38684838E+00 0.11323744E+04</pdfrwt>
<pdfrwt beam="2">  1       -2 0.19613388E-01 0.11323744E+04</pdfrwt>
<totfact> 0.25769636E+01</totfact>
</mgrwt>
</event>
<event>
12    5  0.5246737E-008  0.2411295E+04  0.7818608E-02  0.8435287E-01
         -2   -1    0    0    0  501 -0.00000000000E+00  0.00000000000E+00  0.32914615791E+04  0.32914615791E+04  0.00000000000E+00 0.  1.
          1   -1    0    0  501    0  0.00000000000E+00 -0.00000000000E+00 -0.44162311130E+03  0.44162311130E+03  0.00000000000E+00 0. -1.
        -24    2    1    2    0    0 -0.86982404822E+03  0.50758396103E+03  0.16294281341E+04  0.19172412867E+04  0.80887296559E+02 0.  0.
        254    2    1    2    0    0  0.86982404822E+03 -0.50758396103E+03  0.12204103337E+04  0.18158434037E+04  0.89087065950E+03 0.  0.
         23    2    4    4    0    0  0.35018856692E+03 -0.69357135180E+03  0.65095822965E+03  0.10176913556E+04  0.90971567174E+02 0.  0.
         23    2    4    4    0    0  0.51963548130E+03  0.18598739077E+03  0.56945210403E+03  0.79815204815E+03  0.90325246923E+02 0.  0.
          1    1    3    3  502    0 -0.39557213721E+03  0.23232322056E+03  0.66629147403E+03  0.80894729304E+03  0.00000000000E+00 0. -1.
         -2    1    3    3    0  502 -0.47425191101E+03  0.27526074046E+03  0.96313666009E+03  0.11082939936E+04  0.00000000000E+00 0.  1.
         13    1    5    5    0    0  0.34821374062E+03 -0.69652266776E+03  0.64826467391E+03  0.10132342885E+04  0.00000000000E+00 0.  1.
        -13    1    5    5    0    0  0.19748262987E+01  0.29513159625E+01  0.26935557469E+01  0.44570671279E+01  0.00000000000E+00 0. -1.
          2    1    6    6  503    0  0.43266523864E+03  0.17886607329E+03  0.51141810479E+03  0.69335471356E+03  0.00000000000E+00 0.  1.
         -2    1    6    6    0  503  0.86970242656E+02  0.71213174852E+01  0.58033999240E+02  0.10479733459E+03  0.00000000000E+00 0. -1.
<mgrwt>
<rscale>  0 0.24112947E+04</rscale>
<asrwt>0</asrwt>
<pdfrwt beam="1">  1        1 0.67942019E-01 0.24112947E+04</pdfrwt>
<pdfrwt beam="2">  1       -2 0.50637869E+00 0.24112947E+04</pdfrwt>
<totfact> 0.61765452E-02</totfact>
</mgrwt>
</event>
<event>
12    5  0.5246737E-008  0.1696627E+04  0.7818608E-02  0.8763290E-01
          1   -1    0    0  501    0  0.00000000000E+00  0.00000000000E+00  0.17615885822E+04  0.17615885822E+04  0.00000000000E+00 0. -1.
         -2   -1    0    0    0  501 -0.00000000000E+00 -0.00000000000E+00 -0.40851538611E+03  0.40851538611E+03  0.00000000000E+00 0.  1.
        -24    2    1    2    0    0 -0.13193025828E+03  0.72380589287E+02  0.12476441956E+04  0.12592157985E+04  0.79773715151E+02 0.  0.
        254    2    1    2    0    0  0.13193025828E+03 -0.72380589287E+02  0.10542900045E+03  0.91088816977E+03  0.89216446967E+03 0.  0.
         23    2    4    4    0    0  0.27544565283E+03 -0.40803706913E+03  0.17196043579E+03  0.52827217460E+03  0.84478053561E+02 0.  0.
         23    2    4    4    0    0 -0.14351539455E+03  0.33565647984E+03 -0.66531435339E+02  0.38261599517E+03  0.93309307880E+02 0.  0.
          1    1    3    3  502    0 -0.31087294622E+02  0.23188908640E+01  0.54739886202E+03  0.54828579343E+03  0.00000000000E+00 0. -1.
         -2    1    3    3    0  502 -0.10084296366E+03  0.70061698423E+02  0.70024533359E+03  0.71093000508E+03  0.00000000000E+00 0.  1.
         13    1    5    5    0    0  0.23801299522E+02 -0.26231517757E+02  0.37622999859E+02  0.51672860393E+02  0.00000000000E+00 0. -1.
        -13    1    5    5    0    0  0.25164435331E+03 -0.38180555137E+03  0.13433743593E+03  0.47659931421E+03  0.00000000000E+00 0.  1.
          1    1    6    6  503    0 -0.10887214535E+03  0.15922002871E+03 -0.62862886553E+01  0.19298621453E+03  0.00000000000E+00 0. -1.
         -1    1    6    6    0  503 -0.34643249198E+02  0.17643645114E+03 -0.60245146684E+02  0.18962978064E+03  0.00000000000E+00 0.  1.
<mgrwt>
<rscale>  0 0.16966273E+04</rscale>
<asrwt>0</asrwt>
<pdfrwt beam="1">  1        1 0.27101362E+00 0.16966273E+04</pdfrwt>
<pdfrwt beam="2">  1       -2 0.62848522E-01 0.16966273E+04</pdfrwt>
<totfact> 0.84839172E+00</totfact>
</mgrwt>
</event>
<event>
12    5  0.5246737E-008  0.1742819E+04  0.7818608E-02  0.8737313E-01
         -4   -1    0    0    0  501 -0.00000000000E+00  0.00000000000E+00  0.11806034698E+04  0.11806034698E+04  0.00000000000E+00 0.  1.
          3   -1    0    0  501    0  0.00000000000E+00 -0.00000000000E+00 -0.64319187873E+03  0.64319187873E+03  0.00000000000E+00 0. -1.
        -24    2    1    2    0    0 -0.16036239503E+01 -0.44967393675E+03  0.65893902968E+03  0.80147670591E+03  0.77168933451E+02 0.  0.
        254    2    1    2    0    0  0.16036239503E+01  0.44967393675E+03 -0.12152743859E+03  0.10223186426E+04  0.91003146526E+03 0.  0.
         23    2    4    4    0    0 -0.40353044819E+03  0.15812157872E+03  0.12291438738E+03  0.45962373047E+03  0.91141487313E+02 0.  0.
         23    2    4    4    0    0  0.40513407214E+03  0.29155235803E+03 -0.24444182597E+03  0.56269491217E+03  0.87962287502E+02 0.  0.
          1    1    3    3  502    0  0.31596684288E+02 -0.14458625008E+03  0.24408821107E+03  0.28545155272E+03  0.00000000000E+00 0. -1.
         -2    1    3    3    0  502 -0.33200308239E+02 -0.30508768667E+03  0.41485081861E+03  0.51602515319E+03  0.00000000000E+00 0.  1.
         13    1    5    5    0    0 -0.20564793416E+03  0.32277414469E+02  0.50745135701E+02  0.21426145968E+03  0.00000000000E+00 0. -1.
        -13    1    5    5    0    0 -0.19788251403E+03  0.12584416426E+03  0.72169251681E+02  0.24536227079E+03  0.00000000000E+00 0.  1.
          4    1    6    6  503    0  0.39105344912E+03  0.28156407442E+03 -0.21305040377E+03  0.52686962583E+03  0.00000000000E+00 0. -1.
         -4    1    6    6    0  503  0.14080623020E+02  0.99882836048E+01 -0.31391422199E+02  0.35825286345E+02  0.00000000000E+00 0.  1.
<mgrwt>
<rscale>  0 0.17428191E+04</rscale>
<asrwt>0</asrwt>
<pdfrwt beam="1">  1        3 0.98952597E-01 0.17428191E+04</pdfrwt>
<pdfrwt beam="2">  1       -4 0.18163130E+00 0.17428191E+04</pdfrwt>
<totfact> 0.34058989E-01</totfact>
</mgrwt>
</event>
<event>
12    5  0.5246737E-008  0.2288935E+04  0.7818608E-02  0.8482297E-01
         -4   -1    0    0    0  501 -0.00000000000E+00  0.00000000000E+00  0.95873703952E+03  0.95873703952E+03  0.00000000000E+00 0.  1.
          1   -1    0    0  501    0  0.00000000000E+00 -0.00000000000E+00 -0.13661781030E+04  0.13661781030E+04  0.00000000000E+00 0. -1.
        -24    2    1    2    0    0  0.66925632436E+03 -0.63609580764E+03 -0.47916296993E+03  0.10430327478E+04  0.76146287060E+02 0.  0.
        254    2    1    2    0    0 -0.66925632436E+03  0.63609580764E+03  0.71721906482E+02  0.12818823947E+04  0.88631627412E+03 0.  0.
         23    2    4    4    0    0 -0.11089974553E+02  0.52515418952E+03  0.24500585949E+03  0.58635895211E+03  0.88763952355E+02 0.  0.
         23    2    4    4    0    0 -0.65816634981E+03  0.11094161813E+03 -0.17328395301E+03  0.69552344258E+03  0.90744389130E+02 0.  0.
          3    1    3    3  502    0  0.49504898329E+03 -0.50049076293E+03 -0.39146700224E+03  0.80548799711E+03  0.00000000000E+00 0. -1.
         -4    1    3    3    0  502  0.17420734107E+03 -0.13560504471E+03 -0.87695967688E+02  0.23754475069E+03  0.00000000000E+00 0.  1.
         13    1    5    5    0    0 -0.19137103783E+00  0.31452244999E+03  0.19339170187E+03  0.36922182834E+03  0.00000000000E+00 0.  1.
        -13    1    5    5    0    0 -0.10898603515E+02  0.21063173952E+03  0.51614157624E+02  0.21713712377E+03  0.00000000000E+00 0. -1.
          4    1    6    6  503    0 -0.78434913429E+02 -0.60047027456E+01  0.19849119776E+01  0.78689465466E+02  0.00000000000E+00 0. -1.
         -4    1    6    6    0  503 -0.57973143638E+03  0.11694632087E+03 -0.17526886499E+03  0.61683397711E+03  0.00000000000E+00 0.  1.
<mgrwt>
<rscale>  0 0.22889347E+04</rscale>
<asrwt>0</asrwt>
<pdfrwt beam="1">  1        1 0.21018125E+00 0.22889347E+04</pdfrwt>
<pdfrwt beam="2">  1       -4 0.14749801E+00 0.22889347E+04</pdfrwt>
<totfact> 0.11141793E+00</totfact>
</mgrwt>
</event>
<event>
12    5  0.5246737E-008  0.1973024E+04  0.7818608E-02  0.8619338E-01
          3   -1    0    0  501    0  0.00000000000E+00  0.00000000000E+00  0.53043298645E+03  0.53043298645E+03  0.00000000000E+00 0. -1.
         -4   -1    0    0    0  501 -0.00000000000E+00 -0.00000000000E+00 -0.18347378574E+04  0.18347378574E+04  0.00000000000E+00 0.  1.
        -24    2    1    2    0    0 -0.18998496945E+03  0.40011656376E+03  0.24865456019E+03  0.51400987528E+03  0.78673428624E+02 0.  0.
        254    2    1    2    0    0  0.18998496945E+03 -0.40011656376E+03 -0.15529594311E+04  0.18511609686E+04  0.90494551416E+03 0.  0.
         23    2    4    4    0    0  0.18977744874E+03 -0.24277528478E+03 -0.32486807680E+02  0.32025602399E+03  0.80951894830E+02 0.  0.
         23    2    4    4    0    0  0.20752070452E+00 -0.15734127898E+03 -0.15204726234E+04  0.15309049446E+04  0.84122705280E+02 0.  0.
          1    1    3    3  502    0 -0.14876381124E+03  0.31187466733E+03  0.22933239168E+03  0.41471656048E+03  0.00000000000E+00 0. -1.
         -2    1    3    3    0  502 -0.41221158204E+02  0.88241896426E+02  0.19322168508E+02  0.99293314802E+02  0.00000000000E+00 0.  1.
         13    1    5    5    0    0  0.18529965899E+03 -0.23391776197E+03 -0.13371583498E+02  0.29871773002E+03  0.00000000000E+00 0. -1.
        -13    1    5    5    0    0  0.44777897555E+01 -0.88575228143E+01 -0.19115224182E+02  0.21538293968E+02  0.00000000000E+00 0.  1.
          1    1    6    6  503    0 -0.20254396005E+01 -0.15414529780E+03 -0.15188966811E+04  0.15266997095E+04  0.00000000000E+00 0. -1.
         -1    1    6    6    0  503  0.22329603050E+01 -0.31959811808E+01 -0.15759423386E+01  0.42052350335E+01  0.00000000000E+00 0.  1.
<mgrwt>
<rscale>  0 0.19730235E+04</rscale>
<asrwt>0</asrwt>
<pdfrwt beam="1">  1        3 0.81605076E-01 0.19730235E+04</pdfrwt>
<pdfrwt beam="2">  1       -4 0.28226736E+00 0.19730235E+04</pdfrwt>
<totfact> 0.11799060E-01</totfact>
</mgrwt>
</event>
<event>
12    5  0.5246737E-008  0.1814130E+04  0.7818608E-02  0.8698821E-01
         -2   -1    0    0    0  501 -0.00000000000E+00  0.00000000000E+00  0.45268464769E+03  0.45268464769E+03  0.00000000000E+00 0.  1.
          1   -1    0    0  501    0  0.00000000000E+00 -0.00000000000E+00 -0.18175286144E+04  0.18175286144E+04  0.00000000000E+00 0. -1.
        -24    2    1    2    0    0 -0.32866919089E+03  0.56569740433E+03 -0.78593453918E+03  0.10256912161E+04  0.79450491179E+02 0.  0.
        254    2    1    2    0    0  0.32866919089E+03 -0.56569740433E+03 -0.57890942751E+03  0.12445220460E+04  0.88637577101E+03 0.  0.
         23    2    4    4    0    0  0.12548496595E+02 -0.63148680280E+03 -0.80271069175E+02  0.64324794765E+03  0.91604752746E+02 0.  0.
         23    2    4    4    0    0  0.31612069429E+03  0.65789398475E+02 -0.49863835834E+03  0.60127409836E+03  0.92896666488E+02 0.  0.
          3    1    3    3  502    0 -0.30932329450E+03  0.51413024613E+03 -0.74753116120E+03  0.95854767616E+03  0.00000000000E+00 0. -1.
         -4    1    3    3    0  502 -0.19345896385E+02  0.51567158199E+02 -0.38403377981E+02  0.67143539913E+02  0.00000000000E+00 0.  1.
         13    1    5    5    0    0  0.21913357431E+02 -0.59835005774E+03 -0.56512131214E+02  0.60141217796E+03  0.00000000000E+00 0.  1.
        -13    1    5    5    0    0 -0.93648608358E+01 -0.33136745064E+02 -0.23758937962E+02  0.41835769683E+02  0.00000000000E+00 0. -1.
          4    1    6    6  503    0  0.65951844220E+02  0.39199003206E+02 -0.67922723730E+02  0.10246806335E+03  0.00000000000E+00 0. -1.
         -4    1    6    6    0  503  0.25016885007E+03  0.26590395269E+02 -0.43071563461E+03  0.49880603501E+03  0.00000000000E+00 0.  1.
<mgrwt>
<rscale>  0 0.18141304E+04</rscale>
<asrwt>0</asrwt>
<pdfrwt beam="1">  1        1 0.27961978E+00 0.18141304E+04</pdfrwt>
<pdfrwt beam="2">  1       -2 0.69643792E-01 0.18141304E+04</pdfrwt>
<totfact> 0.61650076E+00</totfact>
</mgrwt>
</event>
<event>
12    5  0.5246737E-008  0.1659366E+04  0.7818608E-02  0.8784885E-01
          1   -1    0    0  501    0  0.00000000000E+00  0.00000000000E+00  0.14657978804E+04  0.14657978804E+04  0.00000000000E+00 0. -1.
         -2   -1    0    0    0  501 -0.00000000000E+00 -0.00000000000E+00 -0.46962408894E+03  0.46962408894E+03  0.00000000000E+00 0.  1.
        -24    2    1    2    0    0  0.49586229436E+02  0.47970338642E+03 -0.27417497669E+02  0.48953847310E+03  0.79511410321E+02 0.  0.
        254    2    1    2    0    0 -0.49586229436E+02 -0.47970338642E+03  0.10235912891E+04  0.14458834963E+04  0.90014766814E+03 0.  0.
         23    2    4    4    0    0  0.32408756295E+03  0.74695500070E+02  0.36288829282E+03  0.50096531717E+03  0.93092264691E+02 0.  0.
         23    2    4    4    0    0 -0.37367379239E+03 -0.55439888649E+03  0.66070299632E+03  0.94491817910E+03  0.96704122851E+02 0.  0.
          3    1    3    3  502    0  0.11410388763E+02  0.17412086806E+02  0.11953934354E+02  0.24005713595E+02  0.00000000000E+00 0. -1.
         -4    1    3    3    0  502  0.38175840672E+02  0.46229129961E+03 -0.39371432022E+02  0.46553275950E+03  0.00000000000E+00 0.  1.
         13    1    5    5    0    0  0.15756343643E+03  0.73480697959E+02  0.14285066766E+03  0.22501547219E+03  0.00000000000E+00 0.  1.
        -13    1    5    5    0    0  0.16652412653E+03  0.12148021104E+01  0.22003762516E+03  0.27594984498E+03  0.00000000000E+00 0. -1.
          2    1    6    6  503    0 -0.13576538434E+03 -0.21633697446E+03  0.18915256832E+03  0.31782482628E+03  0.00000000000E+00 0. -1.
         -2    1    6    6    0  503 -0.23790840805E+03 -0.33806191204E+03  0.47155042800E+03  0.62709335281E+03  0.00000000000E+00 0.  1.
<mgrwt>
<rscale>  0 0.16593661E+04</rscale>
<asrwt>0</asrwt>
<pdfrwt beam="1">  1        1 0.22550736E+00 0.16593661E+04</pdfrwt>
<pdfrwt beam="2">  1       -2 0.72249860E-01 0.16593661E+04</pdfrwt>
<totfact> 0.10040211E+01</totfact>
</mgrwt>
</event>
<event>
12    5  0.5246737E-008  0.1500521E+04  0.7818608E-02  0.8884106E-01
         -2   -1    0    0    0  501 -0.00000000000E+00  0.00000000000E+00  0.34400112797E+03  0.34400112797E+03  0.00000000000E+00 0.  1.
          1   -1    0    0  501    0  0.00000000000E+00 -0.00000000000E+00 -0.16363056412E+04  0.16363056412E+04  0.00000000000E+00 0. -1.
        -24    2    1    2    0    0 -0.11222017437E+03  0.77267894250E+02  0.19164694000E+03  0.24885596874E+03  0.81468082991E+02 0.  0.
        254    2    1    2    0    0  0.11222017437E+03 -0.77267894250E+02 -0.14839514532E+04  0.17314508004E+04  0.88161571206E+03 0.  0.
         23    2    4    4    0    0  0.23807688716E+03  0.14796067587E+03 -0.14199616005E+04  0.14502389422E+04  0.91263775738E+02 0.  0.
         23    2    4    4    0    0 -0.12585671279E+03 -0.22522857013E+03 -0.63989852747E+02  0.28121185826E+03  0.91747408765E+02 0.  0.
          1    1    3    3  502    0 -0.62438353745E+02  0.95127737515E+01  0.37999724089E+02  0.73709021929E+02  0.00000000000E+00 0. -1.
         -2    1    3    3    0  502 -0.49781820629E+02  0.67755120499E+02  0.15364721591E+03  0.17514694681E+03  0.00000000000E+00 0.  1.
         13    1    5    5    0    0  0.10283352768E+03  0.48329272971E+02 -0.37414739712E+03  0.39102011177E+03  0.00000000000E+00 0. -1.
        -13    1    5    5    0    0  0.13524335948E+03  0.99631402904E+02 -0.10458142034E+04  0.10592188304E+04  0.00000000000E+00 0.  1.
          1    1    6    6  503    0 -0.50130416976E+02 -0.66235004838E+02 -0.64396792553E+02  0.10510509723E+03  0.00000000000E+00 0. -1.
         -1    1    6    6    0  503 -0.75726295809E+02 -0.15899356529E+03  0.40693980620E+00  0.17610676103E+03  0.00000000000E+00 0.  1.
<mgrwt>
<rscale>  0 0.15005212E+04</rscale>
<asrwt>0</asrwt>
<pdfrwt beam="1">  1        1 0.25173933E+00 0.15005212E+04</pdfrwt>
<pdfrwt beam="2">  1       -2 0.52923251E-01 0.15005212E+04</pdfrwt>
<totfact> 0.15062398E+01</totfact>
</mgrwt>
</event>
<event>
12    5  0.5246737E-008  0.2083854E+04  0.7818608E-02  0.8568389E-01
          1   -1    0    0  501    0  0.00000000000E+00  0.00000000000E+00  0.17062037287E+04  0.17062037287E+04  0.00000000000E+00 0. -1.
         -2   -1    0    0    0  501 -0.00000000000E+00 -0.00000000000E+00 -0.63627311152E+03  0.63627311152E+03  0.00000000000E+00 0.  1.
        -24    2    1    2    0    0 -0.34532115708E+03  0.32100794006E+03 -0.35754915287E+03  0.59714488826E+03  0.80298329688E+02 0.  0.
        254    2    1    2    0    0  0.34532115708E+03 -0.32100794006E+03  0.14274797701E+04  0.17453319520E+04  0.88667487251E+03 0.  0.
         23    2    4    4    0    0 -0.21431347666E+03 -0.29661403979E+03  0.87669317862E+03  0.95442510879E+03  0.91794357002E+02 0.  0.
         23    2    4    4    0    0  0.55963463374E+03 -0.24393900269E+02  0.55078659147E+03  0.79090684320E+03  0.91552059717E+02 0.  0.
          3    1    3    3  502    0 -0.39780727595E+02  0.44160028015E+02 -0.81840778504E+02  0.10114606957E+03  0.00000000000E+00 0. -1.
         -4    1    3    3    0  502 -0.30554042949E+03  0.27684791204E+03 -0.27570837437E+03  0.49599881870E+03  0.00000000000E+00 0.  1.
         13    1    5    5    0    0 -0.80893505035E+02 -0.11933242891E+03  0.46383604669E+03  0.48572406360E+03  0.00000000000E+00 0.  1.
        -13    1    5    5    0    0 -0.13341997162E+03 -0.17728161088E+03  0.41285713193E+03  0.46870104519E+03  0.00000000000E+00 0. -1.
          3    1    6    6  503    0  0.43120794132E+03  0.72785560125E+01  0.45953110268E+03  0.63020798183E+03  0.00000000000E+00 0. -1.
         -3    1    6    6    0  503  0.12842669242E+03 -0.31672456281E+02  0.91255488785E+02  0.16069886137E+03  0.00000000000E+00 0.  1.
<mgrwt>
<rscale>  0 0.20838537E+04</rscale>
<asrwt>0</asrwt>
<pdfrwt beam="1">  1        1 0.26249288E+00 0.20838537E+04</pdfrwt>
<pdfrwt beam="2">  1       -2 0.97888172E-01 0.20838537E+04</pdfrwt>
<totfact> 0.33155584E+00</totfact>
</mgrwt>
</event>
<event>
12    5  0.5246737E-008  0.2122595E+04  0.7818608E-02  0.8551355E-01
         -2   -1    0    0    0  501 -0.00000000000E+00  0.00000000000E+00  0.13109380456E+04  0.13109380456E+04  0.00000000000E+00 0.  1.
          1   -1    0    0  501    0  0.00000000000E+00 -0.00000000000E+00 -0.85919564638E+03  0.85919564638E+03  0.00000000000E+00 0. -1.
        -24    2    1    2    0    0  0.18062588605E+03  0.84052419051E+03  0.61781954758E+02  0.86556900915E+03  0.79284766047E+02 0.  0.
        254    2    1    2    0    0 -0.18062588605E+03 -0.84052419051E+03  0.38996044449E+03  0.13045646828E+04  0.90039615610E+03 0.  0.
         23    2    4    4    0    0 -0.13484822699E+03 -0.12266725180E+03  0.52936411629E+03  0.56731245877E+03  0.91573791467E+02 0.  0.
         23    2    4    4    0    0 -0.45777659064E+02 -0.71785693871E+03 -0.13940367179E+03  0.73725222407E+03  0.81812466452E+02 0.  0.
          1    1    3    3  502    0  0.84408473633E+02  0.47894760126E+03  0.69869245800E+02  0.49132199898E+03  0.00000000000E+00 0. -1.
         -2    1    3    3    0  502  0.96217412416E+02  0.36157658925E+03 -0.80872910425E+01  0.37424701017E+03  0.00000000000E+00 0.  1.
         13    1    5    5    0    0 -0.13201697790E+03 -0.11110611898E+03  0.52782234794E+03  0.55531025843E+03  0.00000000000E+00 0. -1.
        -13    1    5    5    0    0 -0.28312490904E+01 -0.11561132820E+02  0.15417683421E+01  0.12002200345E+02  0.00000000000E+00 0.  1.
          1    1    6    6  503    0 -0.22416401589E+02 -0.45069806979E+03 -0.12700573582E+03  0.46878748075E+03  0.00000000000E+00 0. -1.
         -1    1    6    6    0  503 -0.23361257475E+02 -0.26715886892E+03 -0.12397935974E+02  0.26846474332E+03  0.00000000000E+00 0.  1.
<mgrwt>
<rscale>  0 0.21225949E+04</rscale>
<asrwt>0</asrwt>
<pdfrwt beam="1">  1        1 0.13218395E+00 0.21225949E+04</pdfrwt>
<pdfrwt beam="2">  1       -2 0.20168278E+00 0.21225949E+04</pdfrwt>
<totfact> 0.20513837E+00</totfact>
</mgrwt>
</event>
<event>
12    5  0.5246737E-008  0.2721950E+04  0.7818608E-02  0.8327918E-01
         -2   -1    0    0    0  501 -0.00000000000E+00  0.00000000000E+00  0.12489087339E+04  0.12489087339E+04  0.00000000000E+00 0.  1.
          1   -1    0    0  501    0  0.00000000000E+00 -0.00000000000E+00 -0.14830970635E+04  0.14830970635E+04  0.00000000000E+00 0. -1.
        -24    2    1    2    0    0  0.14929574639E+03 -0.11954763230E+04 -0.12539685025E+03  0.12138478616E+04  0.79053161680E+02 0.  0.
        254    2    1    2    0    0 -0.14929574639E+03  0.11954763230E+04 -0.10879147935E+03  0.15181579357E+04  0.91734130680E+03 0.  0.
         23    2    4    4    0    0  0.20508089640E+03  0.74171550773E+03  0.27295372623E+03  0.82181656994E+03  0.93159376896E+02 0.  0.
         23    2    4    4    0    0 -0.35437664279E+03  0.45376081525E+03 -0.38174520558E+03  0.69634136578E+03  0.87636826259E+02 0.  0.
          1    1    3    3  502    0  0.10804839090E+03 -0.81000900404E+03 -0.12145439236E+03  0.82615991843E+03  0.00000000000E+00 0. -1.
         -2    1    3    3    0  502  0.41247355483E+02 -0.38546731893E+03 -0.39424578919E+01  0.38768794316E+03  0.00000000000E+00 0.  1.
         13    1    5    5    0    0  0.16828251017E+03  0.43985515906E+03  0.17294233448E+03  0.50169773294E+03  0.00000000000E+00 0. -1.
        -13    1    5    5    0    0  0.36798386227E+02  0.30186034867E+03  0.10001139175E+03  0.32011883701E+03  0.00000000000E+00 0.  1.
          1    1    6    6  503    0 -0.28337458220E+03  0.39922638854E+03 -0.34804091228E+03  0.60067906553E+03  0.00000000000E+00 0. -1.
         -1    1    6    6    0  503 -0.71002060584E+02  0.54534426709E+02 -0.33704293293E+02  0.95662300254E+02  0.00000000000E+00 0.  1.
<mgrwt>
<rscale>  0 0.27219499E+04</rscale>
<asrwt>0</asrwt>
<pdfrwt beam="1">  1        1 0.22816878E+00 0.27219499E+04</pdfrwt>
<pdfrwt beam="2">  1       -2 0.19213981E+00 0.27219499E+04</pdfrwt>
<totfact> 0.77141870E-01</totfact>
</mgrwt>
</event>
<event>
12    5  0.5246737E-008  0.1469044E+04  0.7818608E-02  0.8905303E-01
          1   -1    0    0  501    0  0.00000000000E+00  0.00000000000E+00  0.17562478357E+04  0.17562478357E+04  0.00000000000E+00 0. -1.
         -2   -1    0    0    0  501 -0.00000000000E+00 -0.00000000000E+00 -0.30720177558E+03  0.30720177558E+03  0.00000000000E+00 0.  1.
        -24    2    1    2    0    0 -0.18600994816E+02  0.36586636292E+03  0.83987961691E+03  0.91966227089E+03  0.78592169271E+02 0.  0.
        254    2    1    2    0    0  0.18600994816E+02 -0.36586636292E+03  0.60916644319E+03  0.11437873404E+04  0.89608120836E+03 0.  0.
         23    2    4    4    0    0  0.30929876224E+03  0.49883622838E+02  0.52954900412E+03  0.62216088233E+03  0.92238362815E+02 0.  0.
         23    2    4    4    0    0 -0.29069776743E+03 -0.41574998576E+03  0.79617439063E+02  0.52162645805E+03  0.91662328635E+02 0.  0.
          3    1    3    3  502    0 -0.50885766239E+00  0.26668781225E+03  0.68257557926E+03  0.73282471952E+03  0.00000000000E+00 0. -1.
         -4    1    3    3    0  502 -0.18092137154E+02  0.99178550675E+02  0.15730403765E+03  0.18683755137E+03  0.00000000000E+00 0.  1.
         13    1    5    5    0    0  0.11910238006E+03  0.10917060168E+02  0.29081353736E+03  0.31444724939E+03  0.00000000000E+00 0.  1.
        -13    1    5    5    0    0  0.19019638219E+03  0.38966562670E+02  0.23873546677E+03  0.30771363294E+03  0.00000000000E+00 0. -1.
          4    1    6    6  503    0 -0.27831494675E+03 -0.37839468999E+03  0.95242760369E+02  0.47928377231E+03  0.00000000000E+00 0. -1.
         -4    1    6    6    0  503 -0.12382820677E+02 -0.37355295765E+02 -0.15625321306E+02  0.42342685739E+02  0.00000000000E+00 0.  1.
<mgrwt>
<rscale>  0 0.14690438E+04</rscale>
<asrwt>0</asrwt>
<pdfrwt beam="1">  1        1 0.27019197E+00 0.14690438E+04</pdfrwt>
<pdfrwt beam="2">  1       -2 0.47261813E-01 0.14690438E+04</pdfrwt>
<totfact> 0.15761179E+01</totfact>
</mgrwt>
</event>
<event>
12    5  0.5246737E-008  0.1102788E+04  0.7818608E-02  0.9202479E-01
          1   -1    0    0  501    0  0.00000000000E+00  0.00000000000E+00  0.43536336286E+03  0.43536336286E+03  0.00000000000E+00 0. -1.
         -2   -1    0    0    0  501 -0.00000000000E+00 -0.00000000000E+00 -0.69834838727E+03  0.69834838727E+03  0.00000000000E+00 0.  1.
        -24    2    1    2    0    0  0.13309586549E+03 -0.54654846565E+02  0.47655722905E+02  0.17203750926E+03  0.81389034913E+02 0.  0.
        254    2    1    2    0    0 -0.13309586549E+03  0.54654846565E+02 -0.31064074732E+03  0.96167424087E+03  0.89867569790E+03 0.  0.
         23    2    4    4    0    0  0.35930144019E+03 -0.10418519523E+03 -0.15661380149E+03  0.41547916127E+03  0.90238410918E+02 0.  0.
         23    2    4    4    0    0 -0.49239730568E+03  0.15884004179E+03 -0.15402694584E+03  0.54619507960E+03  0.83183528508E+02 0.  0.
          1    1    3    3  502    0  0.64738240772E+02 -0.60993556574E+02  0.52382776671E+02  0.10322407206E+03  0.00000000000E+00 0. -1.
         -2    1    3    3    0  502  0.68357624718E+02  0.63387100096E+01 -0.47270537657E+01  0.68813437198E+02  0.00000000000E+00 0.  1.
         13    1    5    5    0    0  0.24663938903E+03 -0.68950810285E+02 -0.15100948292E+03  0.29730298753E+03  0.00000000000E+00 0.  1.
        -13    1    5    5    0    0  0.11266205116E+03 -0.35234384943E+02 -0.56043185669E+01  0.11817617374E+03  0.00000000000E+00 0. -1.
          4    1    6    6  503    0 -0.38270573551E+03  0.10377234263E+03 -0.85557829584E+02  0.40565073806E+03  0.00000000000E+00 0.  1.
         -4    1    6    6    0  503 -0.10969157017E+03  0.55067699159E+02 -0.68469116252E+02  0.14054434154E+03  0.00000000000E+00 0. -1.
<mgrwt>
<rscale>  0 0.11027879E+04</rscale>
<asrwt>0</asrwt>
<pdfrwt beam="1">  1        1 0.66978979E-01 0.11027879E+04</pdfrwt>
<pdfrwt beam="2">  1       -2 0.10743821E+00 0.11027879E+04</pdfrwt>
<totfact> 0.32430590E+01</totfact>
</mgrwt>
</event>
<event>
12    5  0.5246737E-008  0.1118531E+04  0.7818608E-02  0.9187316E-01
          1   -1    0    0  501    0  0.00000000000E+00  0.00000000000E+00  0.34071797181E+03  0.34071797181E+03  0.00000000000E+00 0. -1.
         -2   -1    0    0    0  501 -0.00000000000E+00 -0.00000000000E+00 -0.91799648499E+03  0.91799648499E+03  0.00000000000E+00 0.  1.
        -24    2    1    2    0    0  0.46961598288E+02 -0.15324582417E+03 -0.20892237407E+03  0.27486035280E+03  0.78803431507E+02 0.  0.
        254    2    1    2    0    0 -0.46961598288E+02  0.15324582417E+03 -0.36835613911E+03  0.98385410399E+03  0.89810521565E+03 0.  0.
         23    2    4    4    0    0  0.34588968370E+03  0.23177967938E+03  0.82913099413E+01  0.42661451522E+03  0.92572705031E+02 0.  0.
         23    2    4    4    0    0 -0.39285128198E+03 -0.78533855206E+02 -0.37664744906E+03  0.55723958877E+03  0.90293755273E+02 0.  0.
          1    1    3    3  502    0  0.25436248983E+02 -0.25199218792E+02 -0.97614359848E+01  0.37111844774E+02  0.00000000000E+00 0. -1.
         -2    1    3    3    0  502  0.21525349305E+02 -0.12804660538E+03 -0.19916093808E+03  0.23774850803E+03  0.00000000000E+00 0.  1.
         13    1    5    5    0    0 -0.23257938646E+01  0.97841745194E+01 -0.87105124596E+01  0.13304601288E+02  0.00000000000E+00 0. -1.
        -13    1    5    5    0    0  0.34821547756E+03  0.22199550486E+03  0.17001822401E+02  0.41330991393E+03  0.00000000000E+00 0.  1.
          2    1    6    6  503    0 -0.28750887193E+03 -0.75706268737E+02 -0.22629234877E+03  0.37363219572E+03  0.00000000000E+00 0.  1.
         -2    1    6    6    0  503 -0.10534241005E+03 -0.28275864693E+01 -0.15035510029E+03  0.18360739305E+03  0.00000000000E+00 0. -1.
<mgrwt>
<rscale>  0 0.11185310E+04</rscale>
<asrwt>0</asrwt>
<pdfrwt beam="1">  1        1 0.52418149E-01 0.11185310E+04</pdfrwt>
<pdfrwt beam="2">  1       -2 0.14123023E+00 0.11185310E+04</pdfrwt>
<totfact> 0.22614172E+01</totfact>
</mgrwt>
</event>
<event>
12    5  0.5246737E-008  0.1260540E+04  0.7818608E-02  0.9061456E-01
         -2   -1    0    0    0  501 -0.00000000000E+00  0.00000000000E+00  0.45106200503E+03  0.45106200503E+03  0.00000000000E+00 0.  1.
          1   -1    0    0  501    0  0.00000000000E+00 -0.00000000000E+00 -0.88067835492E+03  0.88067835492E+03  0.00000000000E+00 0. -1.
        -24    2    1    2    0    0  0.13107240927E+03  0.19934211620E+03 -0.28679382516E+03  0.38124589493E+03  0.78616019265E+02 0.  0.
        254    2    1    2    0    0 -0.13107240927E+03 -0.19934211620E+03 -0.14282252473E+03  0.95049446503E+03  0.90891374657E+03 0.  0.
         23    2    4    4    0    0  0.37731916979E+03 -0.13829977322E+03  0.27554832740E-01  0.41140524647E+03  0.88077766186E+02 0.  0.
         23    2    4    4    0    0 -0.50839157907E+03 -0.61042342974E+02 -0.14285007957E+03  0.53908921855E+03  0.89570503114E+02 0.  0.
          3    1    3    3  502    0 -0.55469157288E+01 -0.14197984024E+01 -0.37453412009E+00  0.57379767700E+01  0.00000000000E+00 0. -1.
         -4    1    3    3    0  502  0.13661932500E+03  0.20076191460E+03 -0.28641929104E+03  0.37550791816E+03  0.00000000000E+00 0.  1.
         13    1    5    5    0    0  0.35063542679E+03 -0.14083236144E+03 -0.19310010533E+02  0.37835411067E+03  0.00000000000E+00 0.  1.
        -13    1    5    5    0    0  0.26683743003E+02  0.25325882190E+01  0.19337565366E+02  0.33051135805E+02  0.00000000000E+00 0. -1.
          4    1    6    6  503    0 -0.36835007060E+02 -0.24467927646E+01 -0.36985167146E+02  0.52256168332E+02  0.00000000000E+00 0. -1.
         -4    1    6    6    0  503 -0.47155657201E+03 -0.58595550210E+02 -0.10586491242E+03  0.48683305022E+03  0.00000000000E+00 0.  1.
<mgrwt>
<rscale>  0 0.12605404E+04</rscale>
<asrwt>0</asrwt>
<pdfrwt beam="1">  1        1 0.13548898E+00 0.12605404E+04</pdfrwt>
<pdfrwt beam="2">  1       -2 0.69394156E-01 0.12605404E+04</pdfrwt>
<totfact> 0.30890064E+01</totfact>
</mgrwt>
</event>
<event>
12    5  0.5246737E-008  0.1232993E+04  0.7818608E-02  0.9084458E-01
         -2   -1    0    0    0  501 -0.00000000000E+00  0.00000000000E+00  0.57881699251E+03  0.57881699251E+03  0.00000000000E+00 0.  1.
          1   -1    0    0  501    0  0.00000000000E+00 -0.00000000000E+00 -0.65662845603E+03  0.65662845603E+03  0.00000000000E+00 0. -1.
        -24    2    1    2    0    0  0.86458795211E+02  0.14261515802E+03 -0.24693681731E+03  0.30844551575E+03  0.79665788621E+02 0.  0.
        254    2    1    2    0    0 -0.86458795211E+02 -0.14261515802E+03  0.16912535379E+03  0.92699993279E+03  0.89605317004E+03 0.  0.
         23    2    4    4    0    0  0.17235274815E+02 -0.21787475488E+03 -0.32722564476E+03  0.40643348088E+03  0.10171080709E+03 0.  0.
         23    2    4    4    0    0 -0.10369407003E+03  0.75259596855E+02  0.49635099856E+03  0.52056645191E+03  0.90601600496E+02 0.  0.
          1    1    3    3  502    0  0.42736442459E+02  0.10321862296E+03 -0.21297224960E+03  0.24049462934E+03  0.00000000000E+00 0. -1.
         -2    1    3    3    0  502  0.43722352752E+02  0.39396535058E+02 -0.33964567714E+02  0.67950886417E+02  0.00000000000E+00 0.  1.
         13    1    5    5    0    0  0.11058346892E+02 -0.20492074859E+03 -0.33284184257E+03  0.39102236816E+03  0.00000000000E+00 0. -1.
        -13    1    5    5    0    0  0.61769279239E+01 -0.12954006286E+02  0.56161978048E+01  0.15411112719E+02  0.00000000000E+00 0.  1.
          4    1    6    6  503    0 -0.11086581834E+03  0.35483706902E+02  0.37643560343E+03  0.39402295194E+03  0.00000000000E+00 0. -1.
         -4    1    6    6    0  503  0.71717483127E+01  0.39775889952E+02  0.11991539513E+03  0.12654349997E+03  0.00000000000E+00 0.  1.
<mgrwt>
<rscale>  0 0.12329926E+04</rscale>
<asrwt>0</asrwt>
<pdfrwt beam="1">  1        1 0.10101976E+00 0.12329926E+04</pdfrwt>
<pdfrwt beam="2">  1       -2 0.89048768E-01 0.12329926E+04</pdfrwt>
<totfact> 0.28092799E+01</totfact>
</mgrwt>
</event>
<event>
12    5  0.5246737E-008  0.1110501E+04  0.7818608E-02  0.9195017E-01
         -2   -1    0    0    0  501 -0.00000000000E+00  0.00000000000E+00  0.10496901007E+03  0.10496901007E+03  0.00000000000E+00 0.  1.
          1   -1    0    0  501    0  0.00000000000E+00 -0.00000000000E+00 -0.29370869931E+04  0.29370869931E+04  0.00000000000E+00 0. -1.
        -24    2    1    2    0    0  0.88409726593E+02  0.40942276802E+02 -0.96655707707E+02  0.15838827158E+03  0.79069393289E+02 0.  0.
        254    2    1    2    0    0 -0.88409726593E+02 -0.40942276802E+02 -0.27354622753E+04  0.28836677316E+04  0.90735504445E+03 0.  0.
         23    2    4    4    0    0  0.12520531800E+03 -0.42965581680E+03 -0.12700602063E+04  0.13496846511E+04  0.91187923079E+02 0.  0.
         23    2    4    4    0    0 -0.21361504459E+03  0.38871354000E+03 -0.14654020690E+04  0.15339830805E+04  0.94716755479E+02 0.  0.
          1    1    3    3  502    0  0.89650679405E+02  0.55661360893E+02 -0.66285038042E+02  0.12461596079E+03  0.00000000000E+00 0. -1.
         -2    1    3    3    0  502 -0.12409528120E+01 -0.14719084091E+02 -0.30370669665E+02  0.33772310792E+02  0.00000000000E+00 0.  1.
         13    1    5    5    0    0  0.58029253169E+02 -0.83639231597E+02 -0.34667214702E+03  0.36130941422E+03  0.00000000000E+00 0. -1.
        -13    1    5    5    0    0  0.67176064828E+02 -0.34601658520E+03 -0.92338805926E+03  0.98837523689E+03  0.00000000000E+00 0.  1.
          3    1    6    6  503    0 -0.90560433532E+01  0.24177009091E+02 -0.19199610310E+03  0.19372414227E+03  0.00000000000E+00 0. -1.
         -3    1    6    6    0  503 -0.20455900124E+03  0.36453653091E+03 -0.12734059659E+04  0.13402589382E+04  0.00000000000E+00 0.  1.
<mgrwt>
<rscale>  0 0.11105010E+04</rscale>
<asrwt>0</asrwt>
<pdfrwt beam="1">  1        1 0.45185956E+00 0.11105010E+04</pdfrwt>
<pdfrwt beam="2">  1       -2 0.16149078E-01 0.11105010E+04</pdfrwt>
<totfact> 0.18266704E+01</totfact>
</mgrwt>
</event>
<event>
12    5  0.5246737E-008  0.1678734E+04  0.7818608E-02  0.8773587E-01
         -2   -1    0    0    0  501 -0.00000000000E+00  0.00000000000E+00  0.21935827180E+03  0.21935827180E+03  0.00000000000E+00 0.  1.
          1   -1    0    0  501    0  0.00000000000E+00 -0.00000000000E+00 -0.32118090881E+04  0.32118090881E+04  0.00000000000E+00 0. -1.
        -24    2    1    2    0    0  0.88223156496E+02 -0.55826698142E+03 -0.14396158256E+04  0.15486617653E+04  0.80088639206E+02 0.  0.
        254    2    1    2    0    0 -0.88223156496E+02  0.55826698142E+03 -0.15528349908E+04  0.18825055947E+04  0.90171251375E+03 0.  0.
         23    2    4    4    0    0 -0.11209046639E+03  0.57551852481E+03 -0.37716606000E+03  0.70280959923E+03  0.88888980738E+02 0.  0.
         23    2    4    4    0    0  0.23867309892E+02 -0.17251543386E+02 -0.11756689308E+04  0.11796959954E+04  0.92832874639E+02 0.  0.
          1    1    3    3  502    0 -0.55870630186E+01 -0.57842547317E+01 -0.83172427350E+01  0.11569330261E+02  0.00000000000E+00 0. -1.
         -2    1    3    3    0  502  0.93810219514E+02 -0.55248272669E+03 -0.14312985828E+04  0.15370924350E+04  0.00000000000E+00 0.  1.
         13    1    5    5    0    0 -0.11347042601E+03  0.50032569087E+03 -0.35676513877E+03  0.62488614864E+03  0.00000000000E+00 0. -1.
        -13    1    5    5    0    0  0.13799596182E+01  0.75192833938E+02 -0.20400921234E+02  0.77923450587E+02  0.00000000000E+00 0.  1.
          1    1    6    6  503    0 -0.80289577616E+00 -0.53209036393E+02 -0.70890241412E+03  0.71089695381E+03  0.00000000000E+00 0. -1.
         -1    1    6    6    0  503  0.24670205668E+02  0.35957493006E+02 -0.46676651666E+03  0.46879904163E+03  0.00000000000E+00 0.  1.
<mgrwt>
<rscale>  0 0.16787339E+04</rscale>
<asrwt>0</asrwt>
<pdfrwt beam="1">  1        1 0.49412447E+00 0.16787339E+04</pdfrwt>
<pdfrwt beam="2">  1       -2 0.33747427E-01 0.16787339E+04</pdfrwt>
<totfact> 0.28804532E+00</totfact>
</mgrwt>
</event>
<event>
12    5  0.5246737E-008  0.1429907E+04  0.7818608E-02  0.8932450E-01
         -2   -1    0    0    0  501 -0.00000000000E+00  0.00000000000E+00  0.79292863306E+03  0.79292863306E+03  0.00000000000E+00 0.  1.
          1   -1    0    0  501    0  0.00000000000E+00 -0.00000000000E+00 -0.64464645653E+03  0.64464645653E+03  0.00000000000E+00 0. -1.
        -24    2    1    2    0    0  0.39128668329E+03 -0.14445249418E+03  0.12748745608E+03  0.44301054644E+03  0.77675615270E+02 0.  0.
        254    2    1    2    0    0 -0.39128668329E+03  0.14445249418E+03  0.20794720454E+02  0.99456454315E+03  0.90263747900E+03 0.  0.
         23    2    4    4    0    0 -0.60170782743E+03  0.13442739984E+03  0.24907195086E+03  0.67118942776E+03  0.91298279342E+02 0.  0.
         23    2    4    4    0    0  0.21042114414E+03  0.10025094344E+02 -0.22827723040E+03  0.32337511539E+03  0.89907791185E+02 0.  0.
          1    1    3    3  502    0  0.14554293789E+03 -0.67738685743E+02  0.12385227055E+02  0.16101139762E+03  0.00000000000E+00 0. -1.
         -2    1    3    3    0  502  0.24574374540E+03 -0.76713808439E+02  0.11510222903E+03  0.28199914882E+03  0.00000000000E+00 0.  1.
         13    1    5    5    0    0 -0.49699704634E+03  0.85623573303E+02  0.22923521411E+03  0.55397314354E+03  0.00000000000E+00 0. -1.
        -13    1    5    5    0    0 -0.10471078109E+03  0.48803826534E+02  0.19836736750E+02  0.11721628422E+03  0.00000000000E+00 0.  1.
          1    1    6    6  503    0  0.15844723377E+03  0.46018417151E+02 -0.17698245252E+03  0.24196282588E+03  0.00000000000E+00 0. -1.
         -1    1    6    6    0  503  0.51973910368E+02 -0.35993322807E+02 -0.51294777887E+02  0.81412289515E+02  0.00000000000E+00 0.  1.
<mgrwt>
<rscale>  0 0.14299072E+04</rscale>
<asrwt>0</asrwt>
<pdfrwt beam="1">  1        1 0.99176377E-01 0.14299072E+04</pdfrwt>
<pdfrwt beam="2">  1       -2 0.12198902E+00 0.14299072E+04</pdfrwt>
<totfact> 0.13377425E+01</totfact>
</mgrwt>
</event>
<event>
12    5  0.5246737E-008  0.1455513E+04  0.7818608E-02  0.8914588E-01
          1   -1    0    0  501    0  0.00000000000E+00  0.00000000000E+00  0.18125496327E+04  0.18125496327E+04  0.00000000000E+00 0. -1.
         -2   -1    0    0    0  501 -0.00000000000E+00 -0.00000000000E+00 -0.29220126848E+03  0.29220126848E+03  0.00000000000E+00 0.  1.
        -24    2    1    2    0    0 -0.60950785909E+02  0.37216220017E+03  0.70183948582E+03  0.80195398587E+03  0.91278858773E+02 0.  0.
        254    2    1    2    0    0  0.60950785909E+02 -0.37216220017E+03  0.81850887845E+03  0.13027969153E+04  0.94079929688E+03 0.  0.
         23    2    4    4    0    0 -0.25040225950E+02  0.13932195518E+03 -0.13338262142E+03  0.21500216074E+03  0.91637248514E+02 0.  0.
         23    2    4    4    0    0  0.85991011860E+02 -0.51148415535E+03  0.95189149987E+03  0.10877947546E+04  0.90495885667E+02 0.  0.
          1    1    3    3  502    0 -0.85314067632E+01  0.11296540652E+03  0.30227099534E+03  0.32280291603E+03  0.00000000000E+00 0. -1.
         -2    1    3    3    0  502 -0.52419379146E+02  0.25919679365E+03  0.39956849048E+03  0.47915106984E+03  0.00000000000E+00 0.  1.
         13    1    5    5    0    0 -0.14046231780E+02  0.25658045698E+01 -0.55358628828E+02  0.57170427373E+02  0.00000000000E+00 0.  1.
        -13    1    5    5    0    0 -0.10993994170E+02  0.13675615061E+03 -0.78023992595E+02  0.15783173337E+03  0.00000000000E+00 0. -1.
          2    1    6    6  503    0  0.47011940038E+02 -0.13822960275E+03  0.33942891059E+03  0.36949902696E+03  0.00000000000E+00 0. -1.
         -2    1    6    6    0  503  0.38979071821E+02 -0.37325455261E+03  0.61246258928E+03  0.71829572764E+03  0.00000000000E+00 0.  1.
<mgrwt>
<rscale>  0 0.14555127E+04</rscale>
<asrwt>0</asrwt>
<pdfrwt beam="1">  1        1 0.27885378E+00 0.14555127E+04</pdfrwt>
<pdfrwt beam="2">  1       -2 0.44954042E-01 0.14555127E+04</pdfrwt>
<totfact> 0.15979381E+01</totfact>
</mgrwt>
</event>
<event>
12    5  0.5246737E-008  0.1266000E+04  0.7818608E-02  0.9056971E-01
         -2   -1    0    0    0  501 -0.00000000000E+00  0.00000000000E+00  0.37336311884E+03  0.37336311884E+03  0.00000000000E+00 0.  1.
          1   -1    0    0  501    0  0.00000000000E+00 -0.00000000000E+00 -0.10731887771E+04  0.10731887771E+04  0.00000000000E+00 0. -1.
        -24    2    1    2    0    0 -0.15703277501E+03 -0.20750711257E+03 -0.33535154843E+03  0.43182919282E+03  0.79355507325E+02 0.  0.
        254    2    1    2    0    0  0.15703277501E+03  0.20750711257E+03 -0.36447410981E+03  0.10147227031E+04  0.91055054405E+03 0.  0.
         23    2    4    4    0    0 -0.13861392550E+03  0.38677220639E+03 -0.48006844828E+03  0.63840752804E+03  0.91059853094E+02 0.  0.
         23    2    4    4    0    0  0.29564670051E+03 -0.17926509383E+03  0.11559433847E+03  0.37631517506E+03  0.93317278707E+02 0.  0.
          1    1    3    3  502    0 -0.21412664650E+02  0.25579074346E+01 -0.20332213797E+02  0.29638556236E+02  0.00000000000E+00 0. -1.
         -2    1    3    3    0  502 -0.13562011036E+03 -0.21006502000E+03 -0.31501933463E+03  0.40219063658E+03  0.00000000000E+00 0.  1.
         13    1    5    5    0    0 -0.97698554120E+02  0.30370662095E+03 -0.31041242694E+03  0.44512761529E+03  0.00000000000E+00 0.  1.
        -13    1    5    5    0    0 -0.40915371381E+02  0.83065585439E+02 -0.16965602133E+03  0.19327991275E+03  0.00000000000E+00 0. -1.
          2    1    6    6  503    0  0.85918312738E+02 -0.75182939890E+01  0.17284187867E+02  0.87961493612E+02  0.00000000000E+00 0. -1.
         -2    1    6    6    0  503  0.20972838778E+03 -0.17174679984E+03  0.98310150599E+02  0.28835368145E+03  0.00000000000E+00 0.  1.
<mgrwt>
<rscale>  0 0.12660002E+04</rscale>
<asrwt>0</asrwt>
<pdfrwt beam="1">  1        1 0.16510596E+00 0.12660002E+04</pdfrwt>
<pdfrwt beam="2">  1       -2 0.57440482E-01 0.12660002E+04</pdfrwt>
<totfact> 0.32578374E+01</totfact>
</mgrwt>
</event>
<event>
12    5  0.5246737E-008  0.1654136E+04  0.7818608E-02  0.8787964E-01
          1   -1    0    0  501    0  0.00000000000E+00  0.00000000000E+00  0.13883417545E+04  0.13883417545E+04  0.00000000000E+00 0. -1.
         -2   -1    0    0    0  501 -0.00000000000E+00 -0.00000000000E+00 -0.49270374814E+03  0.49270374814E+03  0.00000000000E+00 0.  1.
        -24    2    1    2    0    0  0.48472550481E+03 -0.81919372264E+02  0.69100694660E+03  0.85090151311E+03  0.69808210072E+02 0.  0.
        254    2    1    2    0    0 -0.48472550481E+03  0.81919372264E+02  0.20463105971E+03  0.10301439895E+04  0.88184645483E+03 0.  0.
         23    2    4    4    0    0 -0.21313828846E+03  0.96706277531E+02 -0.33549317917E+03  0.41896816875E+03  0.90546225963E+02 0.  0.
         23    2    4    4    0    0 -0.27158721635E+03 -0.14786905267E+02  0.54012423888E+03  0.61117582073E+03  0.88450108889E+02 0.  0.
          1    1    3    3  502    0  0.14579667690E+03 -0.23808214439E+02  0.26530441203E+03  0.30366088506E+03  0.00000000000E+00 0. -1.
         -2    1    3    3    0  502  0.33892882791E+03 -0.58111157825E+02  0.42570253457E+03  0.54724062805E+03  0.00000000000E+00 0.  1.
         13    1    5    5    0    0 -0.33959250516E+02  0.25239070326E+02 -0.14987645370E+02  0.44887313133E+02  0.00000000000E+00 0.  1.
        -13    1    5    5    0    0 -0.17917903795E+03  0.71467207204E+02 -0.32050553380E+03  0.37408085562E+03  0.00000000000E+00 0. -1.
          2    1    6    6  503    0 -0.23383002174E+03 -0.40869347772E+02  0.41776017952E+03  0.48048969838E+03  0.00000000000E+00 0. -1.
         -2    1    6    6    0  503 -0.37757194616E+02  0.26082442505E+02  0.12236405936E+03  0.13068612235E+03  0.00000000000E+00 0.  1.
<mgrwt>
<rscale>  0 0.16541356E+04</rscale>
<asrwt>0</asrwt>
<pdfrwt beam="1">  1        1 0.21359104E+00 0.16541356E+04</pdfrwt>
<pdfrwt beam="2">  1       -2 0.75800577E-01 0.16541356E+04</pdfrwt>
<totfact> 0.10233686E+01</totfact>
</mgrwt>
</event>
<event>
12    5  0.5246737E-008  0.1942620E+04  0.7818608E-02  0.8633928E-01
         -2   -1    0    0    0  501 -0.00000000000E+00  0.00000000000E+00  0.75754060404E+03  0.75754060404E+03  0.00000000000E+00 0.  1.
          1   -1    0    0  501    0  0.00000000000E+00 -0.00000000000E+00 -0.12454030715E+04  0.12454030715E+04  0.00000000000E+00 0. -1.
        -24    2    1    2    0    0  0.16888655925E+03 -0.44079262602E+03 -0.79609945066E+03  0.92934723814E+03  0.84208934522E+02 0.  0.
        254    2    1    2    0    0 -0.16888655925E+03  0.44079262602E+03  0.30823698319E+03  0.10735964374E+04  0.91366211673E+03 0.  0.
         23    2    4    4    0    0  0.32034986540E+03  0.40345230154E+03  0.10333946355E+03  0.53364009758E+03  0.93246518065E+02 0.  0.
         23    2    4    4    0    0 -0.48923642465E+03  0.37340324483E+02  0.20489751964E+03  0.53995633982E+03  0.93932296507E+02 0.  0.
          1    1    3    3  502    0  0.16662521492E+03 -0.34328851907E+03 -0.64840233405E+03  0.75235401001E+03  0.00000000000E+00 0. -1.
         -2    1    3    3    0  502  0.22613443212E+01 -0.97504106953E+02 -0.14769711661E+03  0.17699322814E+03  0.00000000000E+00 0.  1.
         13    1    5    5    0    0  0.20304360396E+03  0.21358238002E+03  0.19886629582E+02  0.29536353228E+03  0.00000000000E+00 0.  1.
        -13    1    5    5    0    0  0.11730626144E+03  0.18986992152E+03  0.83452833969E+02  0.23827656529E+03  0.00000000000E+00 0. -1.
          4    1    6    6  503    0 -0.48431936785E+03  0.40043037038E+02  0.21258848816E+03  0.53043619804E+03  0.00000000000E+00 0.  1.
         -4    1    6    6    0  503 -0.49170567952E+01 -0.27027125550E+01 -0.76909685264E+01  0.95201417823E+01  0.00000000000E+00 0. -1.
<mgrwt>
<rscale>  0 0.19426203E+04</rscale>
<asrwt>0</asrwt>
<pdfrwt beam="1">  1        1 0.19160047E+00 0.19426203E+04</pdfrwt>
<pdfrwt beam="2">  1       -2 0.11654471E+00 0.19426203E+04</pdfrwt>
<totfact> 0.46218570E+00</totfact>
</mgrwt>
</event>
<event>
12    5  0.5246737E-008  0.1510148E+04  0.7818608E-02  0.8877732E-01
         -2   -1    0    0    0  501 -0.00000000000E+00  0.00000000000E+00  0.78761529236E+03  0.78761529236E+03  0.00000000000E+00 0.  1.
          1   -1    0    0  501    0  0.00000000000E+00 -0.00000000000E+00 -0.72387761551E+03  0.72387761551E+03  0.00000000000E+00 0. -1.
        -24    2    1    2    0    0 -0.40637674573E+03 -0.23131367247E+03 -0.83592454052E+02  0.48188633302E+03  0.81108970154E+02 0.  0.
        254    2    1    2    0    0  0.40637674573E+03  0.23131367247E+03  0.14733013091E+03  0.10296065748E+04  0.90539243257E+03 0.  0.
         23    2    4    4    0    0 -0.25008015605E+03  0.21089319182E+03 -0.36947561111E+02  0.34164046607E+03  0.91307518725E+02 0.  0.
         23    2    4    4    0    0  0.65645690177E+03  0.20420480646E+02  0.18427769202E+03  0.68796610878E+03  0.89366879443E+02 0.  0.
          3    1    3    3  502    0 -0.31633306220E+02 -0.12448101084E+01 -0.20338590056E+02  0.37628099342E+02  0.00000000000E+00 0. -1.
         -4    1    3    3    0  502 -0.37474343951E+03 -0.23006886236E+03 -0.63253863996E+02  0.44425823368E+03  0.00000000000E+00 0.  1.
         13    1    5    5    0    0 -0.15258754763E+03  0.17085037133E+03 -0.52755784278E+02  0.23506590959E+03  0.00000000000E+00 0. -1.
        -13    1    5    5    0    0 -0.97492608416E+02  0.40042820495E+02  0.15808223167E+02  0.10657455648E+03  0.00000000000E+00 0.  1.
          1    1    6    6  503    0  0.24887137647E+03 -0.32597131481E+02  0.86421812096E+02  0.26545859303E+03  0.00000000000E+00 0. -1.
         -1    1    6    6    0  503  0.40758552530E+03  0.53017612127E+02  0.97855879921E+02  0.42250751575E+03  0.00000000000E+00 0.  1.
<mgrwt>
<rscale>  0 0.15101484E+04</rscale>
<asrwt>0</asrwt>
<pdfrwt beam="1">  1        1 0.11136579E+00 0.15101484E+04</pdfrwt>
<pdfrwt beam="2">  1       -2 0.12117158E+00 0.15101484E+04</pdfrwt>
<totfact> 0.11350714E+01</totfact>
</mgrwt>
</event>
<event>
12    5  0.5246737E-008  0.1704325E+04  0.7818608E-02  0.8758901E-01
         -2   -1    0    0    0  501 -0.00000000000E+00  0.00000000000E+00  0.11095814723E+04  0.11095814723E+04  0.00000000000E+00 0.  1.
          1   -1    0    0  501    0  0.00000000000E+00 -0.00000000000E+00 -0.65446393288E+03  0.65446393288E+03  0.00000000000E+00 0. -1.
        -24    2    1    2    0    0  0.30486751151E+03  0.10750421768E+03 -0.37532447531E+03  0.50171514648E+03  0.79676031802E+02 0.  0.
        254    2    1    2    0    0 -0.30486751151E+03 -0.10750421768E+03  0.83044201477E+03  0.12623302587E+04  0.89405949793E+03 0.  0.
         23    2    4    4    0    0  0.48614538147E+02 -0.10537608400E+03  0.88030381408E+03  0.89256054533E+03  0.90895707256E+02 0.  0.
         23    2    4    4    0    0 -0.35348204966E+03 -0.21281336809E+01 -0.49861799301E+02  0.36976971342E+03  0.96381292503E+02 0.  0.
          1    1    3    3  502    0  0.24381478081E+03  0.11782461570E+03 -0.31257290792E+03  0.41355786798E+03  0.00000000000E+00 0. -1.
         -2    1    3    3    0  502  0.61052730702E+02 -0.10320398019E+02 -0.62751567393E+02  0.88157278496E+02  0.00000000000E+00 0.  1.
         13    1    5    5    0    0  0.40020236918E+01 -0.73601417294E+02  0.27247635109E+03  0.28227034333E+03  0.00000000000E+00 0.  1.
        -13    1    5    5    0    0  0.44612514455E+02 -0.31774666707E+02  0.60782746299E+03  0.61029020199E+03  0.00000000000E+00 0. -1.
          1    1    6    6  503    0 -0.23177565115E+03 -0.29862836206E+02 -0.68582176541E+02  0.24354723647E+03  0.00000000000E+00 0. -1.
         -1    1    6    6    0  503 -0.12170639851E+03  0.27734702525E+02  0.18720377240E+02  0.12622247694E+03  0.00000000000E+00 0.  1.
<mgrwt>
<rscale>  0 0.17043252E+04</rscale>
<asrwt>0</asrwt>
<pdfrwt beam="1">  1        1 0.10068676E+00 0.17043252E+04</pdfrwt>
<pdfrwt beam="2">  1       -2 0.17070484E+00 0.17043252E+04</pdfrwt>
<totfact> 0.52860388E+00</totfact>
</mgrwt>
</event>
<event>
12    5  0.5246737E-008  0.1133680E+04  0.7818608E-02  0.9172973E-01
          1   -1    0    0  501    0  0.00000000000E+00  0.00000000000E+00  0.45836541784E+04  0.45836541784E+04  0.00000000000E+00 0. -1.
         -2   -1    0    0    0  501 -0.00000000000E+00 -0.00000000000E+00 -0.70098507120E+02  0.70098507120E+02  0.00000000000E+00 0.  1.
        -24    2    1    2    0    0  0.17406378670E+03  0.10222948792E+03  0.82208618838E+03  0.85050228740E+03  0.82336927951E+02 0.  0.
        254    2    1    2    0    0 -0.17406378670E+03 -0.10222948792E+03  0.36914694829E+04  0.38032503982E+04  0.89275840943E+03 0.  0.
         23    2    4    4    0    0 -0.42532500327E+03  0.14956982926E+03  0.28222021427E+04  0.28594115940E+04  0.90206638958E+02 0.  0.
         23    2    4    4    0    0  0.25126121657E+03 -0.25179931718E+03  0.86926734026E+03  0.94383880413E+03  0.93117582912E+02 0.  0.
          3    1    3    3  502    0  0.17509393272E+03  0.10080897420E+03  0.82370093272E+03  0.84811765759E+03  0.00000000000E+00 0. -1.
         -4    1    3    3    0  502 -0.10301460153E+01  0.14205137211E+01 -0.16147443392E+01  0.23846298090E+01  0.00000000000E+00 0.  1.
         13    1    5    5    0    0 -0.39136142317E+03  0.11132969399E+03  0.24195254330E+04  0.24534998237E+04  0.00000000000E+00 0.  1.
        -13    1    5    5    0    0 -0.33963580102E+02  0.38240135273E+02  0.40267670970E+03  0.40591177028E+03  0.00000000000E+00 0. -1.
          2    1    6    6  503    0 -0.56041866943E+01 -0.10271640544E+02  0.11378346926E+02  0.16321160705E+02  0.00000000000E+00 0. -1.
         -2    1    6    6    0  503  0.25686540327E+03 -0.24152767664E+03  0.85788899333E+03  0.92751764342E+03  0.00000000000E+00 0.  1.
<mgrwt>
<rscale>  0 0.11336795E+04</rscale>
<asrwt>0</asrwt>
<pdfrwt beam="1">  1        1 0.70517733E+00 0.11336795E+04</pdfrwt>
<pdfrwt beam="2">  1       -2 0.10784389E-01 0.11336795E+04</pdfrwt>
<totfact> 0.14840539E+00</totfact>
</mgrwt>
</event>
<event>
12    5  0.5246737E-008  0.3204426E+04  0.7818608E-02  0.8187649E-01
          1   -1    0    0  501    0  0.00000000000E+00  0.00000000000E+00  0.11884758574E+04  0.11884758574E+04  0.00000000000E+00 0. -1.
         -2   -1    0    0    0  501 -0.00000000000E+00 -0.00000000000E+00 -0.21599824960E+04  0.21599824960E+04  0.00000000000E+00 0.  1.
        -24    2    1    2    0    0 -0.39983306360E+03  0.36046764162E+03 -0.18815044074E+04  0.19586126862E+04  0.79381486382E+02 0.  0.
        254    2    1    2    0    0  0.39983306360E+03 -0.36046764162E+03  0.90999776869E+03  0.13898456672E+04  0.90209292215E+03 0.  0.
         23    2    4    4    0    0  0.48549564699E+03 -0.54090743089E+03  0.91353224488E+03  0.11704487300E+04  0.84393098131E+02 0.  0.
         23    2    4    4    0    0 -0.85662583387E+02  0.18043978927E+03 -0.35344761930E+01  0.21939693722E+03  0.90696900690E+02 0.  0.
          3    1    3    3  502    0 -0.26003098615E+02  0.17736661447E+01 -0.87820187979E+02  0.91606181264E+02  0.00000000000E+00 0. -1.
         -4    1    3    3    0  502 -0.37382996499E+03  0.35869397547E+03 -0.17936842194E+04  0.18670065050E+04  0.00000000000E+00 0.  1.
         13    1    5    5    0    0  0.12569248025E+03 -0.88939852370E+02  0.19746931160E+03  0.25040572269E+03  0.00000000000E+00 0. -1.
        -13    1    5    5    0    0  0.35980316674E+03 -0.45196757852E+03  0.71606293328E+03  0.92004300728E+03  0.00000000000E+00 0.  1.
          1    1    6    6  503    0 -0.28497023123E+02  0.50637365160E+01 -0.18471523950E+02  0.34335389199E+02  0.00000000000E+00 0. -1.
         -1    1    6    6    0  503 -0.57165560264E+02  0.17537605276E+03  0.14937047757E+02  0.18506154802E+03  0.00000000000E+00 0.  1.
<mgrwt>
<rscale>  0 0.32044263E+04</rscale>
<asrwt>0</asrwt>
<pdfrwt beam="1">  1        1 0.18284244E+00 0.32044263E+04</pdfrwt>
<pdfrwt beam="2">  1       -2 0.33230500E+00 0.32044263E+04</pdfrwt>
<totfact> 0.16060905E-01</totfact>
</mgrwt>
</event>
<event>
12    5  0.5246737E-008  0.1366946E+04  0.7818608E-02  0.8978099E-01
          1   -1    0    0  501    0  0.00000000000E+00  0.00000000000E+00  0.97493259237E+03  0.97493259237E+03  0.00000000000E+00 0. -1.
         -2   -1    0    0    0  501 -0.00000000000E+00 -0.00000000000E+00 -0.47914621592E+03  0.47914621592E+03  0.00000000000E+00 0.  1.
        -24    2    1    2    0    0 -0.10929172382E+03  0.73877947549E+02  0.51771443038E+03  0.54023621978E+03  0.80151791665E+02 0.  0.
        254    2    1    2    0    0  0.10929172382E+03 -0.73877947549E+02 -0.21928053928E+02  0.91384258852E+03  0.90400487001E+03 0.  0.
         23    2    4    4    0    0 -0.12513527117E+03 -0.81170745005E+02  0.39230661796E+03  0.42944622256E+03  0.90950808885E+02 0.  0.
         23    2    4    4    0    0  0.23442699500E+03  0.72927974561E+01 -0.41423467189E+03  0.48439636596E+03  0.89667580987E+02 0.  0.
          3    1    3    3  502    0 -0.11004885016E+03  0.35131315515E+02  0.39531396082E+03  0.41184716385E+03  0.00000000000E+00 0. -1.
         -4    1    3    3    0  502  0.75712633318E+00  0.38746632034E+02  0.12240046956E+03  0.12838905593E+03  0.00000000000E+00 0.  1.
         13    1    5    5    0    0 -0.20928282888E+02  0.18445953407E+02  0.39827210573E+02  0.48625640600E+02  0.00000000000E+00 0.  1.
        -13    1    5    5    0    0 -0.10420698829E+03 -0.99616698412E+02  0.35247940739E+03  0.38082058196E+03  0.00000000000E+00 0. -1.
          1    1    6    6  503    0  0.19024001165E+03  0.20425660874E+02 -0.38468634900E+03  0.42964177725E+03  0.00000000000E+00 0. -1.
         -1    1    6    6    0  503  0.44186983344E+02 -0.13132863418E+02 -0.29548322893E+02  0.54754588706E+02  0.00000000000E+00 0.  1.
<mgrwt>
<rscale>  0 0.13669459E+04</rscale>
<asrwt>0</asrwt>
<pdfrwt beam="1">  1        1 0.14998963E+00 0.13669459E+04</pdfrwt>
<pdfrwt beam="2">  1       -2 0.73714803E-01 0.13669459E+04</pdfrwt>
<totfact> 0.22514731E+01</totfact>
</mgrwt>
</event>
<event>
12    5  0.5246737E-008  0.1713511E+04  0.7818608E-02  0.8753696E-01
          1   -1    0    0  501    0  0.00000000000E+00  0.00000000000E+00  0.17600403155E+04  0.17600403155E+04  0.00000000000E+00 0. -1.
         -2   -1    0    0    0  501 -0.00000000000E+00 -0.00000000000E+00 -0.41705302320E+03  0.41705302320E+03  0.00000000000E+00 0.  1.
        -24    2    1    2    0    0  0.35205874794E+03 -0.49989130122E+03  0.60921377952E+03  0.86686041151E+03  0.80429278464E+02 0.  0.
        254    2    1    2    0    0 -0.35205874794E+03  0.49989130122E+03  0.73377351281E+03  0.13102329272E+04  0.89691141170E+03 0.  0.
         23    2    4    4    0    0  0.13494955463E+02  0.52735662629E+03  0.61352285951E+02  0.53895687564E+03  0.91778459900E+02 0.  0.
         23    2    4    4    0    0 -0.36555370340E+03 -0.27465325064E+02  0.67242122686E+03  0.77127605158E+03  0.91283006386E+02 0.  0.
          1    1    3    3  502    0  0.72813757051E+02 -0.13777212389E+03  0.11591110458E+03  0.19421221770E+03  0.00000000000E+00 0. -1.
         -2    1    3    3    0  502  0.27924499089E+03 -0.36211917733E+03  0.49330267494E+03  0.67264819381E+03  0.00000000000E+00 0.  1.
         13    1    5    5    0    0 -0.89868898620E+01  0.35429195965E+03  0.80371041064E+02  0.36340481712E+03  0.00000000000E+00 0. -1.
        -13    1    5    5    0    0  0.22481845325E+02  0.17306466663E+03 -0.19018755113E+02  0.17555205852E+03  0.00000000000E+00 0.  1.
          1    1    6    6  503    0 -0.56515164222E+02 -0.35209835860E+02  0.90715232864E+02  0.11252977296E+03  0.00000000000E+00 0. -1.
         -1    1    6    6    0  503 -0.30903853918E+03  0.77445107968E+01  0.58170599399E+03  0.65874627862E+03  0.00000000000E+00 0.  1.
<mgrwt>
<rscale>  0 0.17135112E+04</rscale>
<asrwt>0</asrwt>
<pdfrwt beam="1">  1        1 0.27077543E+00 0.17135112E+04</pdfrwt>
<pdfrwt beam="2">  1       -2 0.64162004E-01 0.17135112E+04</pdfrwt>
<totfact> 0.81244477E+00</totfact>
</mgrwt>
</event>
<event>
12    5  0.5246737E-008  0.1211379E+04  0.7818608E-02  0.9102955E-01
         -2   -1    0    0    0  501 -0.00000000000E+00  0.00000000000E+00  0.55693765483E+03  0.55693765483E+03  0.00000000000E+00 0.  1.
          1   -1    0    0  501    0  0.00000000000E+00 -0.00000000000E+00 -0.65870843751E+03  0.65870843751E+03  0.00000000000E+00 0. -1.
        -24    2    1    2    0    0  0.22721660608E+03 -0.87967085862E+02  0.80581152054E+02  0.26863431300E+03  0.79407038614E+02 0.  0.
        254    2    1    2    0    0 -0.22721660608E+03  0.87967085862E+02 -0.18235193473E+03  0.94701177934E+03  0.89677950904E+03 0.  0.
         23    2    4    4    0    0  0.27346515821E+03  0.25957705085E+03 -0.12265877619E+03  0.40658392773E+03  0.90010426228E+02 0.  0.
         23    2    4    4    0    0 -0.50068176428E+03 -0.17160996499E+03 -0.59693158540E+02  0.54042785160E+03  0.91470106830E+02 0.  0.
          3    1    3    3  502    0  0.16289704370E+02  0.59990855355E+01 -0.10637171701E+02  0.20359099134E+02  0.00000000000E+00 0. -1.
         -2    1    3    3    0  502  0.21092690171E+03 -0.93966171398E+02  0.91218323755E+02  0.24827521386E+03  0.00000000000E+00 0.  1.
         13    1    5    5    0    0  0.84375149194E+02  0.44287675048E+02 -0.62025297186E+02  0.11370005037E+03  0.00000000000E+00 0. -1.
        -13    1    5    5    0    0  0.18909000901E+03  0.21528937581E+03 -0.60633479008E+02  0.29288387736E+03  0.00000000000E+00 0.  1.
          4    1    6    6  503    0 -0.47880400963E+03 -0.17953828350E+03 -0.45988479986E+02  0.51342206339E+03  0.00000000000E+00 0.  1.
         -4    1    6    6    0  503 -0.21877754650E+02  0.79283185087E+01 -0.13704678554E+02  0.27005788216E+02  0.00000000000E+00 0. -1.
<mgrwt>
<rscale>  0 0.12113786E+04</rscale>
<asrwt>0</asrwt>
<pdfrwt beam="1">  1        1 0.10133976E+00 0.12113786E+04</pdfrwt>
<pdfrwt beam="2">  1       -2 0.85682716E-01 0.12113786E+04</pdfrwt>
<totfact> 0.30593905E+01</totfact>
</mgrwt>
</event>
<event>
12    5  0.5246737E-008  0.1277552E+04  0.7818608E-02  0.9047559E-01
         -2   -1    0    0    0  501 -0.00000000000E+00  0.00000000000E+00  0.85977290024E+03  0.85977290024E+03  0.00000000000E+00 0.  1.
          1   -1    0    0  501    0  0.00000000000E+00 -0.00000000000E+00 -0.47458405500E+03  0.47458405500E+03  0.00000000000E+00 0. -1.
        -24    2    1    2    0    0 -0.46592131353E+02 -0.71766152554E+01  0.43210389544E+03  0.44175061127E+03  0.78787661441E+02 0.  0.
        254    2    1    2    0    0  0.46592131353E+02  0.71766152554E+01 -0.46915050202E+02  0.89260634397E+03  0.89012512202E+03 0.  0.
         23    2    4    4    0    0  0.26901653585E+03  0.34344594032E+03  0.93916970459E+02  0.45610638096E+03  0.94274190179E+02 0.  0.
         23    2    4    4    0    0 -0.22242440450E+03 -0.33626932506E+03 -0.14083202066E+03  0.43649996300E+03  0.90271174606E+02 0.  0.
          1    1    3    3  502    0  0.17335232551E+02 -0.90773462805E+01  0.40743890591E+02  0.45199260210E+02  0.00000000000E+00 0. -1.
         -2    1    3    3    0  502 -0.63927363904E+02  0.19007310251E+01  0.39136000485E+03  0.39655135106E+03  0.00000000000E+00 0.  1.
         13    1    5    5    0    0  0.17453417096E+03  0.14656019450E+03  0.51084839479E+02  0.23356311410E+03  0.00000000000E+00 0.  1.
        -13    1    5    5    0    0  0.94482364897E+02  0.19688574582E+03  0.42832130980E+02  0.22254326687E+03  0.00000000000E+00 0. -1.
          3    1    6    6  503    0 -0.37270913357E+02 -0.15190281312E+02 -0.69776095388E+00  0.40253602313E+02  0.00000000000E+00 0. -1.
         -3    1    6    6    0  503 -0.18515349114E+03 -0.32107904375E+03 -0.14013425971E+03  0.39624636069E+03  0.00000000000E+00 0.  1.
<mgrwt>
<rscale>  0 0.12775516E+04</rscale>
<asrwt>0</asrwt>
<pdfrwt beam="1">  1        1 0.73012932E-01 0.12775516E+04</pdfrwt>
<pdfrwt beam="2">  1       -2 0.13227275E+00 0.12775516E+04</pdfrwt>
<totfact> 0.17019715E+01</totfact>
</mgrwt>
</event>
<event>
12    5  0.5246737E-008  0.2116081E+04  0.7818608E-02  0.8554192E-01
          1   -1    0    0  501    0  0.00000000000E+00  0.00000000000E+00  0.14426118530E+04  0.14426118530E+04  0.00000000000E+00 0. -1.
         -2   -1    0    0    0  501 -0.00000000000E+00 -0.00000000000E+00 -0.77598818043E+03  0.77598818043E+03  0.00000000000E+00 0.  1.
        -24    2    1    2    0    0  0.69609224757E+03  0.40037133977E+03  0.60848819954E+03  0.10107308421E+04  0.80481795704E+02 0.  0.
        254    2    1    2    0    0 -0.69609224757E+03 -0.40037133977E+03  0.58135473049E+02  0.12078691913E+04  0.90040358909E+03 0.  0.
         23    2    4    4    0    0 -0.41582251489E+03 -0.34257997258E+03 -0.38790164705E+03  0.67004177883E+03  0.90658127518E+02 0.  0.
         23    2    4    4    0    0 -0.28026973268E+03 -0.57791367187E+02  0.44603712010E+03  0.53782741248E+03  0.91751010496E+02 0.  0.
          1    1    3    3  502    0  0.50678729817E+03  0.31172655706E+03  0.41079354376E+03  0.72302015709E+03  0.00000000000E+00 0. -1.
         -2    1    3    3    0  502  0.18930494940E+03  0.88644782711E+02  0.19769465578E+03  0.28771068506E+03  0.00000000000E+00 0.  1.
         13    1    5    5    0    0 -0.22836887267E+03 -0.24388575983E+03 -0.24947840486E+03  0.41697971215E+03  0.00000000000E+00 0. -1.
        -13    1    5    5    0    0 -0.18745364222E+03 -0.98694212750E+02 -0.13842324219E+03  0.25306206668E+03  0.00000000000E+00 0.  1.
          4    1    6    6  503    0 -0.81408530961E+02  0.11604096584E+02  0.75614657846E+02  0.11171204256E+03  0.00000000000E+00 0. -1.
         -4    1    6    6    0  503 -0.19886120172E+03 -0.69395463771E+02  0.37042246226E+03  0.42611536992E+03  0.00000000000E+00 0.  1.
<mgrwt>
<rscale>  0 0.21160810E+04</rscale>
<asrwt>0</asrwt>
<pdfrwt beam="1">  1        1 0.22194028E+00 0.21160810E+04</pdfrwt>
<pdfrwt beam="2">  1       -2 0.11938280E+00 0.21160810E+04</pdfrwt>
<totfact> 0.31097125E+00</totfact>
</mgrwt>
</event>
<event>
12    5  0.5246737E-008  0.3231542E+04  0.7818608E-02  0.8180536E-01
          1   -1    0    0  501    0  0.00000000000E+00  0.00000000000E+00  0.24066940538E+04  0.24066940538E+04  0.00000000000E+00 0. -1.
         -2   -1    0    0    0  501 -0.00000000000E+00 -0.00000000000E+00 -0.10847724565E+04  0.10847724565E+04  0.00000000000E+00 0.  1.
        -24    2    1    2    0    0 -0.33785046892E+03 -0.14263257373E+04  0.88561748267E+03  0.17144604091E+04  0.80672921995E+02 0.  0.
        254    2    1    2    0    0  0.33785046892E+03  0.14263257373E+04  0.43630411467E+03  0.17770061012E+04  0.90489853295E+03 0.  0.
         23    2    4    4    0    0  0.57008163728E+02  0.32365000704E+03 -0.26949178478E+03  0.43493915247E+03  0.92449913469E+02 0.  0.
         23    2    4    4    0    0  0.28084230519E+03  0.11026757303E+04  0.70579589945E+03  0.13420669487E+04  0.90717565378E+02 0.  0.
          3    1    3    3  502    0 -0.20126873915E+03 -0.81900594888E+03  0.55517138478E+03  0.10097005081E+04  0.00000000000E+00 0. -1.
         -4    1    3    3    0  502 -0.13658172977E+03 -0.60731978845E+03  0.33044609789E+03  0.70475990093E+03  0.00000000000E+00 0.  1.
         13    1    5    5    0    0  0.76372517123E+02  0.17925674197E+03 -0.16932066796E+03  0.25813800478E+03  0.00000000000E+00 0.  1.
        -13    1    5    5    0    0 -0.19364353395E+02  0.14439326508E+03 -0.10017111682E+03  0.17680114770E+03  0.00000000000E+00 0. -1.
          4    1    6    6  503    0  0.17436100332E+03  0.50150944829E+03  0.32556906797E+03  0.62282317251E+03  0.00000000000E+00 0. -1.
         -4    1    6    6    0  503  0.10648130186E+03  0.60116628200E+03  0.38022683148E+03  0.71924377623E+03  0.00000000000E+00 0.  1.
<mgrwt>
<rscale>  0 0.32315417E+04</rscale>
<asrwt>0</asrwt>
<pdfrwt beam="1">  1        1 0.37026062E+00 0.32315417E+04</pdfrwt>
<pdfrwt beam="2">  1       -2 0.16688807E+00 0.32315417E+04</pdfrwt>
<totfact> 0.25884432E-01</totfact>
</mgrwt>
</event>
<event>
12    5  0.5246737E-008  0.2379840E+04  0.7818608E-02  0.8447090E-01
         -2   -1    0    0    0  501 -0.00000000000E+00  0.00000000000E+00  0.14820468718E+04  0.14820468718E+04  0.00000000000E+00 0.  1.
          1   -1    0    0  501    0  0.00000000000E+00 -0.00000000000E+00 -0.95537448200E+03  0.95537448200E+03  0.00000000000E+00 0. -1.
        -24    2    1    2    0    0  0.37982513353E+03  0.88036495958E+03 -0.11479586567E+03  0.96897477724E+03  0.80152567173E+02 0.  0.
        254    2    1    2    0    0 -0.37982513353E+03 -0.88036495958E+03  0.64146825547E+03  0.14684465766E+04  0.90859464633E+03 0.  0.
         23    2    4    4    0    0 -0.27775755352E+03 -0.76001262467E+03  0.85887484221E+03  0.11835367514E+04  0.91240337462E+02 0.  0.
         23    2    4    4    0    0 -0.10206758000E+03 -0.12035233492E+03 -0.21740658673E+03  0.28490982515E+03  0.94897360901E+02 0.  0.
          1    1    3    3  502    0  0.37925551720E+03  0.86469402511E+03 -0.10396211919E+03  0.94991506285E+03  0.00000000000E+00 0. -1.
         -2    1    3    3    0  502  0.56961632701E+00  0.15670934467E+02 -0.10833746478E+02  0.19059714389E+02  0.00000000000E+00 0.  1.
         13    1    5    5    0    0 -0.10753980501E+03 -0.39082816688E+03  0.47436887135E+03  0.62396898304E+03  0.00000000000E+00 0. -1.
        -13    1    5    5    0    0 -0.17021774851E+03 -0.36918445779E+03  0.38450597085E+03  0.55956776837E+03  0.00000000000E+00 0.  1.
          1    1    6    6  503    0 -0.78928857325E+02 -0.22852284695E+02 -0.78588512917E+02  0.11370200437E+03  0.00000000000E+00 0. -1.
         -1    1    6    6    0  503 -0.23138722679E+02 -0.97500050222E+02 -0.13881807382E+03  0.17120782079E+03  0.00000000000E+00 0.  1.
<mgrwt>
<rscale>  0 0.23798401E+04</rscale>
<asrwt>0</asrwt>
<pdfrwt beam="1">  1        1 0.14698069E+00 0.23798401E+04</pdfrwt>
<pdfrwt beam="2">  1       -2 0.22800721E+00 0.23798401E+04</pdfrwt>
<totfact> 0.11365543E+00</totfact>
</mgrwt>
</event>
<event>
12    5  0.5246737E-008  0.1436885E+04  0.7818608E-02  0.8927544E-01
          1   -1    0    0  501    0  0.00000000000E+00  0.00000000000E+00  0.34694649656E+04  0.34694649656E+04  0.00000000000E+00 0. -1.
         -2   -1    0    0    0  501 -0.00000000000E+00 -0.00000000000E+00 -0.14877216469E+03  0.14877216469E+03  0.00000000000E+00 0.  1.
        -24    2    1    2    0    0  0.31289054100E+03 -0.29937671581E+03  0.91156379955E+03  0.10139640893E+04  0.98222732324E+02 0.  0.
        254    2    1    2    0    0 -0.31289054100E+03  0.29937671581E+03  0.24091290013E+04  0.26042730410E+04  0.88927420865E+03 0.  0.
         23    2    4    4    0    0  0.16492333479E+03 -0.14413779279E+03  0.12407658246E+04  0.12634067450E+04  0.93388233412E+02 0.  0.
         23    2    4    4    0    0 -0.47781387579E+03  0.44351450860E+03  0.11683631767E+04  0.13408662959E+04  0.88536386041E+02 0.  0.
          1    1    3    3  502    0  0.30687646663E+03 -0.27638265923E+03  0.80471310089E+03  0.90450191533E+03  0.00000000000E+00 0. -1.
         -2    1    3    3    0  502  0.60140743777E+01 -0.22994056578E+02  0.10685069866E+03  0.10946217398E+03  0.00000000000E+00 0.  1.
         13    1    5    5    0    0  0.12105301011E+02 -0.24842250054E+02  0.51529004759E+02  0.58471480499E+02  0.00000000000E+00 0. -1.
        -13    1    5    5    0    0  0.15281803378E+03 -0.11929554274E+03  0.11892368199E+04  0.12049352645E+04  0.00000000000E+00 0.  1.
          1    1    6    6  503    0 -0.26580801236E+03  0.24738816129E+03  0.73919925476E+03  0.82357169695E+03  0.00000000000E+00 0. -1.
         -1    1    6    6    0  503 -0.21200586343E+03  0.19612634731E+03  0.42916392196E+03  0.51729459899E+03  0.00000000000E+00 0.  1.
<mgrwt>
<rscale>  0 0.14368853E+04</rscale>
<asrwt>0</asrwt>
<pdfrwt beam="1">  1        1 0.53376378E+00 0.14368853E+04</pdfrwt>
<pdfrwt beam="2">  1       -2 0.22888028E-01 0.14368853E+04</pdfrwt>
<totfact> 0.38426830E+00</totfact>
</mgrwt>
</event>
<event>
12    5  0.5246737E-008  0.1772596E+04  0.7818608E-02  0.8721010E-01
         -4   -1    0    0    0  501 -0.00000000000E+00  0.00000000000E+00  0.91240195769E+03  0.91240195769E+03  0.00000000000E+00 0.  1.
          1   -1    0    0  501    0  0.00000000000E+00 -0.00000000000E+00 -0.86094121841E+03  0.86094121841E+03  0.00000000000E+00 0. -1.
        -24    2    1    2    0    0 -0.73225653659E+02  0.56689169240E+03 -0.29227716822E+03  0.65110558083E+03  0.10855573248E+03 0.  0.
        254    2    1    2    0    0  0.73225653659E+02 -0.56689169240E+03  0.34373790750E+03  0.11222375953E+04  0.90251497712E+03 0.  0.
         23    2    4    4    0    0  0.10598058366E+03 -0.77329937770E+02 -0.28100628022E+03  0.32296349222E+03  0.90161435202E+02 0.  0.
         23    2    4    4    0    0 -0.32754930006E+02 -0.48956175463E+03  0.62474418772E+03  0.79927410305E+03  0.88262079565E+02 0.  0.
          1    1    3    3  502    0 -0.10015335997E+03  0.49383423455E+03 -0.25653431144E+03  0.56543151635E+03  0.00000000000E+00 0. -1.
         -2    1    3    3    0  502  0.26927706308E+02  0.73057457849E+02 -0.35742856777E+02  0.85674064483E+02  0.00000000000E+00 0.  1.
         13    1    5    5    0    0  0.36275436742E+02 -0.54003805901E+02 -0.21339941176E+03  0.22309555644E+03  0.00000000000E+00 0. -1.
        -13    1    5    5    0    0  0.69705146923E+02 -0.23326131869E+02 -0.67606868460E+02  0.99867935788E+02  0.00000000000E+00 0.  1.
          4    1    6    6  503    0 -0.40774224681E+02 -0.22279907340E+03  0.23022839169E+03  0.32296606145E+03  0.00000000000E+00 0.  1.
         -4    1    6    6    0  503  0.80192946745E+01 -0.26676268123E+03  0.39451579602E+03  0.47630804160E+03  0.00000000000E+00 0. -1.
<mgrwt>
<rscale>  0 0.17725963E+04</rscale>
<asrwt>0</asrwt>
<pdfrwt beam="1">  1        1 0.13245250E+00 0.17725963E+04</pdfrwt>
<pdfrwt beam="2">  1       -4 0.14036953E+00 0.17725963E+04</pdfrwt>
<totfact> 0.31840546E+00</totfact>
</mgrwt>
</event>
<event>
12    5  0.5246737E-008  0.2926836E+04  0.7818608E-02  0.8264937E-01
         -2   -1    0    0    0  501 -0.00000000000E+00  0.00000000000E+00  0.15618640001E+04  0.15618640001E+04  0.00000000000E+00 0.  1.
          1   -1    0    0  501    0  0.00000000000E+00 -0.00000000000E+00 -0.13711772490E+04  0.13711772490E+04  0.00000000000E+00 0. -1.
        -24    2    1    2    0    0 -0.76230577378E+03  0.93602793705E+03 -0.45495534069E+03  0.12925437539E+04  0.80166090327E+02 0.  0.
        254    2    1    2    0    0  0.76230577378E+03 -0.93602793705E+03  0.64564209179E+03  0.16404974952E+04  0.90394686210E+03 0.  0.
         23    2    4    4    0    0  0.68614180737E+02  0.16608589936E+03  0.10387105723E+03  0.22705860672E+03  0.92054237221E+02 0.  0.
         23    2    4    4    0    0  0.69369159304E+03 -0.11021138364E+04  0.54177103457E+03  0.14134388885E+04  0.91818859713E+02 0.  0.
          3    1    3    3  502    0 -0.75113185496E+03  0.92827592553E+03 -0.45742228820E+03  0.12787221775E+04  0.00000000000E+00 0. -1.
         -2    1    3    3    0  502 -0.11173918820E+02  0.77520115150E+01  0.24669475108E+01  0.13821576406E+02  0.00000000000E+00 0.  1.
         13    1    5    5    0    0  0.11645201146E+02  0.89572423882E+01  0.48983875650E+02  0.51139641909E+02  0.00000000000E+00 0.  1.
        -13    1    5    5    0    0  0.56968979592E+02  0.15712865697E+03  0.54887181578E+02  0.17591896481E+03  0.00000000000E+00 0. -1.
          1    1    6    6  503    0  0.60187154289E+03 -0.94655666787E+03  0.43169169569E+03  0.12019054038E+04  0.00000000000E+00 0. -1.
         -1    1    6    6    0  503  0.91820050155E+02 -0.15555716854E+03  0.11007933887E+03  0.21153348468E+03  0.00000000000E+00 0.  1.
<mgrwt>
<rscale>  0 0.29268361E+04</rscale>
<asrwt>0</asrwt>
<pdfrwt beam="1">  1        1 0.21095035E+00 0.29268361E+04</pdfrwt>
<pdfrwt beam="2">  1       -2 0.24028677E+00 0.29268361E+04</pdfrwt>
<totfact> 0.44659335E-01</totfact>
</mgrwt>
</event>
<event>
12    5  0.5246737E-008  0.1675829E+04  0.7818608E-02  0.8775271E-01
         -2   -1    0    0    0  501 -0.00000000000E+00  0.00000000000E+00  0.23200609841E+04  0.23200609841E+04  0.00000000000E+00 0.  1.
          1   -1    0    0  501    0  0.00000000000E+00 -0.00000000000E+00 -0.30262167898E+03  0.30262167898E+03  0.00000000000E+00 0. -1.
        -24    2    1    2    0    0 -0.20798313948E+03 -0.28828762945E+02  0.15623923810E+04  0.15784236738E+04  0.79140746976E+02 0.  0.
        254    2    1    2    0    0  0.20798313948E+03  0.28828762945E+02  0.45504692413E+03  0.10442589893E+04  0.91614466637E+03 0.  0.
         23    2    4    4    0    0  0.53135461845E+02 -0.17668853383E+03  0.66638335387E+03  0.69842877983E+03  0.98456949450E+02 0.  0.
         23    2    4    4    0    0  0.15484767764E+03  0.20551729677E+03 -0.21133642974E+03  0.34583020948E+03  0.93382464698E+02 0.  0.
          3    1    3    3  502    0 -0.13861275400E+03 -0.41666312125E+02  0.81901176821E+03  0.83170298400E+03  0.00000000000E+00 0. -1.
         -4    1    3    3    0  502 -0.69370385479E+02  0.12837549180E+02  0.74338061281E+03  0.74672068979E+03  0.00000000000E+00 0.  1.
         13    1    5    5    0    0 -0.14121886208E+01  0.17355763157E+01 -0.28790227792E+01  0.36462685051E+01  0.00000000000E+00 0. -1.
        -13    1    5    5    0    0  0.54547650466E+02 -0.17842411014E+03  0.66926237665E+03  0.69478251133E+03  0.00000000000E+00 0.  1.
          1    1    6    6  503    0  0.14098385381E+03  0.16605438958E+03 -0.12817829738E+03  0.25274529323E+03  0.00000000000E+00 0.  1.
         -1    1    6    6    0  503  0.13863823830E+02  0.39462907195E+02 -0.83158132360E+02  0.93084916249E+02  0.00000000000E+00 0. -1.
<mgrwt>
<rscale>  0 0.16758290E+04</rscale>
<asrwt>0</asrwt>
<pdfrwt beam="1">  1        1 0.46557183E-01 0.16758290E+04</pdfrwt>
<pdfrwt beam="2">  1       -2 0.35693245E+00 0.16758290E+04</pdfrwt>
<totfact> 0.10209813E+00</totfact>
</mgrwt>
</event>
<event>
12    5  0.5246737E-008  0.1727323E+04  0.7818608E-02  0.8745933E-01
         -2   -1    0    0    0  501 -0.00000000000E+00  0.00000000000E+00  0.26595517723E+03  0.26595517723E+03  0.00000000000E+00 0.  1.
          1   -1    0    0  501    0  0.00000000000E+00 -0.00000000000E+00 -0.28046485320E+04  0.28046485320E+04  0.00000000000E+00 0. -1.
        -24    2    1    2    0    0 -0.17959867217E+03 -0.22280924769E+03 -0.19183852841E+04  0.19415285777E+04  0.86206007707E+02 0.  0.
        254    2    1    2    0    0  0.17959867217E+03  0.22280924769E+03 -0.62030807065E+03  0.11290751315E+04  0.89895990247E+03 0.  0.
         23    2    4    4    0    0 -0.27149846243E+03  0.11854159209E+03  0.44615517209E+02  0.31363611202E+03  0.92809171036E+02 0.  0.
         23    2    4    4    0    0  0.45109713460E+03  0.10426765560E+03 -0.66492358786E+03  0.81543901952E+03  0.91962209750E+02 0.  0.
          1    1    3    3  502    0 -0.84447349195E+02 -0.14159142526E+03 -0.84967834936E+03  0.86552457150E+03  0.00000000000E+00 0. -1.
         -2    1    3    3    0  502 -0.95151322973E+02 -0.81217822428E+02 -0.10687069347E+04  0.10760040062E+04  0.00000000000E+00 0.  1.
         13    1    5    5    0    0 -0.16489380148E+03  0.42430429352E+02 -0.12532044768E+02  0.17072597708E+03  0.00000000000E+00 0.  1.
        -13    1    5    5    0    0 -0.10660466095E+03  0.76111162740E+02  0.57147561977E+02  0.14291013494E+03  0.00000000000E+00 0. -1.
          1    1    6    6  503    0  0.24392368833E+03  0.24959427049E+02 -0.40787553931E+03  0.47590355567E+03  0.00000000000E+00 0. -1.
         -1    1    6    6    0  503  0.20717344627E+03  0.79308228551E+02 -0.25704804855E+03  0.33953546386E+03  0.00000000000E+00 0.  1.
<mgrwt>
<rscale>  0 0.17273225E+04</rscale>
<asrwt>0</asrwt>
<pdfrwt beam="1">  1        1 0.43148441E+00 0.17273225E+04</pdfrwt>
<pdfrwt beam="2">  1       -2 0.40916179E-01 0.17273225E+04</pdfrwt>
<totfact> 0.39117502E+00</totfact>
</mgrwt>
</event>
<event>
12    5  0.5246737E-008  0.1468383E+04  0.7818608E-02  0.8905754E-01
         -2   -1    0    0    0  501 -0.00000000000E+00  0.00000000000E+00  0.69216375151E+03  0.69216375151E+03  0.00000000000E+00 0.  1.
          1   -1    0    0  501    0  0.00000000000E+00 -0.00000000000E+00 -0.77877111416E+03  0.77877111416E+03  0.00000000000E+00 0. -1.
        -24    2    1    2    0    0 -0.34303972463E+03  0.15191720587E+03 -0.28553250250E+03  0.47703270540E+03  0.72638157513E+02 0.  0.
        254    2    1    2    0    0  0.34303972463E+03 -0.15191720587E+03  0.19892513985E+03  0.99390216026E+03  0.89861849680E+03 0.  0.
         23    2    4    4    0    0 -0.21354209022E+03  0.19377423224E+03  0.13003913978E+03  0.32853779123E+03  0.88759365814E+02 0.  0.
         23    2    4    4    0    0  0.55658181485E+03 -0.34569143811E+03  0.68886000076E+02  0.66536436903E+03  0.93158872691E+02 0.  0.
          3    1    3    3  502    0 -0.20206032755E+03  0.11327356791E+03 -0.20917622444E+03  0.31211211132E+03  0.00000000000E+00 0. -1.
         -4    1    3    3    0  502 -0.14097939708E+03  0.38643637952E+02 -0.76356278056E+02  0.16492059409E+03  0.00000000000E+00 0.  1.
         13    1    5    5    0    0 -0.11468051857E+02  0.29851302195E+02 -0.93976353038E+01  0.33330646640E+02  0.00000000000E+00 0.  1.
        -13    1    5    5    0    0 -0.20207403837E+03  0.16392293004E+03  0.13943677508E+03  0.29520714460E+03  0.00000000000E+00 0. -1.
          3    1    6    6  503    0  0.41834003645E+03 -0.30287169129E+03  0.42066671506E+02  0.51817878414E+03  0.00000000000E+00 0. -1.
         -3    1    6    6    0  503  0.13824177841E+03 -0.42819746814E+02  0.26819328570E+02  0.14718558489E+03  0.00000000000E+00 0.  1.
<mgrwt>
<rscale>  0 0.14683830E+04</rscale>
<asrwt>0</asrwt>
<pdfrwt beam="1">  1        1 0.11981094E+00 0.14683830E+04</pdfrwt>
<pdfrwt beam="2">  1       -2 0.10648673E+00 0.14683830E+04</pdfrwt>
<totfact> 0.13933524E+01</totfact>
</mgrwt>
</event>
<event>
12    5  0.5246737E-008  0.1323077E+04  0.7818608E-02  0.9011462E-01
          1   -1    0    0  501    0  0.00000000000E+00  0.00000000000E+00  0.69183629234E+03  0.69183629234E+03  0.00000000000E+00 0. -1.
         -2   -1    0    0    0  501 -0.00000000000E+00 -0.00000000000E+00 -0.63256770896E+03  0.63256770896E+03  0.00000000000E+00 0.  1.
        -24    2    1    2    0    0 -0.35153240268E+03  0.22524910340E+02 -0.56015763609E+02  0.36535618256E+03  0.79151580153E+02 0.  0.
        254    2    1    2    0    0  0.35153240268E+03 -0.22524910340E+02  0.11528434699E+03  0.95904781874E+03  0.88453368294E+03 0.  0.
         23    2    4    4    0    0 -0.24216565371E+03 -0.13891545558E+03  0.18018504828E+03  0.34402722069E+03  0.89142410333E+02 0.  0.
         23    2    4    4    0    0  0.59369805638E+03  0.11639054524E+03 -0.64900701295E+02  0.61502059805E+03  0.89521471320E+02 0.  0.
          1    1    3    3  502    0 -0.32990427194E+03  0.16550303841E+02 -0.31029047679E+02  0.33177333076E+03  0.00000000000E+00 0. -1.
         -2    1    3    3    0  502 -0.21628130738E+02  0.59746064994E+01 -0.24986715930E+02  0.33582851800E+02  0.00000000000E+00 0.  1.
         13    1    5    5    0    0 -0.12218709371E+03 -0.71428392773E+02  0.14352711742E+03  0.20157314950E+03  0.00000000000E+00 0. -1.
        -13    1    5    5    0    0 -0.11997855999E+03 -0.67487062805E+02  0.36657930857E+02  0.14245407119E+03  0.00000000000E+00 0.  1.
          4    1    6    6  503    0  0.95788893732E+02 -0.57074834217E+00 -0.37357483815E+02  0.10281740861E+03  0.00000000000E+00 0. -1.
         -4    1    6    6    0  503  0.49790916265E+03  0.11696129358E+03 -0.27543217480E+02  0.51220318945E+03  0.00000000000E+00 0.  1.
<mgrwt>
<rscale>  0 0.13230772E+04</rscale>
<asrwt>0</asrwt>
<pdfrwt beam="1">  1        1 0.10643635E+00 0.13230772E+04</pdfrwt>
<pdfrwt beam="2">  1       -2 0.97318109E-01 0.13230772E+04</pdfrwt>
<totfact> 0.20980878E+01</totfact>
</mgrwt>
</event>
<event>
12    5  0.5246737E-008  0.1219189E+04  0.7818608E-02  0.9096225E-01
         -2   -1    0    0    0  501 -0.00000000000E+00  0.00000000000E+00  0.11114340802E+04  0.11114340802E+04  0.00000000000E+00 0.  1.
          1   -1    0    0  501    0  0.00000000000E+00 -0.00000000000E+00 -0.33434751612E+03  0.33434751612E+03  0.00000000000E+00 0. -1.
        -24    2    1    2    0    0 -0.57429523829E+02  0.10921444698E+03 -0.94464204026E+02  0.17456807021E+03  0.79527225898E+02 0.  0.
        254    2    1    2    0    0  0.57429523829E+02 -0.10921444698E+03  0.87155076807E+03  0.12712135261E+04  0.91714619440E+03 0.  0.
         23    2    4    4    0    0  0.43125534988E+03  0.11489813482E+03  0.29380383385E+03  0.54222826313E+03  0.92239028459E+02 0.  0.
         23    2    4    4    0    0 -0.37382582605E+03 -0.22411258180E+03  0.57774693422E+03  0.72898526294E+03  0.87497405860E+02 0.  0.
          3    1    3    3  502    0 -0.18197111587E+02  0.10207534534E+03 -0.83731839220E+02  0.13327239735E+03  0.00000000000E+00 0. -1.
         -4    1    3    3    0  502 -0.39232412242E+02  0.71391016353E+01 -0.10732364806E+02  0.41295672858E+02  0.00000000000E+00 0.  1.
         13    1    5    5    0    0  0.18451845919E+02  0.24715619524E+02  0.72428792681E+01  0.31682672967E+02  0.00000000000E+00 0. -1.
        -13    1    5    5    0    0  0.41280350396E+03  0.90182515296E+02  0.28656095458E+03  0.51054559017E+03  0.00000000000E+00 0.  1.
          3    1    6    6  503    0 -0.19146705612E+03 -0.11061338291E+03  0.36439702025E+03  0.42623953644E+03  0.00000000000E+00 0. -1.
         -3    1    6    6    0  503 -0.18235876993E+03 -0.11349919889E+03  0.21334991397E+03  0.30274572649E+03  0.00000000000E+00 0.  1.
<mgrwt>
<rscale>  0 0.12191886E+04</rscale>
<asrwt>0</asrwt>
<pdfrwt beam="1">  1        1 0.51438080E-01 0.12191886E+04</pdfrwt>
<pdfrwt beam="2">  1       -2 0.17098986E+00 0.12191886E+04</pdfrwt>
<totfact> 0.13749293E+01</totfact>
</mgrwt>
</event>
<event>
12    5  0.5246737E-008  0.1849881E+04  0.7818608E-02  0.8680214E-01
          1   -1    0    0  501    0  0.00000000000E+00  0.00000000000E+00  0.26775957048E+04  0.26775957048E+04  0.00000000000E+00 0. -1.
         -2   -1    0    0    0  501 -0.00000000000E+00 -0.00000000000E+00 -0.31950864532E+03  0.31950864532E+03  0.00000000000E+00 0.  1.
        -24    2    1    2    0    0  0.27975938823E+03 -0.55782113716E+03  0.37310880360E+03  0.73124972590E+03  0.78014395713E+02 0.  0.
        254    2    1    2    0    0 -0.27975938823E+03  0.55782113716E+03  0.19849782558E+04  0.22658546242E+04  0.89695527503E+03 0.  0.
         23    2    4    4    0    0 -0.15452785625E+03  0.67214861525E+03  0.77889628629E+03  0.10445853568E+04  0.93896344878E+02 0.  0.
         23    2    4    4    0    0 -0.12523153198E+03 -0.11432747808E+03  0.12060819695E+04  0.12212692673E+04  0.90062185462E+02 0.  0.
          3    1    3    3  502    0  0.98654224545E+02 -0.12988677954E+03  0.78147348834E+02  0.18085972368E+03  0.00000000000E+00 0. -1.
         -4    1    3    3    0  502  0.18110516368E+03 -0.42793435762E+03  0.29496145477E+03  0.55039000222E+03  0.00000000000E+00 0.  1.
         13    1    5    5    0    0 -0.16520840508E+03  0.57545269030E+03  0.67484925488E+03  0.90214252349E+03  0.00000000000E+00 0. -1.
        -13    1    5    5    0    0  0.10680548836E+02  0.96695924951E+02  0.10404703141E+03  0.14244283334E+03  0.00000000000E+00 0.  1.
          1    1    6    6  503    0  0.13320665913E+02 -0.14352666197E+02  0.17970834489E+03  0.18077203431E+03  0.00000000000E+00 0. -1.
         -1    1    6    6    0  503 -0.13855219790E+03 -0.99974811888E+02  0.10263736247E+04  0.10404972330E+04  0.00000000000E+00 0.  1.
<mgrwt>
<rscale>  0 0.18498811E+04</rscale>
<asrwt>0</asrwt>
<pdfrwt beam="1">  1        1 0.41193778E+00 0.18498811E+04</pdfrwt>
<pdfrwt beam="2">  1       -2 0.49155178E-01 0.18498811E+04</pdfrwt>
<totfact> 0.32958351E+00</totfact>
</mgrwt>
</event>
<event>
12    5  0.5246737E-008  0.1819272E+04  0.7818608E-02  0.8696117E-01
         -2   -1    0    0    0  501 -0.00000000000E+00  0.00000000000E+00  0.57922371557E+03  0.57922371557E+03  0.00000000000E+00 0.  1.
          1   -1    0    0  501    0  0.00000000000E+00 -0.00000000000E+00 -0.14285293761E+04  0.14285293761E+04  0.00000000000E+00 0. -1.
        -24    2    1    2    0    0  0.36414184187E+03  0.53966652492E+03 -0.45847414153E+02  0.65747182164E+03  0.79548549574E+02 0.  0.
        254    2    1    2    0    0 -0.36414184187E+03 -0.53966652492E+03 -0.80345824640E+03  0.13502812701E+04  0.86825982023E+03 0.  0.
         23    2    4    4    0    0 -0.11785850186E+03  0.22889706586E+03 -0.19044745378E+03  0.33299101555E+03  0.91259468345E+02 0.  0.
         23    2    4    4    0    0 -0.24628334001E+03 -0.76856359079E+03 -0.61301079262E+03  0.10172902545E+04  0.88044042324E+02 0.  0.
          3    1    3    3  502    0  0.90632539317E+02  0.11786173309E+03 -0.42895667894E+02  0.15474392923E+03  0.00000000000E+00 0. -1.
         -4    1    3    3    0  502  0.27350930255E+03  0.42180479183E+03 -0.29517462590E+01  0.50272789240E+03  0.00000000000E+00 0.  1.
         13    1    5    5    0    0 -0.99910697796E+02  0.22492370370E+03 -0.19505841218E+03  0.31403917619E+03  0.00000000000E+00 0.  1.
        -13    1    5    5    0    0 -0.17947804063E+02  0.39733621607E+01  0.46109584006E+01  0.18951839354E+02  0.00000000000E+00 0. -1.
          1    1    6    6  503    0 -0.61014134866E+02 -0.15459363245E+03 -0.17065587966E+03  0.23821281474E+03  0.00000000000E+00 0. -1.
         -1    1    6    6    0  503 -0.18526920514E+03 -0.61396995834E+03 -0.44235491296E+03  0.77907743976E+03  0.00000000000E+00 0.  1.
<mgrwt>
<rscale>  0 0.18192725E+04</rscale>
<asrwt>0</asrwt>
<pdfrwt beam="1">  1        1 0.21977375E+00 0.18192725E+04</pdfrwt>
<pdfrwt beam="2">  1       -2 0.89111341E-01 0.18192725E+04</pdfrwt>
<totfact> 0.65579902E+00</totfact>
</mgrwt>
</event>
<event>
12    5  0.5246737E-008  0.2401762E+04  0.7818608E-02  0.8438844E-01
          1   -1    0    0  501    0  0.00000000000E+00  0.00000000000E+00  0.67595963829E+03  0.67595963829E+03  0.00000000000E+00 0. -1.
         -2   -1    0    0    0  501 -0.00000000000E+00 -0.00000000000E+00 -0.21334336533E+04  0.21334336533E+04  0.00000000000E+00 0.  1.
        -24    2    1    2    0    0  0.10491357503E+03  0.35222331169E+03 -0.18318753844E+04  0.18702297314E+04  0.83208800699E+02 0.  0.
        254    2    1    2    0    0 -0.10491357503E+03 -0.35222331169E+03  0.37440136937E+03  0.93916356028E+03  0.77896321354E+03 0.  0.
         23    2    4    4    0    0 -0.40087490404E+03 -0.27025119553E+03  0.69095360368E+02  0.49693374582E+03  0.91829088697E+02 0.  0.
         23    2    4    4    0    0  0.29596132901E+03 -0.81972116159E+02  0.30530600900E+03  0.44222981446E+03  0.89682292395E+02 0.  0.
          1    1    3    3  502    0 -0.10783639087E+02  0.38547488462E+02 -0.13864044483E+03  0.14430304460E+03  0.00000000000E+00 0. -1.
         -2    1    3    3    0  502  0.11569721412E+03  0.31367582323E+03 -0.16932349396E+04  0.17259266868E+04  0.00000000000E+00 0.  1.
         13    1    5    5    0    0 -0.40043287318E+03 -0.25453433682E+03  0.58735970535E+02  0.47810472574E+03  0.00000000000E+00 0.  1.
        -13    1    5    5    0    0 -0.44203085751E+00 -0.15716858716E+02  0.10359389833E+02  0.18829020073E+02  0.00000000000E+00 0. -1.
          1    1    6    6  503    0  0.12038274738E+02 -0.28253196709E+02  0.24278110737E+02  0.39148305760E+02  0.00000000000E+00 0. -1.
         -1    1    6    6    0  503  0.28392305427E+03 -0.53718919450E+02  0.28102789826E+03  0.40308150870E+03  0.00000000000E+00 0.  1.
<mgrwt>
<rscale>  0 0.24017619E+04</rscale>
<asrwt>0</asrwt>
<pdfrwt beam="1">  1        1 0.10399379E+00 0.24017619E+04</pdfrwt>
<pdfrwt beam="2">  1       -2 0.32822056E+00 0.24017619E+04</pdfrwt>
<totfact> 0.48059042E-01</totfact>
</mgrwt>
</event>
<event>
12    5  0.5246737E-008  0.1683929E+04  0.7818608E-02  0.8770584E-01
         -2   -1    0    0    0  501 -0.00000000000E+00  0.00000000000E+00  0.79660833351E+03  0.79660833351E+03  0.00000000000E+00 0.  1.
          1   -1    0    0  501    0  0.00000000000E+00 -0.00000000000E+00 -0.88990295935E+03  0.88990295935E+03  0.00000000000E+00 0. -1.
        -24    2    1    2    0    0  0.14117961256E+03 -0.39986116904E+03 -0.45346340364E+03  0.62800830916E+03  0.94576637859E+02 0.  0.
        254    2    1    2    0    0 -0.14117961256E+03  0.39986116904E+03  0.36016877780E+03  0.10585029837E+04  0.90049229896E+03 0.  0.
         23    2    4    4    0    0 -0.32615985889E+03  0.45412628095E+03  0.53777541564E+03  0.78125054111E+03  0.92407130292E+02 0.  0.
         23    2    4    4    0    0  0.18498024633E+03 -0.54265111907E+02 -0.17760663783E+03  0.27725244259E+03  0.90346030432E+02 0.  0.
          3    1    3    3  502    0  0.36959754319E+02 -0.19252687399E+03 -0.26162108694E+03  0.32692233601E+03  0.00000000000E+00 0. -1.
         -4    1    3    3    0  502  0.10421985824E+03 -0.20733429505E+03 -0.19184231670E+03  0.30108597315E+03  0.00000000000E+00 0.  1.
         13    1    5    5    0    0 -0.10405630324E+03  0.12339213923E+03  0.21301685992E+03  0.26726301068E+03  0.00000000000E+00 0. -1.
        -13    1    5    5    0    0 -0.22210355564E+03  0.33073414172E+03  0.32475855572E+03  0.51398753044E+03  0.00000000000E+00 0.  1.
          2    1    6    6  503    0  0.81455627710E+02  0.87201233806E+01 -0.11403440422E+03  0.14040977595E+03  0.00000000000E+00 0. -1.
         -2    1    6    6    0  503  0.10352461862E+03 -0.62985235287E+02 -0.63572233614E+02  0.13684266663E+03  0.00000000000E+00 0.  1.
<mgrwt>
<rscale>  0 0.16839289E+04</rscale>
<asrwt>0</asrwt>
<pdfrwt beam="1">  1        1 0.13690815E+00 0.16839289E+04</pdfrwt>
<pdfrwt beam="2">  1       -2 0.12255513E+00 0.16839289E+04</pdfrwt>
<totfact> 0.78023991E+00</totfact>
</mgrwt>
</event>
<event>
12    5  0.5246737E-008  0.1749559E+04  0.7818608E-02  0.8733593E-01
          1   -1    0    0  501    0  0.00000000000E+00  0.00000000000E+00  0.10458305132E+04  0.10458305132E+04  0.00000000000E+00 0. -1.
         -2   -1    0    0    0  501 -0.00000000000E+00 -0.00000000000E+00 -0.73170461358E+03  0.73170461358E+03  0.00000000000E+00 0.  1.
        -24    2    1    2    0    0 -0.78240147167E+02 -0.60109211515E+03 -0.10070899967E+03  0.61958089550E+03  0.79403601477E+02 0.  0.
        254    2    1    2    0    0  0.78240147167E+02  0.60109211515E+03  0.41483489928E+03  0.11579542313E+04  0.89517414871E+03 0.  0.
         23    2    4    4    0    0  0.47720036900E+03  0.35561725543E+03  0.26452772734E+03  0.65757144531E+03  0.90782501721E+02 0.  0.
         23    2    4    4    0    0 -0.39896022184E+03  0.24547485973E+03  0.15030717194E+03  0.50038278595E+03  0.91452289072E+02 0.  0.
          3    1    3    3  502    0 -0.79288710275E+02 -0.48314192101E+03 -0.53460186757E+02  0.49251477844E+03  0.00000000000E+00 0. -1.
         -4    1    3    3    0  502  0.10485631071E+01 -0.11795019414E+03 -0.47248812916E+02  0.12706611706E+03  0.00000000000E+00 0.  1.
         13    1    5    5    0    0  0.68403016771E+02  0.92587239020E+02  0.37552791266E+02  0.12108501833E+03  0.00000000000E+00 0.  1.
        -13    1    5    5    0    0  0.40879735223E+03  0.26303001641E+03  0.22697493607E+03  0.53648642698E+03  0.00000000000E+00 0. -1.
          1    1    6    6  503    0 -0.38678116385E+03  0.21746879517E+03  0.15384520438E+03  0.46963889585E+03  0.00000000000E+00 0. -1.
         -1    1    6    6    0  503 -0.12179057990E+02  0.28006064554E+02 -0.35380324441E+01  0.30743890106E+02  0.00000000000E+00 0.  1.
<mgrwt>
<rscale>  0 0.17495588E+04</rscale>
<asrwt>0</asrwt>
<pdfrwt beam="1">  1        1 0.16089700E+00 0.17495588E+04</pdfrwt>
<pdfrwt beam="2">  1       -2 0.11256994E+00 0.17495588E+04</pdfrwt>
<totfact> 0.71954944E+00</totfact>
</mgrwt>
</event>
<event>
12    5  0.5246737E-008  0.1713502E+04  0.7818608E-02  0.8753701E-01
          1   -1    0    0  501    0  0.00000000000E+00  0.00000000000E+00  0.88613550107E+03  0.88613550107E+03  0.00000000000E+00 0. -1.
         -2   -1    0    0    0  501 -0.00000000000E+00 -0.00000000000E+00 -0.82834093537E+03  0.82834093537E+03  0.00000000000E+00 0.  1.
        -24    2    1    2    0    0 -0.24801496199E+03  0.64013957043E+03  0.51987584315E+02  0.69308473874E+03  0.79835174927E+02 0.  0.
        254    2    1    2    0    0  0.24801496199E+03 -0.64013957043E+03  0.58069813842E+01  0.10213916977E+04  0.75625206650E+03 0.  0.
         23    2    4    4    0    0 -0.19759680395E+03 -0.31026824990E+03  0.19814114278E+03  0.42826155094E+03  0.94006168552E+02 0.  0.
         23    2    4    4    0    0  0.44561176594E+03 -0.32987132053E+03 -0.19233416140E+03  0.59313014676E+03  0.86174284417E+02 0.  0.
          3    1    3    3  502    0 -0.83326123975E+02  0.20488173788E+03 -0.20395342109E+02  0.22211649968E+03  0.00000000000E+00 0. -1.
         -4    1    3    3    0  502 -0.16468883802E+03  0.43525783255E+03  0.72382926424E+02  0.47096823906E+03  0.00000000000E+00 0.  1.
         13    1    5    5    0    0 -0.98345718049E+02 -0.17907752591E+03  0.58594356369E+02  0.21254161744E+03  0.00000000000E+00 0. -1.
        -13    1    5    5    0    0 -0.99251085902E+02 -0.13119072399E+03  0.13954678641E+03  0.21571993351E+03  0.00000000000E+00 0.  1.
          3    1    6    6  503    0  0.12744114279E+03 -0.54939122278E+02 -0.68571018605E+02  0.15479514406E+03  0.00000000000E+00 0. -1.
         -3    1    6    6    0  503  0.31817062315E+03 -0.27493219825E+03 -0.12376314279E+03  0.43833500269E+03  0.00000000000E+00 0.  1.
<mgrwt>
<rscale>  0 0.17135020E+04</rscale>
<asrwt>0</asrwt>
<pdfrwt beam="1">  1        1 0.13632854E+00 0.17135020E+04</pdfrwt>
<pdfrwt beam="2">  1       -2 0.12743707E+00 0.17135020E+04</pdfrwt>
<totfact> 0.71061717E+00</totfact>
</mgrwt>
</event>
<event>
12    5  0.5246737E-008  0.2437717E+04  0.7818608E-02  0.8425516E-01
          1   -1    0    0  501    0  0.00000000000E+00  0.00000000000E+00  0.13332645068E+04  0.13332645068E+04  0.00000000000E+00 0. -1.
         -2   -1    0    0    0  501 -0.00000000000E+00 -0.00000000000E+00 -0.11142693828E+04  0.11142693828E+04  0.00000000000E+00 0.  1.
        -24    2    1    2    0    0 -0.54366220610E+03 -0.37351994296E+03 -0.72894920596E+03  0.98630216706E+03  0.79619581428E+02 0.  0.
        254    2    1    2    0    0  0.54366220610E+03  0.37351994296E+03  0.94794432997E+03  0.14612317226E+04  0.89527311606E+03 0.  0.
         23    2    4    4    0    0 -0.16046867179E+02  0.40874431646E+03  0.74974427347E+03  0.85940986052E+03  0.95600285438E+02 0.  0.
         23    2    4    4    0    0  0.55970907328E+03 -0.35224373502E+02  0.19820005650E+03  0.60182186210E+03  0.91603974307E+02 0.  0.
          3    1    3    3  502    0 -0.34996017735E+03 -0.22291735149E+03 -0.40395716059E+03  0.57909037198E+03  0.00000000000E+00 0. -1.
         -4    1    3    3    0  502 -0.19370202875E+03 -0.15060259147E+03 -0.32499204537E+03  0.40721179508E+03  0.00000000000E+00 0.  1.
         13    1    5    5    0    0 -0.26849729136E+01  0.19498977419E+03  0.45537342576E+03  0.49537175738E+03  0.00000000000E+00 0. -1.
        -13    1    5    5    0    0 -0.13361894266E+02  0.21375454227E+03  0.29437084771E+03  0.36403810314E+03  0.00000000000E+00 0.  1.
          1    1    6    6  503    0  0.22909588547E+03 -0.34518451513E+01  0.35082296482E+02  0.23179216445E+03  0.00000000000E+00 0. -1.
         -1    1    6    6    0  503  0.33061318780E+03 -0.31772528351E+02  0.16311776002E+03  0.37002969765E+03  0.00000000000E+00 0.  1.
<mgrwt>
<rscale>  0 0.24377168E+04</rscale>
<asrwt>0</asrwt>
<pdfrwt beam="1">  1        1 0.20511762E+00 0.24377168E+04</pdfrwt>
<pdfrwt beam="2">  1       -2 0.17142606E+00 0.24377168E+04</pdfrwt>
<totfact> 0.13981037E+00</totfact>
</mgrwt>
</event>
<event>
12    5  0.5246737E-008  0.1404419E+04  0.7818608E-02  0.8950626E-01
          1   -1    0    0  501    0  0.00000000000E+00  0.00000000000E+00  0.30885773571E+04  0.30885773571E+04  0.00000000000E+00 0. -1.
         -2   -1    0    0    0  501 -0.00000000000E+00 -0.00000000000E+00 -0.15965225657E+03  0.15965225657E+03  0.00000000000E+00 0.  1.
        -24    2    1    2    0    0 -0.15034295487E+03 -0.29244556624E+03  0.30487471438E+03  0.45587891021E+03  0.82155803264E+02 0.  0.
        254    2    1    2    0    0  0.15034295487E+03  0.29244556624E+03  0.26240503862E+04  0.27923507035E+04  0.89635629571E+03 0.  0.
         23    2    4    4    0    0  0.12120886999E+03 -0.23504773455E+03  0.31517358931E+03  0.42212955265E+03  0.94445434741E+02 0.  0.
         23    2    4    4    0    0  0.29134084885E+02  0.52749330078E+03  0.23088767969E+04  0.23702211509E+04  0.89096933477E+02 0.  0.
          3    1    3    3  502    0 -0.19593281130E+02 -0.31228710917E+02  0.77093296236E+02  0.85454697797E+02  0.00000000000E+00 0. -1.
         -4    1    3    3    0  502 -0.13074967374E+03 -0.26121685532E+03  0.22778141815E+03  0.37042421241E+03  0.00000000000E+00 0.  1.
         13    1    5    5    0    0  0.69191831831E+02 -0.42592455199E+02  0.84004546310E+02  0.11686911753E+03  0.00000000000E+00 0. -1.
        -13    1    5    5    0    0  0.52017038157E+02 -0.19245527935E+03  0.23116904300E+03  0.30526043512E+03  0.00000000000E+00 0.  1.
          4    1    6    6  503    0 -0.21088715286E+02  0.49951953268E+02  0.29014774536E+03  0.29517053662E+03  0.00000000000E+00 0. -1.
         -4    1    6    6    0  503  0.50222800171E+02  0.47754134751E+03  0.20187290515E+04  0.20750506142E+04  0.00000000000E+00 0.  1.
<mgrwt>
<rscale>  0 0.14044192E+04</rscale>
<asrwt>0</asrwt>
<pdfrwt beam="1">  1        1 0.47516570E+00 0.14044192E+04</pdfrwt>
<pdfrwt beam="2">  1       -2 0.24561888E-01 0.14044192E+04</pdfrwt>
<totfact> 0.65821267E+00</totfact>
</mgrwt>
</event>
<event>
12    5  0.5246737E-008  0.1725426E+04  0.7818608E-02  0.8746994E-01
         -2   -1    0    0    0  501 -0.00000000000E+00  0.00000000000E+00  0.36839468586E+03  0.36839468586E+03  0.00000000000E+00 0.  1.
          1   -1    0    0  501    0  0.00000000000E+00 -0.00000000000E+00 -0.20203168700E+04  0.20203168700E+04  0.00000000000E+00 0. -1.
        -24    2    1    2    0    0  0.96995959206E+02 -0.51875163919E+01 -0.14554557862E+04  0.14608456757E+04  0.79268001755E+02 0.  0.
        254    2    1    2    0    0 -0.96995959206E+02  0.51875163919E+01 -0.19646639794E+03  0.92786588019E+03  0.90161018166E+03 0.  0.
         23    2    4    4    0    0  0.38404994001E+03 -0.33499556350E+02  0.78594096021E+01  0.39676154873E+03  0.93495344981E+02 0.  0.
         23    2    4    4    0    0 -0.48104589922E+03  0.38687072742E+02 -0.20432580754E+03  0.53110433146E+03  0.86144811335E+02 0.  0.
          3    1    3    3  502    0  0.54951817438E+02  0.12791030453E+02 -0.35633300726E+03  0.36077212304E+03  0.00000000000E+00 0. -1.
         -4    1    3    3    0  502  0.42044141768E+02 -0.17978546845E+02 -0.10991227790E+04  0.11000735527E+04  0.00000000000E+00 0.  1.
         13    1    5    5    0    0  0.37730667578E+02  0.10176088900E+02  0.26475805468E+02  0.47203011942E+02  0.00000000000E+00 0. -1.
        -13    1    5    5    0    0  0.34631927243E+03 -0.43675645251E+02 -0.18616395866E+02  0.34955853679E+03  0.00000000000E+00 0.  1.
          3    1    6    6  503    0 -0.10700017512E+03 -0.11261729575E+02 -0.78970912678E+02  0.13346261303E+03  0.00000000000E+00 0. -1.
         -3    1    6    6    0  503 -0.37404572410E+03  0.49948802317E+02 -0.12535489486E+03  0.39764171843E+03  0.00000000000E+00 0.  1.
<mgrwt>
<rscale>  0 0.17254263E+04</rscale>
<asrwt>0</asrwt>
<pdfrwt beam="1">  1        1 0.31081798E+00 0.17254263E+04</pdfrwt>
<pdfrwt beam="2">  1       -2 0.56676106E-01 0.17254263E+04</pdfrwt>
<totfact> 0.70302260E+00</totfact>
</mgrwt>
</event>
<event>
12    5  0.5246737E-008  0.2738293E+04  0.7818608E-02  0.8322686E-01
          1   -1    0    0  501    0  0.00000000000E+00  0.00000000000E+00  0.20206682575E+04  0.20206682575E+04  0.00000000000E+00 0. -1.
         -2   -1    0    0    0  501 -0.00000000000E+00 -0.00000000000E+00 -0.92769395582E+03  0.92769395582E+03  0.00000000000E+00 0.  1.
        -24    2    1    2    0    0  0.59733954795E+03 -0.50274215142E+03  0.14903970020E+04  0.16843258963E+04  0.78142785784E+02 0.  0.
        254    2    1    2    0    0 -0.59733954795E+03  0.50274215142E+03 -0.39742270027E+03  0.12640363171E+04  0.91119635748E+03 0.  0.
         23    2    4    4    0    0 -0.75279649283E+03  0.22264929327E+03 -0.47489083090E+03  0.92200983969E+03  0.91134931831E+02 0.  0.
         23    2    4    4    0    0  0.15545694488E+03  0.28009285815E+03  0.77468130639E+02  0.34202647740E+03  0.91443584121E+02 0.  0.
          3    1    3    3  502    0  0.45055718766E+03 -0.35461046048E+03  0.10282061736E+04  0.11772672991E+04  0.00000000000E+00 0. -1.
         -4    1    3    3    0  502  0.14678236029E+03 -0.14813169094E+03  0.46219082837E+03  0.50705859719E+03  0.00000000000E+00 0.  1.
         13    1    5    5    0    0 -0.55766242601E+02 -0.74830798660E+01 -0.33781750767E+02  0.65628324548E+02  0.00000000000E+00 0.  1.
        -13    1    5    5    0    0 -0.69703025023E+03  0.23013237313E+03 -0.44110908014E+03  0.85638151514E+03  0.00000000000E+00 0. -1.
          1    1    6    6  503    0  0.58601667787E+02  0.19078282618E+03  0.29144726906E+02  0.20169694429E+03  0.00000000000E+00 0. -1.
         -1    1    6    6    0  503  0.96855277096E+02  0.89310031975E+02  0.48323403733E+02  0.14032953310E+03  0.00000000000E+00 0.  1.
<mgrwt>
<rscale>  0 0.27382927E+04</rscale>
<asrwt>0</asrwt>
<pdfrwt beam="1">  1        1 0.31087204E+00 0.27382927E+04</pdfrwt>
<pdfrwt beam="2">  1       -2 0.14272215E+00 0.27382927E+04</pdfrwt>
<totfact> 0.75388439E-01</totfact>
</mgrwt>
</event>
<event>
12    5  0.5246737E-008  0.1407532E+04  0.7818608E-02  0.8948384E-01
          1   -1    0    0  501    0  0.00000000000E+00  0.00000000000E+00  0.14370077716E+04  0.14370077716E+04  0.00000000000E+00 0. -1.
         -2   -1    0    0    0  501 -0.00000000000E+00 -0.00000000000E+00 -0.34466540570E+03  0.34466540570E+03  0.00000000000E+00 0.  1.
        -24    2    1    2    0    0 -0.33697452094E+03 -0.17013985647E+03  0.12139179801E+03  0.40543510377E+03  0.84511870285E+02 0.  0.
        254    2    1    2    0    0  0.33697452094E+03  0.17013985647E+03  0.97095056789E+03  0.13762380735E+04  0.89932576479E+03 0.  0.
         23    2    4    4    0    0  0.50944211166E+02  0.35119541927E+03  0.24614240629E+02  0.36704446153E+03  0.90455739071E+02 0.  0.
         23    2    4    4    0    0  0.28603030978E+03 -0.18105556279E+03  0.94633632726E+03  0.10091936120E+04  0.91240601052E+02 0.  0.
          3    1    3    3  502    0 -0.52389186769E+01 -0.12694387014E+02  0.20411020353E+02  0.24600883773E+02  0.00000000000E+00 0. -1.
         -4    1    3    3    0  502 -0.33173560226E+03 -0.15744546946E+03  0.10098077766E+03  0.38083422000E+03  0.00000000000E+00 0.  1.
         13    1    5    5    0    0 -0.13489412314E+01  0.75296094168E+02  0.41018223603E+02  0.85754394097E+02  0.00000000000E+00 0. -1.
        -13    1    5    5    0    0  0.52293152397E+02  0.27589932510E+03 -0.16403982974E+02  0.28129006743E+03  0.00000000000E+00 0.  1.
          1    1    6    6  503    0  0.14888625442E+03 -0.10497136602E+03  0.37788188381E+03  0.41950068242E+03  0.00000000000E+00 0. -1.
         -1    1    6    6    0  503  0.13714405536E+03 -0.76084196772E+02  0.56845444345E+03  0.58969292958E+03  0.00000000000E+00 0.  1.
<mgrwt>
<rscale>  0 0.14075324E+04</rscale>
<asrwt>0</asrwt>
<pdfrwt beam="1">  1        1 0.22107811E+00 0.14075324E+04</pdfrwt>
<pdfrwt beam="2">  1       -2 0.53025448E-01 0.14075324E+04</pdfrwt>
<totfact> 0.20752314E+01</totfact>
</mgrwt>
</event>
<event>
12    5  0.5246737E-008  0.1339467E+04  0.7818608E-02  0.8998840E-01
          1   -1    0    0  501    0  0.00000000000E+00  0.00000000000E+00  0.11720188594E+04  0.11720188594E+04  0.00000000000E+00 0. -1.
         -2   -1    0    0    0  501 -0.00000000000E+00 -0.00000000000E+00 -0.38270979403E+03  0.38270979403E+03  0.00000000000E+00 0.  1.
        -24    2    1    2    0    0  0.21385219925E+03 -0.23590229607E+03  0.43411355487E+03  0.54423744883E+03  0.79731836615E+02 0.  0.
        254    2    1    2    0    0 -0.21385219925E+03  0.23590229607E+03  0.35519551048E+03  0.10104912046E+04  0.89081197087E+03 0.  0.
         23    2    4    4    0    0  0.20645279429E+03  0.41735783191E+03  0.12497359174E+03  0.49002380876E+03  0.87718973929E+02 0.  0.
         23    2    4    4    0    0 -0.42030499355E+03 -0.18145553584E+03  0.23022191874E+03  0.52046739582E+03  0.91114099632E+02 0.  0.
          1    1    3    3  502    0  0.18882394531E+03 -0.19434571138E+03  0.40614736126E+03  0.48824217035E+03  0.00000000000E+00 0. -1.
         -4    1    3    3    0  502  0.25028253943E+02 -0.41556584689E+02  0.27966193612E+02  0.55995278476E+02  0.00000000000E+00 0.  1.
         13    1    5    5    0    0  0.20485425465E+03  0.35058082290E+03  0.11812287292E+03  0.42287727787E+03  0.00000000000E+00 0. -1.
        -13    1    5    5    0    0  0.15985396437E+01  0.66777009014E+02  0.68507188165E+01  0.67146530887E+02  0.00000000000E+00 0.  1.
          1    1    6    6  503    0 -0.82539429664E+02 -0.41998520486E+02  0.84057834461E+01  0.92990807973E+02  0.00000000000E+00 0. -1.
         -1    1    6    6    0  503 -0.33776556388E+03 -0.13945701536E+03  0.22181613530E+03  0.42747658784E+03  0.00000000000E+00 0.  1.
<mgrwt>
<rscale>  0 0.13394672E+04</rscale>
<asrwt>0</asrwt>
<pdfrwt beam="1">  1        1 0.18031059E+00 0.13394672E+04</pdfrwt>
<pdfrwt beam="2">  1       -2 0.58878430E-01 0.13394672E+04</pdfrwt>
<totfact> 0.25943035E+01</totfact>
</mgrwt>
</event>
<event>
12    5  0.5246737E-008  0.1469946E+04  0.7818608E-02  0.8904688E-01
         -2   -1    0    0    0  501 -0.00000000000E+00  0.00000000000E+00  0.10449037202E+04  0.10449037202E+04  0.00000000000E+00 0.  1.
          1   -1    0    0  501    0  0.00000000000E+00 -0.00000000000E+00 -0.51697166020E+03  0.51697166020E+03  0.00000000000E+00 0. -1.
        -24    2    1    2    0    0  0.14240149626E+03  0.19216319074E+03 -0.24436304233E+03  0.35117330790E+03  0.80028230734E+02 0.  0.
        254    2    1    2    0    0 -0.14240149626E+03 -0.19216319074E+03  0.77229510238E+03  0.12107020725E+04  0.90119637442E+03 0.  0.
         23    2    4    4    0    0 -0.45116978695E+03 -0.19983838322E+02  0.70109825526E+03  0.83888164740E+03  0.90720032937E+02 0.  0.
         23    2    4    4    0    0  0.30876829068E+03 -0.17217935242E+03  0.71196847125E+02  0.37182042514E+03  0.90541983507E+02 0.  0.
          1    1    3    3  502    0  0.14589365429E+03  0.17349868295E+03 -0.24271984829E+03  0.33211395048E+03  0.00000000000E+00 0. -1.
         -2    1    3    3    0  502 -0.34921580311E+01  0.18664507796E+02 -0.16431940410E+01  0.19059357429E+02  0.00000000000E+00 0.  1.
         13    1    5    5    0    0 -0.37191217082E+03  0.15699841169E+02  0.59328184655E+03  0.70039167418E+03  0.00000000000E+00 0.  1.
        -13    1    5    5    0    0 -0.79257616129E+02 -0.35683679491E+02  0.10781640870E+03  0.13848997322E+03  0.00000000000E+00 0. -1.
          3    1    6    6  503    0  0.20661701822E+03 -0.64435682664E+02  0.39587123020E+02  0.22002202101E+03  0.00000000000E+00 0. -1.
         -3    1    6    6    0  503  0.10215127246E+03 -0.10774366976E+03  0.31609724105E+02  0.15179840413E+03  0.00000000000E+00 0.  1.
<mgrwt>
<rscale>  0 0.14699464E+04</rscale>
<asrwt>0</asrwt>
<pdfrwt beam="1">  1        1 0.79534102E-01 0.14699464E+04</pdfrwt>
<pdfrwt beam="2">  1       -2 0.16075442E+00 0.14699464E+04</pdfrwt>
<totfact> 0.89168183E+00</totfact>
</mgrwt>
</event>
<event>
12    5  0.5246737E-008  0.2102718E+04  0.7818608E-02  0.8560047E-01
          1   -1    0    0  501    0  0.00000000000E+00  0.00000000000E+00  0.13059876430E+04  0.13059876430E+04  0.00000000000E+00 0. -1.
         -2   -1    0    0    0  501 -0.00000000000E+00 -0.00000000000E+00 -0.84637495542E+03  0.84637495542E+03  0.00000000000E+00 0.  1.
        -24    2    1    2    0    0 -0.69111811116E+03 -0.18464498911E+03  0.66638776685E+03  0.98140433721E+03  0.85695984264E+02 0.  0.
        254    2    1    2    0    0  0.69111811116E+03  0.18464498911E+03 -0.20677507924E+03  0.11709582612E+04  0.90368650570E+03 0.  0.
         23    2    4    4    0    0  0.72927322714E+03  0.45995207751E+02  0.17309920891E+03  0.75644656346E+03  0.91066285097E+02 0.  0.
         23    2    4    4    0    0 -0.38155115982E+02  0.13864978136E+03 -0.37987428815E+03  0.41451169778E+03  0.82679489906E+02 0.  0.
          1    1    3    3  502    0 -0.66116888645E+03 -0.17355039446E+03  0.65701170286E+03  0.94811835417E+03  0.00000000000E+00 0. -1.
         -2    1    3    3    0  502 -0.29949224704E+02 -0.11094594644E+02  0.93760639910E+01  0.33285983036E+02  0.00000000000E+00 0.  1.
         13    1    5    5    0    0  0.55096116259E+03 -0.18122650427E+01  0.11426233478E+03  0.56268762927E+03  0.00000000000E+00 0. -1.
        -13    1    5    5    0    0  0.17831206455E+03  0.47807472794E+02  0.58836874127E+02  0.19375893418E+03  0.00000000000E+00 0.  1.
          2    1    6    6  503    0 -0.50787759344E+02  0.14354019659E+03 -0.34536742603E+03  0.37744117886E+03  0.00000000000E+00 0. -1.
         -2    1    6    6    0  503  0.12632643361E+02 -0.48904152348E+01 -0.34506862117E+02  0.37070518915E+02  0.00000000000E+00 0.  1.
<mgrwt>
<rscale>  0 0.21027175E+04</rscale>
<asrwt>0</asrwt>
<pdfrwt beam="1">  1        1 0.20092118E+00 0.21027175E+04</pdfrwt>
<pdfrwt beam="2">  1       -2 0.13021153E+00 0.21027175E+04</pdfrwt>
<totfact> 0.31256221E+00</totfact>
</mgrwt>
</event>
<event>
12    5  0.5246737E-008  0.1230797E+04  0.7818608E-02  0.9086319E-01
          1   -1    0    0  501    0  0.00000000000E+00  0.00000000000E+00  0.23513597635E+04  0.23513597635E+04  0.00000000000E+00 0. -1.
         -2   -1    0    0    0  501 -0.00000000000E+00 -0.00000000000E+00 -0.16106235118E+03  0.16106235118E+03  0.00000000000E+00 0.  1.
        -24    2    1    2    0    0  0.11077615995E+03  0.23203941597E+03  0.26306596292E+03  0.37689733621E+03  0.82062494578E+02 0.  0.
        254    2    1    2    0    0 -0.11077615995E+03 -0.23203941597E+03  0.19272314494E+04  0.21355247785E+04  0.88325045809E+03 0.  0.
         23    2    4    4    0    0 -0.49101435066E+02 -0.53281048612E+03  0.15345328278E+04  0.16283960958E+04  0.10288284736E+03 0.  0.
         23    2    4    4    0    0 -0.61674724887E+02  0.30077107015E+03  0.39269862165E+03  0.50712868268E+03  0.93275318400E+02 0.  0.
          3    1    3    3  502    0 -0.21857637098E+01  0.33480201417E+02  0.70668363648E+02  0.78228633317E+02  0.00000000000E+00 0. -1.
         -4    1    3    3    0  502  0.11296192366E+03  0.19855921455E+03  0.19239759927E+03  0.29866870289E+03  0.00000000000E+00 0.  1.
         13    1    5    5    0    0 -0.77032968650E+02 -0.35656483165E+03  0.10880805804E+04  0.11476026782E+04  0.00000000000E+00 0. -1.
        -13    1    5    5    0    0  0.27931533584E+02 -0.17624565446E+03  0.44645224734E+03  0.48079341763E+03  0.00000000000E+00 0.  1.
          1    1    6    6  503    0 -0.15837804916E+02  0.25640381773E+03  0.32158634520E+03  0.41159632073E+03  0.00000000000E+00 0. -1.
         -1    1    6    6    0  503 -0.45836919971E+02  0.44367252417E+02  0.71112276444E+02  0.95532361954E+02  0.00000000000E+00 0.  1.
<mgrwt>
<rscale>  0 0.12307974E+04</rscale>
<asrwt>0</asrwt>
<pdfrwt beam="1">  1        1 0.36174763E+00 0.12307974E+04</pdfrwt>
<pdfrwt beam="2">  1       -2 0.24778825E-01 0.12307974E+04</pdfrwt>
<totfact> 0.21784815E+01</totfact>
</mgrwt>
</event>
<event>
12    5  0.5246737E-008  0.2905302E+04  0.7818608E-02  0.8271302E-01
         -2   -1    0    0    0  501 -0.00000000000E+00  0.00000000000E+00  0.14446468678E+04  0.14446468678E+04  0.00000000000E+00 0.  1.
          1   -1    0    0  501    0  0.00000000000E+00 -0.00000000000E+00 -0.14606995743E+04  0.14606995743E+04  0.00000000000E+00 0. -1.
        -24    2    1    2    0    0 -0.12543959739E+04  0.32906051612E+03 -0.11518366737E+03  0.13046399962E+04  0.83834120457E+02 0.  0.
        254    2    1    2    0    0  0.12543959739E+04 -0.32906051612E+03  0.99130960931E+02  0.16007064459E+04  0.93308311308E+03 0.  0.
         23    2    4    4    0    0  0.12051689600E+04 -0.43982743792E+03  0.32589794017E+03  0.13267989669E+04  0.91135249544E+02 0.  0.
         23    2    4    4    0    0  0.49227013916E+02  0.11076692180E+03 -0.22676697924E+03  0.27390747907E+03  0.94389800030E+02 0.  0.
          3    1    3    3  502    0 -0.12117651338E+04  0.32865702392E+03 -0.12203375082E+03  0.12614604295E+04  0.00000000000E+00 0. -1.
         -2    1    3    3    0  502 -0.42630840093E+02  0.40349220381E+00  0.68500834532E+01  0.43179566653E+02  0.00000000000E+00 0.  1.
         13    1    5    5    0    0  0.11441722630E+04 -0.43795114748E+03  0.31007512295E+03  0.12637554972E+04  0.00000000000E+00 0. -1.
        -13    1    5    5    0    0  0.60996697049E+02 -0.18762904346E+01  0.15822817221E+02  0.63043469618E+02  0.00000000000E+00 0.  1.
          2    1    6    6  503    0  0.42323532709E+02  0.12811694168E+03 -0.20092900930E+03  0.24202830195E+03  0.00000000000E+00 0. -1.
         -2    1    6    6    0  503  0.69034812068E+01 -0.17350019884E+02 -0.25837969940E+02  0.31879177113E+02  0.00000000000E+00 0.  1.
<mgrwt>
<rscale>  0 0.29053021E+04</rscale>
<asrwt>0</asrwt>
<pdfrwt beam="1">  1        1 0.22472301E+00 0.29053021E+04</pdfrwt>
<pdfrwt beam="2">  1       -2 0.22225336E+00 0.29053021E+04</pdfrwt>
<totfact> 0.50204086E-01</totfact>
</mgrwt>
</event>
<event>
12    5  0.5246737E-008  0.1634799E+04  0.7818608E-02  0.8799450E-01
          1   -1    0    0  501    0  0.00000000000E+00  0.00000000000E+00  0.16474580162E+04  0.16474580162E+04  0.00000000000E+00 0. -1.
         -2   -1    0    0    0  501 -0.00000000000E+00 -0.00000000000E+00 -0.40555950593E+03  0.40555950593E+03  0.00000000000E+00 0.  1.
        -24    2    1    2    0    0  0.33231794887E+03 -0.77764572786E+02  0.99037672790E+03  0.10503553951E+04  0.76927530125E+02 0.  0.
        254    2    1    2    0    0 -0.33231794887E+03  0.77764572786E+02  0.25152178242E+03  0.10026621271E+04  0.90861740361E+03 0.  0.
         23    2    4    4    0    0  0.72885303820E+02 -0.13775709782E+03  0.45666052529E+03  0.49114560332E+03  0.91629049952E+02 0.  0.
         23    2    4    4    0    0 -0.40520325269E+03  0.21552167061E+03 -0.20513874287E+03  0.51151652377E+03  0.94488008594E+02 0.  0.
          3    1    3    3  502    0  0.33137424302E+03 -0.65979886981E+02  0.95079308162E+03  0.10090439626E+04  0.00000000000E+00 0. -1.
         -4    1    3    3    0  502  0.94370585558E+00 -0.11784685805E+02  0.39583646279E+02  0.41311432474E+02  0.00000000000E+00 0.  1.
         13    1    5    5    0    0  0.47863376340E+02 -0.17377396877E+02  0.79128482273E+02  0.94096723767E+02  0.00000000000E+00 0. -1.
        -13    1    5    5    0    0  0.25021927481E+02 -0.12037970095E+03  0.37753204301E+03  0.39704887956E+03  0.00000000000E+00 0.  1.
          4    1    6    6  503    0 -0.15194631462E+03  0.43138187888E+02 -0.37701023111E+02  0.16238827829E+03  0.00000000000E+00 0. -1.
         -4    1    6    6    0  503 -0.25325693807E+03  0.17238348272E+03 -0.16743771975E+03  0.34912824548E+03  0.00000000000E+00 0.  1.
<mgrwt>
<rscale>  0 0.16347994E+04</rscale>
<asrwt>0</asrwt>
<pdfrwt beam="1">  1        1 0.25345508E+00 0.16347994E+04</pdfrwt>
<pdfrwt beam="2">  1       -2 0.62393771E-01 0.16347994E+04</pdfrwt>
<totfact> 0.10361091E+01</totfact>
</mgrwt>
</event>
<event>
12    5  0.5246737E-008  0.1267305E+04  0.7818608E-02  0.9055902E-01
         -2   -1    0    0    0  501 -0.00000000000E+00  0.00000000000E+00  0.50965737515E+03  0.50965737515E+03  0.00000000000E+00 0.  1.
          1   -1    0    0  501    0  0.00000000000E+00 -0.00000000000E+00 -0.78781504248E+03  0.78781504248E+03  0.00000000000E+00 0. -1.
        -24    2    1    2    0    0  0.18243249958E+03  0.25104399630E+03 -0.11258328955E+03  0.34012876050E+03  0.81901597343E+02 0.  0.
        254    2    1    2    0    0 -0.18243249958E+03 -0.25104399630E+03 -0.16557437777E+03  0.95734365714E+03  0.89038603892E+03 0.  0.
         23    2    4    4    0    0  0.24436544307E+03 -0.38019684678E+03 -0.19680653520E+03  0.50116657824E+03  0.90393665610E+02 0.  0.
         23    2    4    4    0    0 -0.42679794265E+03  0.12915285048E+03  0.31232157422E+02  0.45617707890E+03  0.91022728035E+02 0.  0.
          3    1    3    3  502    0  0.36287580794E+02  0.10090295101E+03 -0.64581192921E+02  0.12517557478E+03  0.00000000000E+00 0. -1.
         -4    1    3    3    0  502  0.14614491879E+03  0.15014104530E+03 -0.48002096632E+02  0.21495318572E+03  0.00000000000E+00 0.  1.
         13    1    5    5    0    0  0.80897433639E+02 -0.18553302297E+03 -0.12141166642E+03  0.23602476591E+03  0.00000000000E+00 0.  1.
        -13    1    5    5    0    0  0.16346800943E+03 -0.19466382381E+03 -0.75394868781E+02  0.26514181233E+03  0.00000000000E+00 0. -1.
          2    1    6    6  503    0 -0.27868517485E+03  0.12461563763E+03  0.39180949634E+02  0.30778179062E+03  0.00000000000E+00 0. -1.
         -2    1    6    6    0  503 -0.14811276779E+03  0.45372128472E+01 -0.79487922114E+01  0.14839528827E+03  0.00000000000E+00 0.  1.
<mgrwt>
<rscale>  0 0.12673054E+04</rscale>
<asrwt>0</asrwt>
<pdfrwt beam="1">  1        1 0.12120231E+00 0.12673054E+04</pdfrwt>
<pdfrwt beam="2">  1       -2 0.78408827E-01 0.12673054E+04</pdfrwt>
<totfact> 0.28280327E+01</totfact>
</mgrwt>
</event>
<event>
12    5  0.5246737E-008  0.2702275E+04  0.7818608E-02  0.8334267E-01
         -2   -1    0    0    0  501 -0.00000000000E+00  0.00000000000E+00  0.14027604442E+04  0.14027604442E+04  0.00000000000E+00 0.  1.
          1   -1    0    0  501    0  0.00000000000E+00 -0.00000000000E+00 -0.13014139529E+04  0.13014139529E+04  0.00000000000E+00 0. -1.
        -24    2    1    2    0    0  0.10000492324E+04  0.44649637506E+03 -0.42615839477E+03  0.11778819113E+04  0.79607406938E+02 0.  0.
        254    2    1    2    0    0 -0.10000492324E+04 -0.44649637506E+03  0.52750488611E+03  0.15262924859E+04  0.92295713188E+03 0.  0.
         23    2    4    4    0    0 -0.53822494464E+03 -0.72720889966E+02  0.70944049452E+03  0.89809829062E+03  0.91106012258E+02 0.  0.
         23    2    4    4    0    0 -0.46182428780E+03 -0.37377548509E+03 -0.18193560842E+03  0.62819419525E+03  0.92399108627E+02 0.  0.
          1    1    3    3  502    0  0.74161465920E+03  0.34309485775E+03 -0.35267991125E+03  0.88999410332E+03  0.00000000000E+00 0. -1.
         -2    1    3    3    0  502  0.25843457325E+03  0.10340151731E+03 -0.73478483523E+02  0.28788780796E+03  0.00000000000E+00 0.  1.
         13    1    5    5    0    0 -0.78322378367E+02  0.17074739458E+02  0.78616708212E+02  0.11227879805E+03  0.00000000000E+00 0. -1.
        -13    1    5    5    0    0 -0.45990256628E+03 -0.89795629424E+02  0.63082378631E+03  0.78581949257E+03  0.00000000000E+00 0.  1.
          4    1    6    6  503    0 -0.11334757700E+03 -0.50087782128E+02 -0.57253386290E+02  0.13650790956E+03  0.00000000000E+00 0.  1.
         -4    1    6    6    0  503 -0.34847671080E+03 -0.32368770296E+03 -0.12468222213E+03  0.49168628569E+03  0.00000000000E+00 0. -1.
<mgrwt>
<rscale>  0 0.27022746E+04</rscale>
<asrwt>0</asrwt>
<pdfrwt beam="1">  1        1 0.20021753E+00 0.27022746E+04</pdfrwt>
<pdfrwt beam="2">  1       -2 0.21580930E+00 0.27022746E+04</pdfrwt>
<totfact> 0.72676173E-01</totfact>
</mgrwt>
</event>
<event>
12    5  0.5246737E-008  0.1532268E+04  0.7818608E-02  0.8863274E-01
         -2   -1    0    0    0  501 -0.00000000000E+00  0.00000000000E+00  0.59238895320E+03  0.59238895320E+03  0.00000000000E+00 0.  1.
          1   -1    0    0  501    0  0.00000000000E+00 -0.00000000000E+00 -0.99083821126E+03  0.99083821126E+03  0.00000000000E+00 0. -1.
        -24    2    1    2    0    0 -0.39214494767E+03  0.16510234301E+03  0.14825782651E+03  0.45817162434E+03  0.83092782935E+02 0.  0.
        254    2    1    2    0    0  0.39214494767E+03 -0.16510234301E+03 -0.54670708457E+03  0.11250555401E+04  0.88646764656E+03 0.  0.
         23    2    4    4    0    0  0.18550175504E+03  0.16510916818E+03 -0.65869925771E+03  0.70990208030E+03  0.91675040091E+02 0.  0.
         23    2    4    4    0    0  0.20664319263E+03 -0.33021151119E+03  0.11199217314E+03  0.41515345982E+03  0.89828153571E+02 0.  0.
          1    1    3    3  502    0 -0.14558085584E+01  0.14759127900E+02  0.35696138335E+01  0.15254290474E+02  0.00000000000E+00 0. -1.
         -2    1    3    3    0  502 -0.39068913911E+03  0.15034321511E+03  0.14468821267E+03  0.44291733386E+03  0.00000000000E+00 0.  1.
         13    1    5    5    0    0  0.37228182428E+02  0.27411165013E+01 -0.47884190540E+02  0.60715294533E+02  0.00000000000E+00 0.  1.
        -13    1    5    5    0    0  0.14827357261E+03  0.16236805168E+03 -0.61081506717E+03  0.64918678577E+03  0.00000000000E+00 0. -1.
          1    1    6    6  503    0  0.72901790816E+02 -0.15983335845E+03  0.10590765060E+02  0.17599300521E+03  0.00000000000E+00 0. -1.
         -1    1    6    6    0  503  0.13374140181E+03 -0.17037815274E+03  0.10140140808E+03  0.23916045462E+03  0.00000000000E+00 0.  1.
<mgrwt>
<rscale>  0 0.15322684E+04</rscale>
<asrwt>0</asrwt>
<pdfrwt beam="1">  1        1 0.15243665E+00 0.15322684E+04</pdfrwt>
<pdfrwt beam="2">  1       -2 0.91136762E-01 0.15322684E+04</pdfrwt>
<totfact> 0.13357602E+01</totfact>
</mgrwt>
</event>
<event>
12    5  0.5246737E-008  0.1342316E+04  0.7818608E-02  0.8996665E-01
         -2   -1    0    0    0  501 -0.00000000000E+00  0.00000000000E+00  0.35889720742E+03  0.35889720742E+03  0.00000000000E+00 0.  1.
          1   -1    0    0  501    0  0.00000000000E+00 -0.00000000000E+00 -0.12551038895E+04  0.12551038895E+04  0.00000000000E+00 0. -1.
        -24    2    1    2    0    0 -0.14785472878E+03  0.14787344132E+03  0.11343390415E+03  0.25089405884E+03  0.79705725501E+02 0.  0.
        254    2    1    2    0    0  0.14785472878E+03 -0.14787344132E+03 -0.10096405862E+04  0.13631070380E+04  0.89160479384E+03 0.  0.
         23    2    4    4    0    0 -0.36644674447E+03 -0.62681224279E+02 -0.49678883188E+03  0.62726183677E+03  0.91902752834E+02 0.  0.
         23    2    4    4    0    0  0.51430147325E+03 -0.85192217043E+02 -0.51285175431E+03  0.73584520126E+03  0.81777252949E+02 0.  0.
          3    1    3    3  502    0 -0.93412535655E+02  0.69042319318E+02  0.21530847230E+02  0.11813687425E+03  0.00000000000E+00 0. -1.
         -4    1    3    3    0  502 -0.54442193122E+02  0.78831122004E+02  0.91903056923E+02  0.13275718459E+03  0.00000000000E+00 0.  1.
         13    1    5    5    0    0 -0.30511926044E+03 -0.19465790862E+02 -0.37041238445E+03  0.48029367543E+03  0.00000000000E+00 0.  1.
        -13    1    5    5    0    0 -0.61327484034E+02 -0.43215433416E+02 -0.12637644743E+03  0.14696816134E+03  0.00000000000E+00 0. -1.
          2    1    6    6  503    0  0.21254434648E+02  0.39331533857E+01 -0.44967713428E+01  0.22078080538E+02  0.00000000000E+00 0. -1.
         -2    1    6    6    0  503  0.49304703860E+03 -0.89125370429E+02 -0.50835498296E+03  0.71376712073E+03  0.00000000000E+00 0.  1.
<mgrwt>
<rscale>  0 0.13423163E+04</rscale>
<asrwt>0</asrwt>
<pdfrwt beam="1">  1        1 0.19309290E+00 0.13423163E+04</pdfrwt>
<pdfrwt beam="2">  1       -2 0.55214956E-01 0.13423163E+04</pdfrwt>
<totfact> 0.25811445E+01</totfact>
</mgrwt>
</event>
<event>
12    5  0.5246737E-008  0.1821295E+04  0.7818608E-02  0.8695056E-01
          1   -1    0    0  501    0  0.00000000000E+00  0.00000000000E+00  0.17894347149E+04  0.17894347149E+04  0.00000000000E+00 0. -1.
         -2   -1    0    0    0  501 -0.00000000000E+00 -0.00000000000E+00 -0.46343080846E+03  0.46343080846E+03  0.00000000000E+00 0.  1.
        -24    2    1    2    0    0  0.39470851316E+02  0.46878890591E+03  0.11113761860E+04  0.12096049173E+04  0.81645837962E+02 0.  0.
        254    2    1    2    0    0 -0.39470851316E+02 -0.46878890591E+03  0.21462772053E+03  0.10432606061E+04  0.90609417139E+03 0.  0.
         23    2    4    4    0    0  0.31460868635E+03  0.79707819422E+02 -0.32124710666E+02  0.33927227173E+03  0.93497140739E+02 0.  0.
         23    2    4    4    0    0 -0.35407953766E+03 -0.54849672533E+03  0.24675243119E+03  0.70398833437E+03  0.92151158141E+02 0.  0.
          1    1    3    3  502    0  0.37797804982E+02  0.30099426925E+03  0.61732705973E+03  0.68783640705E+03  0.00000000000E+00 0. -1.
         -2    1    3    3    0  502  0.16730463342E+01  0.16779463666E+03  0.49404912622E+03  0.52176851025E+03  0.00000000000E+00 0.  1.
         13    1    5    5    0    0  0.30236131752E+03  0.84408186951E+02 -0.10643923158E+02  0.31410253335E+03  0.00000000000E+00 0. -1.
        -13    1    5    5    0    0  0.12247368829E+02 -0.47003675289E+01 -0.21480787509E+02  0.25169738381E+02  0.00000000000E+00 0.  1.
          1    1    6    6  503    0 -0.29068478296E+03 -0.38445422336E+03  0.20143124701E+03  0.52237653104E+03  0.00000000000E+00 0. -1.
         -1    1    6    6    0  503 -0.63394754697E+02 -0.16404250197E+03  0.45321184186E+02  0.18161180334E+03  0.00000000000E+00 0.  1.
<mgrwt>
<rscale>  0 0.18212953E+04</rscale>
<asrwt>0</asrwt>
<pdfrwt beam="1">  1        1 0.27529764E+00 0.18212953E+04</pdfrwt>
<pdfrwt beam="2">  1       -2 0.71297049E-01 0.18212953E+04</pdfrwt>
<totfact> 0.61156866E+00</totfact>
</mgrwt>
</event>
<event>
12    5  0.5246737E-008  0.2689501E+04  0.7818608E-02  0.8338419E-01
          1   -1    0    0  501    0  0.00000000000E+00  0.00000000000E+00  0.13198815880E+04  0.13198815880E+04  0.00000000000E+00 0. -1.
         -2   -1    0    0    0  501 -0.00000000000E+00 -0.00000000000E+00 -0.13700884615E+04  0.13700884615E+04  0.00000000000E+00 0.  1.
        -24    2    1    2    0    0 -0.79475519789E+03  0.81220061824E+03 -0.39310743737E+03  0.12051098732E+04  0.80316127814E+02 0.  0.
        254    2    1    2    0    0  0.79475519789E+03 -0.81220061824E+03  0.34290056387E+03  0.14848601762E+04  0.89214532295E+03 0.  0.
         23    2    4    4    0    0  0.88813586540E+03 -0.44332181361E+03  0.54385724982E+02  0.99826192168E+03  0.90826820754E+02 0.  0.
         23    2    4    4    0    0 -0.93380667508E+02 -0.36887880463E+03  0.28851483889E+03  0.48659825450E+03  0.93517524824E+02 0.  0.
          3    1    3    3  502    0 -0.12084936028E+03  0.97958631732E+02 -0.76437407343E+02  0.17332956658E+03  0.00000000000E+00 0. -1.
         -4    1    3    3    0  502 -0.67390583762E+03  0.71424198651E+03 -0.31667003003E+03  0.10317803066E+04  0.00000000000E+00 0.  1.
         13    1    5    5    0    0  0.59029962477E+03 -0.25952805686E+03  0.52864498211E+01  0.64485378642E+03  0.00000000000E+00 0.  1.
        -13    1    5    5    0    0  0.29783624063E+03 -0.18379375675E+03  0.49099275161E+02  0.35340813527E+03  0.00000000000E+00 0. -1.
          2    1    6    6  503    0  0.15328579769E+02 -0.35684768912E+02  0.46964393662E+02  0.60942779409E+02  0.00000000000E+00 0. -1.
         -2    1    6    6    0  503 -0.10870924728E+03 -0.33319403572E+03  0.24155044523E+03  0.42565547509E+03  0.00000000000E+00 0.  1.
<mgrwt>
<rscale>  0 0.26895015E+04</rscale>
<asrwt>0</asrwt>
<pdfrwt beam="1">  1        1 0.20305871E+00 0.26895015E+04</pdfrwt>
<pdfrwt beam="2">  1       -2 0.21078284E+00 0.26895015E+04</pdfrwt>
<totfact> 0.76019052E-01</totfact>
</mgrwt>
</event>
<event>
12    5  0.5246737E-008  0.1544209E+04  0.7818608E-02  0.8855575E-01
          1   -1    0    0  501    0  0.00000000000E+00  0.00000000000E+00  0.46951619558E+03  0.46951619558E+03  0.00000000000E+00 0. -1.
         -2   -1    0    0    0  501 -0.00000000000E+00 -0.00000000000E+00 -0.12697011243E+04  0.12697011243E+04  0.00000000000E+00 0.  1.
        -24    2    1    2    0    0 -0.33417115361E+03 -0.21779691095E+03 -0.63045398141E+03  0.75032906949E+03  0.80097662440E+02 0.  0.
        254    2    1    2    0    0  0.33417115361E+03  0.21779691095E+03 -0.16973094727E+03  0.98888825035E+03  0.88881129769E+03 0.  0.
         23    2    4    4    0    0  0.18170518049E+03 -0.29150896433E+03  0.12183679759E+03  0.37556136113E+03  0.90597361018E+02 0.  0.
         23    2    4    4    0    0  0.15246597312E+03  0.50930587528E+03 -0.29156774486E+03  0.61332688922E+03  0.92302630725E+02 0.  0.
          1    1    3    3  502    0 -0.30065146560E+03 -0.16674905708E+03 -0.50666198899E+03  0.61229316744E+03  0.00000000000E+00 0. -1.
         -2    1    3    3    0  502 -0.33519688010E+02 -0.51047853872E+02 -0.12379199242E+03  0.13803590206E+03  0.00000000000E+00 0.  1.
         13    1    5    5    0    0  0.12896765347E+03 -0.14791332958E+03  0.34007413235E+02  0.19916704764E+03  0.00000000000E+00 0. -1.
        -13    1    5    5    0    0  0.52737527015E+02 -0.14359563475E+03  0.87829384358E+02  0.17639431349E+03  0.00000000000E+00 0.  1.
          4    1    6    6  503    0  0.78080269927E+02  0.39873833541E+03 -0.21734449547E+03  0.46078999380E+03  0.00000000000E+00 0. -1.
         -4    1    6    6    0  503  0.74385703196E+02  0.11056753988E+03 -0.74223249393E+02  0.15253689542E+03  0.00000000000E+00 0.  1.
<mgrwt>
<rscale>  0 0.15442088E+04</rscale>
<asrwt>0</asrwt>
<pdfrwt beam="1">  1        1 0.72233262E-01 0.15442088E+04</pdfrwt>
<pdfrwt beam="2">  1       -2 0.19533863E+00 0.15442088E+04</pdfrwt>
<totfact> 0.58105137E+00</totfact>
</mgrwt>
</event>
<event>
12    5  0.5246737E-008  0.1561363E+04  0.7818608E-02  0.8844642E-01
          1   -1    0    0  501    0  0.00000000000E+00  0.00000000000E+00  0.33388669222E+03  0.33388669222E+03  0.00000000000E+00 0. -1.
         -2   -1    0    0    0  501 -0.00000000000E+00 -0.00000000000E+00 -0.18253605011E+04  0.18253605011E+04  0.00000000000E+00 0.  1.
        -24    2    1    2    0    0 -0.36479734171E+03 -0.11575011403E+02  0.18843314517E+02  0.37407117110E+03  0.79768973551E+02 0.  0.
        254    2    1    2    0    0  0.36479734171E+03  0.11575011403E+02 -0.15103171234E+04  0.17851760222E+04  0.87896788090E+03 0.  0.
         23    2    4    4    0    0  0.28445084090E+02 -0.37031335719E+03 -0.36076055388E+03  0.52465140637E+03  0.84674763927E+02 0.  0.
         23    2    4    4    0    0  0.33635225762E+03  0.38188836859E+03 -0.11495565695E+04  0.12605246158E+04  0.92034957351E+02 0.  0.
          3    1    3    3  502    0 -0.12618766480E+03  0.26293338979E+02  0.29536612836E+02  0.13223871566E+03  0.00000000000E+00 0. -1.
         -4    1    3    3    0  502 -0.23860967691E+03 -0.37868350382E+02 -0.10693298319E+02  0.24183245544E+03  0.00000000000E+00 0.  1.
         13    1    5    5    0    0  0.72085489575E+01 -0.11321068208E+03 -0.16755890156E+03  0.20234773833E+03  0.00000000000E+00 0.  1.
        -13    1    5    5    0    0  0.21236535132E+02 -0.25710267510E+03 -0.19320165233E+03  0.32230366804E+03  0.00000000000E+00 0. -1.
          3    1    6    6  503    0  0.27561587421E+03  0.32481943264E+03 -0.10316030326E+04  0.11160988266E+04  0.00000000000E+00 0. -1.
         -3    1    6    6    0  503  0.60736383411E+02  0.57068935951E+02 -0.11795353691E+03  0.14442578921E+03  0.00000000000E+00 0.  1.
<mgrwt>
<rscale>  0 0.15613630E+04</rscale>
<asrwt>0</asrwt>
<pdfrwt beam="1">  1        1 0.51367182E-01 0.15613630E+04</pdfrwt>
<pdfrwt beam="2">  1       -2 0.28082470E+00 0.15613630E+04</pdfrwt>
<totfact> 0.26731688E+00</totfact>
</mgrwt>
</event>
<event>
12    5  0.5246737E-008  0.1400744E+04  0.7818608E-02  0.8953280E-01
         -2   -1    0    0    0  501 -0.00000000000E+00  0.00000000000E+00  0.24769504567E+03  0.24769504567E+03  0.00000000000E+00 0.  1.
          1   -1    0    0  501    0  0.00000000000E+00 -0.00000000000E+00 -0.19803409103E+04  0.19803409103E+04  0.00000000000E+00 0. -1.
        -24    2    1    2    0    0  0.29478663798E+03 -0.35582465830E+02 -0.65945621188E+02  0.31470681451E+03  0.80785396828E+02 0.  0.
        254    2    1    2    0    0 -0.29478663798E+03  0.35582465830E+02 -0.16667002435E+04  0.19133291415E+04  0.89150066083E+03 0.  0.
         23    2    4    4    0    0 -0.56040615185E+03 -0.97314877694E+02 -0.75321878089E+03  0.94856347079E+03  0.94386894090E+02 0.  0.
         23    2    4    4    0    0  0.26561951387E+03  0.13289734352E+03 -0.91348146260E+03  0.96476567071E+03  0.90049912865E+02 0.  0.
          3    1    3    3  502    0  0.28802713286E+02  0.41609013384E+01  0.16452424109E+02  0.33430400112E+02  0.00000000000E+00 0. -1.
         -4    1    3    3    0  502  0.26598392469E+03 -0.39743367168E+02 -0.82398045296E+02  0.28127641440E+03  0.00000000000E+00 0.  1.
         13    1    5    5    0    0 -0.34932827796E+03 -0.91721271081E+02 -0.52937709694E+03  0.64084565078E+03  0.00000000000E+00 0.  1.
        -13    1    5    5    0    0 -0.21107787389E+03 -0.55936066124E+01 -0.22384168395E+03  0.30771782001E+03  0.00000000000E+00 0. -1.
          3    1    6    6  503    0  0.15053628538E+03  0.38240586536E+02 -0.56048036927E+03  0.58160275104E+03  0.00000000000E+00 0. -1.
         -3    1    6    6    0  503  0.11508322849E+03  0.94656756988E+02 -0.35300109332E+03  0.38316291967E+03  0.00000000000E+00 0.  1.
<mgrwt>
<rscale>  0 0.14007436E+04</rscale>
<asrwt>0</asrwt>
<pdfrwt beam="1">  1        1 0.30466782E+00 0.14007436E+04</pdfrwt>
<pdfrwt beam="2">  1       -2 0.38106931E-01 0.14007436E+04</pdfrwt>
<totfact> 0.17114545E+01</totfact>
</mgrwt>
</event>
<event>
12    5  0.5246737E-008  0.1319168E+04  0.7818608E-02  0.9014502E-01
         -2   -1    0    0    0  501 -0.00000000000E+00  0.00000000000E+00  0.20814201950E+03  0.20814201950E+03  0.00000000000E+00 0.  1.
          1   -1    0    0  501    0  0.00000000000E+00 -0.00000000000E+00 -0.20901636397E+04  0.20901636397E+04  0.00000000000E+00 0. -1.
        -24    2    1    2    0    0  0.20897738066E+02  0.30448863574E+03 -0.24658363915E+03  0.40069385882E+03  0.81252893166E+02 0.  0.
        254    2    1    2    0    0 -0.20897738066E+02 -0.30448863574E+03 -0.16354379811E+04  0.18976118004E+04  0.91275577804E+03 0.  0.
         23    2    4    4    0    0 -0.71837579378E+02 -0.10057813156E+03  0.76171066327E+02  0.17072667585E+03  0.89827435358E+02 0.  0.
         23    2    4    4    0    0  0.50939841312E+02 -0.20391050418E+03 -0.17116090474E+04  0.17268851246E+04  0.91391143436E+02 0.  0.
          1    1    3    3  502    0 -0.66350164825E+01  0.84207448568E+02 -0.11480868859E+03  0.14253404090E+03  0.00000000000E+00 0. -1.
         -2    1    3    3    0  502  0.27532754549E+02  0.22028118718E+03 -0.13177495056E+03  0.25815981793E+03  0.00000000000E+00 0.  1.
         13    1    5    5    0    0 -0.77140297118E+02 -0.72573042151E+02  0.90054420021E+02  0.13902255375E+03  0.00000000000E+00 0. -1.
        -13    1    5    5    0    0  0.53027177403E+01 -0.28005089410E+02 -0.13883353694E+02  0.31704122100E+02  0.00000000000E+00 0.  1.
          4    1    6    6  503    0  0.45848908434E+02 -0.21270651227E+03 -0.15845337342E+04  0.15994040570E+04  0.00000000000E+00 0. -1.
         -4    1    6    6    0  503  0.50909328778E+01  0.87960080841E+01 -0.12707531321E+03  0.12748106754E+03  0.00000000000E+00 0.  1.
<mgrwt>
<rscale>  0 0.13191677E+04</rscale>
<asrwt>0</asrwt>
<pdfrwt beam="1">  1        1 0.32156363E+00 0.13191677E+04</pdfrwt>
<pdfrwt beam="2">  1       -2 0.32021850E-01 0.13191677E+04</pdfrwt>
<totfact> 0.20256533E+01</totfact>
</mgrwt>
</event>
<event>
12    5  0.5246737E-008  0.1245872E+04  0.7818608E-02  0.9073626E-01
          1   -1    0    0  501    0  0.00000000000E+00  0.00000000000E+00  0.77268624270E+03  0.77268624270E+03  0.00000000000E+00 0. -1.
         -2   -1    0    0    0  501 -0.00000000000E+00 -0.00000000000E+00 -0.50220805460E+03  0.50220805460E+03  0.00000000000E+00 0.  1.
        -24    2    1    2    0    0 -0.11125327954E+03  0.13642503610E+03  0.29402495615E+03  0.35165764306E+03  0.78888151203E+02 0.  0.
        254    2    1    2    0    0  0.11125327954E+03 -0.13642503610E+03 -0.23546768047E+02  0.92323665424E+03  0.90599248714E+03 0.  0.
         23    2    4    4    0    0 -0.54371989208E+02 -0.61606803852E+02  0.41869145213E+03  0.43640331724E+03  0.91616656342E+02 0.  0.
         23    2    4    4    0    0  0.16562526875E+03 -0.74818232252E+02 -0.44223822018E+03  0.48683333700E+03  0.91665462986E+02 0.  0.
          1    1    3    3  502    0 -0.66510081083E+02  0.82670741969E+02  0.24278258675E+03  0.26495551870E+03  0.00000000000E+00 0. -1.
         -4    1    3    3    0  502 -0.44743198455E+02  0.53754294136E+02  0.51242369398E+02  0.86702124354E+02  0.00000000000E+00 0.  1.
         13    1    5    5    0    0  0.23117336816E+02 -0.40519525244E+01  0.12715717930E+03  0.12930497990E+03  0.00000000000E+00 0.  1.
        -13    1    5    5    0    0 -0.77489326024E+02 -0.57554851327E+02  0.29153427283E+03  0.30709833734E+03  0.00000000000E+00 0. -1.
          4    1    6    6  503    0  0.82083421597E+02 -0.16320147267E+02 -0.30232444812E+03  0.31369428946E+03  0.00000000000E+00 0. -1.
         -4    1    6    6    0  503  0.83541847149E+02 -0.58498084986E+02 -0.13991377205E+03  0.17313904754E+03  0.00000000000E+00 0.  1.
<mgrwt>
<rscale>  0 0.12458720E+04</rscale>
<asrwt>0</asrwt>
<pdfrwt beam="1">  1        1 0.11887481E+00 0.12458720E+04</pdfrwt>
<pdfrwt beam="2">  1       -2 0.77262778E-01 0.12458720E+04</pdfrwt>
<totfact> 0.30189931E+01</totfact>
</mgrwt>
</event>
<event>
12    5  0.5246737E-008  0.2330409E+04  0.7818608E-02  0.8466027E-01
          1   -1    0    0  501    0  0.00000000000E+00  0.00000000000E+00  0.18139228566E+04  0.18139228566E+04  0.00000000000E+00 0. -1.
         -2   -1    0    0    0  501 -0.00000000000E+00 -0.00000000000E+00 -0.74848904107E+03  0.74848904107E+03  0.00000000000E+00 0.  1.
        -24    2    1    2    0    0 -0.43973702527E+03  0.35477348979E+03  0.13249659732E+04  0.14427765137E+04  0.82682269875E+02 0.  0.
        254    2    1    2    0    0  0.43973702527E+03 -0.35477348979E+03 -0.25953215769E+03  0.11196353840E+04  0.93112489591E+03 0.  0.
         23    2    4    4    0    0  0.90298747308E+02 -0.47835357342E+03 -0.46949374338E+03  0.68256098462E+03  0.92136408031E+02 0.  0.
         23    2    4    4    0    0  0.34943827796E+03  0.12358008363E+03  0.20996158569E+03  0.43707439938E+03  0.97831569294E+02 0.  0.
          1    1    3    3  502    0 -0.23437000357E+03  0.19247384458E+03  0.81410927792E+03  0.86876314138E+03  0.00000000000E+00 0. -1.
         -2    1    3    3    0  502 -0.20536702170E+03  0.16229964521E+03  0.51085669532E+03  0.57401337231E+03  0.00000000000E+00 0.  1.
         13    1    5    5    0    0 -0.89107881781E+01 -0.15000160176E+03 -0.17318604931E+03  0.22928866163E+03  0.00000000000E+00 0.  1.
        -13    1    5    5    0    0  0.99209535486E+02 -0.32835197166E+03 -0.29630769407E+03  0.45327232299E+03  0.00000000000E+00 0. -1.
          2    1    6    6  503    0  0.40953266284E+02  0.44885419664E+02  0.59145367947E+02  0.84794135807E+02  0.00000000000E+00 0. -1.
         -2    1    6    6    0  503  0.30848501168E+03  0.78694663965E+02  0.15081621775E+03  0.35228026357E+03  0.00000000000E+00 0.  1.
<mgrwt>
<rscale>  0 0.23304089E+04</rscale>
<asrwt>0</asrwt>
<pdfrwt beam="1">  1        1 0.27906505E+00 0.23304089E+04</pdfrwt>
<pdfrwt beam="2">  1       -2 0.11515216E+00 0.23304089E+04</pdfrwt>
<totfact> 0.18552849E+00</totfact>
</mgrwt>
</event>
<event>
12    5  0.5246737E-008  0.1116420E+04  0.7818608E-02  0.9189334E-01
          1   -1    0    0  501    0  0.00000000000E+00  0.00000000000E+00  0.86600028980E+03  0.86600028980E+03  0.00000000000E+00 0. -1.
         -2   -1    0    0    0  501 -0.00000000000E+00 -0.00000000000E+00 -0.35981341974E+03  0.35981341974E+03  0.00000000000E+00 0.  1.
        -24    2    1    2    0    0  0.43648648609E+02 -0.10494950628E+02 -0.10262303442E+03  0.13610879692E+03  0.77322499253E+02 0.  0.
        254    2    1    2    0    0 -0.43648648609E+02  0.10494950628E+02  0.60880990448E+03  0.10897049126E+04  0.90265826773E+03 0.  0.
         23    2    4    4    0    0 -0.24952667061E+03 -0.36721869289E+03  0.21947309493E+03  0.50366810150E+03  0.91651455604E+02 0.  0.
         23    2    4    4    0    0  0.20587802200E+03  0.37771364352E+03  0.38933680955E+03  0.58603681113E+03  0.82478095817E+02 0.  0.
          3    1    3    3  502    0 -0.96569870453E+01 -0.23820129685E+02 -0.84103473114E+01  0.27044221543E+02  0.00000000000E+00 0. -1.
         -4    1    3    3    0  502  0.53305635654E+02  0.13325179057E+02 -0.94212687108E+02  0.10906457537E+03  0.00000000000E+00 0.  1.
         13    1    5    5    0    0 -0.24025535423E+03 -0.37183564166E+03  0.21168021944E+03  0.49070652629E+03  0.00000000000E+00 0.  1.
        -13    1    5    5    0    0 -0.92713163806E+01  0.46169487695E+01  0.77928754937E+01  0.12961575206E+02  0.00000000000E+00 0. -1.
          2    1    6    6  503    0  0.79900118157E+02  0.21230716319E+03  0.23862250648E+03  0.32924012669E+03  0.00000000000E+00 0.  1.
         -2    1    6    6    0  503  0.12597790384E+03  0.16540648033E+03  0.15071430306E+03  0.25679668444E+03  0.00000000000E+00 0. -1.
<mgrwt>
<rscale>  0 0.11164202E+04</rscale>
<asrwt>0</asrwt>
<pdfrwt beam="1">  1        1 0.13323081E+00 0.11164202E+04</pdfrwt>
<pdfrwt beam="2">  1       -2 0.55355911E-01 0.11164202E+04</pdfrwt>
<totfact> 0.51960173E+01</totfact>
</mgrwt>
</event>
<event>
12    5  0.5246737E-008  0.1118630E+04  0.7818608E-02  0.9187222E-01
          1   -1    0    0  501    0  0.00000000000E+00  0.00000000000E+00  0.23920874728E+04  0.23920874728E+04  0.00000000000E+00 0. -1.
         -2   -1    0    0    0  501 -0.00000000000E+00 -0.00000000000E+00 -0.13077834752E+03  0.13077834752E+03  0.00000000000E+00 0.  1.
        -24    2    1    2    0    0  0.14728622347E+03  0.71526545365E+02  0.58529360630E+03  0.61293865342E+03  0.79472693217E+02 0.  0.
        254    2    1    2    0    0 -0.14728622347E+03 -0.71526545365E+02  0.16760155190E+04  0.19099271669E+04  0.90110181707E+03 0.  0.
         23    2    4    4    0    0 -0.72725269447E+01  0.24607328993E+03  0.81259905019E+02  0.27539278427E+03  0.92914260473E+02 0.  0.
         23    2    4    4    0    0 -0.14001369653E+03 -0.31759983529E+03  0.15947556140E+04  0.16345343826E+04  0.89351492285E+02 0.  0.
          1    1    3    3  502    0  0.11245340629E+03  0.44520753498E+02  0.52188593047E+03  0.53571708065E+03  0.00000000000E+00 0. -1.
         -2    1    3    3    0  502  0.34832817182E+02  0.27005791867E+02  0.63407675831E+02  0.77221572773E+02  0.00000000000E+00 0.  1.
         13    1    5    5    0    0  0.42819724133E+02  0.11116085533E+03  0.40516007911E+02  0.12582452634E+03  0.00000000000E+00 0. -1.
        -13    1    5    5    0    0 -0.50092251078E+02  0.13491243460E+03  0.40743897108E+02  0.14956825792E+03  0.00000000000E+00 0.  1.
          4    1    6    6  503    0 -0.97865249848E+02 -0.29239334319E+03  0.14138693293E+04  0.14470998426E+04  0.00000000000E+00 0. -1.
         -4    1    6    6    0  503 -0.42148446678E+02 -0.25206492106E+02  0.18088628471E+03  0.18743454003E+03  0.00000000000E+00 0.  1.
<mgrwt>
<rscale>  0 0.11186300E+04</rscale>
<asrwt>0</asrwt>
<pdfrwt beam="1">  1        1 0.36801342E+00 0.11186300E+04</pdfrwt>
<pdfrwt beam="2">  1       -2 0.20119748E-01 0.11186300E+04</pdfrwt>
<totfact> 0.29938001E+01</totfact>
</mgrwt>
</event>
<event>
12    5  0.5246737E-008  0.1534412E+04  0.7818608E-02  0.8861887E-01
         -4   -1    0    0    0  501 -0.00000000000E+00  0.00000000000E+00  0.60372952183E+03  0.60372952183E+03  0.00000000000E+00 0.  1.
          3   -1    0    0  501    0  0.00000000000E+00 -0.00000000000E+00 -0.97494801801E+03  0.97494801801E+03  0.00000000000E+00 0. -1.
        -24    2    1    2    0    0  0.28029781440E+03 -0.10442960537E+03 -0.53389441106E+03  0.61717563458E+03  0.79938191898E+02 0.  0.
        254    2    1    2    0    0 -0.28029781440E+03  0.10442960537E+03  0.16267591488E+03  0.96150190526E+03  0.89919411325E+03 0.  0.
         23    2    4    4    0    0  0.79105844526E+02 -0.20718152988E+03  0.36463503946E+03  0.43704007669E+03  0.94145608871E+02 0.  0.
         23    2    4    4    0    0 -0.35940365892E+03  0.31161113524E+03 -0.20195912458E+03  0.52446182857E+03  0.89444015834E+02 0.  0.
          1    1    3    3  502    0  0.22890393913E+03 -0.10786404730E+03 -0.48006084099E+03  0.54266939945E+03  0.00000000000E+00 0. -1.
         -2    1    3    3    0  502  0.51393875268E+02  0.34344419322E+01 -0.53833570070E+02  0.74506235128E+02  0.00000000000E+00 0.  1.
         13    1    5    5    0    0  0.45447340404E+02 -0.20121064591E+03  0.32177023688E+03  0.38221364461E+03  0.00000000000E+00 0.  1.
        -13    1    5    5    0    0  0.33658504122E+02 -0.59708839645E+01  0.42864802575E+02  0.54826432082E+02  0.00000000000E+00 0. -1.
          1    1    6    6  503    0 -0.83759768785E+02  0.36969946731E+02 -0.15037644552E+02  0.92782576931E+02  0.00000000000E+00 0. -1.
         -1    1    6    6    0  503 -0.27564389014E+03  0.27464118851E+03 -0.18692148003E+03  0.43167925164E+03  0.00000000000E+00 0.  1.
<mgrwt>
<rscale>  0 0.15344118E+04</rscale>
<asrwt>0</asrwt>
<pdfrwt beam="1">  1        3 0.14999200E+00 0.15344118E+04</pdfrwt>
<pdfrwt beam="2">  1       -4 0.92881465E-01 0.15344118E+04</pdfrwt>
<totfact> 0.70232395E-01</totfact>
</mgrwt>
</event>
<event>
12    5  0.5246737E-008  0.1988769E+04  0.7818608E-02  0.8611889E-01
         -2   -1    0    0    0  501 -0.00000000000E+00  0.00000000000E+00  0.73292759916E+03  0.73292759916E+03  0.00000000000E+00 0.  1.
          1   -1    0    0  501    0  0.00000000000E+00 -0.00000000000E+00 -0.13491112774E+04  0.13491112774E+04  0.00000000000E+00 0. -1.
        -24    2    1    2    0    0  0.75987177800E+03  0.15572594247E+03 -0.64298822767E+02  0.78238118581E+03  0.79563139325E+02 0.  0.
        254    2    1    2    0    0 -0.75987177800E+03 -0.15572594247E+03 -0.55188485546E+03  0.12996576907E+04  0.88480366818E+03 0.  0.
         23    2    4    4    0    0 -0.39479347485E+03  0.26073981038E+03  0.40263042486E+02  0.48365799431E+03  0.91960895879E+02 0.  0.
         23    2    4    4    0    0 -0.36507830316E+03 -0.41646575285E+03 -0.59214789795E+03  0.81599969642E+03  0.92143804875E+02 0.  0.
          3    1    3    3  502    0  0.59562804148E+03  0.13918562586E+03 -0.78528519504E+02  0.61669451970E+03  0.00000000000E+00 0. -1.
         -4    1    3    3    0  502  0.16424373652E+03  0.16540316613E+02  0.14229696737E+02  0.16568666612E+03  0.00000000000E+00 0.  1.
         13    1    5    5    0    0 -0.16842191296E+03  0.58123907308E+02  0.15960310083E+02  0.17888281322E+03  0.00000000000E+00 0.  1.
        -13    1    5    5    0    0 -0.22637156189E+03  0.20261590307E+03  0.24302732403E+02  0.30477518109E+03  0.00000000000E+00 0. -1.
          1    1    6    6  503    0 -0.13756739799E+03 -0.94455310854E+02 -0.16413881229E+03  0.23406867462E+03  0.00000000000E+00 0. -1.
         -1    1    6    6    0  503 -0.22751090517E+03 -0.32201044200E+03 -0.42800908566E+03  0.58193102180E+03  0.00000000000E+00 0.  1.
<mgrwt>
<rscale>  0 0.19887694E+04</rscale>
<asrwt>0</asrwt>
<pdfrwt beam="1">  1        1 0.20755558E+00 0.19887694E+04</pdfrwt>
<pdfrwt beam="2">  1       -2 0.11275809E+00 0.19887694E+04</pdfrwt>
<totfact> 0.42068799E+00</totfact>
</mgrwt>
</event>
<event>
12    5  0.5246737E-008  0.2108345E+04  0.7818608E-02  0.8557576E-01
          1   -1    0    0  501    0  0.00000000000E+00  0.00000000000E+00  0.10528296034E+04  0.10528296034E+04  0.00000000000E+00 0. -1.
         -2   -1    0    0    0  501 -0.00000000000E+00 -0.00000000000E+00 -0.10555175905E+04  0.10555175905E+04  0.00000000000E+00 0.  1.
        -24    2    1    2    0    0 -0.33021962892E+03  0.74931739908E+03 -0.25857516437E+03  0.86252398090E+03  0.81024280986E+02 0.  0.
        254    2    1    2    0    0  0.33021962892E+03 -0.74931739908E+03  0.25588717734E+03  0.12458232130E+04  0.90336906226E+03 0.  0.
         23    2    4    4    0    0  0.39375254395E+03 -0.40651881042E+03 -0.24951183839E+03  0.62539235845E+03  0.92524782694E+02 0.  0.
         23    2    4    4    0    0 -0.63532915027E+02 -0.34279858865E+03  0.50539901574E+03  0.62043085456E+03  0.89213096040E+02 0.  0.
          3    1    3    3  502    0 -0.34753978582E+02  0.34601460484E+02 -0.22147499855E+02  0.53810889648E+02  0.00000000000E+00 0. -1.
         -4    1    3    3    0  502 -0.29546565034E+03  0.71471593859E+03 -0.23642766452E+03  0.80871309125E+03  0.00000000000E+00 0.  1.
         13    1    5    5    0    0  0.38390144925E+03 -0.36196035366E+03 -0.23400898715E+03  0.57719652323E+03  0.00000000000E+00 0. -1.
        -13    1    5    5    0    0  0.98510946923E+01 -0.44558456759E+02 -0.15502851247E+02  0.48195835216E+02  0.00000000000E+00 0.  1.
          1    1    6    6  503    0 -0.45395928856E+02 -0.32910329470E+03  0.49314573939E+03  0.59461120845E+03  0.00000000000E+00 0. -1.
         -1    1    6    6    0  503 -0.18136986171E+02 -0.13695293948E+02  0.12253276351E+02  0.25819646106E+02  0.00000000000E+00 0.  1.
<mgrwt>
<rscale>  0 0.21083455E+04</rscale>
<asrwt>0</asrwt>
<pdfrwt beam="1">  1        1 0.16197378E+00 0.21083455E+04</pdfrwt>
<pdfrwt beam="2">  1       -2 0.16238732E+00 0.21083455E+04</pdfrwt>
<totfact> 0.26840502E+00</totfact>
</mgrwt>
</event>
<event>
12    5  0.5246737E-008  0.1435710E+04  0.7818608E-02  0.8928368E-01
         -2   -1    0    0    0  501 -0.00000000000E+00  0.00000000000E+00  0.90048963309E+03  0.90048963309E+03  0.00000000000E+00 0.  1.
          1   -1    0    0  501    0  0.00000000000E+00 -0.00000000000E+00 -0.57226189898E+03  0.57226189898E+03  0.00000000000E+00 0. -1.
        -24    2    1    2    0    0 -0.36863172476E+03  0.78361782121E+02 -0.11499062801E+03  0.40551542615E+03  0.95864482023E+02 0.  0.
        254    2    1    2    0    0  0.36863172476E+03 -0.78361782121E+02  0.44321836212E+03  0.10672361059E+04  0.89471809631E+03 0.  0.
         23    2    4    4    0    0  0.83324090982E+02  0.28134547565E+01  0.67110073118E+03  0.68242824406E+03  0.91549425099E+02 0.  0.
         23    2    4    4    0    0  0.28530763378E+03 -0.81175236878E+02 -0.22788236906E+03  0.38480786186E+03  0.90315289090E+02 0.  0.
          3    1    3    3  502    0 -0.76095782814E+02  0.39118809672E+02  0.76298683920E+01  0.85901480336E+02  0.00000000000E+00 0. -1.
         -4    1    3    3    0  502 -0.29253594195E+03  0.39242972449E+02 -0.12262049640E+03  0.31961394581E+03  0.00000000000E+00 0.  1.
         13    1    5    5    0    0  0.83445661754E+02  0.19715451612E+02  0.33157037850E+03  0.34247743487E+03  0.00000000000E+00 0. -1.
        -13    1    5    5    0    0 -0.12157077207E+00 -0.16901996855E+02  0.33953035268E+03  0.33995080919E+03  0.00000000000E+00 0.  1.
          2    1    6    6  503    0  0.10147553472E+03 -0.55234584355E+01 -0.34098623610E+02  0.10719379120E+03  0.00000000000E+00 0.  1.
         -2    1    6    6    0  503  0.18383209906E+03 -0.75651778442E+02 -0.19378374545E+03  0.27761407066E+03  0.00000000000E+00 0. -1.
<mgrwt>
<rscale>  0 0.14357101E+04</rscale>
<asrwt>0</asrwt>
<pdfrwt beam="1">  1        1 0.88040293E-01 0.14357101E+04</pdfrwt>
<pdfrwt beam="2">  1       -2 0.13853687E+00 0.14357101E+04</pdfrwt>
<totfact> 0.11505300E+01</totfact>
</mgrwt>
</event>
<event>
12    5  0.5246737E-008  0.3945456E+04  0.7818608E-02  0.8015641E-01
          1   -1    0    0  501    0  0.00000000000E+00  0.00000000000E+00  0.16334705990E+04  0.16334705990E+04  0.00000000000E+00 0. -1.
         -2   -1    0    0    0  501 -0.00000000000E+00 -0.00000000000E+00 -0.23824457430E+04  0.23824457430E+04  0.00000000000E+00 0.  1.
        -24    2    1    2    0    0 -0.66900453070E+01 -0.84650775230E+03  0.13387066954E+04  0.15857545148E+04  0.76561305993E+02 0.  0.
        254    2    1    2    0    0  0.66900453070E+01  0.84650775230E+03 -0.20876818395E+04  0.24301618272E+04  0.91140052227E+03 0.  0.
         23    2    4    4    0    0  0.99414965351E+02  0.11625091043E+03  0.34729674751E+02  0.18193366549E+03  0.92174285015E+02 0.  0.
         23    2    4    4    0    0 -0.92724920044E+02  0.73025684188E+03 -0.21224115142E+04  0.22482281617E+04  0.89589426838E+02 0.  0.
          3    1    3    3  502    0 -0.21338854054E+02 -0.80983662060E+03  0.12658990789E+04  0.15029275355E+04  0.00000000000E+00 0. -1.
         -4    1    3    3    0  502  0.14648808747E+02 -0.36671131703E+02  0.72807616472E+02  0.82826979388E+02  0.00000000000E+00 0.  1.
         13    1    5    5    0    0  0.34323135328E+02 -0.10369380696E+02  0.11670980082E+02  0.37706941680E+02  0.00000000000E+00 0. -1.
        -13    1    5    5    0    0  0.65091830023E+02  0.12662029113E+03  0.23058694669E+02  0.14422672381E+03  0.00000000000E+00 0.  1.
          1    1    6    6  503    0 -0.37737257043E+02  0.30775406944E+03 -0.76233241364E+03  0.82297471208E+03  0.00000000000E+00 0. -1.
         -1    1    6    6    0  503 -0.54987663001E+02  0.42250277244E+03 -0.13600791006E+04  0.14252534496E+04  0.00000000000E+00 0.  1.
<mgrwt>
<rscale>  0 0.39454557E+04</rscale>
<asrwt>0</asrwt>
<pdfrwt beam="1">  1        1 0.25130317E+00 0.39454557E+04</pdfrwt>
<pdfrwt beam="2">  1       -2 0.36653011E+00 0.39454557E+04</pdfrwt>
<totfact> 0.44632716E-02</totfact>
</mgrwt>
</event>
<event>
12    5  0.5246737E-008  0.1578644E+04  0.7818608E-02  0.8833777E-01
          1   -1    0    0  501    0  0.00000000000E+00  0.00000000000E+00  0.16628094269E+04  0.16628094269E+04  0.00000000000E+00 0. -1.
         -2   -1    0    0    0  501 -0.00000000000E+00 -0.00000000000E+00 -0.37468445135E+03  0.37468445135E+03  0.00000000000E+00 0.  1.
        -24    2    1    2    0    0 -0.13860496436E+03  0.51391708311E+03  0.37673079151E+03  0.65675527340E+03  0.77969836505E+02 0.  0.
        254    2    1    2    0    0  0.13860496436E+03 -0.51391708311E+03  0.91139418403E+03  0.13807386048E+04  0.89021212739E+03 0.  0.
         23    2    4    4    0    0 -0.18737596826E+03  0.17333213956E+03  0.25603601146E+03  0.37243859709E+03  0.89455493720E+02 0.  0.
         23    2    4    4    0    0  0.32598093262E+03 -0.68724922267E+03  0.65535817257E+03  0.10083000077E+04  0.92733536420E+02 0.  0.
          3    1    3    3  502    0 -0.88561124199E+02  0.26850698788E+03  0.24309630929E+03  0.37287382698E+03  0.00000000000E+00 0. -1.
         -4    1    3    3    0  502 -0.50043840164E+02  0.24541009523E+03  0.13363448222E+03  0.28388144641E+03  0.00000000000E+00 0.  1.
         13    1    5    5    0    0 -0.11414142473E+03  0.63452777898E+02  0.82860072680E+02  0.15466192650E+03  0.00000000000E+00 0. -1.
        -13    1    5    5    0    0 -0.73234543523E+02  0.10987936166E+03  0.17317593878E+03  0.21777667060E+03  0.00000000000E+00 0.  1.
          4    1    6    6  503    0  0.10814273880E+03 -0.26059170247E+03  0.30005341575E+03  0.41186762394E+03  0.00000000000E+00 0. -1.
         -4    1    6    6    0  503  0.21783819381E+03 -0.42665752020E+03  0.35530475682E+03  0.59643238380E+03  0.00000000000E+00 0.  1.
<mgrwt>
<rscale>  0 0.15786435E+04</rscale>
<asrwt>0</asrwt>
<pdfrwt beam="1">  1        1 0.25581683E+00 0.15786435E+04</pdfrwt>
<pdfrwt beam="2">  1       -2 0.57643763E-01 0.15786435E+04</pdfrwt>
<totfact> 0.12014581E+01</totfact>
</mgrwt>
</event>
<event>
12    5  0.5246737E-008  0.1364766E+04  0.7818608E-02  0.8979725E-01
         -2   -1    0    0    0  501 -0.00000000000E+00  0.00000000000E+00  0.14633683822E+04  0.14633683822E+04  0.00000000000E+00 0.  1.
          1   -1    0    0  501    0  0.00000000000E+00 -0.00000000000E+00 -0.31820181937E+03  0.31820181937E+03  0.00000000000E+00 0. -1.
        -24    2    1    2    0    0 -0.25867483708E+03  0.36487382450E+02  0.42832055595E+03  0.50778572760E+03  0.78382689999E+02 0.  0.
        254    2    1    2    0    0  0.25867483708E+03 -0.36487382450E+02  0.71684600688E+03  0.12737844740E+04  0.10200072000E+04 0.  0.
         23    2    4    4    0    0 -0.11270861553E+03  0.42684954778E+03  0.34242596152E+03  0.56604683895E+03  0.90827948945E+02 0.  0.
         23    2    4    4    0    0  0.37138345261E+03 -0.46333693023E+03  0.37442004537E+03  0.70773763502E+03  0.89974495655E+02 0.  0.
          1    1    3    3  502    0 -0.84074097565E+02 -0.52378338914E+01  0.81244194948E+02  0.11703208106E+03  0.00000000000E+00 0. -1.
         -2    1    3    3    0  502 -0.17460073952E+03  0.41725216342E+02  0.34707636100E+03  0.39075364654E+03  0.00000000000E+00 0.  1.
         13    1    5    5    0    0 -0.93261373412E+02  0.41697711056E+03  0.31415211977E+03  0.53033871145E+03  0.00000000000E+00 0. -1.
        -13    1    5    5    0    0 -0.19447242116E+02  0.98724372160E+01  0.28273841745E+02  0.35708127500E+02  0.00000000000E+00 0.  1.
          2    1    6    6  503    0  0.21513887116E+03 -0.19672415583E+03  0.18586579196E+03  0.34573287375E+03  0.00000000000E+00 0.  1.
         -2    1    6    6    0  503  0.15624458145E+03 -0.26661277440E+03  0.18855425340E+03  0.36200476127E+03  0.00000000000E+00 0. -1.
<mgrwt>
<rscale>  0 0.13647659E+04</rscale>
<asrwt>0</asrwt>
<pdfrwt beam="1">  1        1 0.48954127E-01 0.13647659E+04</pdfrwt>
<pdfrwt beam="2">  1       -2 0.22513359E+00 0.13647659E+04</pdfrwt>
<totfact> 0.63561382E+00</totfact>
</mgrwt>
</event>
<event>
12    5  0.5246737E-008  0.3090568E+04  0.7818608E-02  0.8218331E-01
         -2   -1    0    0    0  501 -0.00000000000E+00  0.00000000000E+00  0.14288930573E+04  0.14288930573E+04  0.00000000000E+00 0.  1.
          1   -1    0    0  501    0  0.00000000000E+00 -0.00000000000E+00 -0.16711557013E+04  0.16711557013E+04  0.00000000000E+00 0. -1.
        -24    2    1    2    0    0  0.79803333480E+03  0.70051661704E+03  0.82141166002E+03  0.13447822966E+04  0.78368207198E+02 0.  0.
        254    2    1    2    0    0 -0.79803333480E+03 -0.70051661704E+03 -0.10636743041E+04  0.17552664619E+04  0.90662924782E+03 0.  0.
         23    2    4    4    0    0 -0.37950025723E+02 -0.38039291350E+03 -0.78647041165E+03  0.88017807010E+03  0.10019358063E+03 0.  0.
         23    2    4    4    0    0 -0.76008330908E+03 -0.32012370354E+03 -0.27720389242E+03  0.87508839182E+03  0.93444492657E+02 0.  0.
          3    1    3    3  502    0  0.51269667073E+03  0.43525356883E+03  0.56516958022E+03  0.87847606670E+03  0.00000000000E+00 0. -1.
         -4    1    3    3    0  502  0.28533666407E+03  0.26526304820E+03  0.25624207980E+03  0.46630622993E+03  0.00000000000E+00 0.  1.
         13    1    5    5    0    0 -0.28308464342E+02 -0.93521330706E+02 -0.29807103912E+03  0.31367810381E+03  0.00000000000E+00 0.  1.
        -13    1    5    5    0    0 -0.96415613812E+01 -0.28687158279E+03 -0.48839937253E+03  0.56649996629E+03  0.00000000000E+00 0. -1.
          3    1    6    6  503    0 -0.44324547600E+03 -0.15904053906E+03 -0.19851874433E+03  0.51104807690E+03  0.00000000000E+00 0. -1.
         -3    1    6    6    0  503 -0.31683783308E+03 -0.16108316448E+03 -0.78685148090E+02  0.36404031491E+03  0.00000000000E+00 0.  1.
<mgrwt>
<rscale>  0 0.30905681E+04</rscale>
<asrwt>0</asrwt>
<pdfrwt beam="1">  1        1 0.25710088E+00 0.30905681E+04</pdfrwt>
<pdfrwt beam="2">  1       -2 0.21982970E+00 0.30905681E+04</pdfrwt>
<totfact> 0.36667077E-01</totfact>
</mgrwt>
</event>
<event>
12    5  0.5246737E-008  0.2577561E+04  0.7818608E-02  0.8375863E-01
          1   -1    0    0  501    0  0.00000000000E+00  0.00000000000E+00  0.42558980403E+04  0.42558980403E+04  0.00000000000E+00 0. -1.
         -2   -1    0    0    0  501 -0.00000000000E+00 -0.00000000000E+00 -0.39027147007E+03  0.39027147007E+03  0.00000000000E+00 0.  1.
        -24    2    1    2    0    0 -0.98309013325E+03 -0.43476561238E+03  0.23264604436E+04  0.25640583166E+04  0.80557478729E+02 0.  0.
        254    2    1    2    0    0  0.98309013325E+03  0.43476561238E+03  0.15391661267E+04  0.20821111938E+04  0.90037065156E+03 0.  0.
         23    2    4    4    0    0  0.16609409838E+03  0.51757498441E+03  0.43126806818E+03  0.69988097695E+03  0.91488366825E+02 0.  0.
         23    2    4    4    0    0  0.81699603487E+03 -0.82809372029E+02  0.11078980585E+04  0.13822302169E+04  0.93714200429E+02 0.  0.
          3    1    3    3  502    0 -0.17436311628E+03 -0.87601331628E+02  0.49630764507E+03  0.53328957254E+03  0.00000000000E+00 0. -1.
         -4    1    3    3    0  502 -0.80872701698E+03 -0.34716428075E+03  0.18301527985E+04  0.20307687440E+04  0.00000000000E+00 0.  1.
         13    1    5    5    0    0  0.13424077330E+03  0.47119516648E+03  0.41279888535E+03  0.64066246174E+03  0.00000000000E+00 0. -1.
        -13    1    5    5    0    0  0.31853325084E+02  0.46379817928E+02  0.18469182828E+02  0.59218515215E+02  0.00000000000E+00 0.  1.
          4    1    6    6  503    0  0.78317233380E+03 -0.78901668710E+02  0.10877127338E+04  0.13426478947E+04  0.00000000000E+00 0.  1.
         -4    1    6    6    0  503  0.33823701072E+02 -0.39077033186E+01  0.20185324671E+02  0.39582322209E+02  0.00000000000E+00 0. -1.
<mgrwt>
<rscale>  0 0.25775613E+04</rscale>
<asrwt>0</asrwt>
<pdfrwt beam="1">  1        1 0.65475351E+00 0.25775613E+04</pdfrwt>
<pdfrwt beam="2">  1       -2 0.60041768E-01 0.25775613E+04</pdfrwt>
<totfact> 0.11281444E-01</totfact>
</mgrwt>
</event>
<event>
12    5  0.5246737E-008  0.2266766E+04  0.7818608E-02  0.8491141E-01
          1   -1    0    0  501    0  0.00000000000E+00  0.00000000000E+00  0.17018117256E+04  0.17018117256E+04  0.00000000000E+00 0. -1.
         -2   -1    0    0    0  501 -0.00000000000E+00 -0.00000000000E+00 -0.75481738969E+03  0.75481738969E+03  0.00000000000E+00 0.  1.
        -24    2    1    2    0    0 -0.54720002203E+02  0.89742838710E+03  0.72172523353E+03  0.11557172021E+04  0.80143308242E+02 0.  0.
        254    2    1    2    0    0  0.54720002203E+02 -0.89742838710E+03  0.22526910240E+03  0.13009119132E+04  0.91282728317E+03 0.  0.
         23    2    4    4    0    0 -0.24451086246E+03 -0.58396715385E+03  0.47124696764E+03  0.79434495514E+03  0.90038906110E+02 0.  0.
         23    2    4    4    0    0  0.29923086467E+03 -0.31346123325E+03 -0.24597786524E+03  0.50656695809E+03  0.91147779619E+02 0.  0.
          3    1    3    3  502    0  0.19527146764E+01  0.39690667095E+03  0.27981255074E+03  0.48562720485E+03  0.00000000000E+00 0. -1.
         -4    1    3    3    0  502 -0.56672716880E+02  0.50052171615E+03  0.44191268280E+03  0.67008999723E+03  0.00000000000E+00 0.  1.
         13    1    5    5    0    0 -0.22891727166E+03 -0.47578171544E+03  0.41408068912E+03  0.67099491437E+03  0.00000000000E+00 0. -1.
        -13    1    5    5    0    0 -0.15593590803E+02 -0.10818543842E+03  0.57166278517E+02  0.12335004077E+03  0.00000000000E+00 0.  1.
          1    1    6    6  503    0  0.24892002319E+03 -0.30087898387E+03 -0.20935399370E+03  0.44307836277E+03  0.00000000000E+00 0. -1.
         -1    1    6    6    0  503  0.50310841479E+02 -0.12582249375E+02 -0.36623871534E+02  0.63488595321E+02  0.00000000000E+00 0.  1.
<mgrwt>
<rscale>  0 0.22667661E+04</rscale>
<asrwt>0</asrwt>
<pdfrwt beam="1">  1        1 0.26181719E+00 0.22667661E+04</pdfrwt>
<pdfrwt beam="2">  1       -2 0.11612575E+00 0.22667661E+04</pdfrwt>
<totfact> 0.21783228E+00</totfact>
</mgrwt>
</event>
<event>
12    5  0.5246737E-008  0.1507946E+04  0.7818608E-02  0.8879186E-01
          1   -1    0    0  501    0  0.00000000000E+00  0.00000000000E+00  0.27738870896E+04  0.27738870896E+04  0.00000000000E+00 0. -1.
         -2   -1    0    0    0  501 -0.00000000000E+00 -0.00000000000E+00 -0.20493808001E+03  0.20493808001E+03  0.00000000000E+00 0.  1.
        -24    2    1    2    0    0 -0.43143749228E+03  0.91838065319E+02  0.47362925347E+03  0.65222501393E+03  0.80624184174E+02 0.  0.
        254    2    1    2    0    0  0.43143749228E+03 -0.91838065319E+02  0.20953197561E+04  0.23266001557E+04  0.91001695808E+03 0.  0.
         23    2    4    4    0    0  0.59014616923E+03 -0.32799486354E+03  0.16973830010E+04  0.18289925127E+04  0.90837370661E+02 0.  0.
         23    2    4    4    0    0 -0.15870867696E+03  0.23615679822E+03  0.39793675517E+03  0.49760764301E+03  0.91111073831E+02 0.  0.
          1    1    3    3  502    0 -0.11048922577E+03  0.33725665152E+02  0.17690084114E+03  0.21127990226E+03  0.00000000000E+00 0. -1.
         -2    1    3    3    0  502 -0.32094826651E+03  0.58112400167E+02  0.29672841232E+03  0.44094511167E+03  0.00000000000E+00 0.  1.
         13    1    5    5    0    0  0.33090212909E+02 -0.16644771470E+00  0.11564130829E+03  0.12028259258E+03  0.00000000000E+00 0.  1.
        -13    1    5    5    0    0  0.55705595632E+03 -0.32782841582E+03  0.15817416927E+04  0.17087099201E+04  0.00000000000E+00 0. -1.
          2    1    6    6  503    0 -0.15048099087E+03  0.21610440180E+03  0.39637483737E+03  0.47587672016E+03  0.00000000000E+00 0. -1.
         -2    1    6    6    0  503 -0.82276860843E+01  0.20052396418E+02  0.15619178008E+01  0.21730922843E+02  0.00000000000E+00 0.  1.
<mgrwt>
<rscale>  0 0.15079457E+04</rscale>
<asrwt>0</asrwt>
<pdfrwt beam="1">  1        1 0.42675183E+00 0.15079457E+04</pdfrwt>
<pdfrwt beam="2">  1       -2 0.31528937E-01 0.15079457E+04</pdfrwt>
<totfact> 0.69280915E+00</totfact>
</mgrwt>
</event>
<event>
12    5  0.5246737E-008  0.1565907E+04  0.7818608E-02  0.8841771E-01
         -2   -1    0    0    0  501 -0.00000000000E+00  0.00000000000E+00  0.14475059768E+04  0.14475059768E+04  0.00000000000E+00 0.  1.
          1   -1    0    0  501    0  0.00000000000E+00 -0.00000000000E+00 -0.42349830902E+03  0.42349830902E+03  0.00000000000E+00 0. -1.
        -24    2    1    2    0    0 -0.36460964134E+02  0.42316486519E+03 -0.11186303636E+02  0.43239173217E+03  0.80246941481E+02 0.  0.
        254    2    1    2    0    0  0.36460964134E+02 -0.42316486519E+03  0.10351939714E+04  0.14386125537E+04  0.90420219864E+03 0.  0.
         23    2    4    4    0    0  0.19079186423E+03  0.21628655061E+03  0.50008894129E+03  0.58436623384E+03  0.90628575074E+02 0.  0.
         23    2    4    4    0    0 -0.15433090009E+03 -0.63945141580E+03  0.53510503015E+03  0.85424631983E+03  0.10335976859E+03 0.  0.
          1    1    3    3  502    0 -0.17412240086E+01  0.18409709416E+03 -0.42066957375E+02  0.18885020741E+03  0.00000000000E+00 0. -1.
         -2    1    3    3    0  502 -0.34719740126E+02  0.23906777104E+03  0.30880653739E+02  0.24354152475E+03  0.00000000000E+00 0.  1.
         13    1    5    5    0    0  0.80222115191E+02  0.84589730527E+02  0.12060524197E+03  0.16773978260E+03  0.00000000000E+00 0. -1.
        -13    1    5    5    0    0  0.11056974904E+03  0.13169682008E+03  0.37948369931E+03  0.41662645123E+03  0.00000000000E+00 0.  1.
          1    1    6    6  503    0 -0.14898644570E+03 -0.50319770139E+03  0.46380806885E+03  0.70037333788E+03  0.00000000000E+00 0. -1.
         -1    1    6    6    0  503 -0.53444543885E+01 -0.13625371442E+03  0.71296961304E+02  0.15387298196E+03  0.00000000000E+00 0.  1.
<mgrwt>
<rscale>  0 0.15659072E+04</rscale>
<asrwt>0</asrwt>
<pdfrwt beam="1">  1        1 0.65153587E-01 0.15659072E+04</pdfrwt>
<pdfrwt beam="2">  1       -2 0.22269323E+00 0.15659072E+04</pdfrwt>
<totfact> 0.44409374E+00</totfact>
</mgrwt>
</event>
<event>
12    5  0.5246737E-008  0.2762746E+04  0.7818608E-02  0.8314928E-01
         -2   -1    0    0    0  501 -0.00000000000E+00  0.00000000000E+00  0.24271712305E+04  0.24271712305E+04  0.00000000000E+00 0.  1.
          1   -1    0    0  501    0  0.00000000000E+00 -0.00000000000E+00 -0.78617920755E+03  0.78617920755E+03  0.00000000000E+00 0. -1.
        -24    2    1    2    0    0 -0.42910857534E+03 -0.63543274706E+02 -0.60908867029E+03  0.75195616713E+03  0.79228478596E+02 0.  0.
        254    2    1    2    0    0  0.42910857534E+03  0.63543274706E+02  0.22500806932E+04  0.24613942709E+04  0.89856925923E+03 0.  0.
         23    2    4    4    0    0 -0.24853149837E+03 -0.10978787241E+03  0.54648982818E+03  0.61746756812E+03  0.93775171401E+02 0.  0.
         23    2    4    4    0    0  0.67764007371E+03  0.17333114712E+03  0.17035908650E+04  0.18439267028E+04  0.92758254116E+02 0.  0.
          3    1    3    3  502    0 -0.30431342017E+03 -0.82280359412E+01 -0.42483552992E+03  0.52264671218E+03  0.00000000000E+00 0. -1.
         -4    1    3    3    0  502 -0.12479515517E+03 -0.55315238765E+02 -0.18425314037E+03  0.22930945495E+03  0.00000000000E+00 0.  1.
         13    1    5    5    0    0 -0.25386430002E+03 -0.94495888269E+02  0.52214786551E+03  0.58823035384E+03  0.00000000000E+00 0. -1.
        -13    1    5    5    0    0  0.53328016475E+01 -0.15291984145E+02  0.24341962672E+02  0.29237214287E+02  0.00000000000E+00 0.  1.
          1    1    6    6  503    0  0.60440430583E+03  0.18346120356E+03  0.15216791170E+04  0.16475648434E+04  0.00000000000E+00 0. -1.
         -1    1    6    6    0  503  0.73235767878E+02 -0.10130056435E+02  0.18191174806E+03  0.19636185939E+03  0.00000000000E+00 0.  1.
<mgrwt>
<rscale>  0 0.27627461E+04</rscale>
<asrwt>0</asrwt>
<pdfrwt beam="1">  1        1 0.12095065E+00 0.27627461E+04</pdfrwt>
<pdfrwt beam="2">  1       -2 0.37341095E+00 0.27627461E+04</pdfrwt>
<totfact> 0.19115133E-01</totfact>
</mgrwt>
</event>
<event>
12    5  0.5246737E-008  0.1317620E+04  0.7818608E-02  0.9015708E-01
          1   -1    0    0  501    0  0.00000000000E+00  0.00000000000E+00  0.12888692116E+04  0.12888692116E+04  0.00000000000E+00 0. -1.
         -2   -1    0    0    0  501 -0.00000000000E+00 -0.00000000000E+00 -0.33675308766E+03  0.33675308766E+03  0.00000000000E+00 0.  1.
        -24    2    1    2    0    0 -0.17459989243E+03 -0.27639173777E+03  0.11973735381E+03  0.35685607788E+03  0.78305244258E+02 0.  0.
        254    2    1    2    0    0  0.17459989243E+03  0.27639173777E+03  0.83237877012E+03  0.12687662214E+04  0.90001988446E+03 0.  0.
         23    2    4    4    0    0 -0.19939031468E+03 -0.73814505616E+02  0.69172627037E+03  0.72947629753E+03  0.91898621868E+02 0.  0.
         23    2    4    4    0    0  0.37399020711E+03  0.35020624339E+03  0.14065249975E+03  0.53928992385E+03  0.92398097168E+02 0.  0.
          1    1    3    3  502    0 -0.10474611310E+03 -0.21345225365E+03  0.11106995415E+03  0.26243122435E+03  0.00000000000E+00 0. -1.
         -2    1    3    3    0  502 -0.69853779331E+02 -0.62939484116E+02  0.86673996683E+01  0.94424853533E+02  0.00000000000E+00 0.  1.
         13    1    5    5    0    0 -0.75975169924E+02 -0.75895976742E+02  0.29170294040E+03  0.31084245394E+03  0.00000000000E+00 0. -1.
        -13    1    5    5    0    0 -0.12341514476E+03  0.20814711254E+01  0.40002332997E+03  0.41863384359E+03  0.00000000000E+00 0.  1.
          1    1    6    6  503    0  0.15295407946E+03  0.16732165838E+03  0.10620884653E+03  0.25034337792E+03  0.00000000000E+00 0. -1.
         -1    1    6    6    0  503  0.22103612765E+03  0.18288458500E+03  0.34443653220E+02  0.28894654593E+03  0.00000000000E+00 0.  1.
<mgrwt>
<rscale>  0 0.13176201E+04</rscale>
<asrwt>0</asrwt>
<pdfrwt beam="1">  1        1 0.19828757E+00 0.13176201E+04</pdfrwt>
<pdfrwt beam="2">  1       -2 0.51808168E-01 0.13176201E+04</pdfrwt>
<totfact> 0.27898715E+01</totfact>
</mgrwt>
</event>
<event>
12    5  0.5246737E-008  0.1181097E+04  0.7818608E-02  0.9129566E-01
         -2   -1    0    0    0  501 -0.00000000000E+00  0.00000000000E+00  0.41062151394E+03  0.41062151394E+03  0.00000000000E+00 0.  1.
          1   -1    0    0  501    0  0.00000000000E+00 -0.00000000000E+00 -0.84931555099E+03  0.84931555099E+03  0.00000000000E+00 0. -1.
        -24    2    1    2    0    0 -0.30394978167E+02 -0.20182619756E+03 -0.11726115837E+03  0.24869730638E+03  0.80265199301E+02 0.  0.
        254    2    1    2    0    0  0.30394978167E+02  0.20182619756E+03 -0.32143287868E+03  0.10112397586E+04  0.93681859774E+03 0.  0.
         23    2    4    4    0    0 -0.37879648824E+03  0.33810733651E+03 -0.20818257842E+03  0.55627390265E+03  0.91089616895E+02 0.  0.
         23    2    4    4    0    0  0.40919146641E+03 -0.13628113894E+03 -0.11325030026E+03  0.45496585591E+03  0.90322170733E+02 0.  0.
          1    1    3    3  502    0  0.31598339102E+01 -0.10619001864E+03 -0.19756976907E+02  0.10805851538E+03  0.00000000000E+00 0. -1.
         -2    1    3    3    0  502 -0.33554812077E+02 -0.95636178922E+02 -0.97504181461E+02  0.14063879100E+03  0.00000000000E+00 0.  1.
         13    1    5    5    0    0 -0.30196663434E+03  0.22052802291E+03 -0.13233269059E+03  0.39664643972E+03  0.00000000000E+00 0. -1.
        -13    1    5    5    0    0 -0.76829853895E+02  0.11757931360E+03 -0.75849887835E+02  0.15962746293E+03  0.00000000000E+00 0.  1.
          4    1    6    6  503    0  0.13042765191E+03 -0.31055284488E+01 -0.49340238950E+02  0.13948288737E+03  0.00000000000E+00 0.  1.
         -4    1    6    6    0  503  0.27876381450E+03 -0.13317561050E+03 -0.63910061310E+02  0.31548296854E+03  0.00000000000E+00 0. -1.
<mgrwt>
<rscale>  0 0.11810965E+04</rscale>
<asrwt>0</asrwt>
<pdfrwt beam="1">  1        1 0.13066393E+00 0.11810965E+04</pdfrwt>
<pdfrwt beam="2">  1       -2 0.63172541E-01 0.11810965E+04</pdfrwt>
<totfact> 0.40428466E+01</totfact>
</mgrwt>
</event>
<event>
12    5  0.5246737E-008  0.2077233E+04  0.7818608E-02  0.8571339E-01
         -4   -1    0    0    0  501 -0.00000000000E+00  0.00000000000E+00  0.12495506116E+04  0.12495506116E+04  0.00000000000E+00 0.  1.
          1   -1    0    0  501    0  0.00000000000E+00 -0.00000000000E+00 -0.86328966121E+03  0.86328966121E+03  0.00000000000E+00 0. -1.
        -24    2    1    2    0    0 -0.51766455987E+03  0.46982748887E+03  0.65140265658E+03  0.95918607691E+03  0.83654308292E+02 0.  0.
        254    2    1    2    0    0  0.51766455987E+03 -0.46982748887E+03 -0.26514170620E+03  0.11536541959E+04  0.87858033981E+03 0.  0.
         23    2    4    4    0    0 -0.20557076436E+03 -0.30922116954E+02  0.72299396604E+02  0.23819403535E+03  0.91069639569E+02 0.  0.
         23    2    4    4    0    0  0.72323532423E+03 -0.43890537192E+03 -0.33744110280E+03  0.91546016054E+03  0.92160446871E+02 0.  0.
          1    1    3    3  502    0 -0.30419691708E+03  0.27400645129E+03  0.32458201829E+03  0.52246414835E+03  0.00000000000E+00 0. -1.
         -2    1    3    3    0  502 -0.21346764279E+03  0.19582103758E+03  0.32682063828E+03  0.43672192856E+03  0.00000000000E+00 0.  1.
         13    1    5    5    0    0 -0.15926800737E+03  0.14306490292E+02  0.66575546567E+02  0.17321454107E+03  0.00000000000E+00 0. -1.
        -13    1    5    5    0    0 -0.46302756990E+02 -0.45228607246E+02  0.57238500368E+01  0.64979494285E+02  0.00000000000E+00 0.  1.
          1    1    6    6  503    0  0.50215857635E+03 -0.35300268261E+03 -0.24279337405E+03  0.66009298755E+03  0.00000000000E+00 0. -1.
         -1    1    6    6    0  503  0.22107674788E+03 -0.85902689308E+02 -0.94647728751E+02  0.25536717299E+03  0.00000000000E+00 0.  1.
<mgrwt>
<rscale>  0 0.20772329E+04</rscale>
<asrwt>0</asrwt>
<pdfrwt beam="1">  1        1 0.13281379E+00 0.20772329E+04</pdfrwt>
<pdfrwt beam="2">  1       -4 0.19223856E+00 0.20772329E+04</pdfrwt>
<totfact> 0.12858592E+00</totfact>
</mgrwt>
</event>
<event>
12    5  0.5246737E-008  0.1308335E+04  0.7818608E-02  0.9022981E-01
          1   -1    0    0  501    0  0.00000000000E+00  0.00000000000E+00  0.14712965552E+04  0.14712965552E+04  0.00000000000E+00 0. -1.
         -2   -1    0    0    0  501 -0.00000000000E+00 -0.00000000000E+00 -0.29085588479E+03  0.29085588479E+03  0.00000000000E+00 0.  1.
        -24    2    1    2    0    0  0.10441133381E+03  0.15408961353E+03 -0.81097033782E+02  0.21820222740E+03  0.79938398329E+02 0.  0.
        254    2    1    2    0    0 -0.10441133381E+03 -0.15408961353E+03  0.12615377042E+04  0.15439502126E+04  0.87043641021E+03 0.  0.
         23    2    4    4    0    0 -0.26199874522E+03  0.16665505039E+03  0.10905402731E+04  0.11375325265E+04  0.91021498961E+02 0.  0.
         23    2    4    4    0    0  0.15758741141E+03 -0.32074466392E+03  0.17099743107E+03  0.40641768606E+03  0.90687829644E+02 0.  0.
          1    1    3    3  502    0  0.11811402525E+02  0.57406464542E+02 -0.57800388589E+02  0.82315832753E+02  0.00000000000E+00 0. -1.
         -2    1    3    3    0  502  0.92599931286E+02  0.96683148985E+02 -0.23296645193E+02  0.13588639464E+03  0.00000000000E+00 0.  1.
         13    1    5    5    0    0 -0.40196829996E+02  0.51487865757E+02  0.13685588407E+03  0.15164537074E+03  0.00000000000E+00 0. -1.
        -13    1    5    5    0    0 -0.22180191523E+03  0.11516718463E+03  0.95368438904E+03  0.98588715577E+03  0.00000000000E+00 0.  1.
          2    1    6    6  503    0  0.76191045318E+02 -0.15333919539E+03  0.13208038938E+03  0.21624803696E+03  0.00000000000E+00 0. -1.
         -2    1    6    6    0  503  0.81396366096E+02 -0.16740546853E+03  0.38917041686E+02  0.19016964910E+03  0.00000000000E+00 0.  1.
<mgrwt>
<rscale>  0 0.13083352E+04</rscale>
<asrwt>0</asrwt>
<pdfrwt beam="1">  1        1 0.22635331E+00 0.13083352E+04</pdfrwt>
<pdfrwt beam="2">  1       -2 0.44747060E-01 0.13083352E+04</pdfrwt>
<totfact> 0.27946656E+01</totfact>
</mgrwt>
</event>
<event>
12    5  0.5246737E-008  0.1832810E+04  0.7818608E-02  0.8689043E-01
         -2   -1    0    0    0  501 -0.00000000000E+00  0.00000000000E+00  0.35762209598E+03  0.35762209598E+03  0.00000000000E+00 0.  1.
          1   -1    0    0  501    0  0.00000000000E+00 -0.00000000000E+00 -0.23482848498E+04  0.23482848498E+04  0.00000000000E+00 0. -1.
        -24    2    1    2    0    0  0.28311095906E+03 -0.15341618333E+03  0.14352237984E+03  0.36214159961E+03  0.82822244628E+02 0.  0.
        254    2    1    2    0    0 -0.28311095906E+03  0.15341618333E+03 -0.21341851337E+04  0.23437653462E+04  0.91367470838E+03 0.  0.
         23    2    4    4    0    0  0.79467203929E+02  0.28366191730E+03 -0.19435516517E+03  0.36388906824E+03  0.88669069754E+02 0.  0.
         23    2    4    4    0    0 -0.36257816299E+03 -0.13024573397E+03 -0.19398299685E+04  0.19798762780E+04  0.92427775867E+02 0.  0.
          1    1    3    3  502    0  0.93659561849E+01  0.91659140696E+01  0.11621547579E+02  0.17515578326E+02  0.00000000000E+00 0. -1.
         -2    1    3    3    0  502  0.27374500288E+03 -0.16258209740E+03  0.13190083226E+03  0.34462602129E+03  0.00000000000E+00 0.  1.
         13    1    5    5    0    0  0.56345056124E+02  0.21968451575E+03 -0.18975248672E+03  0.29570603313E+03  0.00000000000E+00 0. -1.
        -13    1    5    5    0    0  0.23122147805E+02  0.63977401550E+02 -0.46026784411E+01  0.68183035111E+02  0.00000000000E+00 0.  1.
          1    1    6    6  503    0 -0.33042413132E+03 -0.12717654443E+03 -0.16100907525E+04  0.16485588286E+04  0.00000000000E+00 0. -1.
         -1    1    6    6    0  503 -0.32154031668E+02 -0.30691895326E+01 -0.32973921606E+03  0.33131744942E+03  0.00000000000E+00 0.  1.
<mgrwt>
<rscale>  0 0.18328105E+04</rscale>
<asrwt>0</asrwt>
<pdfrwt beam="1">  1        1 0.36127460E+00 0.18328105E+04</pdfrwt>
<pdfrwt beam="2">  1       -2 0.55018783E-01 0.18328105E+04</pdfrwt>
<totfact> 0.44300361E+00</totfact>
</mgrwt>
</event>
<event>
12    5  0.5246737E-008  0.1672552E+04  0.7818608E-02  0.8777175E-01
          1   -1    0    0  501    0  0.00000000000E+00  0.00000000000E+00  0.18452465214E+04  0.18452465214E+04  0.00000000000E+00 0. -1.
         -4   -1    0    0    0  501 -0.00000000000E+00 -0.00000000000E+00 -0.37900511322E+03  0.37900511322E+03  0.00000000000E+00 0.  1.
        -24    2    1    2    0    0  0.31829526893E+03  0.46173182987E+03  0.76191927376E+03  0.94940751407E+03  0.79658565778E+02 0.  0.
        254    2    1    2    0    0 -0.31829526893E+03 -0.46173182987E+03  0.70432213444E+03  0.12748441206E+04  0.90257947116E+03 0.  0.
         23    2    4    4    0    0  0.18194005574E+03  0.10833781078E+03  0.38115668107E+03  0.44519168771E+03  0.89866334940E+02 0.  0.
         23    2    4    4    0    0 -0.50023532467E+03 -0.57006964065E+03  0.32316545337E+03  0.82965243286E+03  0.93126117980E+02 0.  0.
          3    1    3    3  502    0  0.29091604101E+03  0.37959292725E+03  0.66944815242E+03  0.82272945864E+03  0.00000000000E+00 0. -1.
         -4    1    3    3    0  502  0.27379227921E+02  0.82138902617E+02  0.92471121339E+02  0.12667805543E+03  0.00000000000E+00 0.  1.
         13    1    5    5    0    0  0.22032250822E+02  0.17356132565E+02  0.13497710194E+03  0.13786034042E+03  0.00000000000E+00 0.  1.
        -13    1    5    5    0    0  0.15990780492E+03  0.90981678219E+02  0.24617957913E+03  0.30733134729E+03  0.00000000000E+00 0. -1.
          2    1    6    6  503    0 -0.25686697504E+02 -0.64773248670E+02  0.43651233577E+02  0.82224147090E+02  0.00000000000E+00 0.  1.
         -2    1    6    6    0  503 -0.47454862717E+03 -0.50529639198E+03  0.27951421980E+03  0.74742828577E+03  0.00000000000E+00 0. -1.
<mgrwt>
<rscale>  0 0.16725524E+04</rscale>
<asrwt>0</asrwt>
<pdfrwt beam="1">  1        1 0.28388408E+00 0.16725524E+04</pdfrwt>
<pdfrwt beam="2">  1       -4 0.58308480E-01 0.16725524E+04</pdfrwt>
<totfact> 0.49754639E+00</totfact>
</mgrwt>
</event>
<event>
12    5  0.5246737E-008  0.2000433E+04  0.7818608E-02  0.8606418E-01
          1   -1    0    0  501    0  0.00000000000E+00  0.00000000000E+00  0.10603736731E+04  0.10603736731E+04  0.00000000000E+00 0. -1.
         -2   -1    0    0    0  501 -0.00000000000E+00 -0.00000000000E+00 -0.94347223227E+03  0.94347223227E+03  0.00000000000E+00 0.  1.
        -24    2    1    2    0    0  0.31250478253E+03  0.68252295003E+03  0.32388647562E+03  0.82137073400E+03  0.79060844608E+02 0.  0.
        254    2    1    2    0    0 -0.31250478253E+03 -0.68252295003E+03 -0.20698503477E+03  0.11824751714E+04  0.88989207768E+03 0.  0.
         23    2    4    4    0    0 -0.50409337126E+03 -0.74862831886E+03 -0.27758970613E+03  0.94877317496E+03  0.92520299549E+02 0.  0.
         23    2    4    4    0    0  0.19158858873E+03  0.66105368829E+02  0.70604671361E+02  0.23370199643E+03  0.92495926396E+02 0.  0.
          3    1    3    3  502    0  0.23512625707E+03  0.45713446470E+03  0.19009611953E+03  0.54808102525E+03  0.00000000000E+00 0. -1.
         -4    1    3    3    0  502  0.77378525459E+02  0.22538848533E+03  0.13379035609E+03  0.27328970874E+03  0.00000000000E+00 0.  1.
         13    1    5    5    0    0 -0.37683662591E+03 -0.56565886134E+03 -0.16666965049E+03  0.69982466549E+03  0.00000000000E+00 0. -1.
        -13    1    5    5    0    0 -0.12725674535E+03 -0.18296945752E+03 -0.11092005564E+03  0.24894850947E+03  0.00000000000E+00 0.  1.
          1    1    6    6  503    0  0.87215053569E+02  0.74597765560E+02  0.56878780437E+02  0.12808781308E+03  0.00000000000E+00 0. -1.
         -1    1    6    6    0  503  0.10437353516E+03 -0.84923967306E+01  0.13725890925E+02  0.10561418335E+03  0.00000000000E+00 0.  1.
<mgrwt>
<rscale>  0 0.20004331E+04</rscale>
<asrwt>0</asrwt>
<pdfrwt beam="1">  1        1 0.16313441E+00 0.20004331E+04</pdfrwt>
<pdfrwt beam="2">  1       -2 0.14514957E+00 0.20004331E+04</pdfrwt>
<totfact> 0.36115481E+00</totfact>
</mgrwt>
</event>
<event>
12    5  0.5246737E-008  0.1099072E+04  0.7818608E-02  0.9206097E-01
         -4   -1    0    0    0  501 -0.00000000000E+00  0.00000000000E+00  0.10762116958E+03  0.10762116958E+03  0.00000000000E+00 0.  1.
          3   -1    0    0  501    0  0.00000000000E+00 -0.00000000000E+00 -0.28060441742E+04  0.28060441742E+04  0.00000000000E+00 0. -1.
        -24    2    1    2    0    0 -0.14534955168E+03  0.97848983883E+02 -0.81991971934E+03  0.84238310535E+03  0.81486404896E+02 0.  0.
        254    2    1    2    0    0  0.14534955168E+03 -0.97848983883E+02 -0.18785032853E+04  0.20712822384E+04  0.85483016013E+03 0.  0.
         23    2    4    4    0    0 -0.21750893640E+03 -0.32858947011E+03 -0.11661670229E+04  0.12342696283E+04  0.90525205806E+02 0.  0.
         23    2    4    4    0    0  0.36285848808E+03  0.23074048623E+03 -0.71233626241E+03  0.83701261012E+03  0.90882915880E+02 0.  0.
          3    1    3    3  502    0 -0.57615306420E+02  0.60571349471E+02 -0.54572469461E+03  0.55209044025E+03  0.00000000000E+00 0. -1.
         -4    1    3    3    0  502 -0.87734245259E+02  0.37277634412E+02 -0.27419502474E+03  0.29029266510E+03  0.00000000000E+00 0.  1.
         13    1    5    5    0    0 -0.13816708339E+03 -0.27106579326E+03 -0.82530928402E+03  0.87960344560E+03  0.00000000000E+00 0.  1.
        -13    1    5    5    0    0 -0.79341853011E+02 -0.57523676847E+02 -0.34085773885E+03  0.35466618272E+03  0.00000000000E+00 0. -1.
          1    1    6    6  503    0 -0.23010683715E+01  0.15885220015E+00  0.14657422394E+01  0.27328647943E+01  0.00000000000E+00 0. -1.
         -1    1    6    6    0  503  0.36515955645E+03  0.23058163403E+03 -0.71380200465E+03  0.83427974532E+03  0.00000000000E+00 0.  1.
<mgrwt>
<rscale>  0 0.10990719E+04</rscale>
<asrwt>0</asrwt>
<pdfrwt beam="1">  1        3 0.43169913E+00 0.10990719E+04</pdfrwt>
<pdfrwt beam="2">  1       -4 0.16557102E-01 0.10990719E+04</pdfrwt>
<totfact> 0.57711636E-01</totfact>
</mgrwt>
</event>
<event>
12    5  0.5246737E-008  0.1392989E+04  0.7818608E-02  0.8958909E-01
          1   -1    0    0  501    0  0.00000000000E+00  0.00000000000E+00  0.64544356402E+03  0.64544356402E+03  0.00000000000E+00 0. -1.
         -2   -1    0    0    0  501 -0.00000000000E+00 -0.00000000000E+00 -0.75158277274E+03  0.75158277274E+03  0.00000000000E+00 0.  1.
        -24    2    1    2    0    0 -0.12585535868E+03 -0.64452980988E+02  0.31228365840E+03  0.35135101193E+03  0.77023971685E+02 0.  0.
        254    2    1    2    0    0  0.12585535868E+03  0.64452980988E+02 -0.41842286711E+03  0.10456753248E+04  0.94782141313E+03 0.  0.
         23    2    4    4    0    0  0.44532684295E+02  0.41393530407E+03 -0.50876959890E+03  0.66347838359E+03  0.89618440049E+02 0.  0.
         23    2    4    4    0    0  0.81322674388E+02 -0.34948232309E+03  0.90346731791E+02  0.38219694124E+03  0.95711537607E+02 0.  0.
          1    1    3    3  502    0 -0.10558579361E+03 -0.13844400931E+02  0.20463510902E+03  0.23068496937E+03  0.00000000000E+00 0. -1.
         -2    1    3    3    0  502 -0.20269565069E+02 -0.50608580057E+02  0.10764854938E+03  0.12066604256E+03  0.00000000000E+00 0.  1.
         13    1    5    5    0    0 -0.37277133861E+01  0.33339667979E+02 -0.11597006994E+02  0.35495350107E+02  0.00000000000E+00 0.  1.
        -13    1    5    5    0    0  0.48260397681E+02  0.38059563610E+03 -0.49717259191E+03  0.62798303348E+03  0.00000000000E+00 0. -1.
          2    1    6    6  503    0  0.83497814147E+02 -0.34472981662E+03  0.10229613460E+03  0.36915448065E+03  0.00000000000E+00 0. -1.
         -2    1    6    6    0  503 -0.21751397596E+01 -0.47525064693E+01 -0.11949402810E+02  0.13042460590E+02  0.00000000000E+00 0.  1.
<mgrwt>
<rscale>  0 0.13929885E+04</rscale>
<asrwt>0</asrwt>
<pdfrwt beam="1">  1        1 0.99299010E-01 0.13929885E+04</pdfrwt>
<pdfrwt beam="2">  1       -2 0.11562812E+00 0.13929885E+04</pdfrwt>
<totfact> 0.15289516E+01</totfact>
</mgrwt>
</event>
<event>
12    5  0.5246737E-008  0.1808645E+04  0.7818608E-02  0.8701716E-01
          1   -1    0    0  501    0  0.00000000000E+00  0.00000000000E+00  0.35307752808E+04  0.35307752808E+04  0.00000000000E+00 0. -1.
         -2   -1    0    0    0  501 -0.00000000000E+00 -0.00000000000E+00 -0.23162033395E+03  0.23162033395E+03  0.00000000000E+00 0.  1.
        -24    2    1    2    0    0 -0.77027322743E+02 -0.61474877507E+02  0.26371409394E+04  0.26401854451E+04  0.79715002571E+02 0.  0.
        254    2    1    2    0    0  0.77027322743E+02  0.61474877507E+02  0.66201400745E+03  0.11222101696E+04  0.90076675650E+03 0.  0.
         23    2    4    4    0    0 -0.27669540564E+03  0.25903706810E+03  0.58080050094E+03  0.69937619162E+03  0.90206903088E+02 0.  0.
         23    2    4    4    0    0  0.35372272838E+03 -0.19756219059E+03  0.81213506511E+02  0.42283397795E+03  0.89679158927E+02 0.  0.
          3    1    3    3  502    0 -0.21559849257E+02 -0.59083087869E+02  0.18604299516E+04  0.18614927460E+04  0.00000000000E+00 0. -1.
         -4    1    3    3    0  502 -0.55467473486E+02 -0.23917896374E+01  0.77671098772E+03  0.77869269916E+03  0.00000000000E+00 0.  1.
         13    1    5    5    0    0 -0.24130877088E+03  0.25889928686E+03  0.51964979667E+03  0.62872464149E+03  0.00000000000E+00 0.  1.
        -13    1    5    5    0    0 -0.35386634756E+02  0.13778124091E+00  0.61150704267E+02  0.70651550127E+02  0.00000000000E+00 0. -1.
          2    1    6    6  503    0  0.94743172073E+02 -0.24694648138E+02 -0.98880611985E+01  0.98406646399E+02  0.00000000000E+00 0. -1.
         -2    1    6    6    0  503  0.25897955631E+03 -0.17286754245E+03  0.91101567710E+02  0.32442733155E+03  0.00000000000E+00 0.  1.
<mgrwt>
<rscale>  0 0.18086452E+04</rscale>
<asrwt>0</asrwt>
<pdfrwt beam="1">  1        1 0.54319616E+00 0.18086452E+04</pdfrwt>
<pdfrwt beam="2">  1       -2 0.35633900E-01 0.18086452E+04</pdfrwt>
<totfact> 0.14581691E+00</totfact>
</mgrwt>
</event>
<event>
12    5  0.5246737E-008  0.3193996E+04  0.7818608E-02  0.8190405E-01
          1   -1    0    0  501    0  0.00000000000E+00  0.00000000000E+00  0.14813913423E+04  0.14813913423E+04  0.00000000000E+00 0. -1.
         -2   -1    0    0    0  501 -0.00000000000E+00 -0.00000000000E+00 -0.17216260042E+04  0.17216260042E+04  0.00000000000E+00 0.  1.
        -24    2    1    2    0    0 -0.54572647177E+03 -0.23507170938E+03 -0.14570190470E+04  0.15755180764E+04  0.79225093249E+02 0.  0.
        254    2    1    2    0    0  0.54572647177E+03  0.23507170938E+03  0.12167843851E+04  0.16274992700E+04  0.90283638807E+03 0.  0.
         23    2    4    4    0    0 -0.23875373479E+03  0.10873892596E+03  0.25496622253E+03  0.37665227645E+03  0.89619544890E+02 0.  0.
         23    2    4    4    0    0  0.78448020656E+03  0.12633278342E+03  0.96181816257E+03  0.12508469936E+04  0.90304246152E+02 0.  0.
          1    1    3    3  502    0 -0.15079561201E+02 -0.11615396693E+02 -0.93463756609E+02  0.95382306566E+02  0.00000000000E+00 0. -1.
         -2    1    3    3    0  502 -0.53064691057E+03 -0.22345631269E+03 -0.13635552904E+04  0.14801357699E+04  0.00000000000E+00 0.  1.
         13    1    5    5    0    0 -0.17621177366E+03  0.34022469716E+02  0.15636658582E+03  0.23803072655E+03  0.00000000000E+00 0. -1.
        -13    1    5    5    0    0 -0.62541961130E+02  0.74716456246E+02  0.98599636708E+02  0.13862154989E+03  0.00000000000E+00 0.  1.
          1    1    6    6  503    0  0.71421051861E+03  0.10363264402E+03  0.90585105977E+03  0.11581893335E+04  0.00000000000E+00 0. -1.
         -1    1    6    6    0  503  0.70269687948E+02  0.22700139398E+02  0.55967102798E+02  0.92657660065E+02  0.00000000000E+00 0.  1.
<mgrwt>
<rscale>  0 0.31939955E+04</rscale>
<asrwt>0</asrwt>
<pdfrwt beam="1">  1        1 0.22790636E+00 0.31939955E+04</pdfrwt>
<pdfrwt beam="2">  1       -2 0.26486554E+00 0.31939955E+04</pdfrwt>
<totfact> 0.25813286E-01</totfact>
</mgrwt>
</event>
<event>
12    5  0.5246737E-008  0.1680553E+04  0.7818608E-02  0.8772534E-01
          1   -1    0    0  501    0  0.00000000000E+00  0.00000000000E+00  0.18760699864E+04  0.18760699864E+04  0.00000000000E+00 0. -1.
         -2   -1    0    0    0  501 -0.00000000000E+00 -0.00000000000E+00 -0.37635314388E+03  0.37635314388E+03  0.00000000000E+00 0.  1.
        -24    2    1    2    0    0 -0.23314067626E+03  0.54173347023E+03  0.48656189904E+03  0.76893915990E+03  0.81824338304E+02 0.  0.
        254    2    1    2    0    0  0.23314067626E+03 -0.54173347023E+03  0.10131549435E+04  0.14834839704E+04  0.90907206711E+03 0.  0.
         23    2    4    4    0    0  0.12374435675E+03  0.23027649327E+03  0.14840731344E+03  0.31587089242E+03  0.97003921659E+02 0.  0.
         23    2    4    4    0    0  0.10939631951E+03 -0.77200996349E+03  0.86474763005E+03  0.11676130780E+04  0.86976420463E+02 0.  0.
          3    1    3    3  502    0 -0.61490092474E+02  0.74508677474E+02  0.96586225417E+02  0.13660700360E+03  0.00000000000E+00 0. -1.
         -4    1    3    3    0  502 -0.17165058379E+03  0.46722479275E+03  0.38997567362E+03  0.63233215630E+03  0.00000000000E+00 0.  1.
         13    1    5    5    0    0  0.10563832792E+03  0.22567654249E+03  0.15782062471E+03  0.29495204312E+03  0.00000000000E+00 0.  1.
        -13    1    5    5    0    0  0.18106028825E+02  0.45999507803E+01 -0.94133112723E+01  0.20918849302E+02  0.00000000000E+00 0. -1.
          1    1    6    6  503    0 -0.90748511365E+01 -0.54144548576E+02  0.84523622482E+02  0.10078803412E+03  0.00000000000E+00 0. -1.
         -1    1    6    6    0  503  0.11847117065E+03 -0.71786541492E+03  0.78022400757E+03  0.10668250439E+04  0.00000000000E+00 0.  1.
<mgrwt>
<rscale>  0 0.16805533E+04</rscale>
<asrwt>0</asrwt>
<pdfrwt beam="1">  1        1 0.28862615E+00 0.16805533E+04</pdfrwt>
<pdfrwt beam="2">  1       -2 0.57900485E-01 0.16805533E+04</pdfrwt>
<totfact> 0.84513863E+00</totfact>
</mgrwt>
</event>
<event>
12    5  0.5246737E-008  0.1056899E+04  0.7818608E-02  0.9248251E-01
         -2   -1    0    0    0  501 -0.00000000000E+00  0.00000000000E+00  0.66718839473E+03  0.66718839473E+03  0.00000000000E+00 0.  1.
          1   -1    0    0  501    0  0.00000000000E+00 -0.00000000000E+00 -0.41856040683E+03  0.41856040683E+03  0.00000000000E+00 0. -1.
        -24    2    1    2    0    0  0.68742161179E+01 -0.10231662148E+02 -0.93185481113E+02  0.12340997111E+03  0.79965900990E+02 0.  0.
        254    2    1    2    0    0 -0.68742161179E+01  0.10231662148E+02  0.34181346901E+03  0.96233883045E+03  0.89950410518E+03 0.  0.
         23    2    4    4    0    0  0.36316385012E+03 -0.10227242100E+02 -0.92040850733E+02  0.38514115549E+03  0.88710838886E+02 0.  0.
         23    2    4    4    0    0 -0.37003806624E+03  0.20458904248E+02  0.43385431974E+03  0.57719767496E+03  0.87068065267E+02 0.  0.
          3    1    3    3  502    0  0.52025521973E+01  0.33809805401E+02 -0.25609726724E+02  0.42732044106E+02  0.00000000000E+00 0. -1.
         -4    1    3    3    0  502  0.16716639205E+01 -0.44041467549E+02 -0.67575754389E+02  0.80677927002E+02  0.00000000000E+00 0.  1.
         13    1    5    5    0    0  0.35208835236E+03 -0.12125266610E+01 -0.10332741606E+03  0.36693900447E+03  0.00000000000E+00 0. -1.
        -13    1    5    5    0    0  0.11075497756E+02 -0.90147154392E+01  0.11286565328E+02  0.18202151024E+02  0.00000000000E+00 0.  1.
          3    1    6    6  503    0 -0.32106405240E+03  0.57949732835E+01  0.32471670705E+03  0.45668002726E+03  0.00000000000E+00 0. -1.
         -3    1    6    6    0  503 -0.48974013834E+02  0.14663930965E+02  0.10913761269E+03  0.12051764770E+03  0.00000000000E+00 0.  1.
<mgrwt>
<rscale>  0 0.10568986E+04</rscale>
<asrwt>0</asrwt>
<pdfrwt beam="1">  1        1 0.64393908E-01 0.10568986E+04</pdfrwt>
<pdfrwt beam="2">  1       -2 0.10264437E+00 0.10568986E+04</pdfrwt>
<totfact> 0.38269878E+01</totfact>
</mgrwt>
</event>
<event>
12    5  0.5246737E-008  0.1259255E+04  0.7818608E-02  0.9062515E-01
          1   -1    0    0  501    0  0.00000000000E+00  0.00000000000E+00  0.11911340949E+04  0.11911340949E+04  0.00000000000E+00 0. -1.
         -2   -1    0    0    0  501 -0.00000000000E+00 -0.00000000000E+00 -0.33281796131E+03  0.33281796131E+03  0.00000000000E+00 0.  1.
        -24    2    1    2    0    0 -0.19384932417E+02 -0.18292299077E+02  0.56666567868E+03  0.57297398682E+03  0.80491082529E+02 0.  0.
        254    2    1    2    0    0  0.19384932417E+02  0.18292299077E+02  0.29165045486E+03  0.95097806935E+03  0.90475903795E+03 0.  0.
         23    2    4    4    0    0  0.40738474187E+03 -0.25266682815E+02 -0.54200437744E+02  0.42151480823E+03  0.90201512951E+02 0.  0.
         23    2    4    4    0    0 -0.38799980945E+03  0.43558981892E+02  0.34585089260E+03  0.52946326111E+03  0.90979491735E+02 0.  0.
          1    1    3    3  502    0  0.21912305625E+02  0.51292174259E+01  0.36903908329E+03  0.36972463132E+03  0.00000000000E+00 0. -1.
         -2    1    3    3    0  502 -0.41297238042E+02 -0.23421516503E+02  0.19762659539E+03  0.20324935550E+03  0.00000000000E+00 0.  1.
         13    1    5    5    0    0  0.32499886255E+03 -0.56562742734E+02 -0.42313877269E+02  0.33258693410E+03  0.00000000000E+00 0.  1.
        -13    1    5    5    0    0  0.82385879316E+02  0.31296059919E+02 -0.11886560475E+02  0.88927874129E+02  0.00000000000E+00 0. -1.
          3    1    6    6  503    0 -0.28598850601E+03  0.16852146285E+00  0.21392998524E+03  0.35714911809E+03  0.00000000000E+00 0. -1.
         -3    1    6    6    0  503 -0.10201130345E+03  0.43390460429E+02  0.13192090736E+03  0.17231414302E+03  0.00000000000E+00 0.  1.
<mgrwt>
<rscale>  0 0.12592551E+04</rscale>
<asrwt>0</asrwt>
<pdfrwt beam="1">  1        1 0.18325140E+00 0.12592551E+04</pdfrwt>
<pdfrwt beam="2">  1       -2 0.51202764E-01 0.12592551E+04</pdfrwt>
<totfact> 0.33787675E+01</totfact>
</mgrwt>
</event>
<event>
12    5  0.5246737E-008  0.1637282E+04  0.7818608E-02  0.8797966E-01
         -2   -1    0    0    0  501 -0.00000000000E+00  0.00000000000E+00  0.58872399466E+03  0.58872399466E+03  0.00000000000E+00 0.  1.
          1   -1    0    0  501    0  0.00000000000E+00 -0.00000000000E+00 -0.11383484488E+04  0.11383484488E+04  0.00000000000E+00 0. -1.
        -24    2    1    2    0    0  0.20880418228E+03  0.38111232417E+03  0.19479329355E+03  0.48267228017E+03  0.78627683760E+02 0.  0.
        254    2    1    2    0    0 -0.20880418228E+03 -0.38111232417E+03 -0.74441774766E+03  0.12444001633E+04  0.89751222450E+03 0.  0.
         23    2    4    4    0    0 -0.35940904498E+03 -0.59240876494E+03 -0.64780900200E+03  0.95289204286E+03  0.90684816185E+02 0.  0.
         23    2    4    4    0    0  0.15060486270E+03  0.21129644077E+03 -0.96608745657E+02  0.29150812040E+03  0.91190591446E+02 0.  0.
          3    1    3    3  502    0  0.11421562458E+03  0.14675855647E+03  0.11021367126E+03  0.21617200588E+03  0.00000000000E+00 0. -1.
         -4    1    3    3    0  502  0.94588557700E+02  0.23435376771E+03  0.84579622286E+02  0.26650027428E+03  0.00000000000E+00 0.  1.
         13    1    5    5    0    0 -0.23101378567E+03 -0.45785255020E+03 -0.47483323850E+03  0.69890123142E+03  0.00000000000E+00 0. -1.
        -13    1    5    5    0    0 -0.12839525932E+03 -0.13455621474E+03 -0.17297576349E+03  0.25399081144E+03  0.00000000000E+00 0.  1.
          4    1    6    6  503    0  0.29632372958E+02  0.56931436980E+01 -0.32802890394E+02  0.44570382885E+02  0.00000000000E+00 0.  1.
         -4    1    6    6    0  503  0.12097248974E+03  0.20560329707E+03 -0.63805855263E+02  0.24693773751E+03  0.00000000000E+00 0. -1.
<mgrwt>
<rscale>  0 0.16372820E+04</rscale>
<asrwt>0</asrwt>
<pdfrwt beam="1">  1        1 0.17513053E+00 0.16372820E+04</pdfrwt>
<pdfrwt beam="2">  1       -2 0.90572923E-01 0.16372820E+04</pdfrwt>
<totfact> 0.10367621E+01</totfact>
</mgrwt>
</event>
<event>
12    5  0.5246737E-008  0.3788091E+04  0.7818608E-02  0.8048715E-01
          1   -1    0    0  501    0  0.00000000000E+00  0.00000000000E+00  0.31237456030E+04  0.31237456030E+04  0.00000000000E+00 0. -1.
         -2   -1    0    0    0  501 -0.00000000000E+00 -0.00000000000E+00 -0.11484319018E+04  0.11484319018E+04  0.00000000000E+00 0.  1.
        -24    2    1    2    0    0 -0.28735223253E+03  0.98445226926E+03  0.25810295436E+04  0.27784375177E+04  0.79271425847E+02 0.  0.
        254    2    1    2    0    0  0.28735223253E+03 -0.98445226926E+03 -0.60571584241E+03  0.14937399870E+04  0.90147095968E+03 0.  0.
         23    2    4    4    0    0  0.40351184958E+03 -0.98480125820E+03 -0.73578700894E+03  0.12968934644E+04  0.88852712650E+02 0.  0.
         23    2    4    4    0    0 -0.11615961705E+03  0.34898894456E+00  0.13007116654E+03  0.19684652265E+03  0.91306443842E+02 0.  0.
          3    1    3    3  502    0 -0.18132729074E+03  0.56436874686E+03  0.13935463158E+04  0.15143853548E+04  0.00000000000E+00 0. -1.
         -4    1    3    3    0  502 -0.10602494179E+03  0.42008352240E+03  0.11874832278E+04  0.12640521629E+04  0.00000000000E+00 0.  1.
         13    1    5    5    0    0  0.38164139941E+03 -0.96375293061E+03 -0.72378725803E+03  0.12642538764E+04  0.00000000000E+00 0.  1.
        -13    1    5    5    0    0  0.21870450165E+02 -0.21048327594E+02 -0.11999750911E+02  0.32639588031E+02  0.00000000000E+00 0. -1.
          2    1    6    6  503    0 -0.33431256336E+01  0.69186840137E+01  0.66981398280E+02  0.67420711900E+02  0.00000000000E+00 0.  1.
         -2    1    6    6    0  503 -0.11281649142E+03 -0.65696950692E+01  0.63089768258E+02  0.12942581075E+03  0.00000000000E+00 0. -1.
<mgrwt>
<rscale>  0 0.37880914E+04</rscale>
<asrwt>0</asrwt>
<pdfrwt beam="1">  1        1 0.48057624E+00 0.37880914E+04</pdfrwt>
<pdfrwt beam="2">  1       -2 0.17668183E+00 0.37880914E+04</pdfrwt>
<totfact> 0.64950475E-02</totfact>
</mgrwt>
</event>
<event>
12    5  0.5246737E-008  0.1209442E+04  0.7818608E-02  0.9104632E-01
          1   -1    0    0  501    0  0.00000000000E+00  0.00000000000E+00  0.13653267034E+04  0.13653267034E+04  0.00000000000E+00 0. -1.
         -2   -1    0    0    0  501 -0.00000000000E+00 -0.00000000000E+00 -0.26783872565E+03  0.26783872565E+03  0.00000000000E+00 0.  1.
        -24    2    1    2    0    0  0.37834532922E+02 -0.56473700873E+02  0.59330272187E+03  0.60114187066E+03  0.68867249980E+02 0.  0.
        254    2    1    2    0    0 -0.37834532922E+02  0.56473700873E+02  0.50418525586E+03  0.10320235584E+04  0.89791376090E+03 0.  0.
         23    2    4    4    0    0 -0.22110151544E+03 -0.26883113386E+03  0.53685823924E+03  0.64643147512E+03  0.92199915005E+02 0.  0.
         23    2    4    4    0    0  0.18326698251E+03  0.32530483473E+03 -0.32672983380E+02  0.38559208324E+03  0.90574325489E+02 0.  0.
          1    1    3    3  502    0  0.34990418777E+02 -0.71866940700E+02  0.45634963810E+03  0.46329707399E+03  0.00000000000E+00 0. -1.
         -4    1    3    3    0  502  0.28441141454E+01  0.15393239827E+02  0.13695308376E+03  0.13784479667E+03  0.00000000000E+00 0.  1.
         13    1    5    5    0    0 -0.10750911188E+03 -0.18757545566E+03  0.27663299734E+03  0.35109624879E+03  0.00000000000E+00 0. -1.
        -13    1    5    5    0    0 -0.11359240356E+03 -0.81255678202E+02  0.26022524190E+03  0.29533522632E+03  0.00000000000E+00 0.  1.
          3    1    6    6  503    0  0.18158513834E+03  0.33128429296E+03 -0.30515893040E+02  0.37901670802E+03  0.00000000000E+00 0. -1.
         -3    1    6    6    0  503  0.16818441702E+01 -0.59794582324E+01 -0.21570903406E+01  0.65753752215E+01  0.00000000000E+00 0.  1.
<mgrwt>
<rscale>  0 0.12094418E+04</rscale>
<asrwt>0</asrwt>
<pdfrwt beam="1">  1        1 0.21005026E+00 0.12094418E+04</pdfrwt>
<pdfrwt beam="2">  1       -2 0.41205959E-01 0.12094418E+04</pdfrwt>
<totfact> 0.39335279E+01</totfact>
</mgrwt>
</event>
<event>
12    5  0.5246737E-008  0.1200208E+04  0.7818608E-02  0.9112675E-01
         -2   -1    0    0    0  501 -0.00000000000E+00  0.00000000000E+00  0.93243702023E+03  0.93243702023E+03  0.00000000000E+00 0.  1.
          1   -1    0    0  501    0  0.00000000000E+00 -0.00000000000E+00 -0.38621886306E+03  0.38621886306E+03  0.00000000000E+00 0. -1.
        -24    2    1    2    0    0  0.12920560475E+03  0.12859822580E+03 -0.84160184482E+02  0.21554490171E+03  0.78390535294E+02 0.  0.
        254    2    1    2    0    0 -0.12920560475E+03 -0.12859822580E+03  0.63037834166E+03  0.11031109816E+04  0.88670479420E+03 0.  0.
         23    2    4    4    0    0  0.82575074309E+02  0.35129239998E+03  0.26943810088E+03  0.45954751482E+03  0.91444163270E+02 0.  0.
         23    2    4    4    0    0 -0.21178067906E+03 -0.47989062578E+03  0.36094024078E+03  0.64356346675E+03  0.93541485918E+02 0.  0.
          1    1    3    3  502    0  0.82313110902E+02  0.11369098335E+03 -0.88847217311E+02  0.16611717534E+03  0.00000000000E+00 0. -1.
         -2    1    3    3    0  502  0.46892493853E+02  0.14907242456E+02  0.46870328289E+01  0.49427726370E+02  0.00000000000E+00 0.  1.
         13    1    5    5    0    0 -0.85696618816E+01  0.16090371079E+03  0.12073286690E+03  0.20134514745E+03  0.00000000000E+00 0.  1.
        -13    1    5    5    0    0  0.91144736190E+02  0.19038868918E+03  0.14870523398E+03  0.25820236737E+03  0.00000000000E+00 0. -1.
          3    1    6    6  503    0 -0.16989531282E+03 -0.27710759505E+03  0.23659690348E+03  0.40203374397E+03  0.00000000000E+00 0. -1.
         -3    1    6    6    0  503 -0.41885366245E+02 -0.20278303073E+03  0.12434333729E+03  0.24152972278E+03  0.00000000000E+00 0.  1.
<mgrwt>
<rscale>  0 0.12002079E+04</rscale>
<asrwt>0</asrwt>
<pdfrwt beam="1">  1        1 0.59418287E-01 0.12002079E+04</pdfrwt>
<pdfrwt beam="2">  1       -2 0.14345185E+00 0.12002079E+04</pdfrwt>
<totfact> 0.18301523E+01</totfact>
</mgrwt>
</event>
<event>
12    5  0.5246737E-008  0.2170595E+04  0.7818608E-02  0.8530768E-01
          1   -1    0    0  501    0  0.00000000000E+00  0.00000000000E+00  0.17357956114E+04  0.17357956114E+04  0.00000000000E+00 0. -1.
         -2   -1    0    0    0  501 -0.00000000000E+00 -0.00000000000E+00 -0.67857665287E+03  0.67857665287E+03  0.00000000000E+00 0.  1.
        -24    2    1    2    0    0 -0.43947999743E+03  0.48974719506E+03  0.11158761847E+04  0.12978797664E+04  0.79481099709E+02 0.  0.
        254    2    1    2    0    0  0.43947999743E+03 -0.48974719506E+03 -0.58657226202E+02  0.11164924979E+04  0.90006657775E+03 0.  0.
         23    2    4    4    0    0  0.70079233803E+03 -0.39167348355E+03 -0.11905612332E+03  0.81666804665E+03  0.90853283794E+02 0.  0.
         23    2    4    4    0    0 -0.26131234060E+03 -0.98073711511E+02  0.60398897118E+02  0.29982445120E+03  0.91345949687E+02 0.  0.
          3    1    3    3  502    0 -0.44264025687E+03  0.48358322171E+03  0.10996934750E+04  0.12802768717E+04  0.00000000000E+00 0. -1.
         -4    1    3    3    0  502  0.31602594446E+01  0.61639733445E+01  0.16182709685E+02  0.17602894646E+02  0.00000000000E+00 0.  1.
         13    1    5    5    0    0  0.49648127955E+03 -0.23598801362E+03 -0.10316442635E+03  0.55930930833E+03  0.00000000000E+00 0.  1.
        -13    1    5    5    0    0  0.20431105848E+03 -0.15568546992E+03 -0.15891696970E+02  0.25735873833E+03  0.00000000000E+00 0. -1.
          3    1    6    6  503    0 -0.16811566860E+03 -0.21022355515E+02  0.57330165082E+02  0.17886186091E+03  0.00000000000E+00 0. -1.
         -3    1    6    6    0  503 -0.93196671997E+02 -0.77051355996E+02  0.30687320367E+01  0.12096259029E+03  0.00000000000E+00 0.  1.
<mgrwt>
<rscale>  0 0.21705947E+04</rscale>
<asrwt>0</asrwt>
<pdfrwt beam="1">  1        1 0.26704548E+00 0.21705947E+04</pdfrwt>
<pdfrwt beam="2">  1       -2 0.10439641E+00 0.21705947E+04</pdfrwt>
<totfact> 0.26954138E+00</totfact>
</mgrwt>
</event>
<event>
12    5  0.5246737E-008  0.1480108E+04  0.7818608E-02  0.8897790E-01
         -2   -1    0    0    0  501 -0.00000000000E+00  0.00000000000E+00  0.10505184490E+04  0.10505184490E+04  0.00000000000E+00 0.  1.
          1   -1    0    0  501    0  0.00000000000E+00 -0.00000000000E+00 -0.52134247367E+03  0.52134247367E+03  0.00000000000E+00 0. -1.
        -24    2    1    2    0    0  0.23198780761E+03 -0.40978408567E+03  0.12029424493E+03  0.49256613992E+03  0.80058460385E+02 0.  0.
        254    2    1    2    0    0 -0.23198780761E+03  0.40978408567E+03  0.40888173037E+03  0.10792947827E+04  0.88088116046E+03 0.  0.
         23    2    4    4    0    0  0.15120614676E+03 -0.19922815980E+03  0.51402627550E+02  0.27024267538E+03  0.88508276448E+02 0.  0.
         23    2    4    4    0    0 -0.38319395437E+03  0.60901224548E+03  0.35747910282E+03  0.80905210735E+03  0.95081447454E+02 0.  0.
          3    1    3    3  502    0  0.21296274398E+03 -0.39363390291E+03  0.95983443490E+02  0.45772655731E+03  0.00000000000E+00 0. -1.
         -4    1    3    3    0  502  0.19025063629E+02 -0.16150182761E+02  0.24310801442E+02  0.34839582604E+02  0.00000000000E+00 0.  1.
         13    1    5    5    0    0  0.27670555084E+02 -0.41287689106E+02  0.48881660916E+02  0.69711904753E+02  0.00000000000E+00 0. -1.
        -13    1    5    5    0    0  0.12353559168E+03 -0.15794047070E+03  0.25209666342E+01  0.20053077063E+03  0.00000000000E+00 0.  1.
          3    1    6    6  503    0  0.47208715068E+01  0.17550848366E+01  0.10869053025E+01  0.51525055754E+01  0.00000000000E+00 0. -1.
         -3    1    6    6    0  503 -0.38791482588E+03  0.60725716064E+03  0.35639219752E+03  0.80389960178E+03  0.00000000000E+00 0.  1.
<mgrwt>
<rscale>  0 0.14801080E+04</rscale>
<asrwt>0</asrwt>
<pdfrwt beam="1">  1        1 0.80206535E-01 0.14801080E+04</pdfrwt>
<pdfrwt beam="2">  1       -2 0.16161822E+00 0.14801080E+04</pdfrwt>
<totfact> 0.86778519E+00</totfact>
</mgrwt>
</event>
<event>
12    5  0.5798903E-008  0.1986149E+04  0.7818608E-02  0.8613124E-01
          1   -1    0    0  501    0  0.00000000000E+00  0.00000000000E+00  0.21225468958E+04  0.21225468958E+04  0.00000000000E+00 0. -1.
         -2   -1    0    0    0  501 -0.00000000000E+00 -0.00000000000E+00 -0.46462885011E+03  0.46462885011E+03  0.00000000000E+00 0.  1.
        -24    2    1    2    0    0 -0.53457787892E+02 -0.49285687819E+03 -0.12899947294E+03  0.51905100191E+03  0.83710459910E+02 0.  0.
        254    2    1    2    0    0  0.53457787892E+02  0.49285687819E+03  0.17869175187E+04  0.20681247440E+04  0.91558729838E+03 0.  0.
         23    2    4    4    0    0 -0.25214942271E+02 -0.16999606766E+03  0.10598069386E+04  0.10774284951E+04  0.90149645741E+02 0.  0.
         23    2    4    4    0    0  0.78672730163E+02  0.66285294585E+03  0.72711058005E+03  0.99069624892E+03  0.85004915856E+02 0.  0.
          1    1    3    3  502    0 -0.28203721576E+02 -0.11717615034E+03 -0.65610029787E+02  0.13722381765E+03  0.00000000000E+00 0. -1.
         -2    1    3    3    0  502 -0.25254066316E+02 -0.37568072784E+03 -0.63389443150E+02  0.38182718426E+03  0.00000000000E+00 0.  1.
         13    1    5    5    0    0  0.21423841602E-01 -0.14906407248E+03  0.97801499800E+03  0.98930957464E+03  0.00000000000E+00 0.  1.
        -13    1    5    5    0    0 -0.25236366113E+02 -0.20931995186E+02  0.81791940613E+02  0.88118920479E+02  0.00000000000E+00 0. -1.
          4    1    6    6  503    0  0.24944366718E+02  0.37757720492E+02  0.55817291661E+02  0.71857059055E+02  0.00000000000E+00 0. -1.
         -4    1    6    6    0  503  0.53728363446E+02  0.62509522536E+03  0.67129328838E+03  0.91883918987E+03  0.00000000000E+00 0.  1.
<mgrwt>
<rscale>  0 0.19861486E+04</rscale>
<asrwt>0</asrwt>
<pdfrwt beam="1">  1        1 0.32654567E+00 0.19861486E+04</pdfrwt>
<pdfrwt beam="2">  1       -2 0.71481363E-01 0.19861486E+04</pdfrwt>
<totfact> 0.35631152E+00</totfact>
</mgrwt>
</event>
<event>
12    5  0.5246737E-008  0.1365316E+04  0.7818608E-02  0.8979314E-01
         -2   -1    0    0    0  501 -0.00000000000E+00  0.00000000000E+00  0.12390947373E+04  0.12390947373E+04  0.00000000000E+00 0.  1.
          1   -1    0    0  501    0  0.00000000000E+00 -0.00000000000E+00 -0.37609881256E+03  0.37609881256E+03  0.00000000000E+00 0. -1.
        -24    2    1    2    0    0 -0.31023205966E+03  0.60592998798E+02  0.11676912427E+02  0.32620836184E+03  0.79750252065E+02 0.  0.
        254    2    1    2    0    0  0.31023205966E+03 -0.60592998798E+02  0.85131901235E+03  0.12889851881E+04  0.91478047198E+03 0.  0.
         23    2    4    4    0    0  0.58826935337E+03  0.13514620220E+03  0.46701767830E+03  0.76825494811E+03  0.88231657318E+02 0.  0.
         23    2    4    4    0    0 -0.27803729371E+03 -0.19573920100E+03  0.38430133405E+03  0.52073023996E+03  0.88622209153E+02 0.  0.
          1    1    3    3  502    0 -0.23775680621E+03  0.70274695915E+02 -0.14991186127E+02  0.24837787230E+03  0.00000000000E+00 0. -1.
         -2    1    3    3    0  502 -0.72475253453E+02 -0.96816971161E+01  0.26668098553E+02  0.77830489543E+02  0.00000000000E+00 0.  1.
         13    1    5    5    0    0  0.28905486532E+03  0.59679215488E+02  0.17348979820E+03  0.34236389121E+03  0.00000000000E+00 0. -1.
        -13    1    5    5    0    0  0.29921448805E+03  0.75466986715E+02  0.29352788010E+03  0.42589105689E+03  0.00000000000E+00 0.  1.
          2    1    6    6  503    0 -0.11810699596E+03 -0.12306761288E+03  0.23380258487E+03  0.28941069180E+03  0.00000000000E+00 0. -1.
         -2    1    6    6    0  503 -0.15993029775E+03 -0.72671588117E+02  0.15049874918E+03  0.23131954816E+03  0.00000000000E+00 0.  1.
<mgrwt>
<rscale>  0 0.13653162E+04</rscale>
<asrwt>0</asrwt>
<pdfrwt beam="1">  1        1 0.57861356E-01 0.13653162E+04</pdfrwt>
<pdfrwt beam="2">  1       -2 0.19062996E+00 0.13653162E+04</pdfrwt>
<totfact> 0.85293954E+00</totfact>
</mgrwt>
</event>
<event>
12    5  0.5246737E-008  0.2112646E+04  0.7818608E-02  0.8555693E-01
          1   -1    0    0  501    0  0.00000000000E+00  0.00000000000E+00  0.59834194625E+03  0.59834194625E+03  0.00000000000E+00 0. -1.
         -4   -1    0    0    0  501 -0.00000000000E+00 -0.00000000000E+00 -0.18648513748E+04  0.18648513748E+04  0.00000000000E+00 0.  1.
        -24    2    1    2    0    0  0.65579717215E+03  0.44774344575E+03 -0.13379040236E+03  0.80970723013E+03  0.84745516365E+02 0.  0.
        254    2    1    2    0    0 -0.65579717215E+03 -0.44774344575E+03 -0.11327190262E+04  0.16534860910E+04  0.90577024484E+03 0.  0.
         23    2    4    4    0    0  0.13863458346E+03 -0.32769926292E+03 -0.53168376777E+03  0.64591298230E+03  0.88935915943E+02 0.  0.
         23    2    4    4    0    0 -0.79443175561E+03 -0.12004418284E+03 -0.60103525843E+03  0.10075731086E+04  0.91802871641E+02 0.  0.
          3    1    3    3  502    0  0.83211465184E+02  0.71078300384E+02  0.83481010100E+01  0.10975410477E+03  0.00000000000E+00 0. -1.
         -4    1    3    3    0  502  0.57258570696E+03  0.37666514537E+03 -0.14213850337E+03  0.69995312536E+03  0.00000000000E+00 0.  1.
         13    1    5    5    0    0  0.10984195977E+02  0.37297767456E+01 -0.17220316855E+02  0.20763022622E+02  0.00000000000E+00 0. -1.
        -13    1    5    5    0    0  0.12765038749E+03 -0.33142903966E+03 -0.51446345092E+03  0.62514995968E+03  0.00000000000E+00 0.  1.
          3    1    6    6  503    0 -0.79950029661E+02  0.11814417954E+02 -0.43671306450E+02  0.91862782026E+02  0.00000000000E+00 0. -1.
         -3    1    6    6    0  503 -0.71448172595E+03 -0.13185860079E+03 -0.55736395198E+03  0.91571032662E+03  0.00000000000E+00 0.  1.
<mgrwt>
<rscale>  0 0.21126465E+04</rscale>
<asrwt>0</asrwt>
<pdfrwt beam="1">  1        1 0.92052609E-01 0.21126465E+04</pdfrwt>
<pdfrwt beam="2">  1       -4 0.28690021E+00 0.21126465E+04</pdfrwt>
<totfact> 0.56286571E-01</totfact>
</mgrwt>
</event>
<event>
12    5  0.5246737E-008  0.1161830E+04  0.7818608E-02  0.9146939E-01
         -2   -1    0    0    0  501 -0.00000000000E+00  0.00000000000E+00  0.19212992209E+03  0.19212992209E+03  0.00000000000E+00 0.  1.
          1   -1    0    0  501    0  0.00000000000E+00 -0.00000000000E+00 -0.17564267423E+04  0.17564267423E+04  0.00000000000E+00 0. -1.
        -24    2    1    2    0    0 -0.13606102086E+03  0.13481185847E+03 -0.51648010915E+03  0.55670262420E+03  0.80493913204E+02 0.  0.
        254    2    1    2    0    0  0.13606102086E+03 -0.13481185847E+03 -0.10478167110E+04  0.13918540401E+04  0.89590790296E+03 0.  0.
         23    2    4    4    0    0  0.88552847040E+01  0.17721290215E+03  0.78454935616E+02  0.21280595225E+03  0.87454946301E+02 0.  0.
         23    2    4    4    0    0  0.12720573615E+03 -0.31202476062E+03 -0.11262716466E+04  0.11790480879E+04  0.90143335894E+02 0.  0.
          3    1    3    3  502    0 -0.13431384713E+03  0.14029071904E+03 -0.51549374489E+03  0.55086794824E+03  0.00000000000E+00 0. -1.
         -4    1    3    3    0  502 -0.17471737283E+01 -0.54788605658E+01 -0.98636426405E+00  0.58346759633E+01  0.00000000000E+00 0.  1.
         13    1    5    5    0    0  0.43980221406E+02  0.65834083705E+02  0.17559606022E+02  0.81097017305E+02  0.00000000000E+00 0. -1.
        -13    1    5    5    0    0 -0.35124936702E+02  0.11137881845E+03  0.60895329594E+02  0.13170893494E+03  0.00000000000E+00 0.  1.
          2    1    6    6  503    0  0.55174768702E+02 -0.65571099312E+02 -0.38954029742E+03  0.39885519613E+03  0.00000000000E+00 0. -1.
         -2    1    6    6    0  503  0.72030967451E+02 -0.24645366131E+03 -0.73673134921E+03  0.78019289176E+03  0.00000000000E+00 0.  1.
<mgrwt>
<rscale>  0 0.11618298E+04</rscale>
<asrwt>0</asrwt>
<pdfrwt beam="1">  1        1 0.27021949E+00 0.11618298E+04</pdfrwt>
<pdfrwt beam="2">  1       -2 0.29558450E-01 0.11618298E+04</pdfrwt>
<totfact> 0.40082598E+01</totfact>
</mgrwt>
</event>
<event>
12    5  0.5246737E-008  0.3120341E+04  0.7818608E-02  0.8210178E-01
         -4   -1    0    0    0  501 -0.00000000000E+00  0.00000000000E+00  0.21970191883E+04  0.21970191883E+04  0.00000000000E+00 0.  1.
          3   -1    0    0  501    0  0.00000000000E+00 -0.00000000000E+00 -0.11079245198E+04  0.11079245198E+04  0.00000000000E+00 0. -1.
        -24    2    1    2    0    0 -0.39684278938E+03 -0.25438499496E+03 -0.92724976692E+03  0.10431557853E+04  0.78650728567E+02 0.  0.
        254    2    1    2    0    0  0.39684278938E+03  0.25438499496E+03  0.20163444354E+04  0.22617879227E+04  0.90985921985E+03 0.  0.
         23    2    4    4    0    0 -0.90480712685E+02  0.43431297216E+03  0.61135809230E+03  0.76102879867E+03  0.92690874633E+02 0.  0.
         23    2    4    4    0    0  0.48732350207E+03 -0.17992797720E+03  0.14049863431E+04  0.15007591240E+04  0.91831646986E+02 0.  0.
          3    1    3    3  502    0 -0.29499950241E+03 -0.16846938629E+03 -0.72929133402E+03  0.80453246697E+03  0.00000000000E+00 0. -1.
         -4    1    3    3    0  502 -0.10184328698E+03 -0.85915608672E+02 -0.19795843289E+03  0.23862331837E+03  0.00000000000E+00 0.  1.
         13    1    5    5    0    0 -0.49312728292E+02  0.28037458800E+03  0.46176628114E+03  0.54246636132E+03  0.00000000000E+00 0.  1.
        -13    1    5    5    0    0 -0.41167984393E+02  0.15393838416E+03  0.14959181116E+03  0.21856243735E+03  0.00000000000E+00 0. -1.
          1    1    6    6  503    0  0.19740156142E+03 -0.51366815267E+02  0.66752484875E+03  0.69799380360E+03  0.00000000000E+00 0. -1.
         -1    1    6    6    0  503  0.28992194065E+03 -0.12856116193E+03  0.73746149436E+03  0.80276532043E+03  0.00000000000E+00 0.  1.
<mgrwt>
<rscale>  0 0.31203406E+04</rscale>
<asrwt>0</asrwt>
<pdfrwt beam="1">  1        3 0.17044993E+00 0.31203406E+04</pdfrwt>
<pdfrwt beam="2">  1       -4 0.33800295E+00 0.31203406E+04</pdfrwt>
<totfact> 0.78392776E-03</totfact>
</mgrwt>
</event>
<event>
12    5  0.5246737E-008  0.1770691E+04  0.7818608E-02  0.8722043E-01
          1   -1    0    0  501    0  0.00000000000E+00  0.00000000000E+00  0.68125470849E+03  0.68125470849E+03  0.00000000000E+00 0. -1.
         -2   -1    0    0    0  501 -0.00000000000E+00 -0.00000000000E+00 -0.11505774461E+04  0.11505774461E+04  0.00000000000E+00 0.  1.
        -24    2    1    2    0    0 -0.58476195390E+03 -0.68522957436E+02 -0.44976763243E+03  0.74511520552E+03  0.79144222144E+02 0.  0.
        254    2    1    2    0    0  0.58476195390E+03  0.68522957436E+02 -0.19555105152E+02  0.10867169490E+04  0.91319734273E+03 0.  0.
         23    2    4    4    0    0  0.69388322984E+03 -0.12579157480E+03  0.22567410789E+03  0.74595564719E+03  0.90683888627E+02 0.  0.
         23    2    4    4    0    0 -0.10912127594E+03  0.19431453224E+03 -0.24522921304E+03  0.34076130185E+03  0.79468909708E+02 0.  0.
          1    1    3    3  502    0 -0.20199697904E+03  0.10246005441E+02 -0.13298133916E+03  0.24205742445E+03  0.00000000000E+00 0. -1.
         -2    1    3    3    0  502 -0.38276497486E+03 -0.78768962876E+02 -0.31678629327E+03  0.50305778107E+03  0.00000000000E+00 0.  1.
         13    1    5    5    0    0  0.52655668113E+03 -0.10594533652E+03  0.21009490305E+03  0.57673756689E+03  0.00000000000E+00 0.  1.
        -13    1    5    5    0    0  0.16732654871E+03 -0.19846238277E+02  0.15579204841E+02  0.16921808030E+03  0.00000000000E+00 0. -1.
          2    1    6    6  503    0 -0.65934108963E+01  0.23569109060E+02 -0.74564347002E+02  0.78478135891E+02  0.00000000000E+00 0. -1.
         -2    1    6    6    0  503 -0.10252786505E+03  0.17074542318E+03 -0.17066486604E+03  0.26228316596E+03  0.00000000000E+00 0.  1.
<mgrwt>
<rscale>  0 0.17706906E+04</rscale>
<asrwt>0</asrwt>
<pdfrwt beam="1">  1        1 0.10480842E+00 0.17706906E+04</pdfrwt>
<pdfrwt beam="2">  1       -2 0.17701191E+00 0.17706906E+04</pdfrwt>
<totfact> 0.44695678E+00</totfact>
</mgrwt>
</event>
<event>
12    5  0.5246737E-008  0.2888235E+04  0.7818608E-02  0.8276387E-01
         -4   -1    0    0    0  501 -0.00000000000E+00  0.00000000000E+00  0.10850681418E+04  0.10850681418E+04  0.00000000000E+00 0.  1.
          1   -1    0    0  501    0  0.00000000000E+00 -0.00000000000E+00 -0.19219763959E+04  0.19219763959E+04  0.00000000000E+00 0. -1.
        -24    2    1    2    0    0  0.10998324021E+04 -0.75345607110E+02 -0.10969692759E+04  0.15572376730E+04  0.79619750122E+02 0.  0.
        254    2    1    2    0    0 -0.10998324021E+04  0.75345607110E+02  0.26006102182E+03  0.14498068647E+04  0.90498615269E+03 0.  0.
         23    2    4    4    0    0 -0.78275377457E+03  0.63561115339E+02  0.58729301569E+03  0.98491739118E+03  0.91682572954E+02 0.  0.
         23    2    4    4    0    0 -0.31707862752E+03  0.11784491771E+02 -0.32723199387E+03  0.46488947349E+03  0.91453345896E+02 0.  0.
          1    1    3    3  502    0  0.54039074964E+03 -0.60735940071E+01 -0.57232801673E+03  0.78715843994E+03  0.00000000000E+00 0. -1.
         -2    1    3    3    0  502  0.55944165245E+03 -0.69272013103E+02 -0.52464125919E+03  0.77007923303E+03  0.00000000000E+00 0.  1.
         13    1    5    5    0    0 -0.57956492766E+03  0.82588554151E+02  0.45848623200E+03  0.74358994048E+03  0.00000000000E+00 0. -1.
        -13    1    5    5    0    0 -0.20318884691E+03 -0.19027438812E+02  0.12880678369E+03  0.24132745070E+03  0.00000000000E+00 0.  1.
          2    1    6    6  503    0 -0.18706075019E+03 -0.48193107636E+00 -0.25308741766E+03  0.31471446979E+03  0.00000000000E+00 0. -1.
         -2    1    6    6    0  503 -0.13001787733E+03  0.12266422847E+02 -0.74144576209E+02  0.15017500370E+03  0.00000000000E+00 0.  1.
<mgrwt>
<rscale>  0 0.28882350E+04</rscale>
<asrwt>0</asrwt>
<pdfrwt beam="1">  1        1 0.29568867E+00 0.28882350E+04</pdfrwt>
<pdfrwt beam="2">  1       -4 0.16693356E+00 0.28882350E+04</pdfrwt>
<totfact> 0.31454660E-01</totfact>
</mgrwt>
</event>
<event>
12    5  0.5246737E-008  0.1296481E+04  0.7818608E-02  0.9032360E-01
         -2   -1    0    0    0  501 -0.00000000000E+00  0.00000000000E+00  0.10477095569E+04  0.10477095569E+04  0.00000000000E+00 0.  1.
          1   -1    0    0  501    0  0.00000000000E+00 -0.00000000000E+00 -0.40108062192E+03  0.40108062192E+03  0.00000000000E+00 0. -1.
        -24    2    1    2    0    0  0.13514362909E+03  0.13662082289E+03  0.46191339925E+03  0.50613072078E+03  0.76650299254E+02 0.  0.
        254    2    1    2    0    0 -0.13514362909E+03 -0.13662082289E+03  0.18471553568E+03  0.94265945799E+03  0.90418912562E+03 0.  0.
         23    2    4    4    0    0  0.36786365066E+03 -0.34933337252E+02 -0.25014098404E+02  0.38083274865E+03  0.88678485520E+02 0.  0.
         23    2    4    4    0    0 -0.50300727976E+03 -0.10168748564E+03  0.20972963408E+03  0.56182670934E+03  0.91137608563E+02 0.  0.
          3    1    3    3  502    0  0.10366429664E+03  0.54880997295E+02  0.22901424804E+03  0.25730475329E+03  0.00000000000E+00 0. -1.
         -4    1    3    3    0  502  0.31479332453E+02  0.81739825592E+02  0.23289915121E+03  0.24882596748E+03  0.00000000000E+00 0.  1.
         13    1    5    5    0    0  0.24061912483E+03 -0.29566220712E+02  0.25619957053E+02  0.24377880720E+03  0.00000000000E+00 0.  1.
        -13    1    5    5    0    0  0.12724452583E+03 -0.53671165397E+01 -0.50634055456E+02  0.13705394145E+03  0.00000000000E+00 0. -1.
          4    1    6    6  503    0 -0.44664886072E+03 -0.11668370335E+03  0.19815335370E+03  0.50236942880E+03  0.00000000000E+00 0. -1.
         -4    1    6    6    0  503 -0.56358419034E+02  0.14996217712E+02  0.11576280379E+02  0.59457280539E+02  0.00000000000E+00 0.  1.
<mgrwt>
<rscale>  0 0.12964814E+04</rscale>
<asrwt>0</asrwt>
<pdfrwt beam="1">  1        1 0.61704711E-01 0.12964814E+04</pdfrwt>
<pdfrwt beam="2">  1       -2 0.16118608E+00 0.12964814E+04</pdfrwt>
<totfact> 0.12658961E+01</totfact>
</mgrwt>
</event>
<event>
12    5  0.5246737E-008  0.2422217E+04  0.7818608E-02  0.8431232E-01
          1   -1    0    0  501    0  0.00000000000E+00  0.00000000000E+00  0.25353611905E+04  0.25353611905E+04  0.00000000000E+00 0. -1.
         -2   -1    0    0    0  501 -0.00000000000E+00 -0.00000000000E+00 -0.57853052747E+03  0.57853052747E+03  0.00000000000E+00 0.  1.
        -24    2    1    2    0    0 -0.29472273560E+03  0.30983890701E+03 -0.37701642458E+03  0.57585313695E+03  0.81263840357E+02 0.  0.
        254    2    1    2    0    0  0.29472273560E+03 -0.30983890701E+03  0.23338470876E+04  0.25380385811E+04  0.90107489769E+03 0.  0.
         23    2    4    4    0    0  0.49143340402E+03  0.12122218768E+03  0.12548292467E+04  0.13560835981E+04  0.90358603953E+02 0.  0.
         23    2    4    4    0    0 -0.19671066841E+03 -0.43106109469E+03  0.10790178410E+04  0.11819549830E+04  0.90715633824E+02 0.  0.
          3    1    3    3  502    0 -0.12170931013E+03  0.17158820210E+03 -0.21985988460E+03  0.30429268169E+03  0.00000000000E+00 0. -1.
         -4    1    3    3    0  502 -0.17301342547E+03  0.13825070491E+03 -0.15715653998E+03  0.27156045526E+03  0.00000000000E+00 0.  1.
         13    1    5    5    0    0  0.31218851726E+03  0.64517435790E+02  0.67401443542E+03  0.74560018038E+03  0.00000000000E+00 0. -1.
        -13    1    5    5    0    0  0.17924488676E+03  0.56704751889E+02  0.58081481127E+03  0.61048341771E+03  0.00000000000E+00 0.  1.
          2    1    6    6  503    0 -0.19351047251E+03 -0.42583300587E+03  0.10787837384E+04  0.11758207372E+04  0.00000000000E+00 0. -1.
         -2    1    6    6    0  503 -0.32001959084E+01 -0.52280888209E+01  0.23410254324E+00  0.61342457216E+01  0.00000000000E+00 0.  1.
<mgrwt>
<rscale>  0 0.24222170E+04</rscale>
<asrwt>0</asrwt>
<pdfrwt beam="1">  1        1 0.39005556E+00 0.24222170E+04</pdfrwt>
<pdfrwt beam="2">  1       -2 0.89004698E-01 0.24222170E+04</pdfrwt>
<totfact> 0.10911453E+00</totfact>
</mgrwt>
</event>
<event>
12    5  0.5246737E-008  0.1429439E+04  0.7818608E-02  0.8932780E-01
          1   -1    0    0  501    0  0.00000000000E+00  0.00000000000E+00  0.12673560152E+04  0.12673560152E+04  0.00000000000E+00 0. -1.
         -2   -1    0    0    0  501 -0.00000000000E+00 -0.00000000000E+00 -0.40306283255E+03  0.40306283255E+03  0.00000000000E+00 0.  1.
        -24    2    1    2    0    0  0.17836817892E+02 -0.28229142989E+03  0.66994448901E+03  0.73135589339E+03  0.77776738044E+02 0.  0.
        254    2    1    2    0    0 -0.17836817892E+02  0.28229142989E+03  0.19434869362E+03  0.93906295435E+03  0.87410595128E+03 0.  0.
         23    2    4    4    0    0  0.17629127939E+03  0.51029461953E+03  0.27984005710E+03  0.61461780253E+03  0.89248931141E+02 0.  0.
         23    2    4    4    0    0 -0.19412809729E+03 -0.22800318965E+03 -0.85491363478E+02  0.32444515182E+03  0.91020385997E+02 0.  0.
          3    1    3    3  502    0  0.11211539701E+02 -0.25420847700E+03  0.52312455414E+03  0.58172755440E+03  0.00000000000E+00 0. -1.
         -4    1    3    3    0  502  0.66252781906E+01 -0.28082952882E+02  0.14681993487E+03  0.14962833899E+03  0.00000000000E+00 0.  1.
         13    1    5    5    0    0 -0.73511762766E+00 -0.29646324048E+00  0.11005169309E+02  0.11033677533E+02  0.00000000000E+00 0. -1.
        -13    1    5    5    0    0  0.17702639702E+03  0.51059108277E+03  0.26883488779E+03  0.60358412499E+03  0.00000000000E+00 0.  1.
          1    1    6    6  503    0 -0.72548460882E+02 -0.41606737117E+02 -0.54332480297E+02  0.99731730984E+02  0.00000000000E+00 0. -1.
         -1    1    6    6    0  503 -0.12157963640E+03 -0.18639645253E+03 -0.31158883181E+02  0.22471342084E+03  0.00000000000E+00 0.  1.
<mgrwt>
<rscale>  0 0.14294392E+04</rscale>
<asrwt>0</asrwt>
<pdfrwt beam="1">  1        1 0.19497785E+00 0.14294392E+04</pdfrwt>
<pdfrwt beam="2">  1       -2 0.62009667E-01 0.14294392E+04</pdfrwt>
<totfact> 0.19673107E+01</totfact>
</mgrwt>
</event>
<event>
12    5  0.5246737E-008  0.1390631E+04  0.7818608E-02  0.8960628E-01
         -2   -1    0    0    0  501 -0.00000000000E+00  0.00000000000E+00  0.22906384305E+03  0.22906384305E+03  0.00000000000E+00 0.  1.
          1   -1    0    0  501    0  0.00000000000E+00 -0.00000000000E+00 -0.21106072457E+04  0.21106072457E+04  0.00000000000E+00 0. -1.
        -24    2    1    2    0    0 -0.33009743808E+03  0.16379902294E+03 -0.79363976559E+03  0.87874656122E+03  0.80851733405E+02 0.  0.
        254    2    1    2    0    0  0.33009743808E+03 -0.16379902294E+03 -0.10879036370E+04  0.14609245275E+04  0.90275783741E+03 0.  0.
         23    2    4    4    0    0  0.11961714439E+03 -0.39437363510E+03 -0.11829862396E+03  0.43813096366E+03  0.90140732166E+02 0.  0.
         23    2    4    4    0    0  0.21048029369E+03  0.23057461216E+03 -0.96960501307E+03  0.10227935638E+04  0.92228992332E+02 0.  0.
          1    1    3    3  502    0 -0.24899961800E+03  0.82203501601E+02 -0.54892070876E+03  0.60833557346E+03  0.00000000000E+00 0. -1.
         -2    1    3    3    0  502 -0.81097820082E+02  0.81595521339E+02 -0.24471905683E+03  0.27041098776E+03  0.00000000000E+00 0.  1.
         13    1    5    5    0    0  0.12686302036E+03 -0.35968130154E+03 -0.87800617115E+02  0.39137426203E+03  0.00000000000E+00 0. -1.
        -13    1    5    5    0    0 -0.72458759677E+01 -0.34692333561E+02 -0.30498006844E+02  0.46756701636E+02  0.00000000000E+00 0.  1.
          4    1    6    6  503    0  0.17630125946E+03  0.18824372158E+03 -0.88814811381E+03  0.92483777218E+03  0.00000000000E+00 0. -1.
         -4    1    6    6    0  503  0.34179034230E+02  0.42330890580E+02 -0.81456899262E+02  0.97955791638E+02  0.00000000000E+00 0.  1.
<mgrwt>
<rscale>  0 0.13906312E+04</rscale>
<asrwt>0</asrwt>
<pdfrwt beam="1">  1        1 0.32470881E+00 0.13906312E+04</pdfrwt>
<pdfrwt beam="2">  1       -2 0.35240591E-01 0.13906312E+04</pdfrwt>
<totfact> 0.16257025E+01</totfact>
</mgrwt>
</event>
<event>
12    5  0.5246737E-008  0.1871564E+04  0.7818608E-02  0.8669142E-01
         -2   -1    0    0    0  501 -0.00000000000E+00  0.00000000000E+00  0.65529190858E+03  0.65529190858E+03  0.00000000000E+00 0.  1.
          1   -1    0    0  501    0  0.00000000000E+00 -0.00000000000E+00 -0.13363324868E+04  0.13363324868E+04  0.00000000000E+00 0. -1.
        -24    2    1    2    0    0 -0.28526943282E+03  0.20548630809E+03 -0.91352674781E+03  0.98204310160E+03  0.79210241322E+02 0.  0.
        254    2    1    2    0    0  0.28526943282E+03 -0.20548630809E+03  0.23248616957E+03  0.10095812938E+04  0.91738830253E+03 0.  0.
         23    2    4    4    0    0 -0.11010606639E+03 -0.22831273574E+03  0.46807168600E+03  0.53982701038E+03  0.89844569917E+02 0.  0.
         23    2    4    4    0    0  0.39537549920E+03  0.22826427645E+02 -0.23558551643E+03  0.46975428341E+03  0.91245383792E+02 0.  0.
          1    1    3    3  502    0 -0.18488575001E+03  0.14187617288E+03 -0.49757433101E+03  0.54944681624E+03  0.00000000000E+00 0. -1.
         -2    1    3    3    0  502 -0.10038368280E+03  0.63610135217E+02 -0.41595241679E+03  0.43259628537E+03  0.00000000000E+00 0.  1.
         13    1    5    5    0    0 -0.96781906756E+02 -0.23068864945E+03  0.41080822801E+03  0.48098585287E+03  0.00000000000E+00 0. -1.
        -13    1    5    5    0    0 -0.13324159630E+02  0.23759137145E+01  0.57263457986E+02  0.58841157503E+02  0.00000000000E+00 0.  1.
          3    1    6    6  503    0  0.39136040227E+03  0.94196768147E+01 -0.22102947018E+03  0.44956169929E+03  0.00000000000E+00 0. -1.
         -3    1    6    6    0  503  0.40150969292E+01  0.13406750830E+02 -0.14556046247E+02  0.20192584122E+02  0.00000000000E+00 0.  1.
<mgrwt>
<rscale>  0 0.18715639E+04</rscale>
<asrwt>0</asrwt>
<pdfrwt beam="1">  1        1 0.20558961E+00 0.18715639E+04</pdfrwt>
<pdfrwt beam="2">  1       -2 0.10081414E+00 0.18715639E+04</pdfrwt>
<totfact> 0.56818744E+00</totfact>
</mgrwt>
</event>
<event>
12    5  0.5246737E-008  0.1390426E+04  0.7818608E-02  0.8960778E-01
          3   -1    0    0  501    0  0.00000000000E+00  0.00000000000E+00  0.40290450651E+03  0.40290450651E+03  0.00000000000E+00 0. -1.
         -4   -1    0    0    0  501 -0.00000000000E+00 -0.00000000000E+00 -0.11995923567E+04  0.11995923567E+04  0.00000000000E+00 0.  1.
        -24    2    1    2    0    0  0.52206603706E+02 -0.38994263972E+03 -0.28812657613E+03  0.49624401318E+03  0.91980459881E+02 0.  0.
        254    2    1    2    0    0 -0.52206603706E+02  0.38994263972E+03 -0.50856127408E+03  0.11062528501E+04  0.90021109025E+03 0.  0.
         23    2    4    4    0    0  0.28758516670E+03  0.46911984694E+03 -0.10930932322E+03  0.56842443180E+03  0.91537684187E+02 0.  0.
         23    2    4    4    0    0 -0.33979177041E+03 -0.79177207216E+02 -0.39925195086E+03  0.53782841826E+03  0.90165458118E+02 0.  0.
          1    1    3    3  502    0  0.41334970493E+02 -0.13997628947E+03 -0.60511940767E+02  0.15799884929E+03  0.00000000000E+00 0. -1.
         -2    1    3    3    0  502  0.10871633213E+02 -0.24996635025E+03 -0.22761463536E+03  0.33824516389E+03  0.00000000000E+00 0.  1.
         13    1    5    5    0    0  0.26863524288E+03  0.39704950720E+03 -0.70947246736E+02  0.48460986031E+03  0.00000000000E+00 0. -1.
        -13    1    5    5    0    0  0.18949923817E+02  0.72070339734E+02 -0.38362076479E+02  0.83814571489E+02  0.00000000000E+00 0.  1.
          1    1    6    6  503    0 -0.17330729841E+03 -0.58375508820E+02 -0.26969355530E+03  0.32584924963E+03  0.00000000000E+00 0. -1.
         -1    1    6    6    0  503 -0.16648447199E+03 -0.20801698397E+02 -0.12955839556E+03  0.21197916863E+03  0.00000000000E+00 0.  1.
<mgrwt>
<rscale>  0 0.13904261E+04</rscale>
<asrwt>0</asrwt>
<pdfrwt beam="1">  1        3 0.61985310E-01 0.13904261E+04</pdfrwt>
<pdfrwt beam="2">  1       -4 0.18455267E+00 0.13904261E+04</pdfrwt>
<totfact> 0.94409442E-01</totfact>
</mgrwt>
</event>
<event>
12    5  0.5246737E-008  0.1231632E+04  0.7818608E-02  0.9085611E-01
          1   -1    0    0  501    0  0.00000000000E+00  0.00000000000E+00  0.78095759739E+03  0.78095759739E+03  0.00000000000E+00 0. -1.
         -2   -1    0    0    0  501 -0.00000000000E+00 -0.00000000000E+00 -0.48559538918E+03  0.48559538918E+03  0.00000000000E+00 0.  1.
        -24    2    1    2    0    0 -0.10577856731E+03  0.24777204719E+03  0.67498924564E+01  0.28135268957E+03  0.80831195763E+02 0.  0.
        254    2    1    2    0    0  0.10577856731E+03 -0.24777204719E+03  0.28861231575E+03  0.98520029700E+03  0.90263085685E+03 0.  0.
         23    2    4    4    0    0  0.35428467513E+01  0.14020141874E+02  0.56970131601E+03  0.57745071049E+03  0.93169831191E+02 0.  0.
         23    2    4    4    0    0  0.10223572056E+03 -0.26179218906E+03 -0.28108900026E+03  0.40774958651E+03  0.90892279241E+02 0.  0.
          3    1    3    3  502    0 -0.48342702778E+02  0.78244366874E+02 -0.33509092023E+02  0.97887982447E+02  0.00000000000E+00 0. -1.
         -4    1    3    3    0  502 -0.57435864529E+02  0.16952768031E+03  0.40258984479E+02  0.18346470712E+03  0.00000000000E+00 0.  1.
         13    1    5    5    0    0 -0.24131950222E+02  0.37718655481E+02  0.16046059869E+03  0.16659127145E+03  0.00000000000E+00 0. -1.
        -13    1    5    5    0    0  0.27674796973E+02 -0.23698513607E+02  0.40924071732E+03  0.41085943904E+03  0.00000000000E+00 0.  1.
          4    1    6    6  503    0  0.44073684920E+01 -0.44100648602E+02 -0.79446119804E+01  0.45026758308E+02  0.00000000000E+00 0. -1.
         -4    1    6    6    0  503  0.97828352064E+02 -0.21769154046E+03 -0.27314438828E+03  0.36272282821E+03  0.00000000000E+00 0.  1.
<mgrwt>
<rscale>  0 0.12316321E+04</rscale>
<asrwt>0</asrwt>
<pdfrwt beam="1">  1        1 0.12014732E+00 0.12316321E+04</pdfrwt>
<pdfrwt beam="2">  1       -2 0.74706983E-01 0.12316321E+04</pdfrwt>
<totfact> 0.32026038E+01</totfact>
</mgrwt>
</event>
<event>
12    5  0.5246737E-008  0.1725937E+04  0.7818608E-02  0.8746708E-01
          3   -1    0    0  501    0  0.00000000000E+00  0.00000000000E+00  0.24454409821E+03  0.24454409821E+03  0.00000000000E+00 0. -1.
         -2   -1    0    0    0  501 -0.00000000000E+00 -0.00000000000E+00 -0.30453190814E+04  0.30453190814E+04  0.00000000000E+00 0.  1.
        -24    2    1    2    0    0  0.46340218653E+03  0.39813373665E+03 -0.79829165738E+03  0.10084152901E+04  0.79873452174E+02 0.  0.
        254    2    1    2    0    0 -0.46340218653E+03 -0.39813373665E+03 -0.20024833259E+04  0.22814478895E+04  0.90653899177E+03 0.  0.
         23    2    4    4    0    0 -0.66378362553E+03 -0.50274620592E+03 -0.13994179385E+04  0.16310020197E+04  0.91839929935E+02 0.  0.
         23    2    4    4    0    0  0.20038143900E+03  0.10461246927E+03 -0.60306538739E+03  0.65044586982E+03  0.91079516225E+02 0.  0.
          3    1    3    3  502    0  0.41553329431E+03  0.33638505010E+03 -0.65777618846E+03  0.84763927157E+03  0.00000000000E+00 0. -1.
         -4    1    3    3    0  502  0.47868892220E+02  0.61748686554E+02 -0.14051546892E+03  0.16077601854E+03  0.00000000000E+00 0.  1.
         13    1    5    5    0    0 -0.54437419816E+03 -0.37053130465E+03 -0.11341168190E+04  0.13114334426E+04  0.00000000000E+00 0. -1.
        -13    1    5    5    0    0 -0.11940942737E+03 -0.13221490127E+03 -0.26530111950E+03  0.31956857710E+03  0.00000000000E+00 0.  1.
          4    1    6    6  503    0  0.38978310940E+02  0.54945720517E+02 -0.10716741022E+03  0.12658275846E+03  0.00000000000E+00 0.  1.
         -4    1    6    6    0  503  0.16140312806E+03  0.49666748750E+02 -0.49589797717E+03  0.52386311136E+03  0.00000000000E+00 0. -1.
<mgrwt>
<rscale>  0 0.17259372E+04</rscale>
<asrwt>0</asrwt>
<pdfrwt beam="1">  1        3 0.37622169E-01 0.17259372E+04</pdfrwt>
<pdfrwt beam="2">  1       -2 0.46851062E+00 0.17259372E+04</pdfrwt>
<totfact> 0.74391828E-02</totfact>
</mgrwt>
</event>
<event>
12    5  0.5246737E-008  0.2450566E+04  0.7818608E-02  0.8420811E-01
          1   -1    0    0  501    0  0.00000000000E+00  0.00000000000E+00  0.31732047848E+04  0.31732047848E+04  0.00000000000E+00 0. -1.
         -2   -1    0    0    0  501 -0.00000000000E+00 -0.00000000000E+00 -0.47312380457E+03  0.47312380457E+03  0.00000000000E+00 0.  1.
        -24    2    1    2    0    0  0.76679690325E+02 -0.12018408394E+03  0.27345390396E+04  0.27393893337E+04  0.78906102598E+02 0.  0.
        254    2    1    2    0    0 -0.76679690325E+02  0.12018408394E+03 -0.34458059438E+02  0.90693925570E+03  0.89500137805E+03 0.  0.
         23    2    4    4    0    0 -0.11983782693E+02 -0.24978799595E+03  0.29579791462E+03  0.39826308000E+03  0.92625161941E+02 0.  0.
         23    2    4    4    0    0 -0.64695907632E+02  0.36997207990E+03 -0.33025597406E+03  0.50867617570E+03  0.92830722056E+02 0.  0.
          3    1    3    3  502    0  0.89835364216E+02 -0.78866929522E+02  0.20327776268E+04  0.20362895829E+04  0.00000000000E+00 0. -1.
         -4    1    3    3    0  502 -0.13155673891E+02 -0.41317154422E+02  0.70176141281E+03  0.70309975076E+03  0.00000000000E+00 0.  1.
         13    1    5    5    0    0 -0.61314258898E+00 -0.25426340031E+03  0.28522667331E+03  0.38210536223E+03  0.00000000000E+00 0. -1.
        -13    1    5    5    0    0 -0.11370640104E+02  0.44754043532E+01  0.10571241308E+02  0.16157717763E+02  0.00000000000E+00 0.  1.
          4    1    6    6  503    0 -0.71022011476E+02  0.36060588120E+03 -0.33414549236E+03  0.49672320032E+03  0.00000000000E+00 0. -1.
         -4    1    6    6    0  503  0.63261038443E+01  0.93661986936E+01  0.38895183021E+01  0.11952975380E+02  0.00000000000E+00 0.  1.
<mgrwt>
<rscale>  0 0.24505662E+04</rscale>
<asrwt>0</asrwt>
<pdfrwt beam="1">  1        1 0.48818534E+00 0.24505662E+04</pdfrwt>
<pdfrwt beam="2">  1       -2 0.72788280E-01 0.24505662E+04</pdfrwt>
<totfact> 0.59608415E-01</totfact>
</mgrwt>
</event>
<event>
12    5  0.5246737E-008  0.1814423E+04  0.7818608E-02  0.8698667E-01
         -2   -1    0    0    0  501 -0.00000000000E+00  0.00000000000E+00  0.20263534465E+03  0.20263534465E+03  0.00000000000E+00 0.  1.
          1   -1    0    0  501    0  0.00000000000E+00 -0.00000000000E+00 -0.40616461779E+04  0.40616461779E+04  0.00000000000E+00 0. -1.
        -24    2    1    2    0    0 -0.32033429755E+03  0.13944152844E+03 -0.86883560543E+02  0.37168950544E+03  0.92446380792E+02 0.  0.
        254    2    1    2    0    0  0.32033429755E+03 -0.13944152844E+03 -0.37721272727E+04  0.38925920171E+04  0.89513711138E+03 0.  0.
         23    2    4    4    0    0  0.28671805555E+03 -0.13250701570E+03 -0.39285052637E+03  0.51191818115E+03  0.89237523098E+02 0.  0.
         23    2    4    4    0    0  0.33616241996E+02 -0.69345127390E+01 -0.33792767464E+04  0.33806738360E+04  0.90918192254E+02 0.  0.
          1    1    3    3  502    0 -0.94834279660E+01 -0.10231105961E+02 -0.12550894957E+02  0.18765284420E+02  0.00000000000E+00 0. -1.
         -2    1    3    3    0  502 -0.31085086958E+03  0.14967263440E+03 -0.74332665586E+02  0.35292422102E+03  0.00000000000E+00 0.  1.
         13    1    5    5    0    0  0.17817208174E+03 -0.12035165875E+03 -0.29660697637E+03  0.36634070332E+03  0.00000000000E+00 0. -1.
        -13    1    5    5    0    0  0.10854597382E+03 -0.12155356944E+02 -0.96243549998E+02  0.14557747783E+03  0.00000000000E+00 0.  1.
          4    1    6    6  503    0 -0.17848338073E+01  0.28193711173E+02 -0.23676359860E+04  0.23678045176E+04  0.00000000000E+00 0. -1.
         -4    1    6    6    0  503  0.35401075804E+02 -0.35128223912E+02 -0.10116407603E+04  0.10128693184E+04  0.00000000000E+00 0.  1.
<mgrwt>
<rscale>  0 0.18144234E+04</rscale>
<asrwt>0</asrwt>
<pdfrwt beam="1">  1        1 0.62486862E+00 0.18144234E+04</pdfrwt>
<pdfrwt beam="2">  1       -2 0.31174669E-01 0.18144234E+04</pdfrwt>
<totfact> 0.67635495E-01</totfact>
</mgrwt>
</event>
<event>
12    5  0.5246737E-008  0.1479857E+04  0.7818608E-02  0.8897959E-01
          1   -1    0    0  501    0  0.00000000000E+00  0.00000000000E+00  0.22464972007E+04  0.22464972007E+04  0.00000000000E+00 0. -1.
         -2   -1    0    0    0  501 -0.00000000000E+00 -0.00000000000E+00 -0.24371016149E+03  0.24371016149E+03  0.00000000000E+00 0.  1.
        -24    2    1    2    0    0  0.26098021482E+03  0.15300922066E+03  0.47570034351E+02  0.31577586396E+03  0.76999960740E+02 0.  0.
        254    2    1    2    0    0 -0.26098021482E+03 -0.15300922066E+03  0.19552170048E+04  0.21744314982E+04  0.90208442522E+03 0.  0.
         23    2    4    4    0    0 -0.35298672733E+02  0.70038247763E+02  0.18078305902E+04  0.18118387631E+04  0.91416126124E+02 0.  0.
         23    2    4    4    0    0 -0.22568154209E+03 -0.22304746843E+03  0.14738641462E+03  0.36259273510E+03  0.95228171877E+02 0.  0.
          1    1    3    3  502    0  0.23997914815E+02 -0.44920515668E+01 -0.83161745737E+01  0.25792192662E+02  0.00000000000E+00 0. -1.
         -2    1    3    3    0  502  0.23698230001E+03  0.15750127223E+03  0.55886208925E+02  0.28998367130E+03  0.00000000000E+00 0.  1.
         13    1    5    5    0    0 -0.61425006569E+02  0.21231397437E+02  0.93938592316E+03  0.94163141213E+03  0.00000000000E+00 0.  1.
        -13    1    5    5    0    0  0.26126333836E+02  0.48806850326E+02  0.86844466703E+03  0.87020735096E+03  0.00000000000E+00 0. -1.
          2    1    6    6  503    0 -0.21448997673E+03 -0.16968818052E+03  0.10285435453E+03  0.29219693183E+03  0.00000000000E+00 0.  1.
         -2    1    6    6    0  503 -0.11191565355E+02 -0.53359287912E+02  0.44532060089E+02  0.70395803265E+02  0.00000000000E+00 0. -1.
<mgrwt>
<rscale>  0 0.14798570E+04</rscale>
<asrwt>0</asrwt>
<pdfrwt beam="1">  1        1 0.34561494E+00 0.14798570E+04</pdfrwt>
<pdfrwt beam="2">  1       -2 0.37493872E-01 0.14798570E+04</pdfrwt>
<totfact> 0.11575333E+01</totfact>
</mgrwt>
</event>
<event>
12    5  0.5246737E-008  0.4287713E+04  0.7818608E-02  0.7948894E-01
         -2   -1    0    0    0  501 -0.00000000000E+00  0.00000000000E+00  0.10194282062E+04  0.10194282062E+04  0.00000000000E+00 0.  1.
          1   -1    0    0  501    0  0.00000000000E+00 -0.00000000000E+00 -0.45085272899E+04  0.45085272899E+04  0.00000000000E+00 0. -1.
        -24    2    1    2    0    0  0.24968869870E+03  0.10094434105E+04 -0.39413339414E+04  0.40769412183E+04  0.77562973088E+02 0.  0.
        254    2    1    2    0    0 -0.24968869870E+03 -0.10094434105E+04  0.45223485778E+03  0.14510142778E+04  0.90532072912E+03 0.  0.
         23    2    4    4    0    0 -0.51655436607E+03 -0.62356500629E+03  0.33010996424E+02  0.81542864760E+03  0.90401456136E+02 0.  0.
         23    2    4    4    0    0  0.26686566736E+03 -0.38587840418E+03  0.41922386136E+03  0.63558563019E+03  0.90005667306E+02 0.  0.
          3    1    3    3  502    0  0.20996171236E+03  0.92383799028E+03 -0.36321464736E+04  0.37536713440E+04  0.00000000000E+00 0. -1.
         -4    1    3    3    0  502  0.39726986347E+02  0.85605420185E+02 -0.30918746784E+03  0.32326987437E+03  0.00000000000E+00 0.  1.
         13    1    5    5    0    0 -0.39535051733E+03 -0.50238073232E+03 -0.74187160341E+01  0.63933048504E+03  0.00000000000E+00 0. -1.
        -13    1    5    5    0    0 -0.12120384874E+03 -0.12118427397E+03  0.40429712458E+02  0.17609816256E+03  0.00000000000E+00 0.  1.
          1    1    6    6  503    0  0.19974298203E+03 -0.21759839309E+03  0.28123999665E+03  0.40785077573E+03  0.00000000000E+00 0. -1.
         -1    1    6    6    0  503  0.67122685334E+02 -0.16828001109E+03  0.13798386470E+03  0.22773485446E+03  0.00000000000E+00 0.  1.
<mgrwt>
<rscale>  0 0.42877126E+04</rscale>
<asrwt>0</asrwt>
<pdfrwt beam="1">  1        1 0.69361961E+00 0.42877126E+04</pdfrwt>
<pdfrwt beam="2">  1       -2 0.15683510E+00 0.42877126E+04</pdfrwt>
<totfact> 0.56232074E-03</totfact>
</mgrwt>
</event>
<event>
12    5  0.5246737E-008  0.1966264E+04  0.7818608E-02  0.8622558E-01
          1   -1    0    0  501    0  0.00000000000E+00  0.00000000000E+00  0.60007055470E+03  0.60007055470E+03  0.00000000000E+00 0. -1.
         -2   -1    0    0    0  501 -0.00000000000E+00 -0.00000000000E+00 -0.16107246627E+04  0.16107246627E+04  0.00000000000E+00 0.  1.
        -24    2    1    2    0    0  0.39567712137E+03 -0.57840194751E+03 -0.76854443932E+03  0.10432070659E+04  0.80692192273E+02 0.  0.
        254    2    1    2    0    0 -0.39567712137E+03  0.57840194751E+03 -0.24210966864E+03  0.11675881515E+04  0.90196219572E+03 0.  0.
         23    2    4    4    0    0  0.22725177203E+02  0.63166360416E+03 -0.34268679438E+03  0.72464860987E+03  0.90366067994E+02 0.  0.
         23    2    4    4    0    0 -0.41840229857E+03 -0.53261656654E+02  0.10057712573E+03  0.44293954159E+03  0.90456573880E+02 0.  0.
          1    1    3    3  502    0  0.12772657859E+03 -0.14664987348E+03 -0.17244929686E+03  0.25992118855E+03  0.00000000000E+00 0. -1.
         -2    1    3    3    0  502  0.26795054278E+03 -0.43175207403E+03 -0.59609514246E+03  0.78328587736E+03  0.00000000000E+00 0.  1.
         13    1    5    5    0    0  0.42915030180E+01  0.39577507368E+03 -0.26201474164E+03  0.47466625200E+03  0.00000000000E+00 0.  1.
        -13    1    5    5    0    0  0.18433674185E+02  0.23588853048E+03 -0.80672052733E+02  0.24998235787E+03  0.00000000000E+00 0. -1.
          1    1    6    6  503    0 -0.10337320462E+03 -0.48920787236E+02  0.83975147219E+01  0.11467249501E+03  0.00000000000E+00 0. -1.
         -1    1    6    6    0  503 -0.31502909395E+03 -0.43408694175E+01  0.92179611012E+02  0.32826704658E+03  0.00000000000E+00 0.  1.
<mgrwt>
<rscale>  0 0.19662639E+04</rscale>
<asrwt>0</asrwt>
<pdfrwt beam="1">  1        1 0.92318547E-01 0.19662639E+04</pdfrwt>
<pdfrwt beam="2">  1       -2 0.24780379E+00 0.19662639E+04</pdfrwt>
<totfact> 0.18489479E+00</totfact>
</mgrwt>
</event>
<event>
12    5  0.5246737E-008  0.1550940E+04  0.7818608E-02  0.8851268E-01
         -2   -1    0    0    0  501 -0.00000000000E+00  0.00000000000E+00  0.51155062003E+03  0.51155062003E+03  0.00000000000E+00 0.  1.
          1   -1    0    0  501    0  0.00000000000E+00 -0.00000000000E+00 -0.11755501257E+04  0.11755501257E+04  0.00000000000E+00 0. -1.
        -24    2    1    2    0    0 -0.15896714946E+03 -0.16452655554E+03  0.26286185360E+03  0.35717147793E+03  0.78329869684E+02 0.  0.
        254    2    1    2    0    0  0.15896714946E+03  0.16452655554E+03 -0.92686135930E+03  0.13299292678E+04  0.92590514415E+03 0.  0.
         23    2    4    4    0    0 -0.32393027855E+03  0.21984421531E+03 -0.19674986672E+03  0.44770530458E+03  0.92017527263E+02 0.  0.
         23    2    4    4    0    0  0.48289742801E+03 -0.55317659777E+02 -0.73011149258E+03  0.88222396325E+03  0.94901845482E+02 0.  0.
          1    1    3    3  502    0 -0.88834461680E+02 -0.42595477511E+02  0.82882429063E+02  0.12874561481E+03  0.00000000000E+00 0. -1.
         -2    1    3    3    0  502 -0.70132687778E+02 -0.12193107803E+03  0.17997942454E+03  0.22842586312E+03  0.00000000000E+00 0.  1.
         13    1    5    5    0    0 -0.18254324858E+03  0.69012162797E+02 -0.10366534994E+03  0.22097787444E+03  0.00000000000E+00 0. -1.
        -13    1    5    5    0    0 -0.14138702997E+03  0.15083205252E+03 -0.93084516781E+02  0.22672743013E+03  0.00000000000E+00 0.  1.
          1    1    6    6  503    0  0.64102719186E+02  0.24963745288E+02 -0.10428517391E+03  0.12493095967E+03  0.00000000000E+00 0. -1.
         -1    1    6    6    0  503  0.41879470882E+03 -0.80281405064E+02 -0.62582631867E+03  0.75729300358E+03  0.00000000000E+00 0.  1.
<mgrwt>
<rscale>  0 0.15509396E+04</rscale>
<asrwt>0</asrwt>
<pdfrwt beam="1">  1        1 0.18085387E+00 0.15509396E+04</pdfrwt>
<pdfrwt beam="2">  1       -2 0.78700095E-01 0.15509396E+04</pdfrwt>
<totfact> 0.13494821E+01</totfact>
</mgrwt>
</event>
<event>
12    5  0.5246737E-008  0.1140053E+04  0.7818608E-02  0.9167010E-01
          3   -1    0    0  501    0  0.00000000000E+00  0.00000000000E+00  0.36125946993E+03  0.36125946993E+03  0.00000000000E+00 0. -1.
         -4   -1    0    0    0  501 -0.00000000000E+00 -0.00000000000E+00 -0.89943700730E+03  0.89943700730E+03  0.00000000000E+00 0.  1.
        -24    2    1    2    0    0 -0.68389491888E+00 -0.49325447518E+02  0.10481855728E+03  0.14569951860E+03  0.88362618139E+02 0.  0.
        254    2    1    2    0    0  0.68389491888E+00  0.49325447518E+02 -0.64299609465E+03  0.11149969586E+04  0.90958274639E+03 0.  0.
         23    2    4    4    0    0  0.12372434953E+03  0.22855047972E+03 -0.79006971354E+03  0.83707256785E+03  0.94537268586E+02 0.  0.
         23    2    4    4    0    0 -0.12304045461E+03 -0.17922503220E+03  0.14707361888E+03  0.27792439078E+03  0.91382448953E+02 0.  0.
          3    1    3    3  502    0 -0.98278181709E+01  0.12734018670E+02  0.74149495098E+02  0.75874164673E+02  0.00000000000E+00 0. -1.
         -4    1    3    3    0  502  0.91439232520E+01 -0.62059466187E+02  0.30669062186E+02  0.69825353929E+02  0.00000000000E+00 0.  1.
         13    1    5    5    0    0  0.24540903372E+02  0.13667706711E+03 -0.45627474258E+03  0.47693764511E+03  0.00000000000E+00 0. -1.
        -13    1    5    5    0    0  0.99183446160E+02  0.91873412609E+02 -0.33379497096E+03  0.36013492273E+03  0.00000000000E+00 0.  1.
          1    1    6    6  503    0 -0.84664972757E+02 -0.48589203974E+02  0.43595753448E+02  0.10690957896E+03  0.00000000000E+00 0. -1.
         -1    1    6    6    0  503 -0.38375481856E+02 -0.13063582823E+03  0.10347786544E+03  0.17101481182E+03  0.00000000000E+00 0.  1.
<mgrwt>
<rscale>  0 0.11400529E+04</rscale>
<asrwt>0</asrwt>
<pdfrwt beam="1">  1        3 0.55578380E-01 0.11400529E+04</pdfrwt>
<pdfrwt beam="2">  1       -4 0.13837492E+00 0.11400529E+04</pdfrwt>
<totfact> 0.26585020E+00</totfact>
</mgrwt>
</event>
<event>
12    5  0.5246737E-008  0.3198364E+04  0.7818608E-02  0.8189249E-01
         -4   -1    0    0    0  501 -0.00000000000E+00  0.00000000000E+00  0.23061464571E+04  0.23061464571E+04  0.00000000000E+00 0.  1.
          3   -1    0    0  501    0  0.00000000000E+00 -0.00000000000E+00 -0.11089422605E+04  0.11089422605E+04  0.00000000000E+00 0. -1.
        -24    2    1    2    0    0 -0.21095997975E+03 -0.13944853668E+04  0.10146191284E+03  0.14163112926E+04  0.80929638041E+02 0.  0.
        254    2    1    2    0    0  0.21095997975E+03  0.13944853668E+04  0.10957422838E+04  0.19987774251E+04  0.89742213652E+03 0.  0.
         23    2    4    4    0    0 -0.60618039961E+02 -0.71230909581E+01 -0.87785835824E+02  0.14217823578E+03  0.93717728128E+02 0.  0.
         23    2    4    4    0    0  0.27157801971E+03  0.14016084578E+04  0.11835281196E+04  0.18565991893E+04  0.89223595560E+02 0.  0.
          3    1    3    3  502    0 -0.89199447264E+02 -0.69090507707E+03  0.12491725513E+02  0.69675132588E+03  0.00000000000E+00 0. -1.
         -2    1    3    3    0  502 -0.12176053248E+03 -0.70358028977E+03  0.88970187324E+02  0.71955996668E+03  0.00000000000E+00 0.  1.
         13    1    5    5    0    0 -0.85867092864E+02 -0.56276392216E+01 -0.62018111626E+02  0.10607108055E+03  0.00000000000E+00 0.  1.
        -13    1    5    5    0    0  0.25249052903E+02 -0.14954517365E+01 -0.25767724198E+02  0.36107155229E+02  0.00000000000E+00 0. -1.
          4    1    6    6  503    0  0.89617934497E+02  0.34488662607E+03  0.33681876125E+03  0.49033155819E+03  0.00000000000E+00 0. -1.
         -4    1    6    6    0  503  0.18196008521E+03  0.10567218317E+04  0.84670935836E+03  0.13662676311E+04  0.00000000000E+00 0.  1.
<mgrwt>
<rscale>  0 0.31983641E+04</rscale>
<asrwt>0</asrwt>
<pdfrwt beam="1">  1        3 0.17060650E+00 0.31983641E+04</pdfrwt>
<pdfrwt beam="2">  1       -4 0.35479176E+00 0.31983641E+04</pdfrwt>
<totfact> 0.60336416E-03</totfact>
</mgrwt>
</event>
<event>
12    5  0.5246737E-008  0.1289535E+04  0.7818608E-02  0.9037905E-01
          1   -1    0    0  501    0  0.00000000000E+00  0.00000000000E+00  0.58639585628E+03  0.58639585628E+03  0.00000000000E+00 0. -1.
         -2   -1    0    0    0  501 -0.00000000000E+00 -0.00000000000E+00 -0.70894954626E+03  0.70894954626E+03  0.00000000000E+00 0.  1.
        -24    2    1    2    0    0  0.69721151153E+02  0.11807790322E+03  0.26295176056E+03  0.30718927582E+03  0.80113623409E+02 0.  0.
        254    2    1    2    0    0 -0.69721151153E+02 -0.11807790322E+03 -0.38550545054E+03  0.98815612671E+03  0.89946353357E+03 0.  0.
         23    2    4    4    0    0  0.70485887768E+02  0.35276296826E+03 -0.30615155348E+03  0.48184011500E+03  0.95032365977E+02 0.  0.
         23    2    4    4    0    0 -0.14020703892E+03 -0.47084087147E+03 -0.79353897059E+02  0.50631601171E+03  0.93325895224E+02 0.  0.
          3    1    3    3  502    0  0.78815372239E+02  0.10914640235E+03  0.26180393873E+03  0.29439107049E+03  0.00000000000E+00 0. -1.
         -4    1    3    3    0  502 -0.90942210860E+01  0.89315008711E+01  0.11478218251E+01  0.12798205340E+02  0.00000000000E+00 0.  1.
         13    1    5    5    0    0  0.15113031008E+02  0.14524050539E+03 -0.18347537710E+03  0.23449183805E+03  0.00000000000E+00 0.  1.
        -13    1    5    5    0    0  0.55372856759E+02  0.20752246286E+03 -0.12267617638E+03  0.24734827695E+03  0.00000000000E+00 0. -1.
          1    1    6    6  503    0  0.50718992289E+01 -0.77589607512E+02  0.77294399153E+01  0.78138438665E+02  0.00000000000E+00 0. -1.
         -1    1    6    6    0  503 -0.14527893815E+03 -0.39325126396E+03 -0.87083336974E+02  0.42817757304E+03  0.00000000000E+00 0.  1.
<mgrwt>
<rscale>  0 0.12895349E+04</rscale>
<asrwt>0</asrwt>
<pdfrwt beam="1">  1        1 0.90214747E-01 0.12895349E+04</pdfrwt>
<pdfrwt beam="2">  1       -2 0.10906916E+00 0.12895349E+04</pdfrwt>
<totfact> 0.20428009E+01</totfact>
</mgrwt>
</event>
<event>
12    5  0.5246737E-008  0.1580260E+04  0.7818608E-02  0.8832768E-01
          1   -1    0    0  501    0  0.00000000000E+00  0.00000000000E+00  0.19142742385E+04  0.19142742385E+04  0.00000000000E+00 0. -1.
         -2   -1    0    0    0  501 -0.00000000000E+00 -0.00000000000E+00 -0.32613148239E+03  0.32613148239E+03  0.00000000000E+00 0.  1.
        -24    2    1    2    0    0 -0.32105290447E+03 -0.41504663698E+03  0.40086574996E+03  0.66515102612E+03  0.79961614069E+02 0.  0.
        254    2    1    2    0    0  0.32105290447E+03  0.41504663698E+03  0.11872770062E+04  0.15752546948E+04  0.89244718933E+03 0.  0.
         23    2    4    4    0    0  0.39478958757E+03  0.16332280621E+03  0.94037777050E+02  0.44716750761E+03  0.92641885031E+02 0.  0.
         23    2    4    4    0    0 -0.73736683103E+02  0.25172383076E+03  0.10932392291E+04  0.11280871872E+04  0.92772325539E+02 0.  0.
          3    1    3    3  502    0 -0.17487625355E+03 -0.20443443361E+03  0.25242344887E+03  0.36890749415E+03  0.00000000000E+00 0. -1.
         -4    1    3    3    0  502 -0.14617665092E+03 -0.21061220337E+03  0.14844230109E+03  0.29624353197E+03  0.00000000000E+00 0.  1.
         13    1    5    5    0    0  0.43265020816E+02  0.29408782818E+02 -0.16909906585E+02  0.54978936638E+02  0.00000000000E+00 0.  1.
        -13    1    5    5    0    0  0.35152456676E+03  0.13391402340E+03  0.11094768364E+03  0.39218857097E+03  0.00000000000E+00 0. -1.
          3    1    6    6  503    0 -0.88201614380E+02  0.17928543634E+03  0.88057713237E+03  0.90296117221E+03  0.00000000000E+00 0. -1.
         -3    1    6    6    0  503  0.14464931277E+02  0.72438394422E+02  0.21266209675E+03  0.22512601497E+03  0.00000000000E+00 0.  1.
<mgrwt>
<rscale>  0 0.15802596E+04</rscale>
<asrwt>0</asrwt>
<pdfrwt beam="1">  1        1 0.29450372E+00 0.15802596E+04</pdfrwt>
<pdfrwt beam="2">  1       -2 0.50174075E-01 0.15802596E+04</pdfrwt>
<totfact> 0.10804904E+01</totfact>
</mgrwt>
</event>
<event>
12    5  0.5246737E-008  0.3220534E+04  0.7818608E-02  0.8183415E-01
         -2   -1    0    0    0  501 -0.00000000000E+00  0.00000000000E+00  0.19039925917E+04  0.19039925917E+04  0.00000000000E+00 0.  1.
          1   -1    0    0  501    0  0.00000000000E+00 -0.00000000000E+00 -0.13618536841E+04  0.13618536841E+04  0.00000000000E+00 0. -1.
        -24    2    1    2    0    0  0.22900850203E+03 -0.97562575922E+03  0.13601658885E+04  0.16910347724E+04  0.72504076883E+02 0.  0.
        254    2    1    2    0    0 -0.22900850203E+03  0.97562575922E+03 -0.81802698095E+03  0.15748115034E+04  0.89809387790E+03 0.  0.
         23    2    4    4    0    0 -0.42798690290E+03  0.97086010466E+03 -0.83689474348E+03  0.13543162260E+04  0.89652085125E+02 0.  0.
         23    2    4    4    0    0  0.19897840087E+03  0.47656545571E+01  0.18867762525E+02  0.22049527741E+03  0.92989566186E+02 0.  0.
          3    1    3    3  502    0  0.11936463748E+03 -0.51989595087E+03  0.78448348667E+03  0.94865908380E+03  0.00000000000E+00 0. -1.
         -4    1    3    3    0  502  0.10964386454E+03 -0.45572980834E+03  0.57568240187E+03  0.74237568863E+03  0.00000000000E+00 0.  1.
         13    1    5    5    0    0 -0.23275280740E+03  0.42005181888E+03 -0.36515695561E+03  0.60328848997E+03  0.00000000000E+00 0. -1.
        -13    1    5    5    0    0 -0.19523409550E+03  0.55080828578E+03 -0.47173778786E+03  0.75102773599E+03  0.00000000000E+00 0.  1.
          3    1    6    6  503    0 -0.37013286544E+01 -0.14602826920E+02 -0.40686166239E+01  0.15604359297E+02  0.00000000000E+00 0. -1.
         -3    1    6    6    0  503  0.20267972953E+03  0.19368481477E+02  0.22936379149E+02  0.20489091811E+03  0.00000000000E+00 0.  1.
<mgrwt>
<rscale>  0 0.32205337E+04</rscale>
<asrwt>0</asrwt>
<pdfrwt beam="1">  1        1 0.20951595E+00 0.32205337E+04</pdfrwt>
<pdfrwt beam="2">  1       -2 0.29292194E+00 0.32205337E+04</pdfrwt>
<totfact> 0.21048246E-01</totfact>
</mgrwt>
</event>
<event>
12    5  0.5246737E-008  0.2577706E+04  0.7818608E-02  0.8375814E-01
          1   -1    0    0  501    0  0.00000000000E+00  0.00000000000E+00  0.16061820913E+04  0.16061820913E+04  0.00000000000E+00 0. -1.
         -2   -1    0    0    0  501 -0.00000000000E+00 -0.00000000000E+00 -0.10342178726E+04  0.10342178726E+04  0.00000000000E+00 0.  1.
        -24    2    1    2    0    0 -0.88620155254E+03 -0.36080546123E+03 -0.36462138629E+03  0.10270399733E+04  0.79552365542E+02 0.  0.
        254    2    1    2    0    0  0.88620155254E+03  0.36080546123E+03  0.93658560497E+03  0.16133599907E+04  0.90011337699E+03 0.  0.
         23    2    4    4    0    0  0.18650847247E+03  0.13347073487E+03 -0.15669698419E+03  0.29249770717E+03  0.91657604568E+02 0.  0.
         23    2    4    4    0    0  0.69969308007E+03  0.22733472636E+03  0.10932825892E+04  0.13208622835E+04  0.90326452750E+02 0.  0.
          3    1    3    3  502    0 -0.43347883830E+01 -0.78053122772E+01  0.14565963412E+01  0.90462679029E+01  0.00000000000E+00 0. -1.
         -4    1    3    3    0  502 -0.88186676416E+03 -0.35300014895E+03 -0.36607798263E+03  0.10179937054E+04  0.00000000000E+00 0.  1.
         13    1    5    5    0    0  0.16085210244E+03  0.93226754447E+02 -0.80516980268E+02  0.20260209949E+03  0.00000000000E+00 0. -1.
        -13    1    5    5    0    0  0.25656370031E+02  0.40243980422E+02 -0.76180003923E+02  0.89895607685E+02  0.00000000000E+00 0.  1.
          4    1    6    6  503    0  0.49812609114E+03  0.12550488238E+03  0.79964572725E+03  0.95042851772E+03  0.00000000000E+00 0. -1.
         -4    1    6    6    0  503  0.20156698893E+03  0.10182984397E+03  0.29363686191E+03  0.37043376577E+03  0.00000000000E+00 0.  1.
<mgrwt>
<rscale>  0 0.25777061E+04</rscale>
<asrwt>0</asrwt>
<pdfrwt beam="1">  1        1 0.24710494E+00 0.25777061E+04</pdfrwt>
<pdfrwt beam="2">  1       -2 0.15911044E+00 0.25777061E+04</pdfrwt>
<totfact> 0.10953611E+00</totfact>
</mgrwt>
</event>
<event>
12    5  0.5246737E-008  0.1728003E+04  0.7818608E-02  0.8745552E-01
         -2   -1    0    0    0  501 -0.00000000000E+00  0.00000000000E+00  0.53203495723E+03  0.53203495723E+03  0.00000000000E+00 0.  1.
          1   -1    0    0  501    0  0.00000000000E+00 -0.00000000000E+00 -0.14031010556E+04  0.14031010556E+04  0.00000000000E+00 0. -1.
        -24    2    1    2    0    0 -0.15646554719E+03 -0.11540183666E+03 -0.98187915896E+03  0.10043018864E+04  0.82076457531E+02 0.  0.
        254    2    1    2    0    0  0.15646554719E+03  0.11540183666E+03  0.11081306061E+03  0.93083412640E+03  0.90353394242E+03 0.  0.
         23    2    4    4    0    0 -0.10544652572E+03  0.43404659834E+03  0.20309483907E+03  0.49877805024E+03  0.89535526078E+02 0.  0.
         23    2    4    4    0    0  0.26191207291E+03 -0.31864476168E+03 -0.92281778462E+02  0.43205607616E+03  0.89577386818E+02 0.  0.
          3    1    3    3  502    0 -0.47592835942E+02 -0.22301450190E+02 -0.46427160943E+03  0.46723715609E+03  0.00000000000E+00 0. -1.
         -4    1    3    3    0  502 -0.10887271125E+03 -0.93100386470E+02 -0.51760754953E+03  0.53706473031E+03  0.00000000000E+00 0.  1.
         13    1    5    5    0    0 -0.88831471240E+02  0.33081776826E+03  0.19440837397E+03  0.39386043460E+03  0.00000000000E+00 0. -1.
        -13    1    5    5    0    0 -0.16615054485E+02  0.10322883008E+03  0.86864651031E+01  0.10491761564E+03  0.00000000000E+00 0.  1.
          4    1    6    6  503    0  0.18533324377E+02 -0.39065129200E+01 -0.20249415675E+02  0.27726950622E+02  0.00000000000E+00 0. -1.
         -4    1    6    6    0  503  0.24337874853E+03 -0.31473824876E+03 -0.72032362787E+02  0.40432912554E+03  0.00000000000E+00 0.  1.
<mgrwt>
<rscale>  0 0.17280033E+04</rscale>
<asrwt>0</asrwt>
<pdfrwt beam="1">  1        1 0.21586169E+00 0.17280033E+04</pdfrwt>
<pdfrwt beam="2">  1       -2 0.81851534E-01 0.17280033E+04</pdfrwt>
<totfact> 0.83591631E+00</totfact>
</mgrwt>
</event>
<event>
12    5  0.5246737E-008  0.1687777E+04  0.7818608E-02  0.8768366E-01
          1   -1    0    0  501    0  0.00000000000E+00  0.00000000000E+00  0.12662225449E+04  0.12662225449E+04  0.00000000000E+00 0. -1.
         -2   -1    0    0    0  501 -0.00000000000E+00 -0.00000000000E+00 -0.56241909178E+03  0.56241909178E+03  0.00000000000E+00 0.  1.
        -24    2    1    2    0    0  0.30326328998E+03  0.51956498386E+03  0.21240004411E+03  0.64285679427E+03  0.78960013277E+02 0.  0.
        254    2    1    2    0    0 -0.30326328998E+03 -0.51956498386E+03  0.49140340903E+03  0.11857848424E+04  0.89593079344E+03 0.  0.
         23    2    4    4    0    0  0.51586449532E+02 -0.23215081045E+03 -0.21875369503E+03  0.33574572555E+03  0.91196779377E+02 0.  0.
         23    2    4    4    0    0 -0.35484973951E+03 -0.28741417341E+03  0.71015710406E+03  0.85003911689E+03  0.98580642516E+02 0.  0.
          1    1    3    3  502    0  0.78484839133E+02  0.10439837893E+03  0.77410242002E+02  0.15182633850E+03  0.00000000000E+00 0. -1.
         -2    1    3    3    0  502  0.22477845085E+03  0.41516660493E+03  0.13498980211E+03  0.49103045577E+03  0.00000000000E+00 0.  1.
         13    1    5    5    0    0 -0.13365267262E+02 -0.14688670167E+03 -0.12881472412E+03  0.19582534730E+03  0.00000000000E+00 0.  1.
        -13    1    5    5    0    0  0.64951716794E+02 -0.85264108778E+02 -0.89938970909E+02  0.13992037825E+03  0.00000000000E+00 0. -1.
          3    1    6    6  503    0 -0.39078313332E+02 -0.25369630348E+02  0.14017722723E+03  0.14771725610E+03  0.00000000000E+00 0. -1.
         -3    1    6    6    0  503 -0.31577142618E+03 -0.26204454306E+03  0.56997987683E+03  0.70232186078E+03  0.00000000000E+00 0.  1.
<mgrwt>
<rscale>  0 0.16877769E+04</rscale>
<asrwt>0</asrwt>
<pdfrwt beam="1">  1        1 0.19480347E+00 0.16877769E+04</pdfrwt>
<pdfrwt beam="2">  1       -2 0.86526015E-01 0.16877769E+04</pdfrwt>
<totfact> 0.92472296E+00</totfact>
</mgrwt>
</event>
<event>
12    5  0.5246737E-008  0.1868669E+04  0.7818608E-02  0.8670611E-01
         -2   -1    0    0    0  501 -0.00000000000E+00  0.00000000000E+00  0.25299331507E+03  0.25299331507E+03  0.00000000000E+00 0.  1.
          1   -1    0    0  501    0  0.00000000000E+00 -0.00000000000E+00 -0.34506069572E+04  0.34506069572E+04  0.00000000000E+00 0. -1.
        -24    2    1    2    0    0  0.29852630994E+03  0.48419157418E+03 -0.21814012969E+04  0.22560738355E+04  0.88306822594E+02 0.  0.
        254    2    1    2    0    0 -0.29852630994E+03 -0.48419157418E+03 -0.10162123452E+04  0.14475264368E+04  0.85970100401E+03 0.  0.
         23    2    4    4    0    0 -0.41619421379E+03 -0.14743875821E+03 -0.97861844316E+03  0.10773549093E+04  0.89686856648E+02 0.  0.
         23    2    4    4    0    0  0.11766790385E+03 -0.33675281598E+03 -0.37593902074E+02  0.37017152748E+03  0.91462908414E+02 0.  0.
          3    1    3    3  502    0  0.13812125861E+03  0.22741302907E+03 -0.84944553818E+03  0.89014150010E+03  0.00000000000E+00 0. -1.
         -4    1    3    3    0  502  0.16040505133E+03  0.25677854511E+03 -0.13319557587E+04  0.13659323354E+04  0.00000000000E+00 0.  1.
         13    1    5    5    0    0 -0.10474544634E+02 -0.21323041873E+02 -0.32882727351E+02  0.40566759274E+02  0.00000000000E+00 0.  1.
        -13    1    5    5    0    0 -0.40571966916E+03 -0.12611571633E+03 -0.94573571581E+03  0.10367881500E+04  0.00000000000E+00 0. -1.
          2    1    6    6  503    0  0.96079603307E+01 -0.55709614082E+02 -0.39670868649E+02  0.69062665907E+02  0.00000000000E+00 0.  1.
         -2    1    6    6    0  503  0.10805994352E+03 -0.28104320189E+03  0.20769665745E+01  0.30110886157E+03  0.00000000000E+00 0. -1.
<mgrwt>
<rscale>  0 0.18686685E+04</rscale>
<asrwt>0</asrwt>
<pdfrwt beam="1">  1        1 0.53086255E+00 0.18686685E+04</pdfrwt>
<pdfrwt beam="2">  1       -2 0.38922053E-01 0.18686685E+04</pdfrwt>
<totfact> 0.14124153E+00</totfact>
</mgrwt>
</event>
<event>
12    5  0.5246737E-008  0.2274543E+04  0.7818608E-02  0.8488026E-01
         -2   -1    0    0    0  501 -0.00000000000E+00  0.00000000000E+00  0.80079851012E+03  0.80079851012E+03  0.00000000000E+00 0.  1.
          1   -1    0    0  501    0  0.00000000000E+00 -0.00000000000E+00 -0.16151215309E+04  0.16151215309E+04  0.00000000000E+00 0. -1.
        -24    2    1    2    0    0  0.12068019162E+03 -0.51051356281E+03 -0.11941232188E+04  0.13066947823E+04  0.79581315953E+02 0.  0.
        254    2    1    2    0    0 -0.12068019162E+03  0.51051356281E+03  0.37980019800E+03  0.11092252588E+04  0.90052466811E+03 0.  0.
         23    2    4    4    0    0  0.34065114692E+03  0.19030943729E+03  0.36163927536E+03  0.53981524804E+03  0.91414718273E+02 0.  0.
         23    2    4    4    0    0 -0.46133133854E+03  0.32020412552E+03  0.18160922639E+02  0.56941001074E+03  0.92415665892E+02 0.  0.
          1    1    3    3  502    0  0.10921043543E+03 -0.50692653109E+03 -0.11658074516E+04  0.12759343405E+04  0.00000000000E+00 0. -1.
         -2    1    3    3    0  502  0.11469756189E+02 -0.35870317220E+01 -0.28315767199E+02  0.30760441734E+02  0.00000000000E+00 0.  1.
         13    1    5    5    0    0  0.66180039148E+02  0.51789363105E+02  0.13032944248E+03  0.15507320622E+03  0.00000000000E+00 0. -1.
        -13    1    5    5    0    0  0.27447110778E+03  0.13852007418E+03  0.23130983288E+03  0.38474204182E+03  0.00000000000E+00 0.  1.
          2    1    6    6  503    0 -0.14121532455E+02  0.19310712795E+02 -0.16851498222E+02  0.29262506726E+02  0.00000000000E+00 0. -1.
         -2    1    6    6    0  503 -0.44720980609E+03  0.30089341273E+03  0.35012420862E+02  0.54014750402E+03  0.00000000000E+00 0.  1.
<mgrwt>
<rscale>  0 0.22745434E+04</rscale>
<asrwt>0</asrwt>
<pdfrwt beam="1">  1        1 0.24848023E+00 0.22745434E+04</pdfrwt>
<pdfrwt beam="2">  1       -2 0.12319977E+00 0.22745434E+04</pdfrwt>
<totfact> 0.21550363E+00</totfact>
</mgrwt>
</event>
<event>
12    5  0.5246737E-008  0.1110036E+04  0.7818608E-02  0.9195465E-01
          1   -1    0    0  501    0  0.00000000000E+00  0.00000000000E+00  0.14099213408E+04  0.14099213408E+04  0.00000000000E+00 0. -1.
         -2   -1    0    0    0  501 -0.00000000000E+00 -0.00000000000E+00 -0.21848392454E+03  0.21848392454E+03  0.00000000000E+00 0.  1.
        -24    2    1    2    0    0  0.16291603453E+02  0.81776518606E+02  0.42152226483E+03  0.43691964106E+03  0.79151359164E+02 0.  0.
        254    2    1    2    0    0 -0.16291603453E+02 -0.81776518606E+02  0.76991515147E+03  0.11914856243E+04  0.90549204146E+03 0.  0.
         23    2    4    4    0    0 -0.40857320004E+03 -0.32711498251E+02  0.14157405909E+03  0.44319653651E+03  0.91530617065E+02 0.  0.
         23    2    4    4    0    0  0.39228159659E+03 -0.49065020355E+02  0.62834109238E+03  0.74828908780E+03  0.93977674472E+02 0.  0.
          1    1    3    3  502    0  0.38595144585E+02  0.52395148411E+02  0.15874280729E+03  0.17156373635E+03  0.00000000000E+00 0. -1.
         -2    1    3    3    0  502 -0.22303541131E+02  0.29381370195E+02  0.26277945754E+03  0.26535590472E+03  0.00000000000E+00 0.  1.
         13    1    5    5    0    0 -0.15075880643E+03  0.84484436576E+01  0.11294351156E+02  0.15141715981E+03  0.00000000000E+00 0. -1.
        -13    1    5    5    0    0 -0.25781439361E+03 -0.41159941909E+02  0.13027970793E+03  0.29177937671E+03  0.00000000000E+00 0.  1.
          3    1    6    6  503    0  0.53603670736E+01 -0.11386750246E+01  0.53050622707E+02  0.53332904343E+02  0.00000000000E+00 0.  1.
         -3    1    6    6    0  503  0.38692122952E+03 -0.47926345330E+02  0.57529046968E+03  0.69495618346E+03  0.00000000000E+00 0. -1.
<mgrwt>
<rscale>  0 0.11100363E+04</rscale>
<asrwt>0</asrwt>
<pdfrwt beam="1">  1        1 0.21691097E+00 0.11100363E+04</pdfrwt>
<pdfrwt beam="2">  1       -2 0.33612912E-01 0.11100363E+04</pdfrwt>
<totfact> 0.54650457E+01</totfact>
</mgrwt>
</event>
<event>
12    5  0.5246737E-008  0.1623725E+04  0.7818608E-02  0.8806104E-01
         -2   -1    0    0    0  501 -0.00000000000E+00  0.00000000000E+00  0.11527673464E+04  0.11527673464E+04  0.00000000000E+00 0.  1.
          1   -1    0    0  501    0  0.00000000000E+00 -0.00000000000E+00 -0.57177266130E+03  0.57177266130E+03  0.00000000000E+00 0. -1.
        -24    2    1    2    0    0 -0.50248217651E+03 -0.95880051653E+02 -0.68699425242E+02  0.52236090982E+03  0.80374044694E+02 0.  0.
        254    2    1    2    0    0  0.50248217651E+03  0.95880051653E+02  0.64969411036E+03  0.12021790979E+04  0.87261149681E+03 0.  0.
         23    2    4    4    0    0 -0.90141914800E+01  0.36785092370E+03  0.43649557011E+03  0.57825259492E+03  0.91935428902E+02 0.  0.
         23    2    4    4    0    0  0.51149636799E+03 -0.27197087205E+03  0.21319854025E+03  0.62392650297E+03  0.90741246604E+02 0.  0.
          1    1    3    3  502    0 -0.42723060206E+03 -0.76534826910E+02 -0.28721899276E+02  0.43498105081E+03  0.00000000000E+00 0. -1.
         -2    1    3    3    0  502 -0.75251574456E+02 -0.19345224743E+02 -0.39977525966E+02  0.87379859011E+02  0.00000000000E+00 0.  1.
         13    1    5    5    0    0 -0.33069500238E+01  0.16982808212E+03  0.27235648932E+03  0.32098375453E+03  0.00000000000E+00 0.  1.
        -13    1    5    5    0    0 -0.57072414562E+01  0.19802284159E+03  0.16413908079E+03  0.25726884039E+03  0.00000000000E+00 0. -1.
          1    1    6    6  503    0  0.43649160099E+03 -0.25095813851E+03  0.21123732986E+03  0.54600926233E+03  0.00000000000E+00 0. -1.
         -1    1    6    6    0  503  0.75004766997E+02 -0.21012733537E+02  0.19612103874E+01  0.77917240641E+02  0.00000000000E+00 0.  1.
<mgrwt>
<rscale>  0 0.16237252E+04</rscale>
<asrwt>0</asrwt>
<pdfrwt beam="1">  1        1 0.87965025E-01 0.16237252E+04</pdfrwt>
<pdfrwt beam="2">  1       -2 0.17734882E+00 0.16237252E+04</pdfrwt>
<totfact> 0.58142620E+00</totfact>
</mgrwt>
</event>
<event>
12    5  0.5246737E-008  0.1311204E+04  0.7818608E-02  0.9020727E-01
          1   -1    0    0  501    0  0.00000000000E+00  0.00000000000E+00  0.12254846215E+04  0.12254846215E+04  0.00000000000E+00 0. -1.
         -2   -1    0    0    0  501 -0.00000000000E+00 -0.00000000000E+00 -0.35072962744E+03  0.35072962744E+03  0.00000000000E+00 0.  1.
        -24    2    1    2    0    0  0.22497976695E+03 -0.18267765462E+03  0.32802589973E+02  0.30322404174E+03  0.82956546123E+02 0.  0.
        254    2    1    2    0    0 -0.22497976695E+03  0.18267765462E+03  0.84195240412E+03  0.12729902072E+04  0.90974347807E+03 0.  0.
         23    2    4    4    0    0 -0.19938370475E+03  0.43333891536E+03  0.87720864182E+03  0.10026525296E+04  0.90997893528E+02 0.  0.
         23    2    4    4    0    0 -0.25596062197E+02 -0.25066126074E+03 -0.35256237698E+02  0.27033767760E+03  0.91396015202E+02 0.  0.
          3    1    3    3  502    0  0.16105047178E+03 -0.10793843974E+03  0.56727623108E+02  0.20200491197E+03  0.00000000000E+00 0. -1.
         -4    1    3    3    0  502  0.63929295168E+02 -0.74739214875E+02 -0.23925033135E+02  0.10121912977E+03  0.00000000000E+00 0.  1.
         13    1    5    5    0    0 -0.42396982362E+00  0.61478049314E+01  0.52008467252E+02  0.52372281999E+02  0.00000000000E+00 0. -1.
        -13    1    5    5    0    0 -0.19895973493E+03  0.42719111043E+03  0.82520017457E+03  0.95028024764E+03  0.00000000000E+00 0.  1.
          2    1    6    6  503    0 -0.53482276041E+02 -0.21070338293E+03 -0.41184163624E+02  0.22125190341E+03  0.00000000000E+00 0.  1.
         -2    1    6    6    0  503  0.27886213844E+02 -0.39957877815E+02  0.59279259262E+01  0.49085774191E+02  0.00000000000E+00 0. -1.
<mgrwt>
<rscale>  0 0.13112037E+04</rscale>
<asrwt>0</asrwt>
<pdfrwt beam="1">  1        1 0.18853609E+00 0.13112037E+04</pdfrwt>
<pdfrwt beam="2">  1       -2 0.53958405E-01 0.13112037E+04</pdfrwt>
<totfact> 0.28514169E+01</totfact>
</mgrwt>
</event>
<event>
12    5  0.5246737E-008  0.1792743E+04  0.7818608E-02  0.8710168E-01
          1   -1    0    0  501    0  0.00000000000E+00  0.00000000000E+00  0.24675757448E+04  0.24675757448E+04  0.00000000000E+00 0. -1.
         -2   -1    0    0    0  501 -0.00000000000E+00 -0.00000000000E+00 -0.32561585426E+03  0.32561585426E+03  0.00000000000E+00 0.  1.
        -24    2    1    2    0    0 -0.38142813219E+03  0.40690266042E+03  0.23910315988E+03  0.61190021585E+03  0.78704243965E+02 0.  0.
        254    2    1    2    0    0  0.38142813219E+03 -0.40690266042E+03  0.19028567306E+04  0.21812913832E+04  0.90890657712E+03 0.  0.
         23    2    4    4    0    0  0.58947666145E+03  0.11313638582E+01  0.98181632093E+03  0.11487990500E+04  0.91060171962E+02 0.  0.
         23    2    4    4    0    0 -0.20804852926E+03 -0.40803402427E+03  0.92104040969E+03  0.10324923331E+04  0.89157311601E+02 0.  0.
          3    1    3    3  502    0 -0.20315887694E+03  0.22126426989E+03  0.17108453518E+03  0.34568963621E+03  0.00000000000E+00 0. -1.
         -4    1    3    3    0  502 -0.17826925525E+03  0.18563839053E+03  0.68018624694E+02  0.26621057964E+03  0.00000000000E+00 0.  1.
         13    1    5    5    0    0  0.14854202553E+03 -0.20901372906E+02  0.18839649402E+03  0.24082117784E+03  0.00000000000E+00 0.  1.
        -13    1    5    5    0    0  0.44093463593E+03  0.22032736764E+02  0.79341982691E+03  0.90797787219E+03  0.00000000000E+00 0. -1.
          4    1    6    6  503    0 -0.15423330753E+03 -0.21469578471E+03  0.48123109705E+03  0.54905879639E+03  0.00000000000E+00 0.  1.
         -4    1    6    6    0  503 -0.53815221731E+02 -0.19333823957E+03  0.43980931264E+03  0.48343353675E+03  0.00000000000E+00 0. -1.
<mgrwt>
<rscale>  0 0.17927429E+04</rscale>
<asrwt>0</asrwt>
<pdfrwt beam="1">  1        1 0.37962702E+00 0.17927429E+04</pdfrwt>
<pdfrwt beam="2">  1       -2 0.50094749E-01 0.17927429E+04</pdfrwt>
<totfact> 0.44644946E+00</totfact>
</mgrwt>
</event>
<event>
12    5  0.5246737E-008  0.1422199E+04  0.7818608E-02  0.8937905E-01
          1   -1    0    0  501    0  0.00000000000E+00  0.00000000000E+00  0.31740071666E+03  0.31740071666E+03  0.00000000000E+00 0. -1.
         -2   -1    0    0    0  501 -0.00000000000E+00 -0.00000000000E+00 -0.15931360942E+04  0.15931360942E+04  0.00000000000E+00 0.  1.
        -24    2    1    2    0    0 -0.50666211158E+02 -0.13734674564E+03  0.15142975668E+03  0.22568198797E+03  0.81056739346E+02 0.  0.
        254    2    1    2    0    0  0.50666211158E+02  0.13734674564E+03 -0.14271651342E+04  0.16848548229E+04  0.88346152176E+03 0.  0.
         23    2    4    4    0    0 -0.28431777482E+03 -0.91687743979E+02 -0.11342294901E+04  0.11766785319E+04  0.94088211926E+02 0.  0.
         23    2    4    4    0    0  0.33498398597E+03  0.22903448962E+03 -0.29293564409E+03  0.50817629103E+03  0.88095305721E+02 0.  0.
          1    1    3    3  502    0 -0.34669243170E+02 -0.40579335319E+02  0.10364499440E+03  0.11658011726E+03  0.00000000000E+00 0. -1.
         -2    1    3    3    0  502 -0.15996967988E+02 -0.96767410317E+02  0.47784762281E+02  0.10910187070E+03  0.00000000000E+00 0.  1.
         13    1    5    5    0    0 -0.22219077807E+03 -0.10704521431E+03 -0.95623802803E+03  0.98753156203E+03  0.00000000000E+00 0. -1.
        -13    1    5    5    0    0 -0.62126996742E+02  0.15357470327E+02 -0.17799146212E+03  0.18914696986E+03  0.00000000000E+00 0.  1.
          4    1    6    6  503    0  0.30553411864E+03  0.17345226473E+03 -0.26070640086E+03  0.43749812941E+03  0.00000000000E+00 0. -1.
         -4    1    6    6    0  503  0.29449867334E+02  0.55582224890E+02 -0.32229243232E+02  0.70678161613E+02  0.00000000000E+00 0.  1.
<mgrwt>
<rscale>  0 0.14221991E+04</rscale>
<asrwt>0</asrwt>
<pdfrwt beam="1">  1        1 0.48830879E-01 0.14221991E+04</pdfrwt>
<pdfrwt beam="2">  1       -2 0.24509786E+00 0.14221991E+04</pdfrwt>
<totfact> 0.47725150E+00</totfact>
</mgrwt>
</event>
<event>
12    5  0.5246737E-008  0.2227602E+04  0.7818608E-02  0.8507026E-01
         -2   -1    0    0    0  501 -0.00000000000E+00  0.00000000000E+00  0.10277029006E+04  0.10277029006E+04  0.00000000000E+00 0.  1.
          1   -1    0    0  501    0  0.00000000000E+00 -0.00000000000E+00 -0.12071125409E+04  0.12071125409E+04  0.00000000000E+00 0. -1.
        -24    2    1    2    0    0  0.15684546941E+02  0.86256343891E+02  0.85383716761E+03  0.86215922432E+03  0.81206264623E+02 0.  0.
        254    2    1    2    0    0 -0.15684546941E+02 -0.86256343891E+02 -0.10332468079E+04  0.13726562171E+04  0.89938866040E+03 0.  0.
         23    2    4    4    0    0  0.14945138564E+03 -0.41198700892E+03 -0.27377554347E+03  0.52509145337E+03  0.93268290464E+02 0.  0.
         23    2    4    4    0    0 -0.16513593258E+03  0.32573066503E+03 -0.75947126444E+03  0.84756476376E+03  0.90548798290E+02 0.  0.
          1    1    3    3  502    0 -0.18819495111E+02  0.52573534060E+02  0.23910755270E+03  0.24554138477E+03  0.00000000000E+00 0. -1.
         -2    1    3    3    0  502  0.34504042052E+02  0.33682809830E+02  0.61472961491E+03  0.61661783954E+03  0.00000000000E+00 0.  1.
         13    1    5    5    0    0  0.15303574087E+03 -0.31420422323E+03 -0.22604847624E+03  0.41622367243E+03  0.00000000000E+00 0.  1.
        -13    1    5    5    0    0 -0.35843552309E+01 -0.97782785689E+02 -0.47727067235E+02  0.10886778094E+03  0.00000000000E+00 0. -1.
          1    1    6    6  503    0 -0.59163013915E+02  0.14805672983E+03 -0.42911694209E+03  0.45777986790E+03  0.00000000000E+00 0. -1.
         -1    1    6    6    0  503 -0.10597291867E+03  0.17767393520E+03 -0.33035432235E+03  0.38978489586E+03  0.00000000000E+00 0.  1.
<mgrwt>
<rscale>  0 0.22276024E+04</rscale>
<asrwt>0</asrwt>
<pdfrwt beam="1">  1        1 0.18570962E+00 0.22276024E+04</pdfrwt>
<pdfrwt beam="2">  1       -2 0.15810814E+00 0.22276024E+04</pdfrwt>
<totfact> 0.21919969E+00</totfact>
</mgrwt>
</event>
<event>
12    5  0.5246737E-008  0.1723390E+04  0.7818608E-02  0.8748136E-01
          3   -1    0    0  501    0  0.00000000000E+00  0.00000000000E+00  0.39817896131E+03  0.39817896131E+03  0.00000000000E+00 0. -1.
         -4   -1    0    0    0  501 -0.00000000000E+00 -0.00000000000E+00 -0.18647846026E+04  0.18647846026E+04  0.00000000000E+00 0.  1.
        -24    2    1    2    0    0 -0.32308916872E+03  0.51311127327E+03 -0.58678697460E+03  0.84751475927E+03  0.79325430471E+02 0.  0.
        254    2    1    2    0    0  0.32308916872E+03 -0.51311127327E+03 -0.87981866672E+03  0.14154488047E+04  0.92830202122E+03 0.  0.
         23    2    4    4    0    0 -0.28155181238E+03 -0.16084595818E+03 -0.52996142488E+03  0.62789191849E+03  0.90809163294E+02 0.  0.
         23    2    4    4    0    0  0.60464098110E+03 -0.35226531509E+03 -0.34985724185E+03  0.78755688617E+03  0.90355913150E+02 0.  0.
          3    1    3    3  502    0 -0.18952764508E+03  0.25901112495E+03 -0.35484418346E+03  0.47845782012E+03  0.00000000000E+00 0. -1.
         -4    1    3    3    0  502 -0.13356152364E+03  0.25410014833E+03 -0.23194279114E+03  0.36905693916E+03  0.00000000000E+00 0.  1.
         13    1    5    5    0    0 -0.48994018022E+02 -0.73390626084E+02 -0.13505134180E+03  0.16132409219E+03  0.00000000000E+00 0.  1.
        -13    1    5    5    0    0 -0.23255779435E+03 -0.87455332097E+02 -0.39491008308E+03  0.46656782631E+03  0.00000000000E+00 0. -1.
          4    1    6    6  503    0  0.68526890811E+02 -0.73714520736E+02 -0.63164235069E+02  0.11882544308E+03  0.00000000000E+00 0.  1.
         -4    1    6    6    0  503  0.53611409029E+03 -0.27855079436E+03 -0.28669300678E+03  0.66873144309E+03  0.00000000000E+00 0. -1.
<mgrwt>
<rscale>  0 0.17233897E+04</rscale>
<asrwt>0</asrwt>
<pdfrwt beam="1">  1        3 0.61258302E-01 0.17233897E+04</pdfrwt>
<pdfrwt beam="2">  1       -4 0.28688994E+00 0.17233897E+04</pdfrwt>
<totfact> 0.21088732E-01</totfact>
</mgrwt>
</event>
<event>
12    5  0.5246737E-008  0.2106665E+04  0.7818608E-02  0.8558313E-01
         -2   -1    0    0    0  501 -0.00000000000E+00  0.00000000000E+00  0.11882186616E+04  0.11882186616E+04  0.00000000000E+00 0.  1.
          1   -1    0    0  501    0  0.00000000000E+00 -0.00000000000E+00 -0.93375837086E+03  0.93375837086E+03  0.00000000000E+00 0. -1.
        -24    2    1    2    0    0  0.74914855398E+03 -0.39372434981E+02  0.55303990634E+03  0.93543701442E+03  0.80096974916E+02 0.  0.
        254    2    1    2    0    0 -0.74914855398E+03  0.39372434981E+02 -0.29857961558E+03  0.11865400181E+04  0.86945596958E+03 0.  0.
         23    2    4    4    0    0 -0.18731882165E+03 -0.33316360155E+03  0.90178573498E+02  0.40297291040E+03  0.90380667483E+02 0.  0.
         23    2    4    4    0    0 -0.56182973233E+03  0.37253603654E+03 -0.38875818908E+03  0.78356710765E+03  0.91699160129E+02 0.  0.
          1    1    3    3  502    0  0.61762938337E+03 -0.11573717811E+02  0.42520574572E+03  0.74993328526E+03  0.00000000000E+00 0. -1.
         -2    1    3    3    0  502  0.13151917060E+03 -0.27798717169E+02  0.12783416061E+03  0.18550372916E+03  0.00000000000E+00 0.  1.
         13    1    5    5    0    0 -0.87821439092E+02 -0.19448771006E+03  0.91759396668E+02  0.23228831526E+03  0.00000000000E+00 0.  1.
        -13    1    5    5    0    0 -0.99497382556E+02 -0.13867589150E+03 -0.15808231692E+01  0.17068459514E+03  0.00000000000E+00 0. -1.
          3    1    6    6  503    0 -0.21822553386E+02  0.38679990660E+02 -0.15179639457E+02  0.46933857372E+02  0.00000000000E+00 0. -1.
         -3    1    6    6    0  503 -0.54000717894E+03  0.33385604588E+03 -0.37357854962E+03  0.73663325028E+03  0.00000000000E+00 0.  1.
<mgrwt>
<rscale>  0 0.21066648E+04</rscale>
<asrwt>0</asrwt>
<pdfrwt beam="1">  1        1 0.14365513E+00 0.21066648E+04</pdfrwt>
<pdfrwt beam="2">  1       -2 0.18280287E+00 0.21066648E+04</pdfrwt>
<totfact> 0.23863548E+00</totfact>
</mgrwt>
</event>
<event>
12    5  0.5246737E-008  0.2370690E+04  0.7818608E-02  0.8450559E-01
         -2   -1    0    0    0  501 -0.00000000000E+00  0.00000000000E+00  0.13319057977E+04  0.13319057977E+04  0.00000000000E+00 0.  1.
          1   -1    0    0  501    0  0.00000000000E+00 -0.00000000000E+00 -0.10549119362E+04  0.10549119362E+04  0.00000000000E+00 0. -1.
        -24    2    1    2    0    0  0.89323283967E+03 -0.45936362570E+03  0.54237865805E+01  0.10076581447E+04  0.80409406102E+02 0.  0.
        254    2    1    2    0    0 -0.89323283967E+03  0.45936362570E+03  0.27157007492E+03  0.13791595893E+04  0.90523533998E+03 0.  0.
         23    2    4    4    0    0 -0.33095750176E+03  0.18738609699E+03  0.56160647608E+03  0.68450864929E+03  0.92216265742E+02 0.  0.
         23    2    4    4    0    0 -0.56227533791E+03  0.27197752871E+03 -0.29003640116E+03  0.69465094003E+03  0.91068560654E+02 0.  0.
          3    1    3    3  502    0  0.75059314543E+03 -0.39117501102E+03 -0.24441019087E+02  0.84676166814E+03  0.00000000000E+00 0. -1.
         -4    1    3    3    0  502  0.14263969424E+03 -0.68188614675E+02  0.29864805668E+02  0.16089647654E+03  0.00000000000E+00 0.  1.
         13    1    5    5    0    0 -0.21156101644E+03  0.69278108376E+02  0.29849205045E+03  0.37236410160E+03  0.00000000000E+00 0.  1.
        -13    1    5    5    0    0 -0.11939648531E+03  0.11810798861E+03  0.26311442563E+03  0.31214454769E+03  0.00000000000E+00 0. -1.
          4    1    6    6  503    0 -0.10906774212E+03  0.15922178838E+02 -0.40952069595E+02  0.11758554399E+03  0.00000000000E+00 0. -1.
         -4    1    6    6    0  503 -0.45320759579E+03  0.25605534987E+03 -0.24908433156E+03  0.57706539604E+03  0.00000000000E+00 0.  1.
<mgrwt>
<rscale>  0 0.23706905E+04</rscale>
<asrwt>0</asrwt>
<pdfrwt beam="1">  1        1 0.16229414E+00 0.23706905E+04</pdfrwt>
<pdfrwt beam="2">  1       -2 0.20490859E+00 0.23706905E+04</pdfrwt>
<totfact> 0.13352231E+00</totfact>
</mgrwt>
</event>
<event>
12    5  0.5246737E-008  0.2281741E+04  0.7818608E-02  0.8485155E-01
         -2   -1    0    0    0  501 -0.00000000000E+00  0.00000000000E+00  0.61655886880E+03  0.61655886880E+03  0.00000000000E+00 0.  1.
          1   -1    0    0  501    0  0.00000000000E+00 -0.00000000000E+00 -0.21110484388E+04  0.21110484388E+04  0.00000000000E+00 0. -1.
        -24    2    1    2    0    0  0.48384467162E+03  0.14609867358E+03  0.34503735296E+03  0.61683944516E+03  0.77392748368E+02 0.  0.
        254    2    1    2    0    0 -0.48384467162E+03 -0.14609867358E+03 -0.18395269230E+04  0.21107678624E+04  0.90334444159E+03 0.  0.
         23    2    4    4    0    0 -0.50076482077E+03 -0.17416369552E+03 -0.40588430847E+03  0.67382463031E+03  0.90549224142E+02 0.  0.
         23    2    4    4    0    0  0.16920149151E+02  0.28065021937E+02 -0.14336426145E+04  0.14369432321E+04  0.91655711142E+02 0.  0.
          1    1    3    3  502    0  0.56147179319E+02  0.26918916634E+02  0.73774045690E+02  0.96538819320E+02  0.00000000000E+00 0. -1.
         -2    1    3    3    0  502  0.42769749230E+03  0.11917975695E+03  0.27126330727E+03  0.52030062584E+03  0.00000000000E+00 0.  1.
         13    1    5    5    0    0 -0.12178408681E+03 -0.24995423780E+02 -0.14101027742E+03  0.18798945010E+03  0.00000000000E+00 0. -1.
        -13    1    5    5    0    0 -0.37898073396E+03 -0.14916827174E+03 -0.26487403105E+03  0.48583518021E+03  0.00000000000E+00 0.  1.
          3    1    6    6  503    0  0.17736525673E+02 -0.21488190743E+02 -0.10142293108E+04  0.10146119561E+04  0.00000000000E+00 0.  1.
         -3    1    6    6    0  503 -0.81637652141E+00  0.49553212680E+02 -0.41941330373E+03  0.42233127602E+03  0.00000000000E+00 0. -1.
<mgrwt>
<rscale>  0 0.22817411E+04</rscale>
<asrwt>0</asrwt>
<pdfrwt beam="1">  1        1 0.32477668E+00 0.22817411E+04</pdfrwt>
<pdfrwt beam="2">  1       -2 0.94855211E-01 0.22817411E+04</pdfrwt>
<totfact> 0.18633197E+00</totfact>
</mgrwt>
</event>
<event>
12    5  0.5246737E-008  0.3346597E+04  0.7818608E-02  0.8151139E-01
         -2   -1    0    0    0  501 -0.00000000000E+00  0.00000000000E+00  0.12623860702E+04  0.12623860702E+04  0.00000000000E+00 0.  1.
          1   -1    0    0  501    0  0.00000000000E+00 -0.00000000000E+00 -0.22179642543E+04  0.22179642543E+04  0.00000000000E+00 0. -1.
        -24    2    1    2    0    0 -0.40139625659E+03  0.52478772239E+03 -0.19056345675E+04  0.20184853333E+04  0.79491053664E+02 0.  0.
        254    2    1    2    0    0  0.40139625659E+03 -0.52478772239E+03  0.95005638338E+03  0.14618649911E+04  0.89326424550E+03 0.  0.
         23    2    4    4    0    0  0.58500116163E+03 -0.62604405380E+03  0.84907527142E+03  0.12099320266E+04  0.94070059584E+02 0.  0.
         23    2    4    4    0    0 -0.18360490504E+03  0.10125633141E+03  0.10098111196E+03  0.25193296450E+03  0.96485376209E+02 0.  0.
          1    1    3    3  502    0 -0.26818466625E+03  0.31242122767E+03 -0.12757509160E+04  0.13405485588E+04  0.00000000000E+00 0. -1.
         -2    1    3    3    0  502 -0.13321159034E+03  0.21236649473E+03 -0.62988365148E+03  0.67793677455E+03  0.00000000000E+00 0.  1.
         13    1    5    5    0    0  0.50704686228E+03 -0.55476201227E+03  0.78302359405E+03  0.10853494182E+04  0.00000000000E+00 0. -1.
        -13    1    5    5    0    0  0.77954299349E+02 -0.71282041535E+02  0.66051677366E+02  0.12458260840E+03  0.00000000000E+00 0.  1.
          2    1    6    6  503    0 -0.11948314714E+03  0.70970015131E+02  0.11410594425E+03  0.17981415965E+03  0.00000000000E+00 0. -1.
         -2    1    6    6    0  503 -0.64121757899E+02  0.30286316278E+02 -0.13124832287E+02  0.72118804846E+02  0.00000000000E+00 0.  1.
<mgrwt>
<rscale>  0 0.33465966E+04</rscale>
<asrwt>0</asrwt>
<pdfrwt beam="1">  1        1 0.34122527E+00 0.33465966E+04</pdfrwt>
<pdfrwt beam="2">  1       -2 0.19421324E+00 0.33465966E+04</pdfrwt>
<totfact> 0.22360783E-01</totfact>
</mgrwt>
</event>
<event>
12    5  0.5246737E-008  0.1243856E+04  0.7818608E-02  0.9075312E-01
         -2   -1    0    0    0  501 -0.00000000000E+00  0.00000000000E+00  0.20415836104E+03  0.20415836104E+03  0.00000000000E+00 0.  1.
          1   -1    0    0  501    0  0.00000000000E+00 -0.00000000000E+00 -0.18945813097E+04  0.18945813097E+04  0.00000000000E+00 0. -1.
        -24    2    1    2    0    0 -0.25731304424E+03  0.52502297165E+02 -0.62672843544E+03  0.68421149920E+03  0.79939664219E+02 0.  0.
        254    2    1    2    0    0  0.25731304424E+03 -0.52502297165E+02 -0.10636945133E+04  0.14145281716E+04  0.89469404640E+03 0.  0.
         23    2    4    4    0    0  0.52434353641E+03  0.57061829652E+02 -0.35085968581E+03  0.64017666240E+03  0.92365812803E+02 0.  0.
         23    2    4    4    0    0 -0.26703049217E+03 -0.10956412682E+03 -0.71283482745E+03  0.77435150917E+03  0.90427799333E+02 0.  0.
          1    1    3    3  502    0 -0.25275443289E+01  0.16872153154E+02 -0.45458717981E+02  0.48554640076E+02  0.00000000000E+00 0. -1.
         -4    1    3    3    0  502 -0.25478549991E+03  0.35630144012E+02 -0.58126971745E+03  0.63565685913E+03  0.00000000000E+00 0.  1.
         13    1    5    5    0    0  0.16838113327E+03  0.55125443105E+02 -0.14518190313E+03  0.22906070268E+03  0.00000000000E+00 0. -1.
        -13    1    5    5    0    0  0.35596240314E+03  0.19363865478E+01 -0.20567778269E+03  0.41111595971E+03  0.00000000000E+00 0.  1.
          3    1    6    6  503    0 -0.21799037931E+03 -0.78973851893E+02 -0.46164020141E+03  0.51659302194E+03  0.00000000000E+00 0. -1.
         -3    1    6    6    0  503 -0.49040112860E+02 -0.30590274925E+02 -0.25119462604E+03  0.25775848724E+03  0.00000000000E+00 0.  1.
<mgrwt>
<rscale>  0 0.12438563E+04</rscale>
<asrwt>0</asrwt>
<pdfrwt beam="1">  1        1 0.29147405E+00 0.12438563E+04</pdfrwt>
<pdfrwt beam="2">  1       -2 0.31408979E-01 0.12438563E+04</pdfrwt>
<totfact> 0.28661510E+01</totfact>
</mgrwt>
</event>
<event>
12    5  0.5246737E-008  0.1574088E+04  0.7818608E-02  0.8836627E-01
         -2   -1    0    0    0  501 -0.00000000000E+00  0.00000000000E+00  0.56369721985E+03  0.56369721985E+03  0.00000000000E+00 0.  1.
          1   -1    0    0  501    0  0.00000000000E+00 -0.00000000000E+00 -0.10988850146E+04  0.10988850146E+04  0.00000000000E+00 0. -1.
        -24    2    1    2    0    0 -0.27211525478E+02 -0.66958021206E+02  0.36795537846E+03  0.38284984910E+03  0.77194576851E+02 0.  0.
        254    2    1    2    0    0  0.27211525478E+02  0.66958021206E+02 -0.90314317325E+03  0.12797323854E+04  0.90378290706E+03 0.  0.
         23    2    4    4    0    0 -0.18032773692E+03 -0.11758839452E+03  0.87525291424E+02  0.24681026758E+03  0.83123452260E+02 0.  0.
         23    2    4    4    0    0  0.20753926240E+03  0.18454641573E+03 -0.99066846468E+03  0.10329221178E+04  0.91510488764E+02 0.  0.
          3    1    3    3  502    0  0.14223180149E+02 -0.55141794658E+02  0.14524141273E+03  0.15600635994E+03  0.00000000000E+00 0. -1.
         -4    1    3    3    0  502 -0.41434705627E+02 -0.11816226548E+02  0.22271396574E+03  0.22684348916E+03  0.00000000000E+00 0.  1.
         13    1    5    5    0    0 -0.96020986079E+02 -0.60314815628E+02  0.14445238297E+01  0.11340191092E+03  0.00000000000E+00 0. -1.
        -13    1    5    5    0    0 -0.84306750841E+02 -0.57273578895E+02  0.86080767594E+02  0.13340835666E+03  0.00000000000E+00 0.  1.
          4    1    6    6  503    0  0.61336981342E+00  0.23807942363E+01  0.16886864573E+01  0.29826273107E+01  0.00000000000E+00 0. -1.
         -4    1    6    6    0  503  0.20692589259E+03  0.18216562149E+03 -0.99235715114E+03  0.10299394905E+04  0.00000000000E+00 0.  1.
<mgrwt>
<rscale>  0 0.15740882E+04</rscale>
<asrwt>0</asrwt>
<pdfrwt beam="1">  1        1 0.16905923E+00 0.15740882E+04</pdfrwt>
<pdfrwt beam="2">  1       -2 0.86722650E-01 0.15740882E+04</pdfrwt>
<totfact> 0.12328041E+01</totfact>
</mgrwt>
</event>
<event>
12    5  0.5246737E-008  0.1921065E+04  0.7818608E-02  0.8644441E-01
          1   -1    0    0  501    0  0.00000000000E+00  0.00000000000E+00  0.16350362680E+04  0.16350362680E+04  0.00000000000E+00 0. -1.
         -2   -1    0    0    0  501 -0.00000000000E+00 -0.00000000000E+00 -0.56428296196E+03  0.56428296196E+03  0.00000000000E+00 0.  1.
        -24    2    1    2    0    0 -0.17999045483E+03 -0.47305723556E+03  0.10330056120E+04  0.11530868375E+04  0.79554688061E+02 0.  0.
        254    2    1    2    0    0  0.17999045483E+03  0.47305723556E+03  0.37747694009E+02  0.10462323925E+04  0.91487573948E+03 0.  0.
         23    2    4    4    0    0  0.14782418005E+03  0.22979516591E+03  0.46380024889E+03  0.54602096858E+03  0.91490003733E+02 0.  0.
         23    2    4    4    0    0  0.32166274783E+02  0.24326206965E+03 -0.42605255488E+03  0.50021142388E+03  0.92084663765E+02 0.  0.
          1    1    3    3  502    0 -0.10070772851E+03 -0.30735679819E+03  0.57688830861E+03  0.66137006931E+03  0.00000000000E+00 0. -1.
         -2    1    3    3    0  502 -0.79282726320E+02 -0.16570043737E+03  0.45611730344E+03  0.49171676820E+03  0.00000000000E+00 0.  1.
         13    1    5    5    0    0  0.47549214742E+02  0.78012826885E+02  0.24496774216E+03  0.26145004051E+03  0.00000000000E+00 0. -1.
        -13    1    5    5    0    0  0.10027496531E+03  0.15178233902E+03  0.21883250672E+03  0.28457092807E+03  0.00000000000E+00 0.  1.
          4    1    6    6  503    0  0.16929801980E+02  0.23039943761E+03 -0.42005005617E+03  0.47938770190E+03  0.00000000000E+00 0. -1.
         -4    1    6    6    0  503  0.15236472802E+02  0.12862632040E+02 -0.60024987100E+01  0.20823721983E+02  0.00000000000E+00 0.  1.
<mgrwt>
<rscale>  0 0.19210654E+04</rscale>
<asrwt>0</asrwt>
<pdfrwt beam="1">  1        1 0.25154404E+00 0.19210654E+04</pdfrwt>
<pdfrwt beam="2">  1       -2 0.86812764E-01 0.19210654E+04</pdfrwt>
<totfact> 0.49696275E+00</totfact>
</mgrwt>
</event>
<event>
12    5  0.5246737E-008  0.1986223E+04  0.7818608E-02  0.8613089E-01
         -2   -1    0    0    0  501 -0.00000000000E+00  0.00000000000E+00  0.71124955863E+03  0.71124955863E+03  0.00000000000E+00 0.  1.
          1   -1    0    0  501    0  0.00000000000E+00 -0.00000000000E+00 -0.13866731517E+04  0.13866731517E+04  0.00000000000E+00 0. -1.
        -24    2    1    2    0    0 -0.72118008256E+03  0.75564623858E+02  0.14039368338E+03  0.74262643312E+03  0.77284597337E+02 0.  0.
        254    2    1    2    0    0  0.72118008256E+03 -0.75564623858E+02 -0.81581727645E+03  0.13552962772E+04  0.80340490825E+03 0.  0.
         23    2    4    4    0    0  0.71936867704E+03 -0.28137982584E+03 -0.82267223356E+03  0.11321416104E+04  0.91044616812E+02 0.  0.
         23    2    4    4    0    0  0.18114055181E+01  0.20581520198E+03  0.68549571045E+01  0.22315466681E+03  0.85952523663E+02 0.  0.
          1    1    3    3  502    0 -0.59333114223E+03  0.54682617899E+02  0.85564695672E+02  0.60195793058E+03  0.00000000000E+00 0. -1.
         -2    1    3    3    0  502 -0.12784894032E+03  0.20882005959E+02  0.54828987704E+02  0.14066850254E+03  0.00000000000E+00 0.  1.
         13    1    5    5    0    0  0.19154282228E+03 -0.43054365325E+02 -0.17137711999E+03  0.26060016960E+03  0.00000000000E+00 0. -1.
        -13    1    5    5    0    0  0.52782585476E+03 -0.23832546051E+03 -0.65129511356E+03  0.87154144080E+03  0.00000000000E+00 0.  1.
          3    1    6    6  503    0  0.14008479261E+02  0.15717658670E+03 -0.30379815956E+02  0.16069738678E+03  0.00000000000E+00 0. -1.
         -3    1    6    6    0  503 -0.12197073743E+02  0.48638615278E+02  0.37234773060E+02  0.62457280031E+02  0.00000000000E+00 0.  1.
<mgrwt>
<rscale>  0 0.19862232E+04</rscale>
<asrwt>0</asrwt>
<pdfrwt beam="1">  1        1 0.21333433E+00 0.19862232E+04</pdfrwt>
<pdfrwt beam="2">  1       -2 0.10942301E+00 0.19862232E+04</pdfrwt>
<totfact> 0.42578929E+00</totfact>
</mgrwt>
</event>
<event>
12    5  0.5246737E-008  0.2720010E+04  0.7818608E-02  0.8328542E-01
         -2   -1    0    0    0  501 -0.00000000000E+00  0.00000000000E+00  0.75858433744E+03  0.75858433744E+03  0.00000000000E+00 0.  1.
          1   -1    0    0  501    0  0.00000000000E+00 -0.00000000000E+00 -0.24382434444E+04  0.24382434444E+04  0.00000000000E+00 0. -1.
        -24    2    1    2    0    0  0.20077548689E+03  0.90384278866E+03 -0.16587015434E+04  0.19012676455E+04  0.79279676132E+02 0.  0.
        254    2    1    2    0    0 -0.20077548689E+03 -0.90384278866E+03 -0.20957563554E+02  0.12955601363E+04  0.90597696692E+03 0.  0.
         23    2    4    4    0    0  0.87677097740E+02  0.45018798965E+00 -0.27871257561E+03  0.30702189982E+03  0.94309442946E+02 0.  0.
         23    2    4    4    0    0 -0.28845258463E+03 -0.90429297665E+03  0.25775501206E+03  0.98853823650E+03  0.99093478934E+02 0.  0.
          3    1    3    3  502    0  0.14121219768E+03  0.74154279110E+03 -0.13057030504E+04  0.15082065680E+04  0.00000000000E+00 0. -1.
         -4    1    3    3    0  502  0.59563289212E+02  0.16229999757E+03 -0.35299849298E+03  0.39306107754E+03  0.00000000000E+00 0.  1.
         13    1    5    5    0    0  0.76575163994E+02  0.37962384024E+02 -0.15168698635E+03  0.17410870217E+03  0.00000000000E+00 0. -1.
        -13    1    5    5    0    0  0.11101933746E+02 -0.37512196034E+02 -0.12702558926E+03  0.13291319766E+03  0.00000000000E+00 0.  1.
          4    1    6    6  503    0 -0.26023379294E+03 -0.81645737738E+03  0.20087617607E+03  0.88015652822E+03  0.00000000000E+00 0. -1.
         -4    1    6    6    0  503 -0.28218791699E+02 -0.87835599277E+02  0.56878835988E+02  0.10838170828E+03  0.00000000000E+00 0.  1.
<mgrwt>
<rscale>  0 0.27200098E+04</rscale>
<asrwt>0</asrwt>
<pdfrwt beam="1">  1        1 0.37511437E+00 0.27200098E+04</pdfrwt>
<pdfrwt beam="2">  1       -2 0.11670528E+00 0.27200098E+04</pdfrwt>
<totfact> 0.65162259E-01</totfact>
</mgrwt>
</event>
<event>
12    5  0.5246737E-008  0.1786322E+04  0.7818608E-02  0.8713608E-01
          1   -1    0    0  501    0  0.00000000000E+00  0.00000000000E+00  0.42446040743E+03  0.42446040743E+03  0.00000000000E+00 0. -1.
         -2   -1    0    0    0  501 -0.00000000000E+00 -0.00000000000E+00 -0.18794123593E+04  0.18794123593E+04  0.00000000000E+00 0.  1.
        -24    2    1    2    0    0  0.55723008398E+03 -0.21359478461E+03 -0.18683673684E+03  0.63136286497E+03  0.87080437073E+02 0.  0.
        254    2    1    2    0    0 -0.55723008398E+03  0.21359478461E+03 -0.12681152151E+04  0.16725099018E+04  0.91271302963E+03 0.  0.
         23    2    4    4    0    0 -0.99467907448E+02 -0.33053995412E+03 -0.29064371236E+03  0.46035542586E+03  0.91119837074E+02 0.  0.
         23    2    4    4    0    0 -0.45776217653E+03  0.54413473873E+03 -0.97747150270E+03  0.12121544759E+04  0.90769547654E+02 0.  0.
          1    1    3    3  502    0  0.19389342437E+03 -0.60882431097E+02 -0.10531788378E+03  0.22889558116E+03  0.00000000000E+00 0. -1.
         -2    1    3    3    0  502  0.36333665961E+03 -0.15271235351E+03 -0.81518853064E+02  0.40246728381E+03  0.00000000000E+00 0.  1.
         13    1    5    5    0    0 -0.70113650734E+02 -0.12289707849E+03 -0.15859365474E+03  0.21253602811E+03  0.00000000000E+00 0.  1.
        -13    1    5    5    0    0 -0.29354256714E+02 -0.20764287563E+03 -0.13205005761E+03  0.24781939775E+03  0.00000000000E+00 0. -1.
          3    1    6    6  503    0 -0.32039244512E+03  0.35492508868E+03 -0.72056976017E+03  0.86477969260E+03  0.00000000000E+00 0. -1.
         -3    1    6    6    0  503 -0.13736973141E+03  0.18920965006E+03 -0.25690174253E+03  0.34737478334E+03  0.00000000000E+00 0.  1.
<mgrwt>
<rscale>  0 0.17863215E+04</rscale>
<asrwt>0</asrwt>
<pdfrwt beam="1">  1        1 0.65301600E-01 0.17863215E+04</pdfrwt>
<pdfrwt beam="2">  1       -2 0.28914037E+00 0.17863215E+04</pdfrwt>
<totfact> 0.16979835E+00</totfact>
</mgrwt>
</event>
<event>
12    5  0.5246737E-008  0.1059371E+04  0.7818608E-02  0.9245722E-01
         -2   -1    0    0    0  501 -0.00000000000E+00  0.00000000000E+00  0.37427335566E+03  0.37427335566E+03  0.00000000000E+00 0.  1.
          1   -1    0    0  501    0  0.00000000000E+00 -0.00000000000E+00 -0.74963088995E+03  0.74963088995E+03  0.00000000000E+00 0. -1.
        -24    2    1    2    0    0 -0.23216609284E+02  0.97612220462E+02  0.34673438187E+02  0.13364172258E+03  0.81183164312E+02 0.  0.
        254    2    1    2    0    0  0.23216609284E+02 -0.97612220462E+02 -0.41003097248E+03  0.99026252303E+03  0.89578307061E+03 0.  0.
         23    2    4    4    0    0  0.24823814499E+03  0.21618205184E+03 -0.47778385390E+03  0.58693079755E+03  0.88619940756E+02 0.  0.
         23    2    4    4    0    0 -0.22502153571E+03 -0.31379427230E+03  0.67752881419E+02  0.40333172548E+03  0.94786554833E+02 0.  0.
          1    1    3    3  502    0 -0.21115052674E+01  0.79460557984E+02 -0.10906643991E+02  0.80233369696E+02  0.00000000000E+00 0. -1.
         -2    1    3    3    0  502 -0.21105104017E+02  0.18151662479E+02  0.45580082178E+02  0.53408352883E+02  0.00000000000E+00 0.  1.
         13    1    5    5    0    0  0.18860359001E+03  0.11007874458E+03 -0.32580640426E+03  0.39222245886E+03  0.00000000000E+00 0. -1.
        -13    1    5    5    0    0  0.59634554979E+02  0.10610330725E+03 -0.15197744964E+03  0.19470833869E+03  0.00000000000E+00 0.  1.
          1    1    6    6  503    0 -0.21104555693E+03 -0.27342608921E+03  0.30665816129E+02  0.34675992508E+03  0.00000000000E+00 0. -1.
         -1    1    6    6    0  503 -0.13975978774E+02 -0.40368183086E+02  0.37087065290E+02  0.56571800397E+02  0.00000000000E+00 0.  1.
<mgrwt>
<rscale>  0 0.10593713E+04</rscale>
<asrwt>0</asrwt>
<pdfrwt beam="1">  1        1 0.11532783E+00 0.10593713E+04</pdfrwt>
<pdfrwt beam="2">  1       -2 0.57580517E-01 0.10593713E+04</pdfrwt>
<totfact> 0.60609198E+01</totfact>
</mgrwt>
</event>
<event>
12    5  0.5246737E-008  0.2393432E+04  0.7818608E-02  0.8441967E-01
          1   -1    0    0  501    0  0.00000000000E+00  0.00000000000E+00  0.19557386316E+04  0.19557386316E+04  0.00000000000E+00 0. -1.
         -2   -1    0    0    0  501 -0.00000000000E+00 -0.00000000000E+00 -0.73227021734E+03  0.73227021734E+03  0.00000000000E+00 0.  1.
        -24    2    1    2    0    0 -0.61317107822E+03 -0.86161591627E+02  0.14422954944E+04  0.15716245852E+04  0.79905897888E+02 0.  0.
        254    2    1    2    0    0  0.61317107822E+03  0.86161591627E+02 -0.21882708021E+03  0.11163842637E+04  0.90278787219E+03 0.  0.
         23    2    4    4    0    0 -0.82331074224E+02 -0.27747647780E+03 -0.83571200946E+02  0.31471267709E+03  0.91040221763E+02 0.  0.
         23    2    4    4    0    0  0.69550215244E+03  0.36363806943E+03 -0.13525587926E+03  0.80167158661E+03  0.91800274028E+02 0.  0.
          1    1    3    3  502    0 -0.60479771669E+03 -0.91605536666E+02  0.14324992351E+04  0.15576347168E+04  0.00000000000E+00 0. -1.
         -2    1    3    3    0  502 -0.83733615290E+01  0.54439450387E+01  0.97962593732E+01  0.13989868426E+02  0.00000000000E+00 0.  1.
         13    1    5    5    0    0 -0.26285557507E+02 -0.47241701531E+02  0.17891428618E+02  0.56945694437E+02  0.00000000000E+00 0.  1.
        -13    1    5    5    0    0 -0.56045516717E+02 -0.23023477627E+03 -0.10146262956E+03  0.25776698266E+03  0.00000000000E+00 0. -1.
          3    1    6    6  503    0  0.31099916712E+03  0.14882197852E+03 -0.10402475591E+03  0.36012444110E+03  0.00000000000E+00 0.  1.
         -3    1    6    6    0  503  0.38450298533E+03  0.21481609091E+03 -0.31231123348E+02  0.44154714551E+03  0.00000000000E+00 0. -1.
<mgrwt>
<rscale>  0 0.23934320E+04</rscale>
<asrwt>0</asrwt>
<pdfrwt beam="1">  1        1 0.30088286E+00 0.23934320E+04</pdfrwt>
<pdfrwt beam="2">  1       -2 0.11265696E+00 0.23934320E+04</pdfrwt>
<totfact> 0.15597177E+00</totfact>
</mgrwt>
</event>
<event>
12    5  0.5246737E-008  0.1322230E+04  0.7818608E-02  0.9012120E-01
          1   -1    0    0  501    0  0.00000000000E+00  0.00000000000E+00  0.11076692971E+04  0.11076692971E+04  0.00000000000E+00 0. -1.
         -2   -1    0    0    0  501 -0.00000000000E+00 -0.00000000000E+00 -0.39458793017E+03  0.39458793017E+03  0.00000000000E+00 0.  1.
        -24    2    1    2    0    0  0.14861448843E+03 -0.10177292896E+03 -0.15561193186E+03  0.25149297153E+03  0.81176635506E+02 0.  0.
        254    2    1    2    0    0 -0.14861448843E+03  0.10177292896E+03  0.86869329882E+03  0.12507642558E+04  0.88166840754E+03 0.  0.
         23    2    4    4    0    0  0.31540286146E+03  0.14190390509E+03  0.61611280505E+03  0.71243480142E+03  0.91392967030E+02 0.  0.
         23    2    4    4    0    0 -0.46401734989E+03 -0.40130976131E+02  0.25258049377E+03  0.53832945435E+03  0.95284307946E+02 0.  0.
          3    1    3    3  502    0  0.95618273420E+02 -0.24603285343E+02 -0.51059289169E+02  0.11115406818E+03  0.00000000000E+00 0. -1.
         -4    1    3    3    0  502  0.52996215005E+02 -0.77169643612E+02 -0.10455264269E+03  0.14033890335E+03  0.00000000000E+00 0.  1.
         13    1    5    5    0    0  0.23597809210E+03  0.94032763399E+02  0.36456281082E+03  0.44433530535E+03  0.00000000000E+00 0. -1.
        -13    1    5    5    0    0  0.79424769360E+02  0.47871141688E+02  0.25154999423E+03  0.26809949607E+03  0.00000000000E+00 0.  1.
          2    1    6    6  503    0 -0.37323837662E+03 -0.92108709196E+01  0.23406961214E+03  0.44065894891E+03  0.00000000000E+00 0. -1.
         -2    1    6    6    0  503 -0.90778973267E+02 -0.30920105212E+02  0.18510881630E+02  0.97670505437E+02  0.00000000000E+00 0.  1.
<mgrwt>
<rscale>  0 0.13222298E+04</rscale>
<asrwt>0</asrwt>
<pdfrwt beam="1">  1        1 0.17041066E+00 0.13222298E+04</pdfrwt>
<pdfrwt beam="2">  1       -2 0.60705836E-01 0.13222298E+04</pdfrwt>
<totfact> 0.27188822E+01</totfact>
</mgrwt>
</event>
<event>
12    5  0.5246737E-008  0.1091354E+04  0.7818608E-02  0.9213660E-01
          1   -1    0    0  501    0  0.00000000000E+00  0.00000000000E+00  0.13299847215E+04  0.13299847215E+04  0.00000000000E+00 0. -1.
         -2   -1    0    0    0  501 -0.00000000000E+00 -0.00000000000E+00 -0.22388478248E+03  0.22388478248E+03  0.00000000000E+00 0.  1.
        -24    2    1    2    0    0 -0.11085164819E+03  0.78412491352E+02  0.49854837755E+02  0.16585352654E+03  0.81149742532E+02 0.  0.
        254    2    1    2    0    0  0.11085164819E+03 -0.78412491352E+02  0.10562451013E+04  0.13880159775E+04  0.89022358596E+03 0.  0.
         23    2    4    4    0    0  0.15321610505E+03  0.38499643922E+03  0.53495875916E+03  0.68315180417E+03  0.93904635058E+02 0.  0.
         23    2    4    4    0    0 -0.42364456861E+02 -0.46340893057E+03  0.52128634212E+03  0.70486417329E+03  0.92474148658E+02 0.  0.
          3    1    3    3  502    0 -0.93885612650E+02  0.18699071959E+02  0.35805704891E+02  0.10220671239E+03  0.00000000000E+00 0. -1.
         -4    1    3    3    0  502 -0.16966035537E+02  0.59713419393E+02  0.14049132864E+02  0.63646814152E+02  0.00000000000E+00 0.  1.
         13    1    5    5    0    0  0.64584860358E+02  0.15158089917E+03  0.14163912412E+03  0.21727773623E+03  0.00000000000E+00 0. -1.
        -13    1    5    5    0    0  0.88631244691E+02  0.23341554005E+03  0.39331963504E+03  0.46587406795E+03  0.00000000000E+00 0.  1.
          1    1    6    6  503    0 -0.63259039175E+02 -0.27266947936E+03  0.34527915133E+03  0.44448626903E+03  0.00000000000E+00 0. -1.
         -1    1    6    6    0  503  0.20894582314E+02 -0.19073945121E+03  0.17600719079E+03  0.26037790426E+03  0.00000000000E+00 0.  1.
<mgrwt>
<rscale>  0 0.10913539E+04</rscale>
<asrwt>0</asrwt>
<pdfrwt beam="1">  1        1 0.20461303E+00 0.10913539E+04</pdfrwt>
<pdfrwt beam="2">  1       -2 0.34443813E-01 0.10913539E+04</pdfrwt>
<totfact> 0.59467715E+01</totfact>
</mgrwt>
</event>
<event>
12    5  0.5246737E-008  0.1422279E+04  0.7818608E-02  0.8937848E-01
          1   -1    0    0  501    0  0.00000000000E+00  0.00000000000E+00  0.92260405253E+03  0.92260405253E+03  0.00000000000E+00 0. -1.
         -2   -1    0    0    0  501 -0.00000000000E+00 -0.00000000000E+00 -0.54814341303E+03  0.54814341303E+03  0.00000000000E+00 0.  1.
        -24    2    1    2    0    0  0.15728881652E+03 -0.26350499214E+03 -0.17820085962E+03  0.36614264988E+03  0.90167849082E+02 0.  0.
        254    2    1    2    0    0 -0.15728881652E+03  0.26350499214E+03  0.55266149912E+03  0.11046048157E+04  0.90583796207E+03 0.  0.
         23    2    4    4    0    0 -0.23995548514E+03  0.89067843396E+01  0.72767460136E+03  0.77171043116E+03  0.91480590576E+02 0.  0.
         23    2    4    4    0    0  0.82666668621E+02  0.25459820780E+03 -0.17501310223E+03  0.33289438451E+03  0.92385387232E+02 0.  0.
          3    1    3    3  502    0  0.10352021073E+03 -0.99142353355E+02 -0.53751577521E+02  0.15308452680E+03  0.00000000000E+00 0. -1.
         -4    1    3    3    0  502  0.53768605784E+02 -0.16436263878E+03 -0.12444928210E+03  0.21305812308E+03  0.00000000000E+00 0.  1.
         13    1    5    5    0    0 -0.13444967293E+03  0.33439834768E+02  0.29863104046E+03  0.32920424577E+03  0.00000000000E+00 0.  1.
        -13    1    5    5    0    0 -0.10550581220E+03 -0.24533050429E+02  0.42904356089E+03  0.44250618540E+03  0.00000000000E+00 0. -1.
          3    1    6    6  503    0 -0.58232758620E+01  0.73320858954E+02 -0.14185827138E+02  0.74907253261E+02  0.00000000000E+00 0. -1.
         -3    1    6    6    0  503  0.88489944483E+02  0.18127734884E+03 -0.16082727509E+03  0.25798713125E+03  0.00000000000E+00 0.  1.
<mgrwt>
<rscale>  0 0.14222789E+04</rscale>
<asrwt>0</asrwt>
<pdfrwt beam="1">  1        1 0.14193908E+00 0.14222789E+04</pdfrwt>
<pdfrwt beam="2">  1       -2 0.84329756E-01 0.14222789E+04</pdfrwt>
<totfact> 0.18254059E+01</totfact>
</mgrwt>
</event>
<event>
12    5  0.5246737E-008  0.1262827E+04  0.7818608E-02  0.9059574E-01
          1   -1    0    0  501    0  0.00000000000E+00  0.00000000000E+00  0.50111864509E+03  0.50111864509E+03  0.00000000000E+00 0. -1.
         -2   -1    0    0    0  501 -0.00000000000E+00 -0.00000000000E+00 -0.79558606815E+03  0.79558606815E+03  0.00000000000E+00 0.  1.
        -24    2    1    2    0    0  0.20017771757E+03  0.22689072204E+03 -0.95485503918E+02  0.32750290370E+03  0.81179751864E+02 0.  0.
        254    2    1    2    0    0 -0.20017771757E+03 -0.22689072204E+03 -0.19898191914E+03  0.96920180953E+03  0.89900379592E+03 0.  0.
         23    2    4    4    0    0  0.98112380143E+02  0.22306291004E+03 -0.31617390845E+03  0.40933518446E+03  0.90588365037E+02 0.  0.
         23    2    4    4    0    0 -0.29829009772E+03 -0.44995363208E+03  0.11719198930E+03  0.55986662507E+03  0.91002319171E+02 0.  0.
          1    1    3    3  502    0  0.81317705278E+02  0.77369687759E+02  0.36448878389E+01  0.11230281823E+03  0.00000000000E+00 0. -1.
         -2    1    3    3    0  502  0.11886001230E+03  0.14952103429E+03 -0.99130391756E+02  0.21520008547E+03  0.00000000000E+00 0.  1.
         13    1    5    5    0    0  0.62354996016E+02  0.54519722784E+02 -0.67730843035E+02  0.10699538681E+03  0.00000000000E+00 0. -1.
        -13    1    5    5    0    0  0.35757384127E+02  0.16854318725E+03 -0.24844306541E+03  0.30233979765E+03  0.00000000000E+00 0.  1.
          2    1    6    6  503    0 -0.75076938796E+02 -0.59902189000E+02  0.25929412977E+01  0.96080915538E+02  0.00000000000E+00 0. -1.
         -2    1    6    6    0  503 -0.22321315892E+03 -0.39005144308E+03  0.11459904801E+03  0.46378570953E+03  0.00000000000E+00 0.  1.
<mgrwt>
<rscale>  0 0.12628270E+04</rscale>
<asrwt>0</asrwt>
<pdfrwt beam="1">  1        1 0.77095176E-01 0.12628270E+04</pdfrwt>
<pdfrwt beam="2">  1       -2 0.12239786E+00 0.12628270E+04</pdfrwt>
<totfact> 0.19234210E+01</totfact>
</mgrwt>
</event>
<event>
12    5  0.5246737E-008  0.1361485E+04  0.7818608E-02  0.8982179E-01
          1   -1    0    0  501    0  0.00000000000E+00  0.00000000000E+00  0.97910348968E+03  0.97910348968E+03  0.00000000000E+00 0. -1.
         -2   -1    0    0    0  501 -0.00000000000E+00 -0.00000000000E+00 -0.47330070953E+03  0.47330070953E+03  0.00000000000E+00 0.  1.
        -24    2    1    2    0    0  0.20141403073E+03 -0.62178428958E+02 -0.18899894926E+03  0.29473182871E+03  0.81929721302E+02 0.  0.
        254    2    1    2    0    0 -0.20141403073E+03  0.62178428958E+02  0.69480172941E+03  0.11576723705E+04  0.90167738432E+03 0.  0.
         23    2    4    4    0    0 -0.10309217419E+03  0.38172628707E+03  0.70207523990E+03  0.81098741064E+03  0.91912910454E+02 0.  0.
         23    2    4    4    0    0 -0.98321856544E+02 -0.31954785811E+03 -0.72735104868E+01  0.34668495986E+03  0.91430500044E+02 0.  0.
          1    1    3    3  502    0  0.68771638107E+02 -0.60097996876E+02 -0.57392215189E+02  0.10786646282E+03  0.00000000000E+00 0. -1.
         -2    1    3    3    0  502  0.13264239262E+03 -0.20804320811E+01 -0.13160673407E+03  0.18686536590E+03  0.00000000000E+00 0.  1.
         13    1    5    5    0    0 -0.10310154732E+01  0.13306496777E+02  0.22272654095E+01  0.13530948252E+02  0.00000000000E+00 0.  1.
        -13    1    5    5    0    0 -0.10206115871E+03  0.36841979029E+03  0.69984797449E+03  0.79745646238E+03  0.00000000000E+00 0. -1.
          1    1    6    6  503    0 -0.73749221817E+02 -0.29091009062E+03 -0.31625518218E+02  0.30177442229E+03  0.00000000000E+00 0. -1.
         -1    1    6    6    0  503 -0.24572634726E+02 -0.28637767488E+02  0.24352007731E+02  0.44910537568E+02  0.00000000000E+00 0.  1.
<mgrwt>
<rscale>  0 0.13614850E+04</rscale>
<asrwt>0</asrwt>
<pdfrwt beam="1">  1        1 0.15063131E+00 0.13614850E+04</pdfrwt>
<pdfrwt beam="2">  1       -2 0.72815494E-01 0.13614850E+04</pdfrwt>
<totfact> 0.22968223E+01</totfact>
</mgrwt>
</event>
<event>
12    5  0.5246737E-008  0.2673899E+04  0.7818608E-02  0.8343524E-01
         -2   -1    0    0    0  501 -0.00000000000E+00  0.00000000000E+00  0.11580911331E+04  0.11580911331E+04  0.00000000000E+00 0.  1.
          1   -1    0    0  501    0  0.00000000000E+00 -0.00000000000E+00 -0.15434308312E+04  0.15434308312E+04  0.00000000000E+00 0. -1.
        -24    2    1    2    0    0 -0.65451617595E+03 -0.58547482392E+03  0.62794320564E+03  0.10826713517E+04  0.81807042509E+02 0.  0.
        254    2    1    2    0    0  0.65451617595E+03  0.58547482392E+03 -0.10132829037E+04  0.16188506126E+04  0.90706277020E+03 0.  0.
         23    2    4    4    0    0  0.15604432287E+02  0.92379686585E+02 -0.75606159962E+03  0.76700195345E+03  0.88799489747E+02 0.  0.
         23    2    4    4    0    0  0.63891174366E+03  0.49309513733E+03 -0.25722130404E+03  0.85184865916E+03  0.90179311432E+02 0.  0.
          3    1    3    3  502    0 -0.21426230570E+03 -0.23959372329E+03  0.24945660170E+03  0.40686863237E+03  0.00000000000E+00 0. -1.
         -2    1    3    3    0  502 -0.44025387025E+03 -0.34588110063E+03  0.37848660395E+03  0.67580271930E+03  0.00000000000E+00 0.  1.
         13    1    5    5    0    0  0.30011617970E+02  0.53906977975E+02 -0.19706136700E+03  0.20649416905E+03  0.00000000000E+00 0. -1.
        -13    1    5    5    0    0 -0.14407185683E+02  0.38472708610E+02 -0.55900023262E+03  0.56050778440E+03  0.00000000000E+00 0.  1.
          3    1    6    6  503    0  0.46284884254E+01 -0.38915937289E+01 -0.19199476100E+00  0.60501461836E+01  0.00000000000E+00 0. -1.
         -3    1    6    6    0  503  0.63428325524E+03  0.49698673106E+03 -0.25702930928E+03  0.84579851298E+03  0.00000000000E+00 0.  1.
<mgrwt>
<rscale>  0 0.26738987E+04</rscale>
<asrwt>0</asrwt>
<pdfrwt beam="1">  1        1 0.23745090E+00 0.26738987E+04</pdfrwt>
<pdfrwt beam="2">  1       -2 0.17816787E+00 0.26738987E+04</pdfrwt>
<totfact> 0.87597978E-01</totfact>
</mgrwt>
</event>
<event>
12    5  0.5246737E-008  0.1436381E+04  0.7818608E-02  0.8927897E-01
          3   -1    0    0  501    0  0.00000000000E+00  0.00000000000E+00  0.37987876058E+03  0.37987876058E+03  0.00000000000E+00 0. -1.
         -4   -1    0    0    0  501 -0.00000000000E+00 -0.00000000000E+00 -0.13577948390E+04  0.13577948390E+04  0.00000000000E+00 0.  1.
        -24    2    1    2    0    0  0.13701868526E+03 -0.37993264324E+03 -0.12611611929E+03  0.43076898459E+03  0.80831361687E+02 0.  0.
        254    2    1    2    0    0 -0.13701868526E+03  0.37993264324E+03 -0.85179995915E+03  0.13069046150E+04  0.90515941626E+03 0.  0.
         23    2    4    4    0    0  0.74624331947E+02  0.63118191316E+03 -0.63395471656E+03  0.90235694647E+03  0.91597367747E+02 0.  0.
         23    2    4    4    0    0 -0.21164301721E+03 -0.25124926992E+03 -0.21784524259E+03  0.40454766855E+03  0.91012658679E+02 0.  0.
          1    1    3    3  502    0  0.13666409945E+03 -0.38337165655E+03 -0.12822044593E+03  0.42672167261E+03  0.00000000000E+00 0. -1.
         -2    1    3    3    0  502  0.35458580569E+00  0.34390133105E+01  0.21043266370E+01  0.40473119769E+01  0.00000000000E+00 0.  1.
         13    1    5    5    0    0  0.62010793606E+02  0.17285285896E+03 -0.18018593325E+03  0.25727498891E+03  0.00000000000E+00 0.  1.
        -13    1    5    5    0    0  0.12613538342E+02  0.45832905419E+03 -0.45376878331E+03  0.64508195757E+03  0.00000000000E+00 0. -1.
          1    1    6    6  503    0 -0.21016898949E+03 -0.25342109676E+03 -0.22376275141E+03  0.39807414554E+03  0.00000000000E+00 0. -1.
         -1    1    6    6    0  503 -0.14740277174E+01  0.21718268373E+01  0.59175088216E+01  0.64735230112E+01  0.00000000000E+00 0.  1.
<mgrwt>
<rscale>  0 0.14363808E+04</rscale>
<asrwt>0</asrwt>
<pdfrwt beam="1">  1        3 0.58442887E-01 0.14363808E+04</pdfrwt>
<pdfrwt beam="2">  1       -4 0.20889151E+00 0.14363808E+04</pdfrwt>
<totfact> 0.73357076E-01</totfact>
</mgrwt>
</event>
<event>
12    5  0.5246737E-008  0.1197389E+04  0.7818608E-02  0.9115145E-01
         -2   -1    0    0    0  501 -0.00000000000E+00  0.00000000000E+00  0.25524609334E+03  0.25524609334E+03  0.00000000000E+00 0.  1.
          1   -1    0    0  501    0  0.00000000000E+00 -0.00000000000E+00 -0.14042734439E+04  0.14042734439E+04  0.00000000000E+00 0. -1.
        -24    2    1    2    0    0 -0.22034446924E+03  0.73704071231E+02 -0.31491611343E+03  0.39961074050E+03  0.80824564210E+02 0.  0.
        254    2    1    2    0    0  0.22034446924E+03 -0.73704071231E+02 -0.83411123717E+03  0.12599087968E+04  0.91522928549E+03 0.  0.
         23    2    4    4    0    0 -0.45648480501E+02  0.34720560832E+02  0.17737396174E+03  0.20400657511E+03  0.82872548326E+02 0.  0.
         23    2    4    4    0    0  0.26599294974E+03 -0.10842463206E+03 -0.10114851989E+04  0.10559022217E+04  0.96535195647E+02 0.  0.
          1    1    3    3  502    0 -0.66568645846E+02  0.30870834506E+02 -0.16517536015E+03  0.18074095450E+03  0.00000000000E+00 0. -1.
         -4    1    3    3    0  502 -0.15377582339E+03  0.42833236725E+02 -0.14974075329E+03  0.21886978600E+03  0.00000000000E+00 0.  1.
         13    1    5    5    0    0 -0.64088562749E+01 -0.16376128781E+02  0.26509023889E+01  0.17784215363E+02  0.00000000000E+00 0. -1.
        -13    1    5    5    0    0 -0.39239624226E+02  0.51096689613E+02  0.17472305935E+03  0.18622235974E+03  0.00000000000E+00 0.  1.
          4    1    6    6  503    0  0.32338021137E+02 -0.38276291941E+02 -0.28975769492E+03  0.29405840219E+03  0.00000000000E+00 0. -1.
         -4    1    6    6    0  503  0.23365492860E+03 -0.70148340121E+02 -0.72172750399E+03  0.76184381949E+03  0.00000000000E+00 0.  1.
<mgrwt>
<rscale>  0 0.11973893E+04</rscale>
<asrwt>0</asrwt>
<pdfrwt beam="1">  1        1 0.21604207E+00 0.11973893E+04</pdfrwt>
<pdfrwt beam="2">  1       -2 0.39268629E-01 0.11973893E+04</pdfrwt>
<totfact> 0.40623328E+01</totfact>
</mgrwt>
</event>
<event>
12    5  0.5246737E-008  0.2211268E+04  0.7818608E-02  0.8513753E-01
          1   -1    0    0  501    0  0.00000000000E+00  0.00000000000E+00  0.19752759109E+04  0.19752759109E+04  0.00000000000E+00 0. -1.
         -2   -1    0    0    0  501 -0.00000000000E+00 -0.00000000000E+00 -0.61886384409E+03  0.61886384409E+03  0.00000000000E+00 0.  1.
        -24    2    1    2    0    0  0.84388917242E+03 -0.11425621696E+03  0.15518751022E+03  0.86930202890E+03  0.79996472908E+02 0.  0.
        254    2    1    2    0    0 -0.84388917242E+03  0.11425621696E+03  0.12012245566E+04  0.17248377261E+04  0.89828799810E+03 0.  0.
         23    2    4    4    0    0 -0.65172810664E+02 -0.29636912521E+03  0.51682953996E+03  0.60600801306E+03  0.89726166123E+02 0.  0.
         23    2    4    4    0    0 -0.77871636176E+03  0.41062534217E+03  0.68439501664E+03  0.11188297130E+04  0.91493411104E+02 0.  0.
          1    1    3    3  502    0  0.12676576902E+02  0.20652319682E+01 -0.67514184498E+01  0.14510080500E+02  0.00000000000E+00 0. -1.
         -2    1    3    3    0  502  0.83121259552E+03 -0.11632144893E+03  0.16193892867E+03  0.85479194840E+03  0.00000000000E+00 0.  1.
         13    1    5    5    0    0 -0.79291124631E+02 -0.27650361593E+03  0.44242053668E+03  0.52770944974E+03  0.00000000000E+00 0.  1.
        -13    1    5    5    0    0  0.14118313967E+02 -0.19865509274E+02  0.74409003289E+02  0.78298563323E+02  0.00000000000E+00 0. -1.
          4    1    6    6  503    0 -0.22293216495E+03  0.13987835181E+03  0.25220861150E+03  0.36451870622E+03  0.00000000000E+00 0. -1.
         -4    1    6    6    0  503 -0.55578419681E+03  0.27074699036E+03  0.43218640515E+03  0.75431100682E+03  0.00000000000E+00 0.  1.
<mgrwt>
<rscale>  0 0.22112683E+04</rscale>
<asrwt>0</asrwt>
<pdfrwt beam="1">  1        1 0.30388860E+00 0.22112683E+04</pdfrwt>
<pdfrwt beam="2">  1       -2 0.95209823E-01 0.22112683E+04</pdfrwt>
<totfact> 0.22976968E+00</totfact>
</mgrwt>
</event>
<event>
12    5  0.5246737E-008  0.1334779E+04  0.7818608E-02  0.9002431E-01
         -2   -1    0    0    0  501 -0.00000000000E+00  0.00000000000E+00  0.47843612637E+03  0.47843612637E+03  0.00000000000E+00 0.  1.
          1   -1    0    0  501    0  0.00000000000E+00 -0.00000000000E+00 -0.93096764257E+03  0.93096764257E+03  0.00000000000E+00 0. -1.
        -24    2    1    2    0    0  0.23363320543E+03 -0.19530522053E+03  0.57438317417E+02  0.32066708884E+03  0.82459794483E+02 0.  0.
        254    2    1    2    0    0 -0.23363320543E+03  0.19530522053E+03 -0.50996983362E+03  0.10887366801E+04  0.91244162747E+03 0.  0.
         23    2    4    4    0    0  0.27131705907E+03 -0.14934249549E+03 -0.70053677984E+02  0.33011763609E+03  0.90299547916E+02 0.  0.
         23    2    4    4    0    0 -0.50495026451E+03  0.34464771602E+03 -0.43991615564E+03  0.75861904402E+03  0.90663179803E+02 0.  0.
          3    1    3    3  502    0  0.34890346472E+02 -0.63848444873E+01 -0.12626189132E+02  0.37650008872E+02  0.00000000000E+00 0. -1.
         -4    1    3    3    0  502  0.19874285896E+03 -0.18892037605E+03  0.70064506549E+02  0.28301707997E+03  0.00000000000E+00 0.  1.
         13    1    5    5    0    0  0.17513284936E+03 -0.88335000972E+02 -0.87692626003E+02  0.21485945168E+03  0.00000000000E+00 0.  1.
        -13    1    5    5    0    0  0.96184209715E+02 -0.61007494515E+02  0.17638948018E+02  0.11525818441E+03  0.00000000000E+00 0. -1.
          3    1    6    6  503    0 -0.24601153534E+03  0.17835806832E+03 -0.27321860411E+03  0.40863392136E+03  0.00000000000E+00 0. -1.
         -3    1    6    6    0  503 -0.25893872917E+03  0.16628964771E+03 -0.16669755152E+03  0.34998512266E+03  0.00000000000E+00 0.  1.
<mgrwt>
<rscale>  0 0.13347787E+04</rscale>
<asrwt>0</asrwt>
<pdfrwt beam="1">  1        1 0.14322579E+00 0.13347787E+04</pdfrwt>
<pdfrwt beam="2">  1       -2 0.73605559E-01 0.13347787E+04</pdfrwt>
<totfact> 0.24551309E+01</totfact>
</mgrwt>
</event>
<event>
12    5  0.5246737E-008  0.3208077E+04  0.7818608E-02  0.8186687E-01
         -2   -1    0    0    0  501 -0.00000000000E+00  0.00000000000E+00  0.20501049748E+04  0.20501049748E+04  0.00000000000E+00 0.  1.
          1   -1    0    0  501    0  0.00000000000E+00 -0.00000000000E+00 -0.12550282616E+04  0.12550282616E+04  0.00000000000E+00 0. -1.
        -24    2    1    2    0    0 -0.48375569651E+03  0.12339499493E+04  0.10397339807E+04  0.16858890722E+04  0.67254455919E+02 0.  0.
        254    2    1    2    0    0  0.48375569651E+03 -0.12339499493E+04 -0.24465726760E+03  0.16192441641E+04  0.89746444676E+03 0.  0.
         23    2    4    4    0    0  0.50453505140E+03 -0.12219466078E+04 -0.44619468078E+03  0.13979082737E+04  0.85724664628E+02 0.  0.
         23    2    4    4    0    0 -0.20779354893E+02 -0.12003341558E+02  0.20153741318E+03  0.22133589048E+03  0.88297144371E+02 0.  0.
          1    1    3    3  502    0 -0.76715026897E+02  0.15764564396E+03  0.11512698731E+03  0.20974166877E+03  0.00000000000E+00 0. -1.
         -2    1    3    3    0  502 -0.40704066961E+03  0.10763043054E+04  0.92460699342E+03  0.14761474035E+04  0.00000000000E+00 0.  1.
         13    1    5    5    0    0  0.35069041702E+03 -0.93368525137E+03 -0.35511133174E+03  0.10587048574E+04  0.00000000000E+00 0.  1.
        -13    1    5    5    0    0  0.15384463438E+03 -0.28826135639E+03 -0.91083349034E+02  0.33920341623E+03  0.00000000000E+00 0. -1.
          1    1    6    6  503    0 -0.44369616953E+02  0.84723774143E+01  0.53409217069E+02  0.69949900325E+02  0.00000000000E+00 0. -1.
         -1    1    6    6    0  503  0.23590262060E+02 -0.20475718972E+02  0.14812819611E+03  0.15138599015E+03  0.00000000000E+00 0.  1.
<mgrwt>
<rscale>  0 0.32080771E+04</rscale>
<asrwt>0</asrwt>
<pdfrwt beam="1">  1        1 0.19308127E+00 0.32080771E+04</pdfrwt>
<pdfrwt beam="2">  1       -2 0.31540077E+00 0.32080771E+04</pdfrwt>
<totfact> 0.18280107E-01</totfact>
</mgrwt>
</event>
<event>
12    5  0.5246737E-008  0.1431508E+04  0.7818608E-02  0.8931322E-01
         -2   -1    0    0    0  501 -0.00000000000E+00  0.00000000000E+00  0.39719123354E+03  0.39719123354E+03  0.00000000000E+00 0.  1.
          1   -1    0    0  501    0  0.00000000000E+00 -0.00000000000E+00 -0.12898164945E+04  0.12898164945E+04  0.00000000000E+00 0. -1.
        -24    2    1    2    0    0  0.17492196592E+03 -0.16909249760E+03 -0.62538699862E+03  0.67596396490E+03  0.81415090052E+02 0.  0.
        254    2    1    2    0    0 -0.17492196592E+03  0.16909249760E+03 -0.26723826232E+03  0.10110437631E+04  0.94424744384E+03 0.  0.
         23    2    4    4    0    0 -0.38996246413E+03  0.37819054143E+03  0.63854868314E+02  0.55453322909E+03  0.91273484075E+02 0.  0.
         23    2    4    4    0    0  0.21504049822E+03 -0.20909804383E+03 -0.33109313063E+03  0.45651053404E+03  0.93887159548E+02 0.  0.
          3    1    3    3  502    0  0.14933069478E+03 -0.94712949393E+02 -0.46019046185E+03  0.49299641009E+03  0.00000000000E+00 0. -1.
         -4    1    3    3    0  502  0.25591271139E+02 -0.74379548204E+02 -0.16519653678E+03  0.18296755481E+03  0.00000000000E+00 0.  1.
         13    1    5    5    0    0 -0.34319907870E+03  0.34244697376E+03  0.84548373248E+02  0.49214222017E+03  0.00000000000E+00 0.  1.
        -13    1    5    5    0    0 -0.46763385437E+02  0.35743567672E+02 -0.20693504934E+02  0.62391008918E+02  0.00000000000E+00 0. -1.
          1    1    6    6  503    0  0.12323400465E+03 -0.93986308220E+02 -0.10684202929E+03  0.18824257026E+03  0.00000000000E+00 0. -1.
         -1    1    6    6    0  503  0.91806493563E+02 -0.11511173561E+03 -0.22425110134E+03  0.26826796377E+03  0.00000000000E+00 0.  1.
<mgrwt>
<rscale>  0 0.14315080E+04</rscale>
<asrwt>0</asrwt>
<pdfrwt beam="1">  1        1 0.19843330E+00 0.14315080E+04</pdfrwt>
<pdfrwt beam="2">  1       -2 0.61106345E-01 0.14315080E+04</pdfrwt>
<totfact> 0.19553891E+01</totfact>
</mgrwt>
</event>
<event>
12    5  0.5246737E-008  0.1391664E+04  0.7818608E-02  0.8959875E-01
          1   -1    0    0  501    0  0.00000000000E+00  0.00000000000E+00  0.48639514212E+03  0.48639514212E+03  0.00000000000E+00 0. -1.
         -2   -1    0    0    0  501 -0.00000000000E+00 -0.00000000000E+00 -0.99545041168E+03  0.99545041168E+03  0.00000000000E+00 0.  1.
        -24    2    1    2    0    0  0.49995936467E+02  0.38949539374E+03 -0.14118396144E+03  0.42480459216E+03  0.79497013473E+02 0.  0.
        254    2    1    2    0    0 -0.49995936467E+02 -0.38949539374E+03 -0.36787130812E+03  0.10570409616E+04  0.90983517179E+03 0.  0.
         23    2    4    4    0    0  0.16508768072E+03 -0.19344918872E+03 -0.61003329516E+03  0.66755970896E+03  0.93908534697E+02 0.  0.
         23    2    4    4    0    0 -0.21508361718E+03 -0.19604620501E+03  0.24216198703E+03  0.38948125267E+03  0.91422870973E+02 0.  0.
          1    1    3    3  502    0  0.67698234443E+01  0.42827740893E+02  0.94226690014E+01  0.44371529054E+02  0.00000000000E+00 0. -1.
         -2    1    3    3    0  502  0.43226113022E+02  0.34666765284E+03 -0.15060663044E+03  0.38043306311E+03  0.00000000000E+00 0.  1.
         13    1    5    5    0    0  0.12408355055E+03 -0.16832395629E+03 -0.39204302308E+03  0.44432804742E+03  0.00000000000E+00 0.  1.
        -13    1    5    5    0    0  0.41004130164E+02 -0.25125232436E+02 -0.21799027207E+03  0.22323166154E+03  0.00000000000E+00 0. -1.
          1    1    6    6  503    0 -0.64329614903E+02 -0.11741387896E+02  0.36729380973E+02  0.75001379787E+02  0.00000000000E+00 0. -1.
         -1    1    6    6    0  503 -0.15075400228E+03 -0.18430481712E+03  0.20543260606E+03  0.31447987288E+03  0.00000000000E+00 0.  1.
<mgrwt>
<rscale>  0 0.13916641E+04</rscale>
<asrwt>0</asrwt>
<pdfrwt beam="1">  1        1 0.74830022E-01 0.13916641E+04</pdfrwt>
<pdfrwt beam="2">  1       -2 0.15314622E+00 0.13916641E+04</pdfrwt>
<totfact> 0.11126670E+01</totfact>
</mgrwt>
</event>
<event>
12    5  0.5246737E-008  0.1708424E+04  0.7818608E-02  0.8756574E-01
         -2   -1    0    0    0  501 -0.00000000000E+00  0.00000000000E+00  0.93885097168E+03  0.93885097168E+03  0.00000000000E+00 0.  1.
          1   -1    0    0  501    0  0.00000000000E+00 -0.00000000000E+00 -0.77720366095E+03  0.77720366095E+03  0.00000000000E+00 0. -1.
        -24    2    1    2    0    0 -0.10294549142E+03 -0.42370839549E+02  0.66686547521E+03  0.68050905477E+03  0.77394763044E+02 0.  0.
        254    2    1    2    0    0  0.10294549142E+03  0.42370839549E+02 -0.50521816448E+03  0.10355455779E+04  0.89705974598E+03 0.  0.
         23    2    4    4    0    0  0.28071763713E+03 -0.18684797976E+03 -0.61857351457E+03  0.71065500357E+03  0.93181445760E+02 0.  0.
         23    2    4    4    0    0 -0.17777214571E+03  0.22921881931E+03  0.11335535008E+03  0.32489057430E+03  0.92521602668E+02 0.  0.
          3    1    3    3  502    0  0.44364754122E+00 -0.24300225003E+02  0.22689223696E+03  0.22819023851E+03  0.00000000000E+00 0. -1.
         -4    1    3    3    0  502 -0.10338913897E+03 -0.18070614547E+02  0.43997323825E+03  0.45231881626E+03  0.00000000000E+00 0.  1.
         13    1    5    5    0    0  0.17938404807E+03 -0.64191839676E+02 -0.34985223027E+03  0.39836642932E+03  0.00000000000E+00 0.  1.
        -13    1    5    5    0    0  0.10133358907E+03 -0.12265614008E+03 -0.26872128430E+03  0.31228857425E+03  0.00000000000E+00 0. -1.
          3    1    6    6  503    0 -0.19204324992E+02  0.90542492362E+02  0.21156964977E+02  0.94944016076E+02  0.00000000000E+00 0. -1.
         -3    1    6    6    0  503 -0.15856782072E+03  0.13867632695E+03  0.92198385107E+02  0.22994655822E+03  0.00000000000E+00 0.  1.
<mgrwt>
<rscale>  0 0.17084243E+04</rscale>
<asrwt>0</asrwt>
<pdfrwt beam="1">  1        1 0.11956979E+00 0.17084243E+04</pdfrwt>
<pdfrwt beam="2">  1       -2 0.14443861E+00 0.17084243E+04</pdfrwt>
<totfact> 0.63823012E+00</totfact>
</mgrwt>
</event>
<event>
12    5  0.5246737E-008  0.1382780E+04  0.7818608E-02  0.8966379E-01
         -2   -1    0    0    0  501 -0.00000000000E+00  0.00000000000E+00  0.36410654457E+03  0.36410654457E+03  0.00000000000E+00 0.  1.
          1   -1    0    0  501    0  0.00000000000E+00 -0.00000000000E+00 -0.13128574515E+04  0.13128574515E+04  0.00000000000E+00 0. -1.
        -24    2    1    2    0    0  0.15475094110E+03  0.28813162772E+02  0.15534446256E+03  0.23792431034E+03  0.87738379765E+02 0.  0.
        254    2    1    2    0    0 -0.15475094110E+03 -0.28813162772E+02 -0.11040953695E+04  0.14390396857E+04  0.90941221680E+03 0.  0.
         23    2    4    4    0    0 -0.41443706957E+03  0.53187528313E+02 -0.10672194279E+04  0.11498258785E+04  0.92494571602E+02 0.  0.
         23    2    4    4    0    0  0.25968612847E+03 -0.82000691084E+02 -0.36875941590E+02  0.28921380723E+03  0.90132084026E+02 0.  0.
          1    1    3    3  502    0  0.17128307905E+01 -0.17658787924E+02  0.50398675590E+01  0.18443612588E+02  0.00000000000E+00 0. -1.
         -2    1    3    3    0  502  0.15303811031E+03  0.46471950696E+02  0.15030459500E+03  0.21948069776E+03  0.00000000000E+00 0.  1.
         13    1    5    5    0    0 -0.13247839221E+03  0.42086079443E+02 -0.45390783990E+03  0.47471474551E+03  0.00000000000E+00 0. -1.
        -13    1    5    5    0    0 -0.28195867736E+03  0.11101448870E+02 -0.61331158802E+03  0.67511113300E+03  0.00000000000E+00 0.  1.
          2    1    6    6  503    0  0.39015254758E+02  0.19829244985E+02 -0.76734937085E+01  0.44432775810E+02  0.00000000000E+00 0. -1.
         -2    1    6    6    0  503  0.22067087371E+03 -0.10182993607E+03 -0.29202447881E+02  0.24478103142E+03  0.00000000000E+00 0.  1.
<mgrwt>
<rscale>  0 0.13827798E+04</rscale>
<asrwt>0</asrwt>
<pdfrwt beam="1">  1        1 0.20197807E+00 0.13827798E+04</pdfrwt>
<pdfrwt beam="2">  1       -2 0.56016392E-01 0.13827798E+04</pdfrwt>
<totfact> 0.22697522E+01</totfact>
</mgrwt>
</event>
<event>
12    5  0.5246737E-008  0.1648466E+04  0.7818608E-02  0.8791315E-01
         -2   -1    0    0    0  501 -0.00000000000E+00  0.00000000000E+00  0.35229819807E+03  0.35229819807E+03  0.00000000000E+00 0.  1.
          1   -1    0    0  501    0  0.00000000000E+00 -0.00000000000E+00 -0.19283662886E+04  0.19283662886E+04  0.00000000000E+00 0. -1.
        -24    2    1    2    0    0 -0.54808980310E+02 -0.34625937541E+03 -0.11780715711E+04  0.12316561021E+04  0.78895804418E+02 0.  0.
        254    2    1    2    0    0  0.54808980310E+02  0.34625937541E+03 -0.39799651947E+03  0.10490083846E+04  0.90505125931E+03 0.  0.
         23    2    4    4    0    0  0.50471473845E+02  0.64605061722E+03 -0.31459634593E+03  0.72648447449E+03  0.94234076186E+02 0.  0.
         23    2    4    4    0    0  0.43375064646E+01 -0.29979124182E+03 -0.83400173540E+02  0.32252391007E+03  0.84690501161E+02 0.  0.
          1    1    3    3  502    0 -0.12103053012E+02 -0.26675927550E+03 -0.81984071163E+03  0.86223302384E+03  0.00000000000E+00 0. -1.
         -2    1    3    3    0  502 -0.42705927298E+02 -0.79500099907E+02 -0.35823085947E+03  0.36942307831E+03  0.00000000000E+00 0.  1.
         13    1    5    5    0    0  0.76064437109E+02  0.39639741478E+03 -0.20359787669E+03  0.45207168064E+03  0.00000000000E+00 0. -1.
        -13    1    5    5    0    0 -0.25592963263E+02  0.24965320244E+03 -0.11099846924E+03  0.27441279385E+03  0.00000000000E+00 0.  1.
          2    1    6    6  503    0 -0.35548277497E+02 -0.75146448648E+02 -0.28198348867E+02  0.87782775396E+02  0.00000000000E+00 0. -1.
         -2    1    6    6    0  503  0.39885783961E+02 -0.22464479317E+03 -0.55201824673E+02  0.23474113467E+03  0.00000000000E+00 0.  1.
<mgrwt>
<rscale>  0 0.16484659E+04</rscale>
<asrwt>0</asrwt>
<pdfrwt beam="1">  1        1 0.29667173E+00 0.16484659E+04</pdfrwt>
<pdfrwt beam="2">  1       -2 0.54199724E-01 0.16484659E+04</pdfrwt>
<totfact> 0.89653425E+00</totfact>
</mgrwt>
</event>
<event>
12    5  0.5246737E-008  0.1141687E+04  0.7818608E-02  0.9165487E-01
         -2   -1    0    0    0  501 -0.00000000000E+00  0.00000000000E+00  0.31505020985E+03  0.31505020985E+03  0.00000000000E+00 0.  1.
          1   -1    0    0  501    0  0.00000000000E+00 -0.00000000000E+00 -0.10343183973E+04  0.10343183973E+04  0.00000000000E+00 0. -1.
        -24    2    1    2    0    0  0.18710947759E+03 -0.76485623572E+02 -0.11108136871E+03  0.24448971965E+03  0.81093435747E+02 0.  0.
        254    2    1    2    0    0 -0.18710947759E+03  0.76485623572E+02 -0.60818681870E+03  0.11048788875E+04  0.90000341239E+03 0.  0.
         23    2    4    4    0    0 -0.47748328283E+03  0.25741262631E+03 -0.47554615303E+03  0.72692167798E+03  0.89551307534E+02 0.  0.
         23    2    4    4    0    0  0.29037380524E+03 -0.18092700274E+03 -0.13264066567E+03  0.37795720950E+03  0.90590170169E+02 0.  0.
          3    1    3    3  502    0  0.25431393978E+02 -0.66852588577E+01 -0.52814874406E+02  0.58998808837E+02  0.00000000000E+00 0. -1.
         -4    1    3    3    0  502  0.16167808361E+03 -0.69800364714E+02 -0.58266494308E+02  0.18549091081E+03  0.00000000000E+00 0.  1.
         13    1    5    5    0    0 -0.78955593478E+02  0.82090114428E+01 -0.78477443780E+02  0.11162474095E+03  0.00000000000E+00 0.  1.
        -13    1    5    5    0    0 -0.39852768935E+03  0.24920361487E+03 -0.39706870925E+03  0.61529693702E+03  0.00000000000E+00 0. -1.
          1    1    6    6  503    0  0.21724515390E+03 -0.13852806763E+03 -0.55596600062E+02  0.26358388485E+03  0.00000000000E+00 0. -1.
         -1    1    6    6    0  503  0.73128651339E+02 -0.42398935111E+02 -0.77044065608E+02  0.11437332465E+03  0.00000000000E+00 0.  1.
<mgrwt>
<rscale>  0 0.11416869E+04</rscale>
<asrwt>0</asrwt>
<pdfrwt beam="1">  1        1 0.15912591E+00 0.11416869E+04</pdfrwt>
<pdfrwt beam="2">  1       -2 0.48469264E-01 0.11416869E+04</pdfrwt>
<totfact> 0.49974086E+01</totfact>
</mgrwt>
</event>
<event>
12    5  0.5246737E-008  0.2065104E+04  0.7818608E-02  0.8576773E-01
         -2   -1    0    0    0  501 -0.00000000000E+00  0.00000000000E+00  0.61484293461E+03  0.61484293461E+03  0.00000000000E+00 0.  1.
          1   -1    0    0  501    0  0.00000000000E+00 -0.00000000000E+00 -0.17340429959E+04  0.17340429959E+04  0.00000000000E+00 0. -1.
        -24    2    1    2    0    0 -0.22661897682E+03 -0.29669983240E+03  0.39573862511E+03  0.55084196924E+03  0.86202462066E+02 0.  0.
        254    2    1    2    0    0  0.22661897682E+03  0.29669983240E+03 -0.15149386864E+04  0.17980439612E+04  0.89360836605E+03 0.  0.
         23    2    4    4    0    0  0.20294585261E+03 -0.25481500092E+03 -0.26940408620E+03  0.43306423041E+03  0.94065733459E+02 0.  0.
         23    2    4    4    0    0  0.23673124209E+02  0.55151483333E+03 -0.12455346002E+04  0.13649797308E+04  0.84167672938E+02 0.  0.
          3    1    3    3  502    0 -0.81745555108E+02 -0.16391171303E+03  0.15401604043E+03  0.23931219392E+03  0.00000000000E+00 0. -1.
         -4    1    3    3    0  502 -0.14487342171E+03 -0.13278811937E+03  0.24172258468E+03  0.31152977532E+03  0.00000000000E+00 0.  1.
         13    1    5    5    0    0  0.19487333098E+03 -0.18764642885E+03 -0.22760973699E+03  0.35354347648E+03  0.00000000000E+00 0.  1.
        -13    1    5    5    0    0  0.80725216270E+01 -0.67168572072E+02 -0.41794349216E+02  0.79520753933E+02  0.00000000000E+00 0. -1.
          4    1    6    6  503    0  0.25616737463E+01  0.12592239006E+03 -0.37826420794E+03  0.39868135333E+03  0.00000000000E+00 0. -1.
         -4    1    6    6    0  503  0.21111450462E+02  0.42559244326E+03 -0.86727039223E+03  0.96629837749E+03  0.00000000000E+00 0.  1.
<mgrwt>
<rscale>  0 0.20651044E+04</rscale>
<asrwt>0</asrwt>
<pdfrwt beam="1">  1        1 0.26677584E+00 0.20651044E+04</pdfrwt>
<pdfrwt beam="2">  1       -2 0.94591222E-01 0.20651044E+04</pdfrwt>
<totfact> 0.34449655E+00</totfact>
</mgrwt>
</event>
<event>
12    5  0.5246737E-008  0.2578704E+04  0.7818608E-02  0.8375471E-01
         -2   -1    0    0    0  501 -0.00000000000E+00  0.00000000000E+00  0.18485912225E+04  0.18485912225E+04  0.00000000000E+00 0.  1.
          1   -1    0    0  501    0  0.00000000000E+00 -0.00000000000E+00 -0.89929459859E+03  0.89929459859E+03  0.00000000000E+00 0. -1.
        -24    2    1    2    0    0  0.61524051264E+03 -0.73197379150E+03  0.10690549706E+04  0.14364990627E+04  0.79652415381E+02 0.  0.
        254    2    1    2    0    0 -0.61524051264E+03  0.73197379150E+03 -0.11975834672E+03  0.13113867583E+04  0.88943051916E+03 0.  0.
         23    2    4    4    0    0 -0.31223142867E+03 -0.14789474228E+03  0.50861447153E+02  0.36083770273E+03  0.90860558328E+02 0.  0.
         23    2    4    4    0    0 -0.30300908397E+03  0.87986853379E+03 -0.17061979388E+03  0.95054905558E+03  0.91919808966E+02 0.  0.
          1    1    3    3  502    0  0.98944826382E+02 -0.12036359493E+03  0.13258298891E+03  0.20458671169E+03  0.00000000000E+00 0. -1.
         -2    1    3    3    0  502  0.51629568626E+03 -0.61161019657E+03  0.93647198168E+03  0.12319123511E+04  0.00000000000E+00 0.  1.
         13    1    5    5    0    0 -0.20258843849E+03 -0.55434977046E+02  0.55824396822E+02  0.21732803632E+03  0.00000000000E+00 0. -1.
        -13    1    5    5    0    0 -0.10964299018E+03 -0.92459765238E+02 -0.49629496690E+01  0.14350966641E+03  0.00000000000E+00 0.  1.
          1    1    6    6  503    0 -0.18745402898E+03  0.57022374426E+03 -0.15370640312E+03  0.61961261274E+03  0.00000000000E+00 0. -1.
         -1    1    6    6    0  503 -0.11555505499E+03  0.30964478953E+03 -0.16913390755E+02  0.33093644284E+03  0.00000000000E+00 0.  1.
<mgrwt>
<rscale>  0 0.25787036E+04</rscale>
<asrwt>0</asrwt>
<pdfrwt beam="1">  1        1 0.13835302E+00 0.25787036E+04</pdfrwt>
<pdfrwt beam="2">  1       -2 0.28439865E+00 0.25787036E+04</pdfrwt>
<totfact> 0.55822411E-01</totfact>
</mgrwt>
</event>
<event>
12    5  0.5246737E-008  0.1876075E+04  0.7818608E-02  0.8666858E-01
          1   -1    0    0  501    0  0.00000000000E+00  0.00000000000E+00  0.10301167421E+04  0.10301167421E+04  0.00000000000E+00 0. -1.
         -2   -1    0    0    0  501 -0.00000000000E+00 -0.00000000000E+00 -0.85418911151E+03  0.85418911151E+03  0.00000000000E+00 0.  1.
        -24    2    1    2    0    0 -0.20112039010E+03 -0.68286679270E+02 -0.62025090673E+03  0.66059917681E+03  0.81040750380E+02 0.  0.
        254    2    1    2    0    0  0.20112039010E+03  0.68286679270E+02  0.79617853732E+03  0.12237066768E+04  0.90467965915E+03 0.  0.
         23    2    4    4    0    0  0.78152074062E+02 -0.36551156252E+03  0.11482754138E+03  0.40166919084E+03  0.91903893240E+02 0.  0.
         23    2    4    4    0    0  0.12296831604E+03  0.43379824179E+03  0.68135099594E+03  0.82203748596E+03  0.90577741870E+02 0.  0.
          1    1    3    3  502    0 -0.12987339832E+02  0.14982237971E+02 -0.82141278250E+02  0.84500461792E+02  0.00000000000E+00 0. -1.
         -2    1    3    3    0  502 -0.18813305027E+03 -0.83268917241E+02 -0.53810962848E+03  0.57609871502E+03  0.00000000000E+00 0.  1.
         13    1    5    5    0    0  0.90043529943E+02 -0.20438701280E+03  0.66203213519E+02  0.23294796364E+03  0.00000000000E+00 0. -1.
        -13    1    5    5    0    0 -0.11891455882E+02 -0.16112454972E+03  0.48624327860E+02  0.16872122719E+03  0.00000000000E+00 0.  1.
          1    1    6    6  503    0  0.11664390485E+03  0.43565311352E+03  0.65763613156E+03  0.79742380037E+03  0.00000000000E+00 0. -1.
         -1    1    6    6    0  503  0.63244111906E+01 -0.18548717228E+01  0.23714864381E+02  0.24613685596E+02  0.00000000000E+00 0.  1.
<mgrwt>
<rscale>  0 0.18760752E+04</rscale>
<asrwt>0</asrwt>
<pdfrwt beam="1">  1        1 0.15847950E+00 0.18760752E+04</pdfrwt>
<pdfrwt beam="2">  1       -2 0.13141371E+00 0.18760752E+04</pdfrwt>
<totfact> 0.49788379E+00</totfact>
</mgrwt>
</event>
<event>
12    5  0.5246737E-008  0.1304515E+04  0.7818608E-02  0.9025993E-01
          1   -1    0    0  501    0  0.00000000000E+00  0.00000000000E+00  0.48979957774E+03  0.48979957774E+03  0.00000000000E+00 0. -1.
         -2   -1    0    0    0  501 -0.00000000000E+00 -0.00000000000E+00 -0.86859954087E+03  0.86859954087E+03  0.00000000000E+00 0.  1.
        -24    2    1    2    0    0 -0.30235223061E+03  0.16746925640E+03 -0.13214387990E+03  0.37855583534E+03  0.79872975951E+02 0.  0.
        254    2    1    2    0    0  0.30235223061E+03 -0.16746925640E+03 -0.24665608323E+03  0.97984328327E+03  0.88305764997E+03 0.  0.
         23    2    4    4    0    0 -0.24831522999E+03  0.13844244650E+03 -0.15283922252E+03  0.33611497015E+03  0.93737296652E+02 0.  0.
         23    2    4    4    0    0  0.55066746060E+03 -0.30591170289E+03 -0.93816860707E+02  0.64372831311E+03  0.93637148744E+02 0.  0.
          3    1    3    3  502    0 -0.25270248110E+03  0.13297098083E+03 -0.74704143340E+02  0.29516187885E+03  0.00000000000E+00 0. -1.
         -4    1    3    3    0  502 -0.49649749509E+02  0.34498275565E+02 -0.57439736557E+02  0.83393956489E+02  0.00000000000E+00 0.  1.
         13    1    5    5    0    0 -0.12027358132E+03  0.47695637015E+02 -0.20855444131E+02  0.13105555198E+03  0.00000000000E+00 0. -1.
        -13    1    5    5    0    0 -0.12804164867E+03  0.90746809481E+02 -0.13198377839E+03  0.20505941817E+03  0.00000000000E+00 0.  1.
          1    1    6    6  503    0  0.65789734157E+02 -0.66677682602E+02  0.61824778514E+01  0.93874520025E+02  0.00000000000E+00 0. -1.
         -1    1    6    6    0  503  0.48487772644E+03 -0.23923402029E+03 -0.99999338558E+02  0.54985379309E+03  0.00000000000E+00 0.  1.
<mgrwt>
<rscale>  0 0.13045148E+04</rscale>
<asrwt>0</asrwt>
<pdfrwt beam="1">  1        1 0.75353782E-01 0.13045148E+04</pdfrwt>
<pdfrwt beam="2">  1       -2 0.13363070E+00 0.13045148E+04</pdfrwt>
<totfact> 0.15849070E+01</totfact>
</mgrwt>
</event>
<event>
12    5  0.5246737E-008  0.1954552E+04  0.7818608E-02  0.8628169E-01
          1   -1    0    0  501    0  0.00000000000E+00  0.00000000000E+00  0.36543000202E+04  0.36543000202E+04  0.00000000000E+00 0. -1.
         -2   -1    0    0    0  501 -0.00000000000E+00 -0.00000000000E+00 -0.26135466350E+03  0.26135466350E+03  0.00000000000E+00 0.  1.
        -24    2    1    2    0    0  0.58632088834E+03 -0.40315432094E+03  0.19496055835E+04  0.20768713389E+04  0.78275389917E+02 0.  0.
        254    2    1    2    0    0 -0.58632088834E+03  0.40315432094E+03  0.14433397732E+04  0.18387833448E+04  0.88971281741E+03 0.  0.
         23    2    4    4    0    0 -0.65989821399E+03  0.17720994280E+03  0.47270360588E+03  0.83531616076E+03  0.86228607467E+02 0.  0.
         23    2    4    4    0    0  0.73577325652E+02  0.22594437813E+03  0.97063616732E+03  0.10034671840E+04  0.91363752152E+02 0.  0.
          3    1    3    3  502    0  0.48743279883E+03 -0.29777063041E+03  0.15721451914E+04  0.16726920172E+04  0.00000000000E+00 0. -1.
         -4    1    3    3    0  502  0.98888089515E+02 -0.10538369052E+03  0.37746039214E+03  0.40417932173E+03  0.00000000000E+00 0.  1.
         13    1    5    5    0    0 -0.47499338046E+03  0.87525021782E+02  0.32233001863E+03  0.58066856453E+03  0.00000000000E+00 0.  1.
        -13    1    5    5    0    0 -0.18490483353E+03  0.89684921020E+02  0.15037358725E+03  0.25464759623E+03  0.00000000000E+00 0. -1.
          3    1    6    6  503    0 -0.19351398497E+02  0.55410682600E+02  0.17997775432E+03  0.18930613413E+03  0.00000000000E+00 0. -1.
         -3    1    6    6    0  503  0.92928724149E+02  0.17053369553E+03  0.79065841299E+03  0.81416104987E+03  0.00000000000E+00 0.  1.
<mgrwt>
<rscale>  0 0.19545520E+04</rscale>
<asrwt>0</asrwt>
<pdfrwt beam="1">  1        1 0.56219997E+00 0.19545520E+04</pdfrwt>
<pdfrwt beam="2">  1       -2 0.40208412E-01 0.19545520E+04</pdfrwt>
<totfact> 0.90594852E-01</totfact>
</mgrwt>
</event>
<event>
12    5  0.5246737E-008  0.1970112E+04  0.7818608E-02  0.8620723E-01
         -2   -1    0    0    0  501 -0.00000000000E+00  0.00000000000E+00  0.97738453522E+03  0.97738453522E+03  0.00000000000E+00 0.  1.
          1   -1    0    0  501    0  0.00000000000E+00 -0.00000000000E+00 -0.99278792700E+03  0.99278792700E+03  0.00000000000E+00 0. -1.
        -24    2    1    2    0    0  0.15438311728E+03 -0.36159089535E+03  0.66404247198E+03  0.77576287660E+03  0.79205515119E+02 0.  0.
        254    2    1    2    0    0 -0.15438311728E+03  0.36159089535E+03 -0.67944586376E+03  0.11944095856E+04  0.90021411560E+03 0.  0.
         23    2    4    4    0    0  0.34001068318E+03  0.69422203994E+02 -0.43357776399E+03  0.56252266089E+03  0.89528540175E+02 0.  0.
         23    2    4    4    0    0 -0.49439380046E+03  0.29216869135E+03 -0.24586809976E+03  0.63188692472E+03  0.95090425418E+02 0.  0.
          1    1    3    3  502    0  0.91537496380E+02 -0.12385056719E+03  0.22753063558E+03  0.27475128092E+03  0.00000000000E+00 0. -1.
         -2    1    3    3    0  502  0.62845620901E+02 -0.23774032816E+03  0.43651183640E+03  0.50101159569E+03  0.00000000000E+00 0.  1.
         13    1    5    5    0    0  0.21260074729E+03  0.37725422217E+02 -0.33409544669E+03  0.39779649663E+03  0.00000000000E+00 0.  1.
        -13    1    5    5    0    0  0.12740993588E+03  0.31696781777E+02 -0.99482317303E+02  0.16472616426E+03  0.00000000000E+00 0. -1.
          2    1    6    6  503    0 -0.44132699633E+03  0.22676516662E+03 -0.22667805418E+03  0.54550426096E+03  0.00000000000E+00 0. -1.
         -2    1    6    6    0  503 -0.53066804133E+02  0.65403524730E+02 -0.19190045586E+02  0.86382663756E+02  0.00000000000E+00 0.  1.
<mgrwt>
<rscale>  0 0.19701122E+04</rscale>
<asrwt>0</asrwt>
<pdfrwt beam="1">  1        1 0.15273660E+00 0.19701122E+04</pdfrwt>
<pdfrwt beam="2">  1       -2 0.15036685E+00 0.19701122E+04</pdfrwt>
<totfact> 0.37199791E+00</totfact>
</mgrwt>
</event>
<event>
12    5  0.5246737E-008  0.1328881E+04  0.7818608E-02  0.9006971E-01
         -2   -1    0    0    0  501 -0.00000000000E+00  0.00000000000E+00  0.32508773902E+03  0.32508773902E+03  0.00000000000E+00 0.  1.
          1   -1    0    0  501    0  0.00000000000E+00 -0.00000000000E+00 -0.13580363421E+04  0.13580363421E+04  0.00000000000E+00 0. -1.
        -24    2    1    2    0    0  0.43619180383E+02  0.18018414598E+03  0.10062962746E+03  0.22656654964E+03  0.82686880058E+02 0.  0.
        254    2    1    2    0    0 -0.43619180383E+02 -0.18018414598E+03 -0.11335782305E+04  0.14565575315E+04  0.89565131517E+03 0.  0.
         23    2    4    4    0    0  0.27314852549E+03  0.23014465235E+03 -0.32364778029E+03  0.49025993457E+03  0.89611605142E+02 0.  0.
         23    2    4    4    0    0 -0.31676770587E+03 -0.41032879833E+03 -0.80993045024E+03  0.96629759689E+03  0.95037936160E+02 0.  0.
          3    1    3    3  502    0 -0.13918376145E+02  0.44252519974E+01  0.20127075820E+02  0.24867714627E+02  0.00000000000E+00 0. -1.
         -4    1    3    3    0  502  0.57537556528E+02  0.17575889399E+03  0.80502551641E+02  0.20169883502E+03  0.00000000000E+00 0.  1.
         13    1    5    5    0    0  0.27505107192E+03  0.22878834339E+03 -0.30115083762E+03  0.46764198404E+03  0.00000000000E+00 0.  1.
        -13    1    5    5    0    0 -0.19025464287E+01  0.13563089611E+01 -0.22496942668E+02  0.22617950533E+02  0.00000000000E+00 0. -1.
          2    1    6    6  503    0 -0.85426176892E+02 -0.82949144609E+02 -0.12467186997E+03  0.17239857149E+03  0.00000000000E+00 0. -1.
         -2    1    6    6    0  503 -0.23134152898E+03 -0.32737965372E+03 -0.68525858027E+03  0.79389902540E+03  0.00000000000E+00 0.  1.
<mgrwt>
<rscale>  0 0.13288807E+04</rscale>
<asrwt>0</asrwt>
<pdfrwt beam="1">  1        1 0.20892867E+00 0.13288807E+04</pdfrwt>
<pdfrwt beam="2">  1       -2 0.50013499E-01 0.13288807E+04</pdfrwt>
<totfact> 0.26752893E+01</totfact>
</mgrwt>
</event>
<event>
12    5  0.5246737E-008  0.1325735E+04  0.7818608E-02  0.9009402E-01
          1   -1    0    0  501    0  0.00000000000E+00  0.00000000000E+00  0.10795436051E+04  0.10795436051E+04  0.00000000000E+00 0. -1.
         -2   -1    0    0    0  501 -0.00000000000E+00 -0.00000000000E+00 -0.40701770366E+03  0.40701770366E+03  0.00000000000E+00 0.  1.
        -24    2    1    2    0    0  0.12375126825E+03  0.32473699428E+03  0.93026054256E+02  0.36820597939E+03  0.78443002504E+02 0.  0.
        254    2    1    2    0    0 -0.12375126825E+03 -0.32473699428E+03  0.57949984715E+03  0.11183553293E+04  0.89113976341E+03 0.  0.
         23    2    4    4    0    0  0.26717323783E+03  0.11772878860E+02  0.51915499967E+03  0.59140262128E+03  0.93354202308E+02 0.  0.
         23    2    4    4    0    0 -0.39092450608E+03 -0.33650987314E+03  0.60344847475E+02  0.52695270804E+03  0.89312886643E+02 0.  0.
          1    1    3    3  502    0  0.11249191054E+03  0.20060625775E+03  0.76990672027E+02  0.24253837668E+03  0.00000000000E+00 0. -1.
         -2    1    3    3    0  502  0.11259357716E+02  0.12413073653E+03  0.16035382229E+02  0.12566760271E+03  0.00000000000E+00 0.  1.
         13    1    5    5    0    0  0.71109441979E+01  0.23197381078E+01 -0.29472871966E+01  0.80394784715E+01  0.00000000000E+00 0. -1.
        -13    1    5    5    0    0  0.26006229363E+03  0.94531407523E+01  0.52210228687E+03  0.58336314281E+03  0.00000000000E+00 0.  1.
          2    1    6    6  503    0 -0.36257536159E+01 -0.28056866923E+02  0.53025366149E+01  0.28782820664E+02  0.00000000000E+00 0. -1.
         -2    1    6    6    0  503 -0.38729875247E+03 -0.30845300622E+03  0.55042310860E+02  0.49816988738E+03  0.00000000000E+00 0.  1.
<mgrwt>
<rscale>  0 0.13257351E+04</rscale>
<asrwt>0</asrwt>
<pdfrwt beam="1">  1        1 0.16608363E+00 0.13257351E+04</pdfrwt>
<pdfrwt beam="2">  1       -2 0.62618109E-01 0.13257351E+04</pdfrwt>
<totfact> 0.26720123E+01</totfact>
</mgrwt>
</event>
<event>
12    5  0.5246737E-008  0.1763694E+04  0.7818608E-02  0.8725849E-01
          1   -1    0    0  501    0  0.00000000000E+00  0.00000000000E+00  0.13078181436E+04  0.13078181436E+04  0.00000000000E+00 0. -1.
         -2   -1    0    0    0  501 -0.00000000000E+00 -0.00000000000E+00 -0.59461932237E+03  0.59461932237E+03  0.00000000000E+00 0.  1.
        -24    2    1    2    0    0  0.70833795038E+02 -0.33553999201E+03  0.85684344755E+03  0.92747950967E+03  0.91831554991E+02 0.  0.
        254    2    1    2    0    0 -0.70833795038E+02  0.33553999201E+03 -0.14364462637E+03  0.97495795625E+03  0.90127949328E+03 0.  0.
         23    2    4    4    0    0  0.23644216913E+02 -0.73851686304E+02  0.31942415085E+03  0.34272356873E+03  0.97028531123E+02 0.  0.
         23    2    4    4    0    0 -0.94478011952E+02  0.40939167831E+03 -0.46306877722E+03  0.63223438752E+03  0.93594803881E+02 0.  0.
          1    1    3    3  502    0  0.64652286706E+02 -0.19806216567E+03  0.61357570321E+03  0.64798432328E+03  0.00000000000E+00 0. -1.
         -2    1    3    3    0  502  0.61815083320E+01 -0.13747782633E+03  0.24326774435E+03  0.27949518640E+03  0.00000000000E+00 0.  1.
         13    1    5    5    0    0  0.51314808305E+02 -0.37997178353E+02  0.26156903781E+03  0.26924961774E+03  0.00000000000E+00 0.  1.
        -13    1    5    5    0    0 -0.27670591392E+02 -0.35854507951E+02  0.57855113040E+02  0.73473950984E+02  0.00000000000E+00 0. -1.
          1    1    6    6  503    0 -0.95662942663E+02  0.21074623036E+03 -0.26203930746E+03  0.34961403128E+03  0.00000000000E+00 0. -1.
         -1    1    6    6    0  503  0.11849307112E+01  0.19864544794E+03 -0.20102946976E+03  0.28262035624E+03  0.00000000000E+00 0.  1.
<mgrwt>
<rscale>  0 0.17636938E+04</rscale>
<asrwt>0</asrwt>
<pdfrwt beam="1">  1        1 0.20120279E+00 0.17636938E+04</pdfrwt>
<pdfrwt beam="2">  1       -2 0.91479897E-01 0.17636938E+04</pdfrwt>
<totfact> 0.75464074E+00</totfact>
</mgrwt>
</event>
<event>
12    5  0.5246737E-008  0.2670285E+04  0.7818608E-02  0.8344711E-01
          1   -1    0    0  501    0  0.00000000000E+00  0.00000000000E+00  0.96394174044E+03  0.96394174044E+03  0.00000000000E+00 0. -1.
         -2   -1    0    0    0  501 -0.00000000000E+00 -0.00000000000E+00 -0.18492876018E+04  0.18492876018E+04  0.00000000000E+00 0.  1.
        -24    2    1    2    0    0  0.97330399482E+03 -0.29130274518E+03 -0.10107413549E+04  0.14355131244E+04  0.83197885482E+02 0.  0.
        254    2    1    2    0    0 -0.97330399482E+03  0.29130274518E+03  0.12539549347E+03  0.13777162179E+04  0.92206290001E+03 0.  0.
         23    2    4    4    0    0 -0.25168897218E+03  0.52628153770E+03  0.16094826962E+03  0.61195822241E+03  0.90933628743E+02 0.  0.
         23    2    4    4    0    0 -0.72161502263E+03 -0.23497879252E+03 -0.35552776144E+02  0.76575799548E+03  0.95802055958E+02 0.  0.
          3    1    3    3  502    0  0.19748030679E+03 -0.30064436436E+02 -0.17383000245E+03  0.26480032413E+03  0.00000000000E+00 0. -1.
         -4    1    3    3    0  502  0.77582368803E+03 -0.26123830874E+03 -0.83691135242E+03  0.11707128003E+04  0.00000000000E+00 0.  1.
         13    1    5    5    0    0 -0.16050857167E+03  0.32255845654E+03  0.14440396134E+03  0.38814876467E+03  0.00000000000E+00 0.  1.
        -13    1    5    5    0    0 -0.91180400518E+02  0.20372308116E+03  0.16544308272E+02  0.22380945774E+03  0.00000000000E+00 0. -1.
          4    1    6    6  503    0 -0.52628584752E+03 -0.18482462718E+03  0.14458843480E+02  0.55798386559E+03  0.00000000000E+00 0. -1.
         -4    1    6    6    0  503 -0.19532917512E+03 -0.50154165347E+02 -0.50011619623E+02  0.20777412989E+03  0.00000000000E+00 0.  1.
<mgrwt>
<rscale>  0 0.26702850E+04</rscale>
<asrwt>0</asrwt>
<pdfrwt beam="1">  1        1 0.14829873E+00 0.26702850E+04</pdfrwt>
<pdfrwt beam="2">  1       -2 0.28450578E+00 0.26702850E+04</pdfrwt>
<totfact> 0.49038003E-01</totfact>
</mgrwt>
</event>
<event>
12    5  0.5246737E-008  0.1636255E+04  0.7818608E-02  0.8798579E-01
         -2   -1    0    0    0  501 -0.00000000000E+00  0.00000000000E+00  0.95928835854E+03  0.95928835854E+03  0.00000000000E+00 0.  1.
          1   -1    0    0  501    0  0.00000000000E+00 -0.00000000000E+00 -0.69773890703E+03  0.69773890703E+03  0.00000000000E+00 0. -1.
        -24    2    1    2    0    0  0.10241241297E+03  0.10557779877E+03  0.65057044195E+03  0.67190712105E+03  0.81131408642E+02 0.  0.
        254    2    1    2    0    0 -0.10241241297E+03 -0.10557779877E+03 -0.38902099043E+03  0.98512014452E+03  0.89302261685E+03 0.  0.
         23    2    4    4    0    0  0.32064936686E+03 -0.13451947963E+03  0.55749497542E+02  0.36392225151E+03  0.91759968389E+02 0.  0.
         23    2    4    4    0    0 -0.42306177983E+03  0.28941680866E+02 -0.44477048797E+03  0.62119789300E+03  0.90813792193E+02 0.  0.
          1    1    3    3  502    0  0.37666682553E+02  0.31542370808E+01  0.26672980504E+03  0.26939472356E+03  0.00000000000E+00 0. -1.
         -2    1    3    3    0  502  0.64745730416E+02  0.10242356169E+03  0.38384063690E+03  0.40251239749E+03  0.00000000000E+00 0.  1.
         13    1    5    5    0    0  0.20511940653E+03 -0.97565270072E+02  0.78865895888E+02  0.24044288801E+03  0.00000000000E+00 0.  1.
        -13    1    5    5    0    0  0.11552996033E+03 -0.36954209561E+02 -0.23116398346E+02  0.12347936350E+03  0.00000000000E+00 0. -1.
          3    1    6    6  503    0 -0.35027305017E+03  0.11827078274E+02 -0.31400619558E+03  0.47056453364E+03  0.00000000000E+00 0. -1.
         -3    1    6    6    0  503 -0.72788729659E+02  0.17114602592E+02 -0.13076429240E+03  0.15063335936E+03  0.00000000000E+00 0.  1.
<mgrwt>
<rscale>  0 0.16362553E+04</rscale>
<asrwt>0</asrwt>
<pdfrwt beam="1">  1        1 0.10734445E+00 0.16362553E+04</pdfrwt>
<pdfrwt beam="2">  1       -2 0.14758282E+00 0.16362553E+04</pdfrwt>
<totfact> 0.71697591E+00</totfact>
</mgrwt>
</event>
<event>
12    5  0.5246737E-008  0.1410143E+04  0.7818608E-02  0.8946509E-01
         -2   -1    0    0    0  501 -0.00000000000E+00  0.00000000000E+00  0.19482016379E+03  0.19482016379E+03  0.00000000000E+00 0.  1.
          1   -1    0    0  501    0  0.00000000000E+00 -0.00000000000E+00 -0.25517163979E+04  0.25517163979E+04  0.00000000000E+00 0. -1.
        -24    2    1    2    0    0 -0.36094571908E+03  0.12498558594E+03 -0.31860203158E+03  0.50381419605E+03  0.80114173565E+02 0.  0.
        254    2    1    2    0    0  0.36094571908E+03 -0.12498558594E+03 -0.20382942025E+04  0.22427223657E+04  0.85396554054E+03 0.  0.
         23    2    4    4    0    0  0.56930455215E+03 -0.28048555841E+03 -0.12019642153E+04  0.13622497549E+04  0.90700596733E+02 0.  0.
         23    2    4    4    0    0 -0.20835883307E+03  0.15549997248E+03 -0.83632998723E+03  0.88047261075E+03  0.90501524749E+02 0.  0.
          1    1    3    3  502    0 -0.11847053537E+02  0.18330541723E+02 -0.36316905205E+02  0.42370733307E+02  0.00000000000E+00 0. -1.
         -2    1    3    3    0  502 -0.34909866554E+03  0.10665504421E+03 -0.28228512637E+03  0.46144346275E+03  0.00000000000E+00 0.  1.
         13    1    5    5    0    0 -0.20305828257E+01 -0.60113077004E+01 -0.21000957705E+02  0.21938534851E+02  0.00000000000E+00 0.  1.
        -13    1    5    5    0    0  0.57133513498E+03 -0.27447425071E+03 -0.11809632576E+04  0.13403112201E+04  0.00000000000E+00 0. -1.
          1    1    6    6  503    0 -0.20135550008E+03  0.11050035186E+03 -0.70490771929E+03  0.74138334071E+03  0.00000000000E+00 0. -1.
         -1    1    6    6    0  503 -0.70033329892E+01  0.44999620615E+02 -0.13142226794E+03  0.13908927003E+03  0.00000000000E+00 0.  1.
<mgrwt>
<rscale>  0 0.14101430E+04</rscale>
<asrwt>0</asrwt>
<pdfrwt beam="1">  1        1 0.39257177E+00 0.14101430E+04</pdfrwt>
<pdfrwt beam="2">  1       -2 0.29972332E-01 0.14101430E+04</pdfrwt>
<totfact> 0.10999774E+01</totfact>
</mgrwt>
</event>
<event>
12    5  0.5246737E-008  0.1676356E+04  0.7818608E-02  0.8774966E-01
          1   -1    0    0  501    0  0.00000000000E+00  0.00000000000E+00  0.16334000433E+04  0.16334000433E+04  0.00000000000E+00 0. -1.
         -2   -1    0    0    0  501 -0.00000000000E+00 -0.00000000000E+00 -0.43011032791E+03  0.43011032791E+03  0.00000000000E+00 0.  1.
        -24    2    1    2    0    0 -0.25729662960E+03 -0.18406286892E+03 -0.18955456703E+03  0.37798279877E+03  0.82821295346E+02 0.  0.
        254    2    1    2    0    0  0.25729662960E+03  0.18406286892E+03  0.13928442824E+04  0.16855275725E+04  0.89493424735E+03 0.  0.
         23    2    4    4    0    0  0.46587599533E+03 -0.86508456416E+02  0.11787558460E+04  0.12737144038E+04  0.91426920291E+02 0.  0.
         23    2    4    4    0    0 -0.20857936572E+03  0.27057132533E+03  0.21408843640E+03  0.41181316869E+03  0.83916824347E+02 0.  0.
          3    1    3    3  502    0  0.25340644614E+01 -0.86857096040E+01 -0.19154923501E+02  0.21184289659E+02  0.00000000000E+00 0. -1.
         -4    1    3    3    0  502 -0.25983069407E+03 -0.17537715931E+03 -0.17039964352E+03  0.35679850911E+03  0.00000000000E+00 0.  1.
         13    1    5    5    0    0  0.26767263286E+03 -0.56355452306E+02  0.55901299550E+03  0.62235046760E+03  0.00000000000E+00 0. -1.
        -13    1    5    5    0    0  0.19820336247E+03 -0.30153004110E+02  0.61974285053E+03  0.65136393617E+03  0.00000000000E+00 0.  1.
          1    1    6    6  503    0 -0.19302159393E+03  0.20971902862E+03  0.15003171179E+03  0.32210079359E+03  0.00000000000E+00 0. -1.
         -1    1    6    6    0  503 -0.15557771795E+02  0.60852296716E+02  0.64056724614E+02  0.89712375106E+02  0.00000000000E+00 0.  1.
<mgrwt>
<rscale>  0 0.16763558E+04</rscale>
<asrwt>0</asrwt>
<pdfrwt beam="1">  1        1 0.25129231E+00 0.16763558E+04</pdfrwt>
<pdfrwt beam="2">  1       -2 0.66170820E-01 0.16763558E+04</pdfrwt>
<totfact> 0.93051763E+00</totfact>
</mgrwt>
</event>
<event>
12    5  0.5246737E-008  0.1654777E+04  0.7818608E-02  0.8787586E-01
         -2   -1    0    0    0  501 -0.00000000000E+00  0.00000000000E+00  0.14205794713E+04  0.14205794713E+04  0.00000000000E+00 0.  1.
          1   -1    0    0  501    0  0.00000000000E+00 -0.00000000000E+00 -0.48189598364E+03  0.48189598364E+03  0.00000000000E+00 0. -1.
        -24    2    1    2    0    0 -0.52549528300E+03  0.78989631858E+01  0.77821323429E+02  0.53765271892E+03  0.82502131516E+02 0.  0.
        254    2    1    2    0    0  0.52549528300E+03 -0.78989631858E+01  0.86086216419E+03  0.13648227360E+04  0.91948341412E+03 0.  0.
         23    2    4    4    0    0 -0.80745131068E+02  0.33428316484E+03  0.31862890097E+03  0.47773548089E+03  0.91879283216E+02 0.  0.
         23    2    4    4    0    0  0.60624041407E+03 -0.34218212802E+03  0.54223326322E+03  0.88708725509E+03  0.91054038959E+02 0.  0.
          1    1    3    3  502    0 -0.47885894190E+03  0.56675336722E+01  0.94398172657E+02  0.48810759283E+03  0.00000000000E+00 0. -1.
         -2    1    3    3    0  502 -0.46636341094E+02  0.22314295136E+01 -0.16576849228E+02  0.49545126084E+02  0.00000000000E+00 0.  1.
         13    1    5    5    0    0 -0.66981356309E+02  0.15883129989E+03  0.10866673525E+03  0.20377031989E+03  0.00000000000E+00 0.  1.
        -13    1    5    5    0    0 -0.13763774759E+02  0.17545186495E+03  0.20996216572E+03  0.27396516100E+03  0.00000000000E+00 0. -1.
          2    1    6    6  503    0  0.37913890269E+03 -0.23917804623E+03  0.29975019588E+03  0.53926118465E+03  0.00000000000E+00 0. -1.
         -2    1    6    6    0  503  0.22710151137E+03 -0.10300408180E+03  0.24248306734E+03  0.34782607044E+03  0.00000000000E+00 0.  1.
<mgrwt>
<rscale>  0 0.16547768E+04</rscale>
<asrwt>0</asrwt>
<pdfrwt beam="1">  1        1 0.74137844E-01 0.16547768E+04</pdfrwt>
<pdfrwt beam="2">  1       -2 0.21855069E+00 0.16547768E+04</pdfrwt>
<totfact> 0.39309048E+00</totfact>
</mgrwt>
</event>
<event>
12    5  0.5246737E-008  0.1168521E+04  0.7818608E-02  0.9140865E-01
          1   -1    0    0  501    0  0.00000000000E+00  0.00000000000E+00  0.26953869137E+04  0.26953869137E+04  0.00000000000E+00 0. -1.
         -2   -1    0    0    0  501 -0.00000000000E+00 -0.00000000000E+00 -0.12664618830E+03  0.12664618830E+03  0.00000000000E+00 0.  1.
        -24    2    1    2    0    0 -0.13899850331E+03 -0.17799690619E+03  0.45710907818E+03  0.51607965454E+03  0.79912564342E+02 0.  0.
        254    2    1    2    0    0  0.13899850331E+03  0.17799690619E+03  0.21116316472E+04  0.23059534474E+04  0.89857086855E+03 0.  0.
         23    2    4    4    0    0  0.22298147306E+02  0.51667983379E+03  0.93499980212E+03  0.10725294262E+04  0.92948813845E+02 0.  0.
         23    2    4    4    0    0  0.11670035600E+03 -0.33868292760E+03  0.11766318451E+04  0.12334240213E+04  0.92451170342E+02 0.  0.
          1    1    3    3  502    0 -0.34553727340E+02 -0.59250241232E+02  0.70424545992E+02  0.98306499466E+02  0.00000000000E+00 0. -1.
         -2    1    3    3    0  502 -0.10444477597E+03 -0.11874666495E+03  0.38668453219E+03  0.41777315507E+03  0.00000000000E+00 0.  1.
         13    1    5    5    0    0 -0.36582320546E+02  0.19717369638E+03  0.36167212371E+03  0.41354861599E+03  0.00000000000E+00 0. -1.
        -13    1    5    5    0    0  0.58880467851E+02  0.31950613741E+03  0.57332767841E+03  0.65898081017E+03  0.00000000000E+00 0.  1.
          2    1    6    6  503    0  0.66591052923E+02 -0.90954800894E+02  0.27968193799E+03  0.30154457477E+03  0.00000000000E+00 0. -1.
         -2    1    6    6    0  503  0.50109303078E+02 -0.24772812671E+03  0.89694990710E+03  0.93187944653E+03  0.00000000000E+00 0.  1.
<mgrwt>
<rscale>  0 0.11685213E+04</rscale>
<asrwt>0</asrwt>
<pdfrwt beam="1">  1        1 0.41467487E+00 0.11685213E+04</pdfrwt>
<pdfrwt beam="2">  1       -2 0.19484031E-01 0.11685213E+04</pdfrwt>
<totfact> 0.19455972E+01</totfact>
</mgrwt>
</event>
<event>
12    5  0.5246737E-008  0.1491493E+04  0.7818608E-02  0.8890130E-01
          1   -1    0    0  501    0  0.00000000000E+00  0.00000000000E+00  0.86825538622E+03  0.86825538622E+03  0.00000000000E+00 0. -1.
         -2   -1    0    0    0  501 -0.00000000000E+00 -0.00000000000E+00 -0.64052361901E+03  0.64052361901E+03  0.00000000000E+00 0.  1.
        -24    2    1    2    0    0 -0.30056636906E+02  0.39723070198E+03  0.31477388389E+03  0.51409213784E+03  0.80700038377E+02 0.  0.
        254    2    1    2    0    0  0.30056636906E+02 -0.39723070198E+03 -0.87042116686E+02  0.99468686738E+03  0.90726512225E+03 0.  0.
         23    2    4    4    0    0 -0.31327508500E+03  0.11826386551E+03 -0.12116340597E+03  0.36781934072E+03  0.92102528147E+02 0.  0.
         23    2    4    4    0    0  0.34333172191E+03 -0.51549456750E+03  0.34121289283E+02  0.62686752667E+03  0.90483773253E+02 0.  0.
          1    1    3    3  502    0  0.21069597070E+02  0.18469641719E+03  0.16995823452E+03  0.25187793854E+03  0.00000000000E+00 0. -1.
         -2    1    3    3    0  502 -0.51126233976E+02  0.21253428479E+03  0.14481564937E+03  0.26221419930E+03  0.00000000000E+00 0.  1.
         13    1    5    5    0    0 -0.12359305632E+03  0.29251460365E+01 -0.60762160278E+02  0.13775282274E+03  0.00000000000E+00 0. -1.
        -13    1    5    5    0    0 -0.18968202868E+03  0.11533871948E+03 -0.60401245691E+02  0.23006651798E+03  0.00000000000E+00 0.  1.
          2    1    6    6  503    0  0.34029843385E+03 -0.46965449658E+03  0.30427987719E+02  0.58077898780E+03  0.00000000000E+00 0. -1.
         -2    1    6    6    0  503  0.30332880577E+01 -0.45840070920E+02  0.36933015644E+01  0.46088538867E+02  0.00000000000E+00 0.  1.
<mgrwt>
<rscale>  0 0.14914933E+04</rscale>
<asrwt>0</asrwt>
<pdfrwt beam="1">  1        1 0.13357775E+00 0.14914933E+04</pdfrwt>
<pdfrwt beam="2">  1       -2 0.98542095E-01 0.14914933E+04</pdfrwt>
<totfact> 0.14024713E+01</totfact>
</mgrwt>
</event>
<event>
12    5  0.5246737E-008  0.1117298E+04  0.7818608E-02  0.9188494E-01
         -2   -1    0    0    0  501 -0.00000000000E+00  0.00000000000E+00  0.14942703940E+04  0.14942703940E+04  0.00000000000E+00 0.  1.
          1   -1    0    0  501    0  0.00000000000E+00 -0.00000000000E+00 -0.20885708321E+03  0.20885708321E+03  0.00000000000E+00 0. -1.
        -24    2    1    2    0    0 -0.29726080595E+02 -0.87356362903E+02  0.45623003448E+03  0.47226315297E+03  0.79823976874E+02 0.  0.
        254    2    1    2    0    0  0.29726080595E+02  0.87356362903E+02  0.82918327635E+03  0.12308643243E+04  0.90496812374E+03 0.  0.
         23    2    4    4    0    0 -0.94264299524E+01  0.24054091651E+02  0.10099973733E+04  0.10149126803E+04  0.96361806024E+02 0.  0.
         23    2    4    4    0    0  0.39152510547E+02  0.63302271252E+02 -0.18081409693E+03  0.21595164399E+03  0.91658487137E+02 0.  0.
          1    1    3    3  502    0 -0.24116891584E+02 -0.55250880501E+02  0.11839401740E+03  0.13285867534E+03  0.00000000000E+00 0. -1.
         -2    1    3    3    0  502 -0.56091890104E+01 -0.32105482402E+02  0.33783601708E+03  0.33940447763E+03  0.00000000000E+00 0.  1.
         13    1    5    5    0    0  0.43567370528E+02  0.14191377016E+02  0.47856389864E+03  0.48075244777E+03  0.00000000000E+00 0. -1.
        -13    1    5    5    0    0 -0.52993800481E+02  0.98627146355E+01  0.53143347465E+03  0.53416023252E+03  0.00000000000E+00 0.  1.
          2    1    6    6  503    0 -0.14255093376E+02  0.80381788718E+01 -0.11075507948E+03  0.11195761537E+03  0.00000000000E+00 0. -1.
         -2    1    6    6    0  503  0.53407603923E+02  0.55264092380E+02 -0.70059017445E+02  0.10399402862E+03  0.00000000000E+00 0.  1.
<mgrwt>
<rscale>  0 0.11172984E+04</rscale>
<asrwt>0</asrwt>
<pdfrwt beam="1">  1        1 0.32131860E-01 0.11172984E+04</pdfrwt>
<pdfrwt beam="2">  1       -2 0.22988775E+00 0.11172984E+04</pdfrwt>
<totfact> 0.10464895E+01</totfact>
</mgrwt>
</event>
<event>
12    5  0.5246737E-008  0.1912245E+04  0.7818608E-02  0.8648785E-01
         -2   -1    0    0    0  501 -0.00000000000E+00  0.00000000000E+00  0.64578433076E+03  0.64578433076E+03  0.00000000000E+00 0.  1.
          1   -1    0    0  501    0  0.00000000000E+00 -0.00000000000E+00 -0.14155971152E+04  0.14155971152E+04  0.00000000000E+00 0. -1.
        -24    2    1    2    0    0  0.46803638565E+03  0.40346223090E+03 -0.70513425099E+03  0.94093745366E+03  0.79430156199E+02 0.  0.
        254    2    1    2    0    0 -0.46803638565E+03 -0.40346223090E+03 -0.64678533485E+02  0.11204439923E+04  0.93240098522E+03 0.  0.
         23    2    4    4    0    0 -0.51142616300E+03 -0.43464358105E+03  0.29987685124E+03  0.74074273026E+03  0.91114783496E+02 0.  0.
         23    2    4    4    0    0  0.43389777352E+02  0.31181350155E+02 -0.36455538473E+03  0.37970126209E+03  0.91746773917E+02 0.  0.
          1    1    3    3  502    0  0.38239357110E+03  0.31271965576E+03 -0.51584270216E+03  0.71422133802E+03  0.00000000000E+00 0. -1.
         -2    1    3    3    0  502  0.85642814545E+02  0.90742575143E+02 -0.18929154884E+03  0.22671611563E+03  0.00000000000E+00 0.  1.
         13    1    5    5    0    0 -0.38436860004E+03 -0.36665546235E+03  0.25884157388E+03  0.59090981472E+03  0.00000000000E+00 0. -1.
        -13    1    5    5    0    0 -0.12705756296E+03 -0.67988118702E+02  0.41035277363E+02  0.14983291554E+03  0.00000000000E+00 0.  1.
          4    1    6    6  503    0 -0.20330874460E+02  0.17336283625E+02 -0.21359499998E+03  0.21525964602E+03  0.00000000000E+00 0. -1.
         -4    1    6    6    0  503  0.63720651813E+02  0.13845066529E+02 -0.15096038474E+03  0.16444161607E+03  0.00000000000E+00 0.  1.
<mgrwt>
<rscale>  0 0.19122452E+04</rscale>
<asrwt>0</asrwt>
<pdfrwt beam="1">  1        1 0.21778417E+00 0.19122452E+04</pdfrwt>
<pdfrwt beam="2">  1       -2 0.99351437E-01 0.19122452E+04</pdfrwt>
<totfact> 0.51542587E+00</totfact>
</mgrwt>
</event>
<event>
12    5  0.5246737E-008  0.1118889E+04  0.7818608E-02  0.9186975E-01
          1   -1    0    0  501    0  0.00000000000E+00  0.00000000000E+00  0.82440634853E+03  0.82440634853E+03  0.00000000000E+00 0. -1.
         -2   -1    0    0    0  501 -0.00000000000E+00 -0.00000000000E+00 -0.37964045669E+03  0.37964045669E+03  0.00000000000E+00 0.  1.
        -24    2    1    2    0    0  0.98855131171E+02 -0.29703220056E+02  0.24219259931E+03  0.27348339523E+03  0.74035762072E+02 0.  0.
        254    2    1    2    0    0 -0.98855131171E+02  0.29703220056E+02  0.20257329254E+03  0.93056340999E+03  0.90236229028E+03 0.  0.
         23    2    4    4    0    0 -0.15048454486E+03 -0.30457523743E+03 -0.19390004557E+03  0.40180420188E+03  0.91857038250E+02 0.  0.
         23    2    4    4    0    0  0.51629413690E+02  0.33427845749E+03  0.39647333811E+03  0.52875920811E+03  0.89372864062E+02 0.  0.
          1    1    3    3  502    0  0.93896226150E+02 -0.44072195109E+02  0.23456724301E+03  0.25647738918E+03  0.00000000000E+00 0. -1.
         -2    1    3    3    0  502  0.49589050205E+01  0.14368975053E+02  0.76253562983E+01  0.17006006049E+02  0.00000000000E+00 0.  1.
         13    1    5    5    0    0 -0.16132823416E+03 -0.25972817740E+03 -0.16672366505E+03  0.34825609221E+03  0.00000000000E+00 0.  1.
        -13    1    5    5    0    0  0.10843689298E+02 -0.44847060025E+02 -0.27176380527E+02  0.53548109669E+02  0.00000000000E+00 0. -1.
          2    1    6    6  503    0  0.99958898067E+01  0.81535295528E+02  0.16135788629E+03  0.18106432476E+03  0.00000000000E+00 0. -1.
         -2    1    6    6    0  503  0.41633523883E+02  0.25274316196E+03  0.23511545182E+03  0.34769488335E+03  0.00000000000E+00 0.  1.
<mgrwt>
<rscale>  0 0.11188887E+04</rscale>
<asrwt>0</asrwt>
<pdfrwt beam="1">  1        1 0.12683175E+00 0.11188887E+04</pdfrwt>
<pdfrwt beam="2">  1       -2 0.58406224E-01 0.11188887E+04</pdfrwt>
<totfact> 0.50353613E+01</totfact>
</mgrwt>
</event>
<event>
12    5  0.5246737E-008  0.2377915E+04  0.7818608E-02  0.8447819E-01
          1   -1    0    0  501    0  0.00000000000E+00  0.00000000000E+00  0.12633008622E+04  0.12633008622E+04  0.00000000000E+00 0. -1.
         -2   -1    0    0    0  501 -0.00000000000E+00 -0.00000000000E+00 -0.11189888321E+04  0.11189888321E+04  0.00000000000E+00 0.  1.
        -24    2    1    2    0    0 -0.14458914335E+03 -0.54162098675E+03  0.90788145266E+03  0.10704094502E+04  0.85254590989E+02 0.  0.
        254    2    1    2    0    0  0.14458914335E+03  0.54162098675E+03 -0.76356942254E+03  0.13118802441E+04  0.90759693594E+03 0.  0.
         23    2    4    4    0    0  0.47187001253E+03  0.51639426692E+03 -0.63295377317E+03  0.94771603362E+03  0.90613761491E+02 0.  0.
         23    2    4    4    0    0 -0.32728086918E+03  0.25226719829E+02 -0.13061564937E+03  0.36416421047E+03  0.88351398416E+02 0.  0.
          3    1    3    3  502    0 -0.91795136911E+02 -0.41260196537E+03  0.73982517708E+03  0.85206104337E+03  0.00000000000E+00 0. -1.
         -4    1    3    3    0  502 -0.52794006438E+02 -0.12901902138E+03  0.16805627558E+03  0.21834840681E+03  0.00000000000E+00 0.  1.
         13    1    5    5    0    0  0.12687169926E+03  0.84066986401E+02 -0.14150268434E+03  0.20781408987E+03  0.00000000000E+00 0.  1.
        -13    1    5    5    0    0  0.34499831328E+03  0.43232728052E+03 -0.49145108883E+03  0.73990194374E+03  0.00000000000E+00 0. -1.
          2    1    6    6  503    0 -0.30883139229E+03  0.62589306363E+00 -0.11391529844E+03  0.32917155987E+03  0.00000000000E+00 0. -1.
         -2    1    6    6    0  503 -0.18449476890E+02  0.24600826765E+02 -0.16700350932E+02  0.34992650604E+02  0.00000000000E+00 0.  1.
<mgrwt>
<rscale>  0 0.23779147E+04</rscale>
<asrwt>0</asrwt>
<pdfrwt beam="1">  1        1 0.19435398E+00 0.23779147E+04</pdfrwt>
<pdfrwt beam="2">  1       -2 0.17215213E+00 0.23779147E+04</pdfrwt>
<totfact> 0.15582760E+00</totfact>
</mgrwt>
</event>
<event>
12    5  0.5246737E-008  0.1195487E+04  0.7818608E-02  0.9116816E-01
          1   -1    0    0  501    0  0.00000000000E+00  0.00000000000E+00  0.21708021603E+03  0.21708021603E+03  0.00000000000E+00 0. -1.
         -2   -1    0    0    0  501 -0.00000000000E+00 -0.00000000000E+00 -0.16459240833E+04  0.16459240833E+04  0.00000000000E+00 0.  1.
        -24    2    1    2    0    0 -0.12098964943E+03  0.32210320167E+02 -0.67638848211E+03  0.69254045951E+03  0.80217886645E+02 0.  0.
        254    2    1    2    0    0  0.12098964943E+03 -0.32210320167E+02 -0.75245538516E+03  0.11704638398E+04  0.88776150720E+03 0.  0.
         23    2    4    4    0    0 -0.24238303494E+03  0.78356064203E+02 -0.73095147636E+03  0.77946109297E+03  0.91544121857E+02 0.  0.
         23    2    4    4    0    0  0.36337268437E+03 -0.11056638437E+03 -0.21503908803E+02  0.39100274684E+03  0.90311111380E+02 0.  0.
          3    1    3    3  502    0 -0.27221526492E+02  0.29759356498E+02 -0.89030449599E+02  0.97739714341E+02  0.00000000000E+00 0. -1.
         -4    1    3    3    0  502 -0.93768122939E+02  0.24509636688E+01 -0.58735803251E+03  0.59480074517E+03  0.00000000000E+00 0.  1.
         13    1    5    5    0    0 -0.14852743225E+03  0.72026711074E+02 -0.34859287358E+03  0.38570096804E+03  0.00000000000E+00 0.  1.
        -13    1    5    5    0    0 -0.93855602695E+02  0.63293531289E+01 -0.38235860278E+03  0.39376012493E+03  0.00000000000E+00 0. -1.
          2    1    6    6  503    0  0.22199906018E+03 -0.63689023116E+02  0.31109819480E+02  0.23304011512E+03  0.00000000000E+00 0. -1.
         -2    1    6    6    0  503  0.14137362419E+03 -0.46877361254E+02 -0.52613728282E+02  0.15796263172E+03  0.00000000000E+00 0.  1.
<mgrwt>
<rscale>  0 0.11954874E+04</rscale>
<asrwt>0</asrwt>
<pdfrwt beam="1">  1        1 0.33396958E-01 0.11954874E+04</pdfrwt>
<pdfrwt beam="2">  1       -2 0.25321908E+00 0.11954874E+04</pdfrwt>
<totfact> 0.71068816E+00</totfact>
</mgrwt>
</event>
<event>
12    5  0.5246737E-008  0.1535624E+04  0.7818608E-02  0.8861103E-01
         -2   -1    0    0    0  501 -0.00000000000E+00  0.00000000000E+00  0.37687943770E+03  0.37687943770E+03  0.00000000000E+00 0.  1.
          1   -1    0    0  501    0  0.00000000000E+00 -0.00000000000E+00 -0.15642540857E+04  0.15642540857E+04  0.00000000000E+00 0. -1.
        -24    2    1    2    0    0 -0.39970679036E+03 -0.28548732987E+03 -0.55641926169E+03  0.74630428299E+03  0.78097082161E+02 0.  0.
        254    2    1    2    0    0  0.39970679036E+03  0.28548732987E+03 -0.63095538634E+03  0.11948292404E+04  0.88783088508E+03 0.  0.
         23    2    4    4    0    0  0.19156412335E+03  0.22305722864E+03  0.17571335453E+03  0.35403787303E+03  0.89533747716E+02 0.  0.
         23    2    4    4    0    0  0.20814266701E+03  0.62430101230E+02 -0.80666874086E+03  0.84079136741E+03  0.94840806953E+02 0.  0.
          1    1    3    3  502    0 -0.41469075088E+02 -0.63519361115E+02 -0.89501845307E+02  0.11732422486E+03  0.00000000000E+00 0. -1.
         -2    1    3    3    0  502 -0.35823771528E+03 -0.22196796875E+03 -0.46691741639E+03  0.62898005813E+03  0.00000000000E+00 0.  1.
         13    1    5    5    0    0  0.14264341197E+03  0.98193383209E+02  0.95089715049E+02  0.19756299601E+03  0.00000000000E+00 0. -1.
        -13    1    5    5    0    0  0.48920711384E+02  0.12486384543E+03  0.80623639478E+02  0.15647487702E+03  0.00000000000E+00 0.  1.
          2    1    6    6  503    0  0.39976902592E+02  0.45358543242E+02 -0.31848067949E+03  0.32416892725E+03  0.00000000000E+00 0. -1.
         -2    1    6    6    0  503  0.16816576442E+03  0.17071557988E+02 -0.48818806137E+03  0.51662244017E+03  0.00000000000E+00 0.  1.
<mgrwt>
<rscale>  0 0.15356239E+04</rscale>
<asrwt>0</asrwt>
<pdfrwt beam="1">  1        1 0.24065448E+00 0.15356239E+04</pdfrwt>
<pdfrwt beam="2">  1       -2 0.57981451E-01 0.15356239E+04</pdfrwt>
<totfact> 0.13915380E+01</totfact>
</mgrwt>
</event>
<event>
12    5  0.5246737E-008  0.1163125E+04  0.7818608E-02  0.9145760E-01
          1   -1    0    0  501    0  0.00000000000E+00  0.00000000000E+00  0.51067618640E+03  0.51067618640E+03  0.00000000000E+00 0. -1.
         -2   -1    0    0    0  501 -0.00000000000E+00 -0.00000000000E+00 -0.66228813518E+03  0.66228813518E+03  0.00000000000E+00 0.  1.
        -24    2    1    2    0    0 -0.57921692902E+02 -0.15703343012E+03 -0.10376286257E+03  0.21330373961E+03  0.81959337458E+02 0.  0.
        254    2    1    2    0    0  0.57921692902E+02  0.15703343012E+03 -0.47849086216E+02  0.95966058197E+03  0.94373962344E+03 0.  0.
         23    2    4    4    0    0 -0.11175712078E+03  0.46187463669E+03 -0.25171997130E+03  0.54530609933E+03  0.90432095789E+02 0.  0.
         23    2    4    4    0    0  0.16967881368E+03 -0.30484120657E+03  0.20387088508E+03  0.41435448264E+03  0.91690994462E+02 0.  0.
          1    1    3    3  502    0 -0.24238107630E+02 -0.39325919027E+02  0.87589606060E+01  0.47018434254E+02  0.00000000000E+00 0. -1.
         -2    1    3    3    0  502 -0.33683585272E+02 -0.11770751110E+03 -0.11252182318E+03  0.16628530535E+03  0.00000000000E+00 0.  1.
         13    1    5    5    0    0 -0.23149314538E+02  0.26238057975E+03 -0.16247904458E+03  0.30948166233E+03  0.00000000000E+00 0.  1.
        -13    1    5    5    0    0 -0.88607806240E+02  0.19949405695E+03 -0.89240926725E+02  0.23582443700E+03  0.00000000000E+00 0. -1.
          1    1    6    6  503    0  0.96121654187E+02 -0.89542237832E+02  0.54728995746E+02  0.14231109491E+03  0.00000000000E+00 0. -1.
         -1    1    6    6    0  503  0.73557159493E+02 -0.21529896874E+03  0.14914188934E+03  0.27204338773E+03  0.00000000000E+00 0.  1.
<mgrwt>
<rscale>  0 0.11631247E+04</rscale>
<asrwt>0</asrwt>
<pdfrwt beam="1">  1        1 0.78565568E-01 0.11631247E+04</pdfrwt>
<pdfrwt beam="2">  1       -2 0.10189048E+00 0.11631247E+04</pdfrwt>
<totfact> 0.29510474E+01</totfact>
</mgrwt>
</event>
<event>
12    5  0.5246737E-008  0.1668360E+04  0.7818608E-02  0.8779618E-01
         -2   -1    0    0    0  501 -0.00000000000E+00  0.00000000000E+00  0.11397032041E+04  0.11397032041E+04  0.00000000000E+00 0.  1.
          1   -1    0    0  501    0  0.00000000000E+00 -0.00000000000E+00 -0.61055931016E+03  0.61055931016E+03  0.00000000000E+00 0. -1.
        -24    2    1    2    0    0 -0.29701761257E+03  0.31130328541E+03 -0.21946371584E+03  0.48924457509E+03  0.77889241896E+02 0.  0.
        254    2    1    2    0    0  0.29701761257E+03 -0.31130328541E+03  0.74860760976E+03  0.12610179392E+04  0.91903410808E+03 0.  0.
         23    2    4    4    0    0  0.16017702834E+03  0.31250644388E+03  0.34192010987E+03  0.49850014198E+03  0.90972919859E+02 0.  0.
         23    2    4    4    0    0  0.13684058423E+03 -0.62380972929E+03  0.40668749989E+03  0.76251779718E+03  0.90414294193E+02 0.  0.
          1    1    3    3  502    0 -0.26956210708E+03  0.28427893407E+03 -0.17132028146E+03  0.42758493983E+03  0.00000000000E+00 0. -1.
         -2    1    3    3    0  502 -0.27455505497E+02  0.27024351335E+02 -0.48143434375E+02  0.61659635262E+02  0.00000000000E+00 0.  1.
         13    1    5    5    0    0  0.14924986941E+03  0.31742718672E+03  0.32997793038E+03  0.48158174480E+03  0.00000000000E+00 0. -1.
        -13    1    5    5    0    0  0.10927158924E+02 -0.49207428358E+01  0.11942179488E+02  0.16918397180E+02  0.00000000000E+00 0.  1.
          2    1    6    6  503    0  0.11989948990E+03 -0.59513150275E+03  0.36214626603E+03  0.70689978869E+03  0.00000000000E+00 0. -1.
         -2    1    6    6    0  503  0.16941094329E+02 -0.28678226540E+02  0.44541233866E+02  0.55618008494E+02  0.00000000000E+00 0.  1.
<mgrwt>
<rscale>  0 0.16683602E+04</rscale>
<asrwt>0</asrwt>
<pdfrwt beam="1">  1        1 0.93932202E-01 0.16683602E+04</pdfrwt>
<pdfrwt beam="2">  1       -2 0.17533895E+00 0.16683602E+04</pdfrwt>
<totfact> 0.54446459E+00</totfact>
</mgrwt>
</event>
<event>
12    5  0.5246737E-008  0.2154159E+04  0.7818608E-02  0.8537754E-01
         -2   -1    0    0    0  501 -0.00000000000E+00  0.00000000000E+00  0.52320798976E+03  0.52320798976E+03  0.00000000000E+00 0.  1.
          1   -1    0    0  501    0  0.00000000000E+00 -0.00000000000E+00 -0.22172835596E+04  0.22172835596E+04  0.00000000000E+00 0. -1.
        -24    2    1    2    0    0  0.19656674176E+03 -0.76735573448E+03 -0.17719389079E+03  0.81559716798E+03  0.79547207794E+02 0.  0.
        254    2    1    2    0    0 -0.19656674176E+03  0.76735573448E+03 -0.15168816790E+04  0.19248943814E+04  0.88137111595E+03 0.  0.
         23    2    4    4    0    0  0.62975703493E+02  0.21245759330E+03  0.45908273880E+02  0.24381223528E+03  0.90734052477E+02 0.  0.
         23    2    4    4    0    0 -0.25954244526E+03  0.55489814118E+03 -0.15627899529E+04  0.16810821461E+04  0.91926693612E+02 0.  0.
          3    1    3    3  502    0  0.10509308152E+03 -0.26624533499E+03 -0.50057107367E+02  0.29058019235E+03  0.00000000000E+00 0. -1.
         -4    1    3    3    0  502  0.91473660240E+02 -0.50111039949E+03 -0.12713678343E+03  0.52501697563E+03  0.00000000000E+00 0.  1.
         13    1    5    5    0    0  0.37759300048E+02  0.11164192661E+03  0.70080482182E+02  0.13711658725E+03  0.00000000000E+00 0. -1.
        -13    1    5    5    0    0  0.25216403445E+02  0.10081566669E+03 -0.24172208302E+02  0.10669564802E+03  0.00000000000E+00 0.  1.
          3    1    6    6  503    0 -0.24844536876E+03  0.54888593939E+03 -0.15505859969E+04  0.16635257165E+04  0.00000000000E+00 0. -1.
         -3    1    6    6    0  503 -0.11097076501E+02  0.60122017927E+01 -0.12203956028E+02  0.17556429591E+02  0.00000000000E+00 0.  1.
<mgrwt>
<rscale>  0 0.21541592E+04</rscale>
<asrwt>0</asrwt>
<pdfrwt beam="1">  1        1 0.34112056E+00 0.21541592E+04</pdfrwt>
<pdfrwt beam="2">  1       -2 0.80493535E-01 0.21541592E+04</pdfrwt>
<totfact> 0.23242875E+00</totfact>
</mgrwt>
</event>
<event>
12    5  0.5246737E-008  0.1909180E+04  0.7818608E-02  0.8650301E-01
         -2   -1    0    0    0  501 -0.00000000000E+00  0.00000000000E+00  0.65596879580E+03  0.65596879580E+03  0.00000000000E+00 0.  1.
          1   -1    0    0  501    0  0.00000000000E+00 -0.00000000000E+00 -0.13891540645E+04  0.13891540645E+04  0.00000000000E+00 0. -1.
        -24    2    1    2    0    0  0.70369588953E+03 -0.13756638336E+03 -0.60770490737E+03  0.94336285406E+03  0.80720537667E+02 0.  0.
        254    2    1    2    0    0 -0.70369588953E+03  0.13756638336E+03 -0.12548036136E+03  0.11017600063E+04  0.82705342967E+03 0.  0.
         23    2    4    4    0    0 -0.31589994424E+03 -0.10658519576E+03 -0.42394148079E+03  0.54723815339E+03  0.92682461485E+02 0.  0.
         23    2    4    4    0    0 -0.38779594529E+03  0.24415157912E+03  0.29846111943E+03  0.55452185288E+03  0.91759232425E+02 0.  0.
          3    1    3    3  502    0  0.65440771221E+03 -0.11707232722E+03 -0.53595008230E+03  0.85393083697E+03  0.00000000000E+00 0. -1.
         -4    1    3    3    0  502  0.49288177322E+02 -0.20494056143E+02 -0.71754825069E+02  0.89432017094E+02  0.00000000000E+00 0.  1.
         13    1    5    5    0    0 -0.11991193309E+03  0.49152831271E+01 -0.13289242639E+03  0.17906263903E+03  0.00000000000E+00 0.  1.
        -13    1    5    5    0    0 -0.19598801115E+03 -0.11150047889E+03 -0.29104905440E+03  0.36817551436E+03  0.00000000000E+00 0. -1.
          3    1    6    6  503    0 -0.29220108787E+03  0.22202299202E+03  0.21246661297E+03  0.42404922635E+03  0.00000000000E+00 0. -1.
         -3    1    6    6    0  503 -0.95594857423E+02  0.22128587098E+02  0.85994506457E+02  0.13047262653E+03  0.00000000000E+00 0.  1.
<mgrwt>
<rscale>  0 0.19091796E+04</rscale>
<asrwt>0</asrwt>
<pdfrwt beam="1">  1        1 0.21371601E+00 0.19091796E+04</pdfrwt>
<pdfrwt beam="2">  1       -2 0.10091828E+00 0.19091796E+04</pdfrwt>
<totfact> 0.51845790E+00</totfact>
</mgrwt>
</event>
<event>
12    5  0.5246737E-008  0.1442259E+04  0.7818608E-02  0.8923785E-01
          1   -1    0    0  501    0  0.00000000000E+00  0.00000000000E+00  0.14572882563E+04  0.14572882563E+04  0.00000000000E+00 0. -1.
         -2   -1    0    0    0  501 -0.00000000000E+00 -0.00000000000E+00 -0.35684612227E+03  0.35684612227E+03  0.00000000000E+00 0.  1.
        -24    2    1    2    0    0  0.12062604506E+03 -0.18079716624E+03 -0.13771795848E+03  0.26932879171E+03  0.79583314138E+02 0.  0.
        254    2    1    2    0    0 -0.12062604506E+03  0.18079716624E+03  0.12381600926E+04  0.15448055869E+04  0.89785612905E+03 0.  0.
         23    2    4    4    0    0 -0.21047989043E+03 -0.31391696635E+03  0.71125882258E+03  0.80994034083E+03  0.85256067053E+02 0.  0.
         23    2    4    4    0    0  0.89853845371E+02  0.49471413259E+03  0.52690126998E+03  0.73486524608E+03  0.97909116414E+02 0.  0.
          1    1    3    3  502    0  0.84165413727E+02 -0.89720086430E+02 -0.36383375760E+02  0.12828585584E+03  0.00000000000E+00 0. -1.
         -2    1    3    3    0  502  0.36460631332E+02 -0.91077079808E+02 -0.10133458272E+03  0.14104293587E+03  0.00000000000E+00 0.  1.
         13    1    5    5    0    0 -0.13627010039E+03 -0.12757166815E+03  0.32980528989E+03  0.37896648930E+03  0.00000000000E+00 0.  1.
        -13    1    5    5    0    0 -0.74209790039E+02 -0.18634529820E+03  0.38145353269E+03  0.43097385153E+03  0.00000000000E+00 0. -1.
          3    1    6    6  503    0  0.46509805701E+01  0.23501582643E+02  0.66094478974E+02  0.70302461961E+02  0.00000000000E+00 0. -1.
         -3    1    6    6    0  503  0.85202864801E+02  0.47121254995E+03  0.46080679101E+03  0.66456278412E+03  0.00000000000E+00 0.  1.
<mgrwt>
<rscale>  0 0.14422589E+04</rscale>
<asrwt>0</asrwt>
<pdfrwt beam="1">  1        1 0.22419819E+00 0.14422589E+04</pdfrwt>
<pdfrwt beam="2">  1       -2 0.54899404E-01 0.14422589E+04</pdfrwt>
<totfact> 0.18640324E+01</totfact>
</mgrwt>
</event>
<event>
12    5  0.5246737E-008  0.1662129E+04  0.7818608E-02  0.8783263E-01
          1   -1    0    0  501    0  0.00000000000E+00  0.00000000000E+00  0.31790127053E+04  0.31790127053E+04  0.00000000000E+00 0. -1.
         -2   -1    0    0    0  501 -0.00000000000E+00 -0.00000000000E+00 -0.21725867497E+03  0.21725867497E+03  0.00000000000E+00 0.  1.
        -24    2    1    2    0    0 -0.15842152237E+03  0.12772925089E+03  0.21436187355E+04  0.21547769679E+04  0.80934281837E+02 0.  0.
        254    2    1    2    0    0  0.15842152237E+03 -0.12772925089E+03  0.81813529491E+03  0.12414944124E+04  0.91134563972E+03 0.  0.
         23    2    4    4    0    0 -0.34161312388E+03 -0.17126983533E+02  0.55557756595E+03  0.65879116831E+03  0.91359245215E+02 0.  0.
         23    2    4    4    0    0  0.50003464625E+03 -0.11060226736E+03  0.26255772895E+03  0.58270324412E+03  0.91318128935E+02 0.  0.
          1    1    3    3  502    0 -0.90243952907E+01  0.20690804224E+02  0.57260770306E+03  0.57305246767E+03  0.00000000000E+00 0. -1.
         -2    1    3    3    0  502 -0.14939712708E+03  0.10703844667E+03  0.15710110324E+04  0.15817245002E+04  0.00000000000E+00 0.  1.
         13    1    5    5    0    0 -0.30759968997E+03 -0.16218742000E+02  0.43170134303E+03  0.53032694297E+03  0.00000000000E+00 0.  1.
        -13    1    5    5    0    0 -0.34013433914E+02 -0.90824153369E+00  0.12387622292E+03  0.12846422535E+03  0.00000000000E+00 0. -1.
          4    1    6    6  503    0  0.75616013697E+02  0.26098229574E+01  0.10842879455E+02  0.76434028666E+02  0.00000000000E+00 0. -1.
         -4    1    6    6    0  503  0.42441863256E+03 -0.11321209032E+03  0.25171484950E+03  0.50626921545E+03  0.00000000000E+00 0.  1.
<mgrwt>
<rscale>  0 0.16621289E+04</rscale>
<asrwt>0</asrwt>
<pdfrwt beam="1">  1        1 0.48907884E+00 0.16621289E+04</pdfrwt>
<pdfrwt beam="2">  1       -2 0.33424414E-01 0.16621289E+04</pdfrwt>
<totfact> 0.31086961E+00</totfact>
</mgrwt>
</event>
<event>
12    5  0.5246737E-008  0.2055823E+04  0.7818608E-02  0.8580957E-01
          1   -1    0    0  501    0  0.00000000000E+00  0.00000000000E+00  0.80524061821E+03  0.80524061821E+03  0.00000000000E+00 0. -1.
         -2   -1    0    0    0  501 -0.00000000000E+00 -0.00000000000E+00 -0.13121566099E+04  0.13121566099E+04  0.00000000000E+00 0.  1.
        -24    2    1    2    0    0 -0.53129873569E+02  0.53272050794E+03 -0.86325284373E+03  0.10185312802E+04  0.74743383694E+02 0.  0.
        254    2    1    2    0    0  0.53129873569E+02 -0.53272050794E+03  0.35633685204E+03  0.10988659479E+04  0.89101991919E+03 0.  0.
         23    2    4    4    0    0 -0.11032435410E+03 -0.15165770517E+02 -0.24488168378E+03  0.28296258280E+03  0.87745772036E+02 0.  0.
         23    2    4    4    0    0  0.16345422767E+03 -0.51755473742E+03  0.60121853582E+03  0.81590336515E+03  0.98256718249E+02 0.  0.
          3    1    3    3  502    0 -0.20098230611E+02  0.28054711545E+02 -0.63859603804E+02  0.72588254640E+02  0.00000000000E+00 0. -1.
         -4    1    3    3    0  502 -0.33031642959E+02  0.50466579640E+03 -0.79939323992E+03  0.94594302551E+03  0.00000000000E+00 0.  1.
         13    1    5    5    0    0 -0.10207397900E+03 -0.39904788544E+02 -0.15828507533E+03  0.19252442549E+03  0.00000000000E+00 0.  1.
        -13    1    5    5    0    0 -0.82503750964E+01  0.24739018027E+02 -0.86596608451E+02  0.90438157308E+02  0.00000000000E+00 0. -1.
          1    1    6    6  503    0  0.11049297197E+03 -0.38376784273E+03  0.50033252077E+03  0.64017113752E+03  0.00000000000E+00 0. -1.
         -1    1    6    6    0  503  0.52961255696E+02 -0.13378689469E+03  0.10088601504E+03  0.17573222763E+03  0.00000000000E+00 0.  1.
<mgrwt>
<rscale>  0 0.20558228E+04</rscale>
<asrwt>0</asrwt>
<pdfrwt beam="1">  1        1 0.12388317E+00 0.20558228E+04</pdfrwt>
<pdfrwt beam="2">  1       -2 0.20187025E+00 0.20558228E+04</pdfrwt>
<totfact> 0.22873112E+00</totfact>
</mgrwt>
</event>
<event>
12    5  0.5246737E-008  0.1527841E+04  0.7818608E-02  0.8866147E-01
         -2   -1    0    0    0  501 -0.00000000000E+00  0.00000000000E+00  0.32345954865E+03  0.32345954865E+03  0.00000000000E+00 0.  1.
          1   -1    0    0  501    0  0.00000000000E+00 -0.00000000000E+00 -0.18041645530E+04  0.18041645530E+04  0.00000000000E+00 0. -1.
        -24    2    1    2    0    0 -0.21482192730E+03 -0.32164324946E+03 -0.89202566104E+03  0.97561052179E+03  0.80642853995E+02 0.  0.
        254    2    1    2    0    0  0.21482192730E+03  0.32164324946E+03 -0.58867934335E+03  0.11520135799E+04  0.91158602370E+03 0.  0.
         23    2    4    4    0    0  0.34706712423E+03 -0.20063678479E+03 -0.10740704609E+03  0.42359531503E+03  0.84770332272E+02 0.  0.
         23    2    4    4    0    0 -0.13224519693E+03  0.52228003425E+03 -0.48127229726E+03  0.72841826486E+03  0.93300151050E+02 0.  0.
          1    1    3    3  502    0 -0.20110233613E+03 -0.26681100171E+03 -0.70376339028E+03  0.77904632066E+03  0.00000000000E+00 0. -1.
         -2    1    3    3    0  502 -0.13719591169E+02 -0.54832247753E+02 -0.18826227076E+03  0.19656420113E+03  0.00000000000E+00 0.  1.
         13    1    5    5    0    0  0.13832260569E+03 -0.41741142232E+02 -0.62577563942E+02  0.15745290632E+03  0.00000000000E+00 0.  1.
        -13    1    5    5    0    0  0.20874451855E+03 -0.15889564256E+03 -0.44829482145E+02  0.26614240871E+03  0.00000000000E+00 0. -1.
          4    1    6    6  503    0 -0.26206683212E+02  0.16391213571E+03 -0.20436211289E+03  0.26328283587E+03  0.00000000000E+00 0. -1.
         -4    1    6    6    0  503 -0.10603851372E+03  0.35836789855E+03 -0.27691018437E+03  0.46513542900E+03  0.00000000000E+00 0.  1.
<mgrwt>
<rscale>  0 0.15278406E+04</rscale>
<asrwt>0</asrwt>
<pdfrwt beam="1">  1        1 0.27756378E+00 0.15278406E+04</pdfrwt>
<pdfrwt beam="2">  1       -2 0.49763008E-01 0.15278406E+04</pdfrwt>
<totfact> 0.13105540E+01</totfact>
</mgrwt>
</event>
<event>
12    5  0.5246737E-008  0.1438627E+04  0.7818608E-02  0.8926323E-01
         -2   -1    0    0    0  501 -0.00000000000E+00  0.00000000000E+00  0.43155531811E+03  0.43155531811E+03  0.00000000000E+00 0.  1.
          1   -1    0    0  501    0  0.00000000000E+00 -0.00000000000E+00 -0.11989465825E+04  0.11989465825E+04  0.00000000000E+00 0. -1.
        -24    2    1    2    0    0 -0.69226810841E+02  0.21348176581E+03  0.20761947438E+03  0.31626398487E+03  0.80933591987E+02 0.  0.
        254    2    1    2    0    0  0.69226810841E+02 -0.21348176581E+03 -0.97501073882E+03  0.13142379158E+04  0.85217870355E+03 0.  0.
         23    2    4    4    0    0  0.97264366238E+02 -0.49428618303E+03 -0.34524816459E+03  0.61741515579E+03  0.90697253370E+02 0.  0.
         23    2    4    4    0    0 -0.28037555397E+02  0.28080441722E+03 -0.62976257423E+03  0.69682275999E+03  0.96560000500E+02 0.  0.
          1    1    3    3  502    0  0.64776555308E+01  0.28193247356E+02  0.63009740115E+02  0.69332867869E+02  0.00000000000E+00 0. -1.
         -2    1    3    3    0  502 -0.75704466372E+02  0.18528851845E+03  0.14460973427E+03  0.24693111700E+03  0.00000000000E+00 0.  1.
         13    1    5    5    0    0  0.79400302211E+01 -0.20653157743E+02 -0.43400990226E+02  0.48715941511E+02  0.00000000000E+00 0.  1.
        -13    1    5    5    0    0  0.89324336016E+02 -0.47363302529E+03 -0.30184717436E+03  0.56869921428E+03  0.00000000000E+00 0. -1.
          2    1    6    6  503    0  0.24783661756E+02  0.15759550103E+03 -0.40259037386E+03  0.43304685770E+03  0.00000000000E+00 0. -1.
         -2    1    6    6    0  503 -0.52821217152E+02  0.12320891620E+03 -0.22717220036E+03  0.26377590229E+03  0.00000000000E+00 0.  1.
<mgrwt>
<rscale>  0 0.14386268E+04</rscale>
<asrwt>0</asrwt>
<pdfrwt beam="1">  1        1 0.18445332E+00 0.14386268E+04</pdfrwt>
<pdfrwt beam="2">  1       -2 0.66393126E-01 0.14386268E+04</pdfrwt>
<totfact> 0.19033898E+01</totfact>
</mgrwt>
</event>
<event>
12    5  0.5246737E-008  0.1587953E+04  0.7818608E-02  0.8827983E-01
         -2   -1    0    0    0  501 -0.00000000000E+00  0.00000000000E+00  0.38450242394E+03  0.38450242394E+03  0.00000000000E+00 0.  1.
          1   -1    0    0  501    0  0.00000000000E+00 -0.00000000000E+00 -0.16395174480E+04  0.16395174480E+04  0.00000000000E+00 0. -1.
        -24    2    1    2    0    0 -0.13201032888E+03 -0.46310757535E+03 -0.14163129691E+03  0.50816615210E+03  0.79234213539E+02 0.  0.
        254    2    1    2    0    0  0.13201032888E+03  0.46310757535E+03 -0.11133837271E+04  0.15158537198E+04  0.90900705321E+03 0.  0.
         23    2    4    4    0    0  0.50481134170E+03  0.15330335674E+03 -0.59290203126E+03  0.79900687642E+03  0.92427052271E+02 0.  0.
         23    2    4    4    0    0 -0.37280101282E+03  0.30980421860E+03 -0.52048169586E+03  0.71684684340E+03  0.89492749098E+02 0.  0.
          1    1    3    3  502    0  0.66318129304E+01 -0.24990595356E+02  0.38860914617E+01  0.26145984507E+02  0.00000000000E+00 0. -1.
         -2    1    3    3    0  502 -0.13864214181E+03 -0.43811697999E+03 -0.14551738838E+03  0.48202016759E+03  0.00000000000E+00 0.  1.
         13    1    5    5    0    0  0.47655512616E+03  0.13661998317E+03 -0.58179114612E+03  0.76436296730E+03  0.00000000000E+00 0.  1.
        -13    1    5    5    0    0  0.28256215545E+02  0.16683373573E+02 -0.11110885138E+02  0.34643909122E+02  0.00000000000E+00 0. -1.
          2    1    6    6  503    0 -0.16106894401E+03  0.16700414537E+03 -0.30142803511E+03  0.38038460753E+03  0.00000000000E+00 0. -1.
         -2    1    6    6    0  503 -0.21173206881E+03  0.14280007324E+03 -0.21905366075E+03  0.33646223587E+03  0.00000000000E+00 0.  1.
<mgrwt>
<rscale>  0 0.15879527E+04</rscale>
<asrwt>0</asrwt>
<pdfrwt beam="1">  1        1 0.25223346E+00 0.15879527E+04</pdfrwt>
<pdfrwt beam="2">  1       -2 0.59154217E-01 0.15879527E+04</pdfrwt>
<totfact> 0.11793938E+01</totfact>
</mgrwt>
</event>
<event>
12    5  0.5246737E-008  0.2252129E+04  0.7818608E-02  0.8497039E-01
          1   -1    0    0  501    0  0.00000000000E+00  0.00000000000E+00  0.16221155293E+04  0.16221155293E+04  0.00000000000E+00 0. -1.
         -2   -1    0    0    0  501 -0.00000000000E+00 -0.00000000000E+00 -0.78170844249E+03  0.78170844249E+03  0.00000000000E+00 0.  1.
        -24    2    1    2    0    0  0.38252305094E+03  0.19741890757E+03 -0.54550808463E+03  0.69917403805E+03  0.77247365786E+02 0.  0.
        254    2    1    2    0    0 -0.38252305094E+03 -0.19741890757E+03  0.13859151715E+04  0.17046499338E+04  0.89429996344E+03 0.  0.
         23    2    4    4    0    0  0.20210747543E+03  0.17054719708E+03  0.27123251120E+03  0.38936531151E+03  0.90024955562E+02 0.  0.
         23    2    4    4    0    0 -0.58463052637E+03 -0.36796610464E+03  0.11146826603E+04  0.13152846223E+04  0.10131287124E+03 0.  0.
          3    1    3    3  502    0  0.83888487179E+02  0.50701372186E+02 -0.17959330740E+03  0.20460123041E+03  0.00000000000E+00 0. -1.
         -4    1    3    3    0  502  0.29863456376E+03  0.14671753538E+03 -0.36591477723E+03  0.49457280764E+03  0.00000000000E+00 0.  1.
         13    1    5    5    0    0  0.15670702642E+02  0.57391579017E+02  0.77132358294E+02  0.97410291856E+02  0.00000000000E+00 0. -1.
        -13    1    5    5    0    0  0.18643677279E+03  0.11315561806E+03  0.19410015290E+03  0.29195501966E+03  0.00000000000E+00 0.  1.
          3    1    6    6  503    0 -0.30703267228E+02 -0.42352402927E+02  0.54160251457E+02  0.75297738944E+02  0.00000000000E+00 0. -1.
         -3    1    6    6    0  503 -0.55392725914E+03 -0.32561370172E+03  0.10605224088E+04  0.12399868833E+04  0.00000000000E+00 0.  1.
<mgrwt>
<rscale>  0 0.22521291E+04</rscale>
<asrwt>0</asrwt>
<pdfrwt beam="1">  1        1 0.24955624E+00 0.22521291E+04</pdfrwt>
<pdfrwt beam="2">  1       -2 0.12026284E+00 0.22521291E+04</pdfrwt>
<totfact> 0.22680195E+00</totfact>
</mgrwt>
</event>
<event>
12    5  0.5246737E-008  0.1107442E+04  0.7818608E-02  0.9197969E-01
         -2   -1    0    0    0  501 -0.00000000000E+00  0.00000000000E+00  0.12697545455E+03  0.12697545455E+03  0.00000000000E+00 0.  1.
          1   -1    0    0  501    0  0.00000000000E+00 -0.00000000000E+00 -0.24146943036E+04  0.24146943036E+04  0.00000000000E+00 0. -1.
        -24    2    1    2    0    0  0.14755819635E+03  0.58899393552E+02 -0.18169066893E+03  0.25454214333E+03  0.80855696678E+02 0.  0.
        254    2    1    2    0    0 -0.14755819635E+03 -0.58899393552E+02 -0.21060281801E+04  0.22871276148E+04  0.87769896383E+03 0.  0.
         23    2    4    4    0    0 -0.50097029130E+03 -0.31933345271E+02 -0.10006110777E+04  0.11227056128E+04  0.85172724361E+02 0.  0.
         23    2    4    4    0    0  0.35341209495E+03 -0.26966048280E+02 -0.11054171024E+04  0.11644220020E+04  0.91128215979E+02 0.  0.
          3    1    3    3  502    0  0.11798583870E+03  0.35368982039E+02 -0.17815012134E+03  0.21658506126E+03  0.00000000000E+00 0. -1.
         -4    1    3    3    0  502  0.29572357644E+02  0.23530411513E+02 -0.35405475914E+01  0.37957082078E+02  0.00000000000E+00 0.  1.
         13    1    5    5    0    0 -0.91441836659E+02 -0.32393262643E+02 -0.14988043691E+03  0.17853593006E+03  0.00000000000E+00 0.  1.
        -13    1    5    5    0    0 -0.40952845464E+03  0.45991737191E+00 -0.85073064080E+03  0.94416968278E+03  0.00000000000E+00 0. -1.
          1    1    6    6  503    0  0.34137768115E+03 -0.37147057061E+02 -0.98849426565E+03  0.10464413688E+04  0.00000000000E+00 0. -1.
         -1    1    6    6    0  503  0.12034413802E+02  0.10181008780E+02 -0.11692283676E+03  0.11798063321E+03  0.00000000000E+00 0.  1.
<mgrwt>
<rscale>  0 0.11074419E+04</rscale>
<asrwt>0</asrwt>
<pdfrwt beam="1">  1        1 0.37149142E+00 0.11074419E+04</pdfrwt>
<pdfrwt beam="2">  1       -2 0.19534686E-01 0.11074419E+04</pdfrwt>
<totfact> 0.30459322E+01</totfact>
</mgrwt>
</event>
<event>
12    5  0.5246737E-008  0.1650821E+04  0.7818608E-02  0.8789921E-01
         -2   -1    0    0    0  501 -0.00000000000E+00  0.00000000000E+00  0.71925242724E+03  0.71925242724E+03  0.00000000000E+00 0.  1.
          1   -1    0    0  501    0  0.00000000000E+00 -0.00000000000E+00 -0.94723731098E+03  0.94723731098E+03  0.00000000000E+00 0. -1.
        -24    2    1    2    0    0  0.32781683562E+03 -0.34214850112E+03  0.25301277675E+03  0.54287098297E+03  0.78510919113E+02 0.  0.
        254    2    1    2    0    0 -0.32781683562E+03  0.34214850112E+03 -0.48099766049E+03  0.11236187552E+04  0.89812631807E+03 0.  0.
         23    2    4    4    0    0 -0.74744143223E+02 -0.89991472282E+02 -0.58584850521E+03  0.60397531357E+03  0.88783761509E+02 0.  0.
         23    2    4    4    0    0 -0.25307269239E+03  0.43213997341E+03  0.10485084472E+03  0.51964344168E+03  0.90801225697E+02 0.  0.
          1    1    3    3  502    0  0.13785935708E+03 -0.18857973816E+03  0.15102803735E+03  0.27816719441E+03  0.00000000000E+00 0. -1.
         -2    1    3    3    0  502  0.18995747853E+03 -0.15356876296E+03  0.10198473940E+03  0.26470378856E+03  0.00000000000E+00 0.  1.
         13    1    5    5    0    0  0.20414245377E+02 -0.21257550385E+02 -0.11848946600E+03  0.12209987067E+03  0.00000000000E+00 0.  1.
        -13    1    5    5    0    0 -0.95158388600E+02 -0.68733921897E+02 -0.46735903921E+03  0.48187544290E+03  0.00000000000E+00 0. -1.
          4    1    6    6  503    0 -0.25520362368E+03  0.40453774318E+03  0.85561369592E+02  0.48590165997E+03  0.00000000000E+00 0. -1.
         -4    1    6    6    0  503  0.21309312920E+01  0.27602230230E+02  0.19289475132E+02  0.33741781706E+02  0.00000000000E+00 0.  1.
<mgrwt>
<rscale>  0 0.16508213E+04</rscale>
<asrwt>0</asrwt>
<pdfrwt beam="1">  1        1 0.14572882E+00 0.16508213E+04</pdfrwt>
<pdfrwt beam="2">  1       -2 0.11065422E+00 0.16508213E+04</pdfrwt>
<totfact> 0.90358425E+00</totfact>
</mgrwt>
</event>
<event>
12    5  0.5246737E-008  0.2613720E+04  0.7818608E-02  0.8363556E-01
          1   -1    0    0  501    0  0.00000000000E+00  0.00000000000E+00  0.23129969228E+04  0.23129969228E+04  0.00000000000E+00 0. -1.
         -2   -1    0    0    0  501 -0.00000000000E+00 -0.00000000000E+00 -0.73838509897E+03  0.73838509897E+03  0.00000000000E+00 0.  1.
        -24    2    1    2    0    0 -0.64805594984E+03 -0.24831986849E+03  0.17517950456E+04  0.18859438543E+04  0.79743767818E+02 0.  0.
        254    2    1    2    0    0  0.64805594984E+03  0.24831986849E+03 -0.17718322170E+03  0.11654381676E+04  0.91935464166E+03 0.  0.
         23    2    4    4    0    0  0.37427230885E+02  0.77404880550E+02 -0.45111642927E+03  0.46842586929E+03  0.92327943315E+02 0.  0.
         23    2    4    4    0    0  0.61062871896E+03  0.17091498794E+03  0.27393320756E+03  0.69701229827E+03  0.93313322838E+02 0.  0.
          1    1    3    3  502    0 -0.64081788016E+03 -0.25374513455E+03  0.17221234927E+04  0.18549241152E+04  0.00000000000E+00 0. -1.
         -2    1    3    3    0  502 -0.72380696791E+01  0.54252660682E+01  0.29671552844E+02  0.31019739082E+02  0.00000000000E+00 0.  1.
         13    1    5    5    0    0  0.64631702672E+00 -0.29463275575E+01  0.38872005148E+01  0.49202540196E+01  0.00000000000E+00 0. -1.
        -13    1    5    5    0    0  0.36780913858E+02  0.80351208107E+02 -0.45500362978E+03  0.46350561527E+03  0.00000000000E+00 0.  1.
          2    1    6    6  503    0  0.15432074434E+03  0.80381666655E+02  0.52149445783E+02  0.18164710062E+03  0.00000000000E+00 0. -1.
         -2    1    6    6    0  503  0.45630797462E+03  0.90533321281E+02  0.22178376178E+03  0.51536519765E+03  0.00000000000E+00 0.  1.
<mgrwt>
<rscale>  0 0.26137195E+04</rscale>
<asrwt>0</asrwt>
<pdfrwt beam="1">  1        1 0.35584568E+00 0.26137195E+04</pdfrwt>
<pdfrwt beam="2">  1       -2 0.11359771E+00 0.26137195E+04</pdfrwt>
<totfact> 0.85661525E-01</totfact>
</mgrwt>
</event>
<event>
12    5  0.5246737E-008  0.1912083E+04  0.7818608E-02  0.8648865E-01
          1   -1    0    0  501    0  0.00000000000E+00  0.00000000000E+00  0.67964268529E+03  0.67964268529E+03  0.00000000000E+00 0. -1.
         -2   -1    0    0    0  501 -0.00000000000E+00 -0.00000000000E+00 -0.13448470302E+04  0.13448470302E+04  0.00000000000E+00 0.  1.
        -24    2    1    2    0    0 -0.20710382184E+03 -0.68298631920E+03 -0.51776337898E+02  0.71992468724E+03  0.79047206768E+02 0.  0.
        254    2    1    2    0    0  0.20710382184E+03  0.68298631920E+03 -0.61342800699E+03  0.13045650282E+04  0.90345652242E+03 0.  0.
         23    2    4    4    0    0  0.53954286988E+03  0.54854868041E+03 -0.47820708921E+03  0.91027108129E+03  0.88877770312E+02 0.  0.
         23    2    4    4    0    0 -0.33243904804E+03  0.13443763880E+03 -0.13522091778E+03  0.39429394694E+03  0.92702861904E+02 0.  0.
          1    1    3    3  502    0 -0.90360151769E+02 -0.37451064176E+03  0.47591919076E+01  0.38528668252E+03  0.00000000000E+00 0. -1.
         -2    1    3    3    0  502 -0.11674367007E+03 -0.30847567744E+03 -0.56535529805E+02  0.33463800472E+03  0.00000000000E+00 0.  1.
         13    1    5    5    0    0  0.51598939822E+03  0.51263486382E+03 -0.47149118766E+03  0.86680072838E+03  0.00000000000E+00 0. -1.
        -13    1    5    5    0    0  0.23553471657E+02  0.35913816588E+02 -0.67159015574E+01  0.43470352917E+02  0.00000000000E+00 0.  1.
          1    1    6    6  503    0 -0.31635167034E+03  0.13660077081E+03 -0.10540314457E+03  0.36034424207E+03  0.00000000000E+00 0. -1.
         -1    1    6    6    0  503 -0.16087377701E+02 -0.21631320176E+01 -0.29817773209E+02  0.33949704867E+02  0.00000000000E+00 0.  1.
<mgrwt>
<rscale>  0 0.19120831E+04</rscale>
<asrwt>0</asrwt>
<pdfrwt beam="1">  1        1 0.10456041E+00 0.19120831E+04</pdfrwt>
<pdfrwt beam="2">  1       -2 0.20689954E+00 0.19120831E+04</pdfrwt>
<totfact> 0.27946342E+00</totfact>
</mgrwt>
</event>
<event>
12    5  0.5246737E-008  0.2509137E+04  0.7818608E-02  0.8399738E-01
         -2   -1    0    0    0  501 -0.00000000000E+00  0.00000000000E+00  0.66257887496E+03  0.66257887496E+03  0.00000000000E+00 0.  1.
          1   -1    0    0  501    0  0.00000000000E+00 -0.00000000000E+00 -0.23754790137E+04  0.23754790137E+04  0.00000000000E+00 0. -1.
        -24    2    1    2    0    0  0.83426531385E+03 -0.64229880031E+03 -0.39852054511E+03  0.11286401222E+04  0.80396129907E+02 0.  0.
        254    2    1    2    0    0 -0.83426531385E+03  0.64229880031E+03 -0.13143795936E+04  0.19094177664E+04  0.89985339250E+03 0.  0.
         23    2    4    4    0    0 -0.86612025023E+03  0.39209543634E+03 -0.13336552814E+04  0.16403295551E+04  0.90230374336E+02 0.  0.
         23    2    4    4    0    0  0.31854936372E+02  0.25020336397E+03  0.19275687859E+02  0.26908821137E+03  0.91763026561E+02 0.  0.
          1    1    3    3  502    0  0.24498351543E+03 -0.17154072007E+03 -0.14955234234E+03  0.33437859467E+03  0.00000000000E+00 0. -1.
         -2    1    3    3    0  502  0.58928179842E+03 -0.47075808025E+03 -0.24896820277E+03  0.79426152750E+03  0.00000000000E+00 0.  1.
         13    1    5    5    0    0 -0.71422521489E+03  0.35931429987E+03 -0.11254283387E+04  0.13805119953E+04  0.00000000000E+00 0. -1.
        -13    1    5    5    0    0 -0.15189503534E+03  0.32781136473E+02 -0.20822694272E+03  0.25981755972E+03  0.00000000000E+00 0.  1.
          4    1    6    6  503    0 -0.40415893177E+00 -0.26987577937E+01  0.13811424351E+02  0.14078426073E+02  0.00000000000E+00 0. -1.
         -4    1    6    6    0  503  0.32259095304E+02  0.25290212177E+03  0.54642635081E+01  0.25500978530E+03  0.00000000000E+00 0.  1.
<mgrwt>
<rscale>  0 0.25091371E+04</rscale>
<asrwt>0</asrwt>
<pdfrwt beam="1">  1        1 0.36545830E+00 0.25091371E+04</pdfrwt>
<pdfrwt beam="2">  1       -2 0.10193521E+00 0.25091371E+04</pdfrwt>
<totfact> 0.10169426E+00</totfact>
</mgrwt>
</event>
<event>
12    5  0.5246737E-008  0.2252459E+04  0.7818608E-02  0.8496905E-01
         -2   -1    0    0    0  501 -0.00000000000E+00  0.00000000000E+00  0.90627669995E+03  0.90627669995E+03  0.00000000000E+00 0.  1.
          1   -1    0    0  501    0  0.00000000000E+00 -0.00000000000E+00 -0.13995643284E+04  0.13995643284E+04  0.00000000000E+00 0. -1.
        -24    2    1    2    0    0 -0.63852809526E+01  0.93138950733E+03 -0.37254916210E+02  0.93555645149E+03  0.79691649282E+02 0.  0.
        254    2    1    2    0    0  0.63852809526E+01 -0.93138950733E+03 -0.45603271222E+03  0.13702845768E+04  0.89564881550E+03 0.  0.
         23    2    4    4    0    0  0.33009513609E+03 -0.79054167096E+03 -0.51342263014E+03  0.10018616329E+04  0.78771834317E+02 0.  0.
         23    2    4    4    0    0 -0.32370985514E+03 -0.14084783637E+03  0.57389917927E+02  0.36842294395E+03  0.88406332514E+02 0.  0.
          1    1    3    3  502    0 -0.12471451880E+02  0.41188133219E+02  0.96349063889E+01  0.44100236407E+02  0.00000000000E+00 0. -1.
         -2    1    3    3    0  502  0.60861709279E+01  0.89020137411E+03 -0.46889822599E+02  0.89145621508E+03  0.00000000000E+00 0.  1.
         13    1    5    5    0    0  0.20084359893E+03 -0.56092982330E+03 -0.37815021656E+03  0.70567556581E+03  0.00000000000E+00 0.  1.
        -13    1    5    5    0    0  0.12925153716E+03 -0.22961184767E+03 -0.13527241358E+03  0.29618606706E+03  0.00000000000E+00 0. -1.
          1    1    6    6  503    0 -0.68709560241E+02 -0.43193716474E+02 -0.21942834053E+02  0.84072520943E+02  0.00000000000E+00 0. -1.
         -1    1    6    6    0  503 -0.25500029490E+03 -0.97654119892E+02  0.79332751979E+02  0.28435042301E+03  0.00000000000E+00 0.  1.
<mgrwt>
<rscale>  0 0.22524587E+04</rscale>
<asrwt>0</asrwt>
<pdfrwt beam="1">  1        1 0.21531759E+00 0.22524587E+04</pdfrwt>
<pdfrwt beam="2">  1       -2 0.13942719E+00 0.22524587E+04</pdfrwt>
<totfact> 0.22234352E+00</totfact>
</mgrwt>
</event>
<event>
12    5  0.5246737E-008  0.1135656E+04  0.7818608E-02  0.9171119E-01
         -2   -1    0    0    0  501 -0.00000000000E+00  0.00000000000E+00  0.36014437603E+04  0.36014437603E+04  0.00000000000E+00 0.  1.
          1   -1    0    0  501    0  0.00000000000E+00 -0.00000000000E+00 -0.89527618008E+02  0.89527618008E+02  0.00000000000E+00 0. -1.
        -24    2    1    2    0    0 -0.53732739531E+02  0.13229458299E+03  0.21011633892E+03  0.26412750037E+03  0.72286904659E+02 0.  0.
        254    2    1    2    0    0  0.53732739531E+02 -0.13229458299E+03  0.33017998033E+04  0.34268438779E+04  0.90608385827E+03 0.  0.
         23    2    4    4    0    0  0.34836899398E+03  0.18767937880E+03  0.94724757466E+03  0.10307117956E+04  0.92218938807E+02 0.  0.
         23    2    4    4    0    0 -0.29463625444E+03 -0.31997396178E+03  0.23545522287E+04  0.23961320823E+04  0.91317576001E+02 0.  0.
          1    1    3    3  502    0 -0.34453093314E+02  0.76004210646E+02  0.60378520764E+02  0.10300107497E+03  0.00000000000E+00 0. -1.
         -2    1    3    3    0  502 -0.19279646217E+02  0.56290372341E+02  0.14973781816E+03  0.16112642541E+03  0.00000000000E+00 0.  1.
         13    1    5    5    0    0  0.24269533366E+03  0.14322668410E+03  0.56088957650E+03  0.62770377173E+03  0.00000000000E+00 0. -1.
        -13    1    5    5    0    0  0.10567366032E+03  0.44452694691E+02  0.38635799816E+03  0.40300802386E+03  0.00000000000E+00 0.  1.
          1    1    6    6  503    0 -0.21391731409E+03 -0.24990412058E+03  0.19572909236E+04  0.19847419093E+04  0.00000000000E+00 0. -1.
         -1    1    6    6    0  503 -0.80718940360E+02 -0.70069841206E+02  0.39726130504E+03  0.41139017302E+03  0.00000000000E+00 0.  1.
<mgrwt>
<rscale>  0 0.11356561E+04</rscale>
<asrwt>0</asrwt>
<pdfrwt beam="1">  1        1 0.13773482E-01 0.11356561E+04</pdfrwt>
<pdfrwt beam="2">  1       -2 0.55406816E+00 0.11356561E+04</pdfrwt>
<totfact> 0.30486611E-01</totfact>
</mgrwt>
</event>
<event>
12    5  0.5246737E-008  0.1224109E+04  0.7818608E-02  0.9092012E-01
         -2   -1    0    0    0  501 -0.00000000000E+00  0.00000000000E+00  0.11867725703E+03  0.11867725703E+03  0.00000000000E+00 0.  1.
          1   -1    0    0  501    0  0.00000000000E+00 -0.00000000000E+00 -0.31565478555E+04  0.31565478555E+04  0.00000000000E+00 0. -1.
        -24    2    1    2    0    0 -0.19780573260E+03  0.18636625454E+03 -0.78337375298E+03  0.83293126346E+03  0.78997241224E+02 0.  0.
        254    2    1    2    0    0  0.19780573260E+03 -0.18636625454E+03 -0.22544968455E+04  0.24422938491E+04  0.89899039495E+03 0.  0.
         23    2    4    4    0    0 -0.60622881271E+02  0.11418669018E+03 -0.75658100554E+01  0.15876848376E+03  0.91850182391E+02 0.  0.
         23    2    4    4    0    0  0.25842861387E+03 -0.30055294472E+03 -0.22469310355E+04  0.22835253653E+04  0.93121399119E+02 0.  0.
          3    1    3    3  502    0 -0.85769098214E+02  0.31483631341E+02 -0.27693134982E+03  0.29161366525E+03  0.00000000000E+00 0. -1.
         -4    1    3    3    0  502 -0.11203663438E+03  0.15488262320E+03 -0.50644240316E+03  0.54131759821E+03  0.00000000000E+00 0.  1.
         13    1    5    5    0    0  0.11373617864E+02 -0.24303473683E+01 -0.17879925154E+02  0.21329732656E+02  0.00000000000E+00 0. -1.
        -13    1    5    5    0    0 -0.71996499136E+02  0.11661703755E+03  0.10314115099E+02  0.13743875110E+03  0.00000000000E+00 0.  1.
          4    1    6    6  503    0 -0.69421783668E+01 -0.13367772634E+01 -0.48361524622E+02  0.48875534551E+02  0.00000000000E+00 0. -1.
         -4    1    6    6    0  503  0.26537079223E+03 -0.29921616746E+03 -0.21985695108E+04  0.22346498308E+04  0.00000000000E+00 0.  1.
<mgrwt>
<rscale>  0 0.12241086E+04</rscale>
<asrwt>0</asrwt>
<pdfrwt beam="1">  1        1 0.48562269E+00 0.12241086E+04</pdfrwt>
<pdfrwt beam="2">  1       -2 0.18258042E-01 0.12241086E+04</pdfrwt>
<totfact> 0.10110531E+01</totfact>
</mgrwt>
</event>
<event>
12    5  0.5246737E-008  0.1399958E+04  0.7818608E-02  0.8953849E-01
          1   -1    0    0  501    0  0.00000000000E+00  0.00000000000E+00  0.14449139117E+04  0.14449139117E+04  0.00000000000E+00 0. -1.
         -2   -1    0    0    0  501 -0.00000000000E+00 -0.00000000000E+00 -0.33910027222E+03  0.33910027222E+03  0.00000000000E+00 0.  1.
        -24    2    1    2    0    0  0.80538908265E+02  0.38591741598E+03  0.44792555648E+03  0.60127358106E+03  0.73985454200E+02 0.  0.
        254    2    1    2    0    0 -0.80538908265E+02 -0.38591741598E+03  0.65788808300E+03  0.11827406029E+04  0.90035539438E+03 0.  0.
         23    2    4    4    0    0 -0.90483601799E+02 -0.65949658979E+03  0.32937284265E+03  0.74791933492E+03  0.88169313990E+02 0.  0.
         23    2    4    4    0    0  0.99446935337E+01  0.27357917382E+03  0.32851524035E+03  0.43482126793E+03  0.78757924214E+02 0.  0.
          1    1    3    3  502    0  0.93267725644E+02  0.30309313429E+03  0.34647660282E+03  0.46969176382E+03  0.00000000000E+00 0. -1.
         -2    1    3    3    0  502 -0.12728817378E+02  0.82824281685E+02  0.10144895366E+03  0.13158181724E+03  0.00000000000E+00 0.  1.
         13    1    5    5    0    0 -0.35477308211E+02 -0.99308398610E+02  0.26535245119E+02  0.10874243268E+03  0.00000000000E+00 0. -1.
        -13    1    5    5    0    0 -0.55006293588E+02 -0.56018819118E+03  0.30283759753E+03  0.63917690224E+03  0.00000000000E+00 0.  1.
          1    1    6    6  503    0  0.95688378956E+01  0.68591464027E+02  0.14061438034E+03  0.15674423611E+03  0.00000000000E+00 0. -1.
         -1    1    6    6    0  503  0.37585563806E+00  0.20498770979E+03  0.18790086001E+03  0.27807703182E+03  0.00000000000E+00 0.  1.
<mgrwt>
<rscale>  0 0.13999581E+04</rscale>
<asrwt>0</asrwt>
<pdfrwt beam="1">  1        1 0.22229444E+00 0.13999581E+04</pdfrwt>
<pdfrwt beam="2">  1       -2 0.52169274E-01 0.13999581E+04</pdfrwt>
<totfact> 0.21202530E+01</totfact>
</mgrwt>
</event>
<event>
12    5  0.5246737E-008  0.1592756E+04  0.7818608E-02  0.8825011E-01
          1   -1    0    0  501    0  0.00000000000E+00  0.00000000000E+00  0.16817267591E+04  0.16817267591E+04  0.00000000000E+00 0. -1.
         -2   -1    0    0    0  501 -0.00000000000E+00 -0.00000000000E+00 -0.37712283460E+03  0.37712283460E+03  0.00000000000E+00 0.  1.
        -24    2    1    2    0    0 -0.40233565082E+03  0.45738844550E+02  0.90381701736E+03  0.99347326928E+03  0.78344866339E+02 0.  0.
        254    2    1    2    0    0  0.40233565082E+03 -0.45738844550E+02  0.40078690719E+03  0.10653763245E+04  0.90023916262E+03 0.  0.
         23    2    4    4    0    0  0.51674886210E+03  0.30446144091E+03  0.24190955177E+03  0.65218406876E+03  0.84247687387E+02 0.  0.
         23    2    4    4    0    0 -0.11441321127E+03 -0.35020028546E+03  0.15887735542E+03  0.41319225570E+03  0.98768432461E+02 0.  0.
          1    1    3    3  502    0 -0.11972698002E+01  0.55297573629E+01  0.26671464900E+01  0.62550253290E+01  0.00000000000E+00 0. -1.
         -2    1    3    3    0  502 -0.40113838102E+03  0.40209087187E+02  0.90114987087E+03  0.98721824395E+03  0.00000000000E+00 0.  1.
         13    1    5    5    0    0  0.14086343736E+03  0.12710183211E+03  0.66302629784E+02  0.20098114943E+03  0.00000000000E+00 0.  1.
        -13    1    5    5    0    0  0.37588542474E+03  0.17735960880E+03  0.17560692199E+03  0.45120291933E+03  0.00000000000E+00 0. -1.
          1    1    6    6  503    0 -0.57511669198E+02 -0.29932333499E+03  0.12044820055E+03  0.32773437412E+03  0.00000000000E+00 0. -1.
         -1    1    6    6    0  503 -0.56901542076E+02 -0.50876950475E+02  0.38429154864E+02  0.85457881578E+02  0.00000000000E+00 0.  1.
<mgrwt>
<rscale>  0 0.15927556E+04</rscale>
<asrwt>0</asrwt>
<pdfrwt beam="1">  1        1 0.25872719E+00 0.15927556E+04</pdfrwt>
<pdfrwt beam="2">  1       -2 0.58018898E-01 0.15927556E+04</pdfrwt>
<totfact> 0.11491196E+01</totfact>
</mgrwt>
</event>
<event>
12    5  0.5246737E-008  0.3217981E+04  0.7818608E-02  0.8184084E-01
          3   -1    0    0  501    0  0.00000000000E+00  0.00000000000E+00  0.19329480953E+04  0.19329480953E+04  0.00000000000E+00 0. -1.
         -4   -1    0    0    0  501 -0.00000000000E+00 -0.00000000000E+00 -0.13393276781E+04  0.13393276781E+04  0.00000000000E+00 0.  1.
        -24    2    1    2    0    0 -0.90834230648E+02  0.90328528595E+02 -0.12263090853E+04  0.12355565847E+04  0.79724530867E+02 0.  0.
        254    2    1    2    0    0  0.90834230648E+02 -0.90328528595E+02  0.18199295025E+04  0.20367191887E+04  0.90535714450E+03 0.  0.
         23    2    4    4    0    0 -0.76812493185E+02 -0.47067126470E+03  0.10196558765E+04  0.11297995499E+04  0.96526255089E+02 0.  0.
         23    2    4    4    0    0  0.16764672383E+03  0.38034273611E+03  0.80027362598E+03  0.90691963881E+03  0.96433054010E+02 0.  0.
          1    1    3    3  502    0  0.40322015899E+00  0.28684202292E+02 -0.10480782002E+03  0.10866289700E+03  0.00000000000E+00 0. -1.
         -2    1    3    3    0  502 -0.91237450807E+02  0.61644326304E+02 -0.11215012652E+04  0.11268936877E+04  0.00000000000E+00 0.  1.
         13    1    5    5    0    0 -0.25536696409E+02 -0.22660421695E+02  0.97255215989E+02  0.10307373386E+03  0.00000000000E+00 0.  1.
        -13    1    5    5    0    0 -0.51275796775E+02 -0.44801084301E+03  0.92240066051E+03  0.10267258160E+04  0.00000000000E+00 0. -1.
          1    1    6    6  503    0  0.24171997026E+02  0.53451181235E+02  0.20087071381E+03  0.20926145819E+03  0.00000000000E+00 0. -1.
         -1    1    6    6    0  503  0.14347472681E+03  0.32689155487E+03  0.59940291217E+03  0.69765818062E+03  0.00000000000E+00 0.  1.
<mgrwt>
<rscale>  0 0.32179813E+04</rscale>
<asrwt>0</asrwt>
<pdfrwt beam="1">  1        3 0.29737663E+00 0.32179813E+04</pdfrwt>
<pdfrwt beam="2">  1       -4 0.20605041E+00 0.32179813E+04</pdfrwt>
<totfact> 0.91593241E-03</totfact>
</mgrwt>
</event>
<event>
12    5  0.5246737E-008  0.2476373E+04  0.7818608E-02  0.8411451E-01
          1   -1    0    0  501    0  0.00000000000E+00  0.00000000000E+00  0.24227699473E+04  0.24227699473E+04  0.00000000000E+00 0. -1.
         -2   -1    0    0    0  501 -0.00000000000E+00 -0.00000000000E+00 -0.63279064677E+03  0.63279064677E+03  0.00000000000E+00 0.  1.
        -24    2    1    2    0    0  0.13318681990E+03 -0.31296153248E+02  0.20942141873E+04  0.21001766722E+04  0.79314649663E+02 0.  0.
        254    2    1    2    0    0 -0.13318681990E+03  0.31296153248E+02 -0.30423488685E+03  0.95538392185E+03  0.89525493216E+03 0.  0.
         23    2    4    4    0    0 -0.44825153469E+03  0.93384170177E+02 -0.39206922957E+03  0.60962665221E+03  0.90974351946E+02 0.  0.
         23    2    4    4    0    0  0.31506471480E+03 -0.62088016929E+02  0.87834342714E+02  0.34575726965E+03  0.93340888132E+02 0.  0.
          1    1    3    3  502    0  0.11673178369E+03 -0.45232931128E+02  0.13882449299E+04  0.13938781557E+04  0.00000000000E+00 0. -1.
         -2    1    3    3    0  502  0.16455036209E+02  0.13936777879E+02  0.70596925744E+03  0.70629851652E+03  0.00000000000E+00 0.  1.
         13    1    5    5    0    0 -0.31866330961E+03  0.96052993610E+02 -0.24304184359E+03  0.41211869675E+03  0.00000000000E+00 0.  1.
        -13    1    5    5    0    0 -0.12958822509E+03 -0.26688234326E+01 -0.14902738597E+03  0.19750795546E+03  0.00000000000E+00 0. -1.
          4    1    6    6  503    0  0.57080148394E+02 -0.50129593389E+02  0.24814561284E+02  0.79917969980E+02  0.00000000000E+00 0. -1.
         -4    1    6    6    0  503  0.25798456640E+03 -0.11958423540E+02  0.63019781430E+02  0.26583929967E+03  0.00000000000E+00 0.  1.
<mgrwt>
<rscale>  0 0.24763733E+04</rscale>
<asrwt>0</asrwt>
<pdfrwt beam="1">  1        1 0.37273383E+00 0.24763733E+04</pdfrwt>
<pdfrwt beam="2">  1       -2 0.97352409E-01 0.24763733E+04</pdfrwt>
<totfact> 0.10550210E+00</totfact>
</mgrwt>
</event>
<event>
12    5  0.5246737E-008  0.2177267E+04  0.7818608E-02  0.8527950E-01
         -2   -1    0    0    0  501 -0.00000000000E+00  0.00000000000E+00  0.14464153163E+04  0.14464153163E+04  0.00000000000E+00 0.  1.
          1   -1    0    0  501    0  0.00000000000E+00 -0.00000000000E+00 -0.81935204812E+03  0.81935204812E+03  0.00000000000E+00 0. -1.
        -24    2    1    2    0    0  0.35939033682E+03  0.36300311302E+03 -0.51097435437E+03  0.72688727016E+03  0.79609286143E+02 0.  0.
        254    2    1    2    0    0 -0.35939033682E+03 -0.36300311302E+03  0.11380376225E+04  0.15388800942E+04  0.90116016327E+03 0.  0.
         23    2    4    4    0    0 -0.31547865860E+03 -0.79797641282E+02 -0.23154884810E+02  0.33983117167E+03  0.95155814095E+02 0.  0.
         23    2    4    4    0    0 -0.43911678216E+02 -0.28320547173E+03  0.11611925073E+04  0.11990489225E+04  0.84951191320E+02 0.  0.
          1    1    3    3  502    0  0.29803179435E+03  0.33398707574E+03 -0.46127398507E+03  0.64276279179E+03  0.00000000000E+00 0. -1.
         -2    1    3    3    0  502  0.61358542466E+02  0.29016037274E+02 -0.49700369302E+02  0.84124478372E+02  0.00000000000E+00 0.  1.
         13    1    5    5    0    0 -0.28233576331E+03 -0.76314189857E+02 -0.50409364166E+02  0.29678012537E+03  0.00000000000E+00 0.  1.
        -13    1    5    5    0    0 -0.33142895289E+02 -0.34834514258E+01  0.27254479356E+02  0.43051046293E+02  0.00000000000E+00 0. -1.
          2    1    6    6  503    0 -0.54353946639E+02 -0.89585612027E+02  0.43001852443E+03  0.44260124803E+03  0.00000000000E+00 0. -1.
         -2    1    6    6    0  503  0.10442268423E+02 -0.19361985971E+03  0.73117398289E+03  0.75644767452E+03  0.00000000000E+00 0.  1.
<mgrwt>
<rscale>  0 0.21772674E+04</rscale>
<asrwt>0</asrwt>
<pdfrwt beam="1">  1        1 0.12605416E+00 0.21772674E+04</pdfrwt>
<pdfrwt beam="2">  1       -2 0.22252543E+00 0.21772674E+04</pdfrwt>
<totfact> 0.16218537E+00</totfact>
</mgrwt>
</event>
<event>
12    5  0.5246737E-008  0.1384314E+04  0.7818608E-02  0.8965252E-01
          1   -1    0    0  501    0  0.00000000000E+00  0.00000000000E+00  0.32394838250E+03  0.32394838250E+03  0.00000000000E+00 0. -1.
         -2   -1    0    0    0  501 -0.00000000000E+00 -0.00000000000E+00 -0.14788822048E+04  0.14788822048E+04  0.00000000000E+00 0.  1.
        -24    2    1    2    0    0  0.36465285274E+03 -0.81717333446E+02 -0.17163080656E+03  0.41894684311E+03  0.80061838535E+02 0.  0.
        254    2    1    2    0    0 -0.36465285274E+03  0.81717333446E+02 -0.98330301577E+03  0.13838837442E+04  0.89922186979E+03 0.  0.
         23    2    4    4    0    0  0.28753730257E+03  0.74100296627E+02 -0.24380803219E+03  0.39356056433E+03  0.85317096200E+02 0.  0.
         23    2    4    4    0    0 -0.65219015531E+03  0.76170368186E+01 -0.73949498357E+03  0.99032317989E+03  0.92071450328E+02 0.  0.
          1    1    3    3  502    0  0.36763562388E+03 -0.82987022303E+02 -0.17381748537E+03  0.41503652373E+03  0.00000000000E+00 0. -1.
         -2    1    3    3    0  502 -0.29827711340E+01  0.12696888571E+01  0.21866788014E+01  0.39103193747E+01  0.00000000000E+00 0.  1.
         13    1    5    5    0    0  0.16032553733E+03  0.57699360887E+01 -0.96177610451E+02  0.18705000089E+03  0.00000000000E+00 0.  1.
        -13    1    5    5    0    0  0.12721176524E+03  0.68330360539E+02 -0.14763042174E+03  0.20651056344E+03  0.00000000000E+00 0. -1.
          1    1    6    6  503    0 -0.45796357214E+02  0.23494335268E+02 -0.46796110282E+02  0.69564114753E+02  0.00000000000E+00 0. -1.
         -1    1    6    6    0  503 -0.60639379810E+03 -0.15877298449E+02 -0.69269887329E+03  0.92075906514E+03  0.00000000000E+00 0.  1.
<mgrwt>
<rscale>  0 0.13843143E+04</rscale>
<asrwt>0</asrwt>
<pdfrwt beam="1">  1        1 0.49838212E-01 0.13843143E+04</pdfrwt>
<pdfrwt beam="2">  1       -2 0.22752034E+00 0.13843143E+04</pdfrwt>
<totfact> 0.59898640E+00</totfact>
</mgrwt>
</event>
<event>
12    5  0.5246737E-008  0.1874844E+04  0.7818608E-02  0.8667480E-01
         -2   -1    0    0    0  501 -0.00000000000E+00  0.00000000000E+00  0.45825077597E+03  0.45825077597E+03  0.00000000000E+00 0.  1.
          1   -1    0    0  501    0  0.00000000000E+00 -0.00000000000E+00 -0.19176401593E+04  0.19176401593E+04  0.00000000000E+00 0. -1.
        -24    2    1    2    0    0  0.31746070561E+03 -0.44043565960E+03  0.32900365675E+02  0.54972537026E+03  0.79691146252E+02 0.  0.
        254    2    1    2    0    0 -0.31746070561E+03  0.44043565960E+03 -0.14922897490E+04  0.18261655650E+04  0.90176887613E+03 0.  0.
         23    2    4    4    0    0 -0.58940752179E+03  0.20547647044E+03 -0.11850648415E+04  0.13428068743E+04  0.95550072212E+02 0.  0.
         23    2    4    4    0    0  0.27194681617E+03  0.23495918916E+03 -0.30722490749E+03  0.48335869075E+03  0.10043698894E+03 0.  0.
          3    1    3    3  502    0  0.15496139479E+01 -0.20048534583E+02 -0.93467292149E+01  0.22174453530E+02  0.00000000000E+00 0. -1.
         -4    1    3    3    0  502  0.31591109167E+03 -0.42038712501E+03  0.42247094890E+02  0.52755091673E+03  0.00000000000E+00 0.  1.
         13    1    5    5    0    0 -0.50298188874E+03  0.20890108454E+03 -0.10372811005E+04  0.11715726717E+04  0.00000000000E+00 0.  1.
        -13    1    5    5    0    0 -0.86425633048E+02 -0.34246141019E+01 -0.14778374101E+03  0.17123420259E+03  0.00000000000E+00 0. -1.
          1    1    6    6  503    0  0.19169875407E+02 -0.37530765876E+01 -0.21895525574E+00  0.19535036432E+02  0.00000000000E+00 0. -1.
         -1    1    6    6    0  503  0.25277694076E+03  0.23871226575E+03 -0.30700595224E+03  0.46382365432E+03  0.00000000000E+00 0.  1.
<mgrwt>
<rscale>  0 0.18748441E+04</rscale>
<asrwt>0</asrwt>
<pdfrwt beam="1">  1        1 0.29502157E+00 0.18748441E+04</pdfrwt>
<pdfrwt beam="2">  1       -2 0.70500117E-01 0.18748441E+04</pdfrwt>
<totfact> 0.51069634E+00</totfact>
</mgrwt>
</event>
<event>
12    5  0.5246737E-008  0.1534301E+04  0.7818608E-02  0.8861958E-01
          3   -1    0    0  501    0  0.00000000000E+00  0.00000000000E+00  0.55519844273E+03  0.55519844273E+03  0.00000000000E+00 0. -1.
         -4   -1    0    0    0  501 -0.00000000000E+00 -0.00000000000E+00 -0.10600168777E+04  0.10600168777E+04  0.00000000000E+00 0.  1.
        -24    2    1    2    0    0 -0.29377409003E+03  0.10850552347E+03  0.23648912810E+03  0.40626448182E+03  0.10510498029E+03 0.  0.
        254    2    1    2    0    0  0.29377409003E+03 -0.10850552347E+03 -0.74130756307E+03  0.12089508386E+04  0.90219097895E+03 0.  0.
         23    2    4    4    0    0  0.31274652905E+03 -0.43796017177E+03 -0.65643789755E+03  0.85409065643E+03  0.94554918282E+02 0.  0.
         23    2    4    4    0    0 -0.18972439017E+02  0.32945464830E+03 -0.84869665527E+02  0.35486018218E+03  0.99108879740E+02 0.  0.
          1    1    3    3  502    0 -0.10092305317E+03  0.42152859920E+02  0.14780315332E+03  0.18386978651E+03  0.00000000000E+00 0. -1.
         -4    1    3    3    0  502 -0.19285103687E+03  0.66352663549E+02  0.88685974787E+02  0.22239469531E+03  0.00000000000E+00 0.  1.
         13    1    5    5    0    0  0.13723145648E+03 -0.17903048380E+03 -0.20462041446E+03  0.30455525080E+03  0.00000000000E+00 0. -1.
        -13    1    5    5    0    0  0.17551507257E+03 -0.25892968797E+03 -0.45181748309E+03  0.54953540563E+03  0.00000000000E+00 0.  1.
          3    1    6    6  503    0  0.22597157646E+01  0.33419026283E+02 -0.43946573143E+02  0.55256121146E+02  0.00000000000E+00 0. -1.
         -3    1    6    6    0  503 -0.21232154782E+02  0.29603562202E+03 -0.40923092383E+02  0.29960406104E+03  0.00000000000E+00 0.  1.
<mgrwt>
<rscale>  0 0.15343008E+04</rscale>
<asrwt>0</asrwt>
<pdfrwt beam="1">  1        3 0.85415146E-01 0.15343008E+04</pdfrwt>
<pdfrwt beam="2">  1       -4 0.16307952E+00 0.15343008E+04</pdfrwt>
<totfact> 0.65758406E-01</totfact>
</mgrwt>
</event>
<event>
12    5  0.5246737E-008  0.1577478E+04  0.7818608E-02  0.8834505E-01
         -2   -1    0    0    0  501 -0.00000000000E+00  0.00000000000E+00  0.28911281549E+03  0.28911281549E+03  0.00000000000E+00 0.  1.
          1   -1    0    0  501    0  0.00000000000E+00 -0.00000000000E+00 -0.21517874188E+04  0.21517874188E+04  0.00000000000E+00 0. -1.
        -24    2    1    2    0    0  0.28344223650E+03 -0.33118744520E+03 -0.17623230489E+03  0.47736371417E+03  0.82423692203E+02 0.  0.
        254    2    1    2    0    0 -0.28344223650E+03  0.33118744520E+03 -0.16864422984E+04  0.19635365201E+04  0.90629102094E+03 0.  0.
         23    2    4    4    0    0  0.31610192860E+03  0.62163769107E+02 -0.68776954654E+03  0.76474682538E+03  0.89587913985E+02 0.  0.
         23    2    4    4    0    0 -0.59954416509E+03  0.26902367609E+03 -0.99867275183E+03  0.11987896947E+04  0.89008553821E+02 0.  0.
          1    1    3    3  502    0  0.27594466468E+03 -0.31566604151E+03 -0.18470629815E+03  0.45815600433E+03  0.00000000000E+00 0. -1.
         -2    1    3    3    0  502  0.74975718200E+01 -0.15521403688E+02  0.84739932633E+01  0.19207709844E+02  0.00000000000E+00 0.  1.
         13    1    5    5    0    0  0.16180235082E+03 -0.85037974326E+01 -0.38401236652E+03  0.41679468920E+03  0.00000000000E+00 0. -1.
        -13    1    5    5    0    0  0.15429957778E+03  0.70667566540E+02 -0.30375718002E+03  0.34795213619E+03  0.00000000000E+00 0.  1.
          3    1    6    6  503    0 -0.54255391831E+03  0.21213724004E+03 -0.88263580531E+03  0.10575504374E+04  0.00000000000E+00 0. -1.
         -3    1    6    6    0  503 -0.56990246788E+02  0.56886436050E+02 -0.11603694652E+03  0.14123925727E+03  0.00000000000E+00 0.  1.
<mgrwt>
<rscale>  0 0.15774781E+04</rscale>
<asrwt>0</asrwt>
<pdfrwt beam="1">  1        1 0.33104424E+00 0.15774781E+04</pdfrwt>
<pdfrwt beam="2">  1       -2 0.44478892E-01 0.15774781E+04</pdfrwt>
<totfact> 0.95150855E+00</totfact>
</mgrwt>
</event>
<event>
12    5  0.5246737E-008  0.1321306E+04  0.7818608E-02  0.9012838E-01
         -2   -1    0    0    0  501 -0.00000000000E+00  0.00000000000E+00  0.33883725229E+03  0.33883725229E+03  0.00000000000E+00 0.  1.
          1   -1    0    0  501    0  0.00000000000E+00 -0.00000000000E+00 -0.12881178879E+04  0.12881178879E+04  0.00000000000E+00 0. -1.
        -24    2    1    2    0    0 -0.17191295119E+03 -0.56668601239E+01  0.11156810492E+03  0.21944445361E+03  0.78244808752E+02 0.  0.
        254    2    1    2    0    0  0.17191295119E+03  0.56668601239E+01 -0.10608487406E+04  0.14075106866E+04  0.90890049317E+03 0.  0.
         23    2    4    4    0    0  0.22755354567E+03  0.37855651678E+03 -0.85854819104E+03  0.96982016360E+03  0.91435774388E+02 0.  0.
         23    2    4    4    0    0 -0.55640594478E+02 -0.37288965666E+03 -0.20230054953E+03  0.43769052302E+03  0.92222067875E+02 0.  0.
          1    1    3    3  502    0 -0.14056435590E+02 -0.24330247069E+02  0.28776827833E+02  0.40220021433E+02  0.00000000000E+00 0. -1.
         -2    1    3    3    0  502 -0.15785651560E+03  0.18663386945E+02  0.82791277085E+02  0.17922443218E+03  0.00000000000E+00 0.  1.
         13    1    5    5    0    0  0.18696879168E+03  0.35947149254E+03 -0.75189850656E+03  0.85412437454E+03  0.00000000000E+00 0. -1.
        -13    1    5    5    0    0  0.40584753988E+02  0.19085024242E+02 -0.10664968448E+03  0.11569578906E+03  0.00000000000E+00 0.  1.
          3    1    6    6  503    0  0.15717650355E+02 -0.19853742772E+03 -0.11595836422E+03  0.23045714780E+03  0.00000000000E+00 0. -1.
         -3    1    6    6    0  503 -0.71358244833E+02 -0.17435222894E+03 -0.86342185313E+02  0.20723337523E+03  0.00000000000E+00 0.  1.
<mgrwt>
<rscale>  0 0.13213059E+04</rscale>
<asrwt>0</asrwt>
<pdfrwt beam="1">  1        1 0.19817199E+00 0.13213059E+04</pdfrwt>
<pdfrwt beam="2">  1       -2 0.52128807E-01 0.13213059E+04</pdfrwt>
<totfact> 0.27573240E+01</totfact>
</mgrwt>
</event>
<event>
12    5  0.5246737E-008  0.1438083E+04  0.7818608E-02  0.8926704E-01
          1   -1    0    0  501    0  0.00000000000E+00  0.00000000000E+00  0.10203518783E+04  0.10203518783E+04  0.00000000000E+00 0. -1.
         -2   -1    0    0    0  501 -0.00000000000E+00 -0.00000000000E+00 -0.50670825011E+03  0.50670825011E+03  0.00000000000E+00 0.  1.
        -24    2    1    2    0    0  0.20284393044E+02 -0.42337262482E+03  0.24466802751E+03  0.49535703594E+03  0.76552683333E+02 0.  0.
        254    2    1    2    0    0 -0.20284393044E+02  0.42337262482E+03  0.26897560068E+03  0.10317030925E+04  0.90133654159E+03 0.  0.
         23    2    4    4    0    0 -0.43257562666E+03  0.94274868990E+02  0.19315255265E+03  0.49131234856E+03  0.89835914554E+02 0.  0.
         23    2    4    4    0    0  0.41229123362E+03  0.32909775583E+03  0.75823048027E+02  0.54039074391E+03  0.89351145974E+02 0.  0.
          1    1    3    3  502    0 -0.26123292111E+02 -0.91940258215E+02  0.44872544365E+02  0.10558874329E+03  0.00000000000E+00 0. -1.
         -4    1    3    3    0  502  0.46407685155E+02 -0.33143236660E+03  0.19979548315E+03  0.38976829265E+03  0.00000000000E+00 0.  1.
         13    1    5    5    0    0 -0.33317806734E+03  0.65050913140E+02  0.10516125502E+03  0.35538448955E+03  0.00000000000E+00 0. -1.
        -13    1    5    5    0    0 -0.99397559321E+02  0.29223955850E+02  0.87991297632E+02  0.13592785900E+03  0.00000000000E+00 0.  1.
          2    1    6    6  503    0  0.20203349880E+03  0.13287087274E+03  0.73670094691E+02  0.25278347714E+03  0.00000000000E+00 0. -1.
         -2    1    6    6    0  503  0.21025773482E+03  0.19622688308E+03  0.21529533359E+01  0.28760726677E+03  0.00000000000E+00 0.  1.
<mgrwt>
<rscale>  0 0.14380831E+04</rscale>
<asrwt>0</asrwt>
<pdfrwt beam="1">  1        1 0.15697721E+00 0.14380831E+04</pdfrwt>
<pdfrwt beam="2">  1       -2 0.77955115E-01 0.14380831E+04</pdfrwt>
<totfact> 0.18216224E+01</totfact>
</mgrwt>
</event>
<event>
12    5  0.5246737E-008  0.1592999E+04  0.7818608E-02  0.8824860E-01
         -2   -1    0    0    0  501 -0.00000000000E+00  0.00000000000E+00  0.45099825293E+03  0.45099825293E+03  0.00000000000E+00 0.  1.
          1   -1    0    0  501    0  0.00000000000E+00 -0.00000000000E+00 -0.14066829663E+04  0.14066829663E+04  0.00000000000E+00 0. -1.
        -24    2    1    2    0    0  0.14533477617E+03 -0.83100066649E+02  0.27419298891E+03  0.33089800554E+03  0.79270906770E+02 0.  0.
        254    2    1    2    0    0 -0.14533477617E+03  0.83100066649E+02 -0.12298777023E+04  0.15267832137E+04  0.88906692705E+03 0.  0.
         23    2    4    4    0    0  0.31913321409E+03  0.19920116965E+03 -0.74363391196E+03  0.83813806603E+03  0.89201504399E+02 0.  0.
         23    2    4    4    0    0 -0.46446799026E+03 -0.11610110300E+03 -0.48624379031E+03  0.68864514764E+03  0.92677589878E+02 0.  0.
          1    1    3    3  502    0  0.61079113523E+00  0.11105405526E+02  0.84124724210E+01  0.13945350119E+02  0.00000000000E+00 0. -1.
         -2    1    3    3    0  502  0.14472398504E+03 -0.94205472175E+02  0.26578051649E+03  0.31695265542E+03  0.00000000000E+00 0.  1.
         13    1    5    5    0    0  0.18822174675E+03  0.77135647276E+02 -0.33337701700E+03  0.39053497858E+03  0.00000000000E+00 0. -1.
        -13    1    5    5    0    0  0.13091146734E+03  0.12206552237E+03 -0.41025689496E+03  0.44760308745E+03  0.00000000000E+00 0.  1.
          4    1    6    6  503    0 -0.22501830336E+02 -0.22988509634E+02 -0.13706630230E+02  0.34966779319E+02  0.00000000000E+00 0. -1.
         -4    1    6    6    0  503 -0.44196615992E+03 -0.93112593366E+02 -0.47253716008E+03  0.65367836833E+03  0.00000000000E+00 0.  1.
<mgrwt>
<rscale>  0 0.15929991E+04</rscale>
<asrwt>0</asrwt>
<pdfrwt beam="1">  1        1 0.21641276E+00 0.15929991E+04</pdfrwt>
<pdfrwt beam="2">  1       -2 0.69384347E-01 0.15929991E+04</pdfrwt>
<totfact> 0.12132531E+01</totfact>
</mgrwt>
</event>
<event>
12    5  0.5246737E-008  0.2273126E+04  0.7818608E-02  0.8488593E-01
         -2   -1    0    0    0  501 -0.00000000000E+00  0.00000000000E+00  0.17839433995E+04  0.17839433995E+04  0.00000000000E+00 0.  1.
          1   -1    0    0  501    0  0.00000000000E+00 -0.00000000000E+00 -0.72411230670E+03  0.72411230670E+03  0.00000000000E+00 0. -1.
        -24    2    1    2    0    0  0.41752524527E+03 -0.23687604162E+03 -0.46940265892E+03  0.67614844947E+03  0.80001749930E+02 0.  0.
        254    2    1    2    0    0 -0.41752524527E+03  0.23687604162E+03  0.15292337517E+04  0.18319072567E+04  0.88706862213E+03 0.  0.
         23    2    4    4    0    0 -0.41179017859E+03  0.47110881942E+03  0.61254348257E+03  0.88029515276E+03  0.90528266317E+02 0.  0.
         23    2    4    4    0    0 -0.57350666723E+01 -0.23423277780E+03  0.91669026912E+03  0.95161210396E+03  0.10171854166E+03 0.  0.
          3    1    3    3  502    0  0.15118819675E+03 -0.12829431389E+03 -0.21017381842E+03  0.28894694282E+03  0.00000000000E+00 0. -1.
         -4    1    3    3    0  502  0.26633704852E+03 -0.10858172773E+03 -0.25922884049E+03  0.38720150665E+03  0.00000000000E+00 0.  1.
         13    1    5    5    0    0 -0.12181124359E+03  0.13887370857E+03  0.12579697410E+03  0.22349220275E+03  0.00000000000E+00 0. -1.
        -13    1    5    5    0    0 -0.28997893501E+03  0.33223511085E+03  0.48674650848E+03  0.65680295001E+03  0.00000000000E+00 0.  1.
          2    1    6    6  503    0 -0.21099236445E+02 -0.12398661394E+02  0.37818274897E+02  0.45045826656E+02  0.00000000000E+00 0.  1.
         -2    1    6    6    0  503  0.15364169773E+02 -0.22183411640E+03  0.87887199422E+03  0.90656627730E+03  0.00000000000E+00 0. -1.
<mgrwt>
<rscale>  0 0.22731259E+04</rscale>
<asrwt>0</asrwt>
<pdfrwt beam="1">  1        1 0.11140189E+00 0.22731259E+04</pdfrwt>
<pdfrwt beam="2">  1       -2 0.27445283E+00 0.22731259E+04</pdfrwt>
<totfact> 0.93501522E-01</totfact>
</mgrwt>
</event>
<event>
12    5  0.5246737E-008  0.1905086E+04  0.7818608E-02  0.8652329E-01
          1   -1    0    0  501    0  0.00000000000E+00  0.00000000000E+00  0.19852817479E+04  0.19852817479E+04  0.00000000000E+00 0. -1.
         -2   -1    0    0    0  501 -0.00000000000E+00 -0.00000000000E+00 -0.45703226610E+03  0.45703226610E+03  0.00000000000E+00 0.  1.
        -24    2    1    2    0    0  0.27902068983E+03 -0.27506207698E+03  0.14005622369E+04  0.14564782048E+04  0.79009430392E+02 0.  0.
        254    2    1    2    0    0 -0.27902068983E+03  0.27506207698E+03  0.12768724486E+03  0.98583580915E+03  0.89557608194E+03 0.  0.
         23    2    4    4    0    0 -0.31035770611E+03  0.56393852334E+02  0.46741461851E+03  0.57051032513E+03  0.86622359463E+02 0.  0.
         23    2    4    4    0    0  0.31337016280E+02  0.21866822465E+03 -0.33972737365E+03  0.41532548402E+03  0.91009714909E+02 0.  0.
          1    1    3    3  502    0  0.25957544839E+03 -0.27718179252E+03  0.13445663724E+04  0.13971642313E+04  0.00000000000E+00 0. -1.
         -2    1    3    3    0  502  0.19445241434E+02  0.21197155382E+01  0.55995864531E+02  0.59313973505E+02  0.00000000000E+00 0.  1.
         13    1    5    5    0    0 -0.26239904498E+03  0.73371686218E+02  0.35839291362E+03  0.45020233638E+03  0.00000000000E+00 0. -1.
        -13    1    5    5    0    0 -0.47958661127E+02 -0.16977833884E+02  0.10902170489E+03  0.12030798875E+03  0.00000000000E+00 0.  1.
          4    1    6    6  503    0 -0.30340831325E+02  0.82662462066E+02 -0.10394370608E+03  0.13622754022E+03  0.00000000000E+00 0.  1.
         -4    1    6    6    0  503  0.61677847604E+02  0.13600576258E+03 -0.23578366757E+03  0.27909794380E+03  0.00000000000E+00 0. -1.
<mgrwt>
<rscale>  0 0.19050856E+04</rscale>
<asrwt>0</asrwt>
<pdfrwt beam="1">  1        1 0.30542796E+00 0.19050856E+04</pdfrwt>
<pdfrwt beam="2">  1       -2 0.70312658E-01 0.19050856E+04</pdfrwt>
<totfact> 0.46101321E+00</totfact>
</mgrwt>
</event>
<event>
12    5  0.5246737E-008  0.2153884E+04  0.7818608E-02  0.8537872E-01
         -2   -1    0    0    0  501 -0.00000000000E+00  0.00000000000E+00  0.16660393116E+04  0.16660393116E+04  0.00000000000E+00 0.  1.
          1   -1    0    0  501    0  0.00000000000E+00 -0.00000000000E+00 -0.69614433385E+03  0.69614433385E+03  0.00000000000E+00 0. -1.
        -24    2    1    2    0    0  0.77262952661E+03  0.37738871047E+03  0.22585867214E+03  0.89255331122E+03  0.79124265652E+02 0.  0.
        254    2    1    2    0    0 -0.77262952661E+03 -0.37738871047E+03  0.74403630557E+03  0.14696303342E+04  0.93104493500E+03 0.  0.
         23    2    4    4    0    0 -0.42001512506E+03 -0.28162462776E+03 -0.11945324033E+03  0.52733135567E+03  0.89911878005E+02 0.  0.
         23    2    4    4    0    0 -0.35261440156E+03 -0.95764082711E+02  0.86348954590E+03  0.94229897852E+03  0.93837590147E+02 0.  0.
          1    1    3    3  502    0  0.67660528884E+03  0.31602946067E+03  0.17109088047E+03  0.76612102587E+03  0.00000000000E+00 0. -1.
         -2    1    3    3    0  502  0.96024237767E+02  0.61359249798E+02  0.54767791675E+02  0.12643228535E+03  0.00000000000E+00 0.  1.
         13    1    5    5    0    0 -0.27908466421E+03 -0.19496276603E+03 -0.36894396545E+02  0.34243236767E+03  0.00000000000E+00 0.  1.
        -13    1    5    5    0    0 -0.14093046085E+03 -0.86661861732E+02 -0.82558843787E+02  0.18489898799E+03  0.00000000000E+00 0. -1.
          3    1    6    6  503    0 -0.30413951767E+03 -0.10413823858E+03  0.67730156497E+03  0.74972196770E+03  0.00000000000E+00 0. -1.
         -3    1    6    6    0  503 -0.48474883885E+02  0.83741558685E+01  0.18618798093E+03  0.19257701082E+03  0.00000000000E+00 0.  1.
<mgrwt>
<rscale>  0 0.21538838E+04</rscale>
<asrwt>0</asrwt>
<pdfrwt beam="1">  1        1 0.10709913E+00 0.21538838E+04</pdfrwt>
<pdfrwt beam="2">  1       -2 0.25631374E+00 0.21538838E+04</pdfrwt>
<totfact> 0.12948468E+00</totfact>
</mgrwt>
</event>
<event>
12    5  0.5246737E-008  0.2568579E+04  0.7818608E-02  0.8378953E-01
          1   -1    0    0  501    0  0.00000000000E+00  0.00000000000E+00  0.20844355873E+04  0.20844355873E+04  0.00000000000E+00 0. -1.
         -2   -1    0    0    0  501 -0.00000000000E+00 -0.00000000000E+00 -0.79129327199E+03  0.79129327199E+03  0.00000000000E+00 0.  1.
        -24    2    1    2    0    0 -0.16931395397E+03  0.31208018678E+03  0.17650847659E+04  0.18021616587E+04  0.78747415064E+02 0.  0.
        254    2    1    2    0    0  0.16931395397E+03 -0.31208018678E+03 -0.47194245053E+03  0.10735672006E+04  0.89652417685E+03 0.  0.
         23    2    4    4    0    0  0.17230826916E+03  0.14910726350E+03  0.15521852281E+03  0.28986275817E+03  0.89467944535E+02 0.  0.
         23    2    4    4    0    0 -0.29943151952E+01 -0.46118745028E+03 -0.62716097334E+03  0.78370444246E+03  0.90326831162E+02 0.  0.
          3    1    3    3  502    0 -0.17369131007E+03  0.26811584967E+03  0.15420786673E+04  0.15748210680E+04  0.00000000000E+00 0. -1.
         -4    1    3    3    0  502  0.43773561023E+01  0.43964337110E+02  0.22300609857E+03  0.22734059070E+03  0.00000000000E+00 0.  1.
         13    1    5    5    0    0  0.15222331119E+03  0.12810189924E+03  0.16575093293E+03  0.25895058375E+03  0.00000000000E+00 0. -1.
        -13    1    5    5    0    0  0.20084957971E+02  0.21005364268E+02 -0.10532410114E+02  0.30912174423E+02  0.00000000000E+00 0.  1.
          2    1    6    6  503    0 -0.92447743465E+01 -0.38786202397E+03 -0.57441321549E+03  0.69316156675E+03  0.00000000000E+00 0. -1.
         -2    1    6    6    0  503  0.62504591513E+01 -0.73325426309E+02 -0.52747757851E+02  0.90542875707E+02  0.00000000000E+00 0.  1.
<mgrwt>
<rscale>  0 0.25685793E+04</rscale>
<asrwt>0</asrwt>
<pdfrwt beam="1">  1        1 0.32068240E+00 0.25685793E+04</pdfrwt>
<pdfrwt beam="2">  1       -2 0.12173743E+00 0.25685793E+04</pdfrwt>
<totfact> 0.10383425E+00</totfact>
</mgrwt>
</event>
<event>
12    5  0.5246737E-008  0.2119519E+04  0.7818608E-02  0.8552694E-01
         -2   -1    0    0    0  501 -0.00000000000E+00  0.00000000000E+00  0.54074903633E+03  0.54074903633E+03  0.00000000000E+00 0.  1.
          1   -1    0    0  501    0  0.00000000000E+00 -0.00000000000E+00 -0.20769155517E+04  0.20769155517E+04  0.00000000000E+00 0. -1.
        -24    2    1    2    0    0 -0.70070587840E+03 -0.13260537796E+03 -0.12326074212E+04  0.14262267005E+04  0.78921684209E+02 0.  0.
        254    2    1    2    0    0  0.70070587840E+03  0.13260537796E+03 -0.30355909413E+03  0.11914378875E+04  0.90487745123E+03 0.  0.
         23    2    4    4    0    0  0.52164627702E+02 -0.17041969216E+02  0.28059049468E+03  0.30115355780E+03  0.94608998384E+02 0.  0.
         23    2    4    4    0    0  0.64854125069E+03  0.14964734718E+03 -0.58414958881E+03  0.89028432966E+03  0.91517010209E+02 0.  0.
          3    1    3    3  502    0 -0.39215877018E+03 -0.40561800789E+02 -0.63620124717E+03  0.74845560163E+03  0.00000000000E+00 0. -1.
         -4    1    3    3    0  502 -0.30854710821E+03 -0.92043577175E+02 -0.59640617404E+03  0.67777109891E+03  0.00000000000E+00 0.  1.
         13    1    5    5    0    0  0.18646299414E+02  0.29923148913E+02  0.19348546397E+03  0.19667156401E+03  0.00000000000E+00 0. -1.
        -13    1    5    5    0    0  0.33518328288E+02 -0.46965118129E+02  0.87105030711E+02  0.10448199379E+03  0.00000000000E+00 0.  1.
          1    1    6    6  503    0  0.40691004745E+03  0.58567468572E+02 -0.32081946613E+03  0.52147009976E+03  0.00000000000E+00 0. -1.
         -1    1    6    6    0  503  0.24163120324E+03  0.91079878608E+02 -0.26333012267E+03  0.36881422990E+03  0.00000000000E+00 0.  1.
<mgrwt>
<rscale>  0 0.21195189E+04</rscale>
<asrwt>0</asrwt>
<pdfrwt beam="1">  1        1 0.31952546E+00 0.21195189E+04</pdfrwt>
<pdfrwt beam="2">  1       -2 0.83192161E-01 0.21195189E+04</pdfrwt>
<totfact> 0.26960779E+00</totfact>
</mgrwt>
</event>
<event>
12    5  0.5246737E-008  0.1597569E+04  0.7818608E-02  0.8822043E-01
         -2   -1    0    0    0  501 -0.00000000000E+00  0.00000000000E+00  0.39406202004E+03  0.39406202004E+03  0.00000000000E+00 0.  1.
          1   -1    0    0  501    0  0.00000000000E+00 -0.00000000000E+00 -0.16191775336E+04  0.16191775336E+04  0.00000000000E+00 0. -1.
        -24    2    1    2    0    0  0.45464324301E+02 -0.45463076469E+03 -0.50552534157E+02  0.46743713660E+03  0.84768985956E+02 0.  0.
        254    2    1    2    0    0 -0.45464324301E+02  0.45463076469E+03 -0.11745629794E+04  0.15458024171E+04  0.89507026707E+03 0.  0.
         23    2    4    4    0    0 -0.42946601177E+03  0.39670416252E+03 -0.82840567342E+03  0.10178100418E+04  0.88690887739E+02 0.  0.
         23    2    4    4    0    0  0.38400168747E+03  0.57926602169E+02 -0.34615730599E+03  0.52799237527E+03  0.90212419555E+02 0.  0.
          3    1    3    3  502    0  0.16050602844E+02 -0.10680331462E+03  0.23666436815E+02  0.11056523006E+03  0.00000000000E+00 0. -1.
         -4    1    3    3    0  502  0.29413721457E+02 -0.34782745006E+03 -0.74218970972E+02  0.35687190654E+03  0.00000000000E+00 0.  1.
         13    1    5    5    0    0 -0.24884785015E+03  0.27081153396E+03 -0.56972060833E+03  0.67811924541E+03  0.00000000000E+00 0.  1.
        -13    1    5    5    0    0 -0.18061816162E+03  0.12589262856E+03 -0.25868506509E+03  0.33969079636E+03  0.00000000000E+00 0. -1.
          1    1    6    6  503    0  0.11804008224E+03  0.55813965997E+02 -0.88885638580E+02  0.15795352659E+03  0.00000000000E+00 0. -1.
         -1    1    6    6    0  503  0.26596160523E+03  0.21126361723E+01 -0.25727166741E+03  0.37003884869E+03  0.00000000000E+00 0.  1.
<mgrwt>
<rscale>  0 0.15975686E+04</rscale>
<asrwt>0</asrwt>
<pdfrwt beam="1">  1        1 0.24910424E+00 0.15975686E+04</pdfrwt>
<pdfrwt beam="2">  1       -2 0.60624926E-01 0.15975686E+04</pdfrwt>
<totfact> 0.11552619E+01</totfact>
</mgrwt>
</event>
<event>
12    5  0.5246737E-008  0.2354712E+04  0.7818608E-02  0.8456656E-01
          1   -1    0    0  501    0  0.00000000000E+00  0.00000000000E+00  0.14085612009E+04  0.14085612009E+04  0.00000000000E+00 0. -1.
         -2   -1    0    0    0  501 -0.00000000000E+00 -0.00000000000E+00 -0.98410134210E+03  0.98410134210E+03  0.00000000000E+00 0.  1.
        -24    2    1    2    0    0 -0.42605018501E+02  0.10048833044E+04  0.17063677289E+03  0.10230415984E+04  0.76756502253E+02 0.  0.
        254    2    1    2    0    0  0.42605018501E+02 -0.10048833044E+04  0.25382308594E+03  0.13696209447E+04  0.89433200209E+03 0.  0.
         23    2    4    4    0    0  0.17647224991E+03  0.97343366999E+02 -0.19955731793E+02  0.22248824709E+03  0.92111903540E+02 0.  0.
         23    2    4    4    0    0 -0.13386723141E+03 -0.11022266714E+04  0.27377881773E+03  0.11471326976E+04  0.90191540224E+02 0.  0.
          3    1    3    3  502    0 -0.61005425031E+02  0.88801587970E+03  0.14261945971E+03  0.90146224257E+03  0.00000000000E+00 0. -1.
         -4    1    3    3    0  502  0.18400406531E+02  0.11686742473E+03  0.28017313178E+02  0.12157935581E+03  0.00000000000E+00 0.  1.
         13    1    5    5    0    0  0.38515334742E+02  0.31669513753E+02 -0.45587586337E+02  0.67561950384E+02  0.00000000000E+00 0. -1.
        -13    1    5    5    0    0  0.13795691517E+03  0.65673853246E+02  0.25631854544E+02  0.15492629671E+03  0.00000000000E+00 0.  1.
          3    1    6    6  503    0  0.72231539695E+00 -0.12341201036E+03  0.64553641066E+01  0.12358283767E+03  0.00000000000E+00 0. -1.
         -3    1    6    6    0  503 -0.13458954681E+03 -0.97881466107E+03  0.26732345363E+03  0.10235498599E+04  0.00000000000E+00 0.  1.
<mgrwt>
<rscale>  0 0.23547118E+04</rscale>
<asrwt>0</asrwt>
<pdfrwt beam="1">  1        1 0.21670172E+00 0.23547118E+04</pdfrwt>
<pdfrwt beam="2">  1       -2 0.15140021E+00 0.23547118E+04</pdfrwt>
<totfact> 0.17491865E+00</totfact>
</mgrwt>
</event>
<event>
12    5  0.5246737E-008  0.1747449E+04  0.7818608E-02  0.8734756E-01
          1   -1    0    0  501    0  0.00000000000E+00  0.00000000000E+00  0.17512632763E+04  0.17512632763E+04  0.00000000000E+00 0. -1.
         -2   -1    0    0    0  501 -0.00000000000E+00 -0.00000000000E+00 -0.43591062103E+03  0.43591062103E+03  0.00000000000E+00 0.  1.
        -24    2    1    2    0    0  0.60640867672E+03 -0.99579623497E+02  0.26636638286E+03  0.67460650391E+03  0.80593427659E+02 0.  0.
        254    2    1    2    0    0 -0.60640867672E+03  0.99579623497E+02  0.10489862724E+04  0.15125673934E+04  0.89991129302E+03 0.  0.
         23    2    4    4    0    0 -0.51739814612E+03 -0.12609126407E+03  0.11196663132E+04  0.12433237700E+04  0.92744248359E+02 0.  0.
         23    2    4    4    0    0 -0.89010530607E+02  0.22567088757E+03 -0.70680040783E+02  0.26924362345E+03  0.92985141545E+02 0.  0.
          1    1    3    3  502    0  0.10523518950E+03 -0.43466792036E+02  0.30523606722E+02  0.11787916562E+03  0.00000000000E+00 0. -1.
         -2    1    3    3    0  502  0.50117348722E+03 -0.56112831461E+02  0.23584277614E+03  0.55672733829E+03  0.00000000000E+00 0.  1.
         13    1    5    5    0    0 -0.46692254930E+02 -0.39672074265E+02  0.10792878740E+03  0.12410746673E+03  0.00000000000E+00 0. -1.
        -13    1    5    5    0    0 -0.47070589119E+03 -0.86419189804E+02  0.10117375258E+04  0.11192163032E+04  0.00000000000E+00 0.  1.
          3    1    6    6  503    0 -0.11703202452E+02  0.31026072874E+02  0.22440697519E+02  0.40039568564E+02  0.00000000000E+00 0. -1.
         -3    1    6    6    0  503 -0.77307328154E+02  0.19464481469E+03 -0.93120738303E+02  0.22920405488E+03  0.00000000000E+00 0.  1.
<mgrwt>
<rscale>  0 0.17474487E+04</rscale>
<asrwt>0</asrwt>
<pdfrwt beam="1">  1        1 0.26942511E+00 0.17474487E+04</pdfrwt>
<pdfrwt beam="2">  1       -2 0.67063174E-01 0.17474487E+04</pdfrwt>
<totfact> 0.74663121E+00</totfact>
</mgrwt>
</event>
<event>
12    5  0.5246737E-008  0.1975443E+04  0.7818608E-02  0.8618189E-01
         -2   -1    0    0    0  501 -0.00000000000E+00  0.00000000000E+00  0.92387885790E+03  0.92387885790E+03  0.00000000000E+00 0.  1.
          1   -1    0    0  501    0  0.00000000000E+00 -0.00000000000E+00 -0.10559757791E+04  0.10559757791E+04  0.00000000000E+00 0. -1.
        -24    2    1    2    0    0 -0.65285741634E+03  0.80538505343E+02  0.36716771119E+03  0.75734839193E+03  0.77815176563E+02 0.  0.
        254    2    1    2    0    0  0.65285741634E+03 -0.80538505343E+02 -0.49926463242E+03  0.12225062451E+04  0.90141393888E+03 0.  0.
         23    2    4    4    0    0  0.84847494995E+03 -0.18434578308E+03 -0.43067499513E+03  0.97355462787E+03  0.91839825697E+02 0.  0.
         23    2    4    4    0    0 -0.19561753361E+03  0.10380727774E+03 -0.68589637295E+02  0.24895161723E+03  0.90720444287E+02 0.  0.
          1    1    3    3  502    0 -0.31520668599E+03  0.19960516672E+02  0.13716866129E+03  0.34433837828E+03  0.00000000000E+00 0. -1.
         -2    1    3    3    0  502 -0.33765073036E+03  0.60577988671E+02  0.22999904990E+03  0.41301001365E+03  0.00000000000E+00 0.  1.
         13    1    5    5    0    0  0.55495839353E+03 -0.10911049498E+03 -0.23255605695E+03  0.61152779028E+03  0.00000000000E+00 0.  1.
        -13    1    5    5    0    0  0.29351655642E+03 -0.75235288098E+02 -0.19811893817E+03  0.36202683759E+03  0.00000000000E+00 0. -1.
          4    1    6    6  503    0 -0.27944017961E+02  0.25361032646E+02  0.21118142363E+02  0.43243797862E+02  0.00000000000E+00 0. -1.
         -4    1    6    6    0  503 -0.16767351565E+03  0.78446245093E+02 -0.89707779659E+02  0.20570781937E+03  0.00000000000E+00 0.  1.
<mgrwt>
<rscale>  0 0.19754429E+04</rscale>
<asrwt>0</asrwt>
<pdfrwt beam="1">  1        1 0.16245781E+00 0.19754429E+04</pdfrwt>
<pdfrwt beam="2">  1       -2 0.14213521E+00 0.19754429E+04</pdfrwt>
<totfact> 0.38535861E+00</totfact>
</mgrwt>
</event>
<event>
12    5  0.5246737E-008  0.2285126E+04  0.7818608E-02  0.8483809E-01
          1   -1    0    0  501    0  0.00000000000E+00  0.00000000000E+00  0.76920484795E+03  0.76920484795E+03  0.00000000000E+00 0. -1.
         -2   -1    0    0    0  501 -0.00000000000E+00 -0.00000000000E+00 -0.16971422626E+04  0.16971422626E+04  0.00000000000E+00 0.  1.
        -24    2    1    2    0    0  0.29830957126E+03 -0.49001582307E+03 -0.12323378040E+04  0.13614916281E+04  0.76804185653E+02 0.  0.
        254    2    1    2    0    0 -0.29830957126E+03  0.49001582307E+03  0.30440038934E+03  0.11048554825E+04  0.89383551787E+03 0.  0.
         23    2    4    4    0    0  0.19854352886E+03  0.27523770935E+03 -0.16076355449E+03  0.38647326184E+03  0.91330893787E+02 0.  0.
         23    2    4    4    0    0 -0.49685310012E+03  0.21477811372E+03  0.46516394384E+03  0.71838222066E+03  0.81871112608E+02 0.  0.
          1    1    3    3  502    0  0.12643926325E+03 -0.25780743800E+03 -0.54796190400E+03  0.61863867533E+03  0.00000000000E+00 0. -1.
         -4    1    3    3    0  502  0.17187030801E+03 -0.23220838508E+03 -0.68437590001E+03  0.74285295274E+03  0.00000000000E+00 0.  1.
         13    1    5    5    0    0  0.25394183081E+02  0.84274793450E+02 -0.72418199574E+02  0.11398026573E+03  0.00000000000E+00 0.  1.
        -13    1    5    5    0    0  0.17314934578E+03  0.19096291590E+03 -0.88345354920E+02  0.27249299611E+03  0.00000000000E+00 0. -1.
          3    1    6    6  503    0 -0.47659740179E+03  0.21637652365E+03  0.42841391806E+03  0.67638921382E+03  0.00000000000E+00 0. -1.
         -3    1    6    6    0  503 -0.20255698331E+02 -0.15984099241E+01  0.36750025778E+02  0.41993006845E+02  0.00000000000E+00 0.  1.
<mgrwt>
<rscale>  0 0.22851259E+04</rscale>
<asrwt>0</asrwt>
<pdfrwt beam="1">  1        1 0.11833921E+00 0.22851259E+04</pdfrwt>
<pdfrwt beam="2">  1       -2 0.26109881E+00 0.22851259E+04</pdfrwt>
<totfact> 0.10256556E+00</totfact>
</mgrwt>
</event>
<event>
12    5  0.5246737E-008  0.2220691E+04  0.7818608E-02  0.8509865E-01
          1   -1    0    0  501    0  0.00000000000E+00  0.00000000000E+00  0.24175580000E+04  0.24175580000E+04  0.00000000000E+00 0. -1.
         -2   -1    0    0    0  501 -0.00000000000E+00 -0.00000000000E+00 -0.50996389811E+03  0.50996389811E+03  0.00000000000E+00 0.  1.
        -24    2    1    2    0    0 -0.74018626524E+03 -0.25233111291E+03  0.14539698894E+04  0.16529113137E+04  0.80874431204E+02 0.  0.
        254    2    1    2    0    0  0.74018626524E+03  0.25233111291E+03  0.45362421246E+03  0.12746105845E+04  0.89850460105E+03 0.  0.
         23    2    4    4    0    0  0.81459239204E+03  0.18617641667E+03  0.41736854466E+02  0.84148588595E+03  0.90189289473E+02 0.  0.
         23    2    4    4    0    0 -0.74406126797E+02  0.66154696238E+02  0.41188735800E+03  0.43312469852E+03  0.89627525072E+02 0.  0.
          1    1    3    3  502    0 -0.48283385751E+03 -0.16507117474E+03  0.10273857541E+04  0.11471261981E+04  0.00000000000E+00 0. -1.
         -2    1    3    3    0  502 -0.25735240774E+03 -0.87259938169E+02  0.42658413536E+03  0.50578511556E+03  0.00000000000E+00 0.  1.
         13    1    5    5    0    0  0.21978837453E+03  0.65301909240E+02 -0.26011198260E+02  0.23075495957E+03  0.00000000000E+00 0. -1.
        -13    1    5    5    0    0  0.59480401751E+03  0.12087450743E+03  0.67748052726E+02  0.61073092638E+03  0.00000000000E+00 0.  1.
          3    1    6    6  503    0 -0.33469019642E+02 -0.14962340246E+02  0.65962406549E+02  0.75465793437E+02  0.00000000000E+00 0. -1.
         -3    1    6    6    0  503 -0.40937107155E+02  0.81117036484E+02  0.34592495145E+03  0.35765890508E+03  0.00000000000E+00 0.  1.
<mgrwt>
<rscale>  0 0.22206912E+04</rscale>
<asrwt>0</asrwt>
<pdfrwt beam="1">  1        1 0.37193199E+00 0.22206912E+04</pdfrwt>
<pdfrwt beam="2">  1       -2 0.78455986E-01 0.22206912E+04</pdfrwt>
<totfact> 0.17842766E+00</totfact>
</mgrwt>
</event>
<event>
12    5  0.5246737E-008  0.1838601E+04  0.7818608E-02  0.8686037E-01
          1   -1    0    0  501    0  0.00000000000E+00  0.00000000000E+00  0.66997132339E+03  0.66997132339E+03  0.00000000000E+00 0. -1.
         -2   -1    0    0    0  501 -0.00000000000E+00 -0.00000000000E+00 -0.12614171489E+04  0.12614171489E+04  0.00000000000E+00 0.  1.
        -24    2    1    2    0    0  0.63985817007E+03  0.20517405122E+03 -0.14297263110E+03  0.69166254424E+03  0.80256045024E+02 0.  0.
        254    2    1    2    0    0 -0.63985817007E+03 -0.20517405122E+03 -0.44847319438E+03  0.12397259280E+04  0.94036019771E+03 0.  0.
         23    2    4    4    0    0 -0.95496716771E+02  0.50624265673E+02  0.26597776545E+03  0.30106570844E+03  0.90630844064E+02 0.  0.
         23    2    4    4    0    0 -0.54436145330E+03 -0.25579831689E+03 -0.71445095983E+03  0.93866021958E+03  0.94237270075E+02 0.  0.
          1    1    3    3  502    0  0.41852888659E+03  0.12307617620E+03 -0.13014478760E+03  0.45524920626E+03  0.00000000000E+00 0. -1.
         -2    1    3    3    0  502  0.22132928347E+03  0.82097875013E+02 -0.12827843506E+02  0.23641333798E+03  0.00000000000E+00 0.  1.
         13    1    5    5    0    0 -0.33095889818E+02  0.54120109675E+02  0.20157996488E+03  0.21132630323E+03  0.00000000000E+00 0. -1.
        -13    1    5    5    0    0 -0.62400826953E+02 -0.34958440017E+01  0.64397800562E+02  0.89739405207E+02  0.00000000000E+00 0.  1.
          2    1    6    6  503    0 -0.32049530029E+03 -0.14539004172E+03 -0.34530284447E+03  0.49304113027E+03  0.00000000000E+00 0. -1.
         -2    1    6    6    0  503 -0.22386615300E+03 -0.11040827516E+03 -0.36914811535E+03  0.44561908931E+03  0.00000000000E+00 0.  1.
<mgrwt>
<rscale>  0 0.18386009E+04</rscale>
<asrwt>0</asrwt>
<pdfrwt beam="1">  1        1 0.10307251E+00 0.18386009E+04</pdfrwt>
<pdfrwt beam="2">  1       -2 0.19406417E+00 0.18386009E+04</pdfrwt>
<totfact> 0.34881514E+00</totfact>
</mgrwt>
</event>
<event>
12    5  0.5246737E-008  0.1251835E+04  0.7818608E-02  0.9068657E-01
         -2   -1    0    0    0  501 -0.00000000000E+00  0.00000000000E+00  0.49455737296E+03  0.49455737296E+03  0.00000000000E+00 0.  1.
          1   -1    0    0  501    0  0.00000000000E+00 -0.00000000000E+00 -0.79216895436E+03  0.79216895436E+03  0.00000000000E+00 0. -1.
        -24    2    1    2    0    0 -0.44301676264E+02 -0.17883752528E+03 -0.31945563309E+03  0.37756626241E+03  0.80986925048E+02 0.  0.
        254    2    1    2    0    0  0.44301676264E+02  0.17883752528E+03  0.21844051685E+02  0.90916006491E+03  0.89002773107E+03 0.  0.
         23    2    4    4    0    0  0.29222921698E+03 -0.14393489651E+03 -0.24188709015E+03  0.41585554375E+03  0.91166327096E+02 0.  0.
         23    2    4    4    0    0 -0.24792754072E+03  0.32277242179E+03  0.26373114184E+03  0.49330452116E+03  0.90250394512E+02 0.  0.
          1    1    3    3  502    0 -0.55791766142E+02 -0.12659800488E+03 -0.27568685901E+03  0.30845262236E+03  0.00000000000E+00 0. -1.
         -2    1    3    3    0  502  0.11490089879E+02 -0.52239520391E+02 -0.43768774081E+02  0.69113640048E+02  0.00000000000E+00 0.  1.
         13    1    5    5    0    0  0.74954708494E+02  0.43594024313E+01 -0.48957440393E+02  0.89632827049E+02  0.00000000000E+00 0. -1.
        -13    1    5    5    0    0  0.21727450849E+03 -0.14829429894E+03 -0.19292964976E+03  0.32622271670E+03  0.00000000000E+00 0.  1.
          2    1    6    6  503    0  0.31892908631E+01 -0.36856458446E+01  0.45907746832E+01  0.66955786675E+01  0.00000000000E+00 0. -1.
         -2    1    6    6    0  503 -0.25111683158E+03  0.32645806763E+03  0.25914036715E+03  0.48660894249E+03  0.00000000000E+00 0.  1.
<mgrwt>
<rscale>  0 0.12518354E+04</rscale>
<asrwt>0</asrwt>
<pdfrwt beam="1">  1        1 0.12187215E+00 0.12518354E+04</pdfrwt>
<pdfrwt beam="2">  1       -2 0.76085750E-01 0.12518354E+04</pdfrwt>
<totfact> 0.30015154E+01</totfact>
</mgrwt>
</event>
<event>
12    5  0.5246737E-008  0.1929114E+04  0.7818608E-02  0.8640499E-01
          1   -1    0    0  501    0  0.00000000000E+00  0.00000000000E+00  0.15498416690E+04  0.15498416690E+04  0.00000000000E+00 0. -1.
         -2   -1    0    0    0  501 -0.00000000000E+00 -0.00000000000E+00 -0.60030023559E+03  0.60030023559E+03  0.00000000000E+00 0.  1.
        -24    2    1    2    0    0  0.36707759743E+03  0.47699123001E+03  0.87875030427E+03  0.10681801569E+04  0.80871219921E+02 0.  0.
        254    2    1    2    0    0 -0.36707759743E+03 -0.47699123001E+03  0.70791129172E+02  0.10819617478E+04  0.89630532947E+03 0.  0.
         23    2    4    4    0    0 -0.21247457830E+03 -0.70970397574E+03 -0.79841281799E+02  0.75078474476E+03  0.92075637829E+02 0.  0.
         23    2    4    4    0    0 -0.15460301913E+03  0.23271274573E+03  0.15063241097E+03  0.33117700302E+03  0.94502743566E+02 0.  0.
          3    1    3    3  502    0  0.27311233906E+03  0.29350419756E+03  0.59412617342E+03  0.71674331087E+03  0.00000000000E+00 0. -1.
         -4    1    3    3    0  502  0.93965258369E+02  0.18348703245E+03  0.28462413085E+03  0.35143684599E+03  0.00000000000E+00 0.  1.
         13    1    5    5    0    0 -0.18013302435E+03 -0.64776308425E+03 -0.95733610691E+02  0.67912432146E+03  0.00000000000E+00 0.  1.
        -13    1    5    5    0    0 -0.32341553948E+02 -0.61940891486E+02  0.15892328892E+02  0.71660423300E+02  0.00000000000E+00 0. -1.
          3    1    6    6  503    0 -0.19213224483E+02 -0.29122904824E+01  0.25335378960E+02  0.31929780111E+02  0.00000000000E+00 0. -1.
         -3    1    6    6    0  503 -0.13538979465E+03  0.23562503621E+03  0.12529703201E+03  0.29924722290E+03  0.00000000000E+00 0.  1.
<mgrwt>
<rscale>  0 0.19291141E+04</rscale>
<asrwt>0</asrwt>
<pdfrwt beam="1">  1        1 0.23843718E+00 0.19291141E+04</pdfrwt>
<pdfrwt beam="2">  1       -2 0.92353883E-01 0.19291141E+04</pdfrwt>
<totfact> 0.49271337E+00</totfact>
</mgrwt>
</event>
<event>
12    5  0.5246737E-008  0.1601292E+04  0.7818608E-02  0.8819755E-01
         -2   -1    0    0    0  501 -0.00000000000E+00  0.00000000000E+00  0.51979430273E+03  0.51979430273E+03  0.00000000000E+00 0.  1.
          1   -1    0    0  501    0  0.00000000000E+00 -0.00000000000E+00 -0.12332457388E+04  0.12332457388E+04  0.00000000000E+00 0. -1.
        -24    2    1    2    0    0 -0.33065155083E+03  0.82504185926E+02  0.22052718606E+03  0.41370534589E+03  0.79890454173E+02 0.  0.
        254    2    1    2    0    0  0.33065155083E+03 -0.82504185926E+02 -0.93397862218E+03  0.13393346957E+04  0.89742073278E+03 0.  0.
         23    2    4    4    0    0 -0.30204146328E+03 -0.33988565570E+01 -0.32377853380E+03  0.45163071838E+03  0.88866017525E+02 0.  0.
         23    2    4    4    0    0  0.63269301410E+03 -0.79105329369E+02 -0.61020008838E+03  0.88770397731E+03  0.95478271040E+02 0.  0.
          3    1    3    3  502    0 -0.39645480594E+02 -0.10372521800E+02  0.84683580053E+01  0.41845745630E+02  0.00000000000E+00 0. -1.
         -4    1    3    3    0  502 -0.29100607023E+03  0.92876707726E+02  0.21205882806E+03  0.37185960026E+03  0.00000000000E+00 0.  1.
         13    1    5    5    0    0 -0.22088921632E+03 -0.20871319131E+02 -0.28163707606E+03  0.35853465727E+03  0.00000000000E+00 0.  1.
        -13    1    5    5    0    0 -0.81152246959E+02  0.17472462574E+02 -0.42141457740E+02  0.93096061117E+02  0.00000000000E+00 0. -1.
          1    1    6    6  503    0  0.30946913755E+03 -0.20532721492E+02 -0.35734294268E+03  0.47316669201E+03  0.00000000000E+00 0. -1.
         -1    1    6    6    0  503  0.32322387655E+03 -0.58572607877E+02 -0.25285714569E+03  0.41453728529E+03  0.00000000000E+00 0.  1.
<mgrwt>
<rscale>  0 0.16012921E+04</rscale>
<asrwt>0</asrwt>
<pdfrwt beam="1">  1        1 0.18973011E+00 0.16012921E+04</pdfrwt>
<pdfrwt beam="2">  1       -2 0.79968355E-01 0.16012921E+04</pdfrwt>
<totfact> 0.11765913E+01</totfact>
</mgrwt>
</event>
<event>
12    5  0.5246737E-008  0.1478766E+04  0.7818608E-02  0.8898697E-01
         -2   -1    0    0    0  501 -0.00000000000E+00  0.00000000000E+00  0.34333798340E+03  0.34333798340E+03  0.00000000000E+00 0.  1.
          1   -1    0    0  501    0  0.00000000000E+00 -0.00000000000E+00 -0.15922718174E+04  0.15922718174E+04  0.00000000000E+00 0. -1.
        -24    2    1    2    0    0 -0.80054024370E+02  0.21857144391E+03  0.12577772508E+03  0.27717875094E+03  0.82619010728E+02 0.  0.
        254    2    1    2    0    0  0.80054024370E+02 -0.21857144391E+03 -0.13747115590E+04  0.16584310498E+04  0.89798638830E+03 0.  0.
         23    2    4    4    0    0  0.36521599159E+03 -0.39242088302E+03 -0.59756735901E+03  0.80751548084E+03  0.87279054149E+02 0.  0.
         23    2    4    4    0    0 -0.28516196722E+03  0.17384943912E+03 -0.77714420003E+03  0.85091556899E+03  0.92537683551E+02 0.  0.
          1    1    3    3  502    0 -0.24708598693E+00  0.29864278371E+02  0.50941017940E+02  0.59050177670E+02  0.00000000000E+00 0. -1.
         -2    1    3    3    0  502 -0.79806938383E+02  0.18870716554E+03  0.74836707142E+02  0.21812857327E+03  0.00000000000E+00 0.  1.
         13    1    5    5    0    0  0.34230051564E+03 -0.36174625039E+03 -0.58247409530E+03  0.76635896574E+03  0.00000000000E+00 0.  1.
        -13    1    5    5    0    0  0.22915475949E+02 -0.30674632637E+02 -0.15093263707E+02  0.41156515094E+02  0.00000000000E+00 0. -1.
          2    1    6    6  503    0 -0.16426292789E+02  0.43231206783E+02 -0.13386867214E+03  0.14163185276E+03  0.00000000000E+00 0. -1.
         -2    1    6    6    0  503 -0.26873567443E+03  0.13061823233E+03 -0.64327552789E+03  0.70928371624E+03  0.00000000000E+00 0.  1.
<mgrwt>
<rscale>  0 0.14787662E+04</rscale>
<asrwt>0</asrwt>
<pdfrwt beam="1">  1        1 0.24496490E+00 0.14787662E+04</pdfrwt>
<pdfrwt beam="2">  1       -2 0.52821227E-01 0.14787662E+04</pdfrwt>
<totfact> 0.16239932E+01</totfact>
</mgrwt>
</event>
<event>
12    5  0.5246737E-008  0.1113521E+04  0.7818608E-02  0.9192113E-01
         -2   -1    0    0    0  501 -0.00000000000E+00  0.00000000000E+00  0.46272015871E+03  0.46272015871E+03  0.00000000000E+00 0.  1.
          1   -1    0    0  501    0  0.00000000000E+00 -0.00000000000E+00 -0.66991315841E+03  0.66991315841E+03  0.00000000000E+00 0. -1.
        -24    2    1    2    0    0  0.68705789442E+02 -0.11279955879E+03  0.81583996106E+02  0.17608819527E+03  0.83107629779E+02 0.  0.
        254    2    1    2    0    0 -0.68705789442E+02  0.11279955879E+03 -0.28877699581E+03  0.95654512185E+03  0.90229828265E+03 0.  0.
         23    2    4    4    0    0 -0.33636196090E+03  0.38456781183E+03 -0.17269526108E+03  0.54756071201E+03  0.94695879003E+02 0.  0.
         23    2    4    4    0    0  0.26765617146E+03 -0.27176825304E+03 -0.11608173473E+03  0.40898440985E+03  0.91079464652E+02 0.  0.
          1    1    3    3  502    0 -0.11634579412E+02  0.24624683024E+01 -0.27714064877E+01  0.12210973842E+02  0.00000000000E+00 0. -1.
         -2    1    3    3    0  502  0.80340368854E+02 -0.11526202709E+03  0.84355402594E+02  0.16387722143E+03  0.00000000000E+00 0.  1.
         13    1    5    5    0    0 -0.29568565952E+03  0.33692773284E+03 -0.11592673107E+03  0.46302193617E+03  0.00000000000E+00 0. -1.
        -13    1    5    5    0    0 -0.40676301383E+02  0.47640078984E+02 -0.56768530008E+02  0.84538775832E+02  0.00000000000E+00 0.  1.
          1    1    6    6  503    0  0.16311994959E+03 -0.22369712313E+03 -0.75310348402E+02  0.28691491670E+03  0.00000000000E+00 0. -1.
         -1    1    6    6    0  503  0.10453622187E+03 -0.48071129908E+02 -0.40771386324E+02  0.12206949314E+03  0.00000000000E+00 0.  1.
<mgrwt>
<rscale>  0 0.11135211E+04</rscale>
<asrwt>0</asrwt>
<pdfrwt beam="1">  1        1 0.10306356E+00 0.11135211E+04</pdfrwt>
<pdfrwt beam="2">  1       -2 0.71187717E-01 0.11135211E+04</pdfrwt>
<totfact> 0.45492058E+01</totfact>
</mgrwt>
</event>
<event>
12    5  0.5246737E-008  0.1781679E+04  0.7818608E-02  0.8716104E-01
          1   -1    0    0  501    0  0.00000000000E+00  0.00000000000E+00  0.16290815044E+04  0.16290815044E+04  0.00000000000E+00 0. -1.
         -2   -1    0    0    0  501 -0.00000000000E+00 -0.00000000000E+00 -0.48714248215E+03  0.48714248215E+03  0.00000000000E+00 0.  1.
        -24    2    1    2    0    0  0.13432243732E+03  0.57804145257E+03  0.76876571323E+03  0.97453554257E+03  0.80897242479E+02 0.  0.
        254    2    1    2    0    0 -0.13432243732E+03 -0.57804145257E+03  0.37317330906E+03  0.11416884440E+04  0.90112138281E+03 0.  0.
         23    2    4    4    0    0  0.16229915227E+03 -0.66301425836E+03  0.43484191056E+03  0.81447471914E+03  0.91392884431E+02 0.  0.
         23    2    4    4    0    0 -0.29662158959E+03  0.84972805788E+02 -0.61668601499E+02  0.32721372488E+03  0.89783407169E+02 0.  0.
          3    1    3    3  502    0  0.14175009188E+03  0.50142500350E+03  0.65126484182E+03  0.83406595475E+03  0.00000000000E+00 0. -1.
         -4    1    3    3    0  502 -0.74276545648E+01  0.76616449070E+02  0.11750087141E+03  0.14046958782E+03  0.00000000000E+00 0.  1.
         13    1    5    5    0    0  0.12947535910E+03 -0.40827165606E+03  0.23143611462E+03  0.48683907906E+03  0.00000000000E+00 0.  1.
        -13    1    5    5    0    0  0.32823793170E+02 -0.25474260230E+03  0.20340579594E+03  0.32763564007E+03  0.00000000000E+00 0. -1.
          2    1    6    6  503    0 -0.11056993437E+03  0.13210189955E+02 -0.62708872093E+02  0.12779914767E+03  0.00000000000E+00 0. -1.
         -2    1    6    6    0  503 -0.18605165522E+03  0.71762615833E+02  0.10402705931E+01  0.19941457721E+03  0.00000000000E+00 0.  1.
<mgrwt>
<rscale>  0 0.17816788E+04</rscale>
<asrwt>0</asrwt>
<pdfrwt beam="1">  1        1 0.25062792E+00 0.17816788E+04</pdfrwt>
<pdfrwt beam="2">  1       -2 0.74944998E-01 0.17816788E+04</pdfrwt>
<totfact> 0.70705074E+00</totfact>
</mgrwt>
</event>
<event>
12    5  0.5246737E-008  0.1892272E+04  0.7818608E-02  0.8658713E-01
         -2   -1    0    0    0  501 -0.00000000000E+00  0.00000000000E+00  0.44256073969E+03  0.44256073969E+03  0.00000000000E+00 0.  1.
          1   -1    0    0  501    0  0.00000000000E+00 -0.00000000000E+00 -0.20227120884E+04  0.20227120884E+04  0.00000000000E+00 0. -1.
        -24    2    1    2    0    0  0.76018081798E+02  0.17687402462E+03  0.30325267074E+03  0.36821603313E+03  0.80979598686E+02 0.  0.
        254    2    1    2    0    0 -0.76018081798E+02 -0.17687402462E+03 -0.18834040194E+04  0.20970567949E+04  0.90187212587E+03 0.  0.
         23    2    4    4    0    0  0.19058029989E+02 -0.33107621241E+03 -0.18607109022E+04  0.18922365415E+04  0.91320317451E+02 0.  0.
         23    2    4    4    0    0 -0.95076111787E+02  0.15420218780E+03 -0.22693117214E+02  0.20482025345E+03  0.92836290858E+02 0.  0.
          1    1    3    3  502    0  0.92357569596E+01  0.60753951468E+02  0.41422124382E+02  0.74108934778E+02  0.00000000000E+00 0. -1.
         -2    1    3    3    0  502  0.66782324838E+02  0.11612007315E+03  0.26183054635E+03  0.29410709836E+03  0.00000000000E+00 0.  1.
         13    1    5    5    0    0 -0.30661171453E+02 -0.80311809773E+02 -0.37838099959E+03  0.38802354964E+03  0.00000000000E+00 0. -1.
        -13    1    5    5    0    0  0.49719201442E+02 -0.25076440264E+03 -0.14823299026E+04  0.15042129919E+04  0.00000000000E+00 0.  1.
          4    1    6    6  503    0 -0.27304632837E+02  0.83404392027E+02  0.30993915195E+02  0.93072328663E+02  0.00000000000E+00 0. -1.
         -4    1    6    6    0  503 -0.67771478950E+02  0.70797795769E+02 -0.53687032409E+02  0.11174792478E+03  0.00000000000E+00 0.  1.
<mgrwt>
<rscale>  0 0.18922716E+04</rscale>
<asrwt>0</asrwt>
<pdfrwt beam="1">  1        1 0.31118648E+00 0.18922716E+04</pdfrwt>
<pdfrwt beam="2">  1       -2 0.68086267E-01 0.18922716E+04</pdfrwt>
<totfact> 0.46695637E+00</totfact>
</mgrwt>
</event>
<event>
12    5  0.5246737E-008  0.1523586E+04  0.7818608E-02  0.8868918E-01
          1   -1    0    0  501    0  0.00000000000E+00  0.00000000000E+00  0.10183168969E+04  0.10183168969E+04  0.00000000000E+00 0. -1.
         -2   -1    0    0    0  501 -0.00000000000E+00 -0.00000000000E+00 -0.56988972308E+03  0.56988972308E+03  0.00000000000E+00 0.  1.
        -24    2    1    2    0    0 -0.20019591877E+03 -0.26502693236E+03 -0.22808088720E+03  0.41080302247E+03  0.80128343292E+02 0.  0.
        254    2    1    2    0    0  0.20019591877E+03  0.26502693236E+03  0.67650806104E+03  0.11774035975E+04  0.90459847117E+03 0.  0.
         23    2    4    4    0    0 -0.26241693592E+03  0.83357416021E+01  0.56428528543E+03  0.62902800248E+03  0.91248077803E+02 0.  0.
         23    2    4    4    0    0  0.46261285469E+03  0.25669119076E+03  0.11222277561E+03  0.54837559505E+03  0.90668744013E+02 0.  0.
          1    1    3    3  502    0 -0.65093544922E+02 -0.33214434326E+02 -0.55790914445E+02  0.91940167352E+02  0.00000000000E+00 0. -1.
         -2    1    3    3    0  502 -0.13510237385E+03 -0.23181249803E+03 -0.17228997276E+03  0.31886285512E+03  0.00000000000E+00 0.  1.
         13    1    5    5    0    0 -0.13645205752E+03  0.49818499817E+02  0.30213372616E+03  0.33523996690E+03  0.00000000000E+00 0.  1.
        -13    1    5    5    0    0 -0.12596487840E+03 -0.41482758215E+02  0.26215155927E+03  0.29378803558E+03  0.00000000000E+00 0. -1.
          3    1    6    6  503    0  0.21920249568E+03  0.71131259605E+02  0.40069773402E+02  0.23391232748E+03  0.00000000000E+00 0. -1.
         -3    1    6    6    0  503  0.24341035900E+03  0.18555993115E+03  0.72153002209E+02  0.31446326756E+03  0.00000000000E+00 0.  1.
<mgrwt>
<rscale>  0 0.15235857E+04</rscale>
<asrwt>0</asrwt>
<pdfrwt beam="1">  1        1 0.15666414E+00 0.15235857E+04</pdfrwt>
<pdfrwt beam="2">  1       -2 0.87675342E-01 0.15235857E+04</pdfrwt>
<totfact> 0.13911458E+01</totfact>
</mgrwt>
</event>
<event>
12    5  0.5246737E-008  0.2284467E+04  0.7818608E-02  0.8484071E-01
          1   -1    0    0  501    0  0.00000000000E+00  0.00000000000E+00  0.23617137509E+04  0.23617137509E+04  0.00000000000E+00 0. -1.
         -2   -1    0    0    0  501 -0.00000000000E+00 -0.00000000000E+00 -0.55243679536E+03  0.55243679536E+03  0.00000000000E+00 0.  1.
        -24    2    1    2    0    0 -0.34100152544E+02  0.38127305193E+03 -0.36134119761E+03  0.53235123702E+03  0.79362572606E+02 0.  0.
        254    2    1    2    0    0  0.34100152544E+02 -0.38127305193E+03  0.21706181532E+04  0.23817993093E+04  0.90269198634E+03 0.  0.
         23    2    4    4    0    0 -0.17971522501E+03  0.44993893335E+02  0.57975033248E+02  0.21393535612E+03  0.89917849080E+02 0.  0.
         23    2    4    4    0    0  0.21381537755E+03 -0.42626694527E+03  0.21126431199E+04  0.21678639532E+04  0.94618406491E+02 0.  0.
          3    1    3    3  502    0 -0.39326907444E+02  0.87671955407E+02 -0.71671549442E+02  0.11987405229E+03  0.00000000000E+00 0. -1.
         -4    1    3    3    0  502  0.52267549004E+01  0.29360109653E+03 -0.28966964816E+03  0.41247718472E+03  0.00000000000E+00 0.  1.
         13    1    5    5    0    0 -0.18878617101E+03  0.34261106085E+02  0.53549207823E+02  0.19920230775E+03  0.00000000000E+00 0.  1.
        -13    1    5    5    0    0  0.90709460058E+01  0.10732787250E+02  0.44258254247E+01  0.14733048370E+02  0.00000000000E+00 0. -1.
          1    1    6    6  503    0  0.11497990867E+03 -0.13227673035E+03  0.70552916455E+03  0.72697243058E+03  0.00000000000E+00 0. -1.
         -1    1    6    6    0  503  0.98835468880E+02 -0.29399021491E+03  0.14071139554E+04  0.14408915226E+04  0.00000000000E+00 0.  1.
<mgrwt>
<rscale>  0 0.22844672E+04</rscale>
<asrwt>0</asrwt>
<pdfrwt beam="1">  1        1 0.36334057E+00 0.22844672E+04</pdfrwt>
<pdfrwt beam="2">  1       -2 0.84990277E-01 0.22844672E+04</pdfrwt>
<totfact> 0.16181100E+00</totfact>
</mgrwt>
</event>
<event>
12    5  0.5246737E-008  0.1147544E+04  0.7818608E-02  0.9160053E-01
          1   -1    0    0  501    0  0.00000000000E+00  0.00000000000E+00  0.23444383819E+04  0.23444383819E+04  0.00000000000E+00 0. -1.
         -2   -1    0    0    0  501 -0.00000000000E+00 -0.00000000000E+00 -0.14042342477E+03  0.14042342477E+03  0.00000000000E+00 0.  1.
        -24    2    1    2    0    0  0.39967605143E+02 -0.15716292567E+03  0.22858909627E+03  0.29144262985E+03  0.79926446777E+02 0.  0.
        254    2    1    2    0    0 -0.39967605143E+02  0.15716292567E+03  0.19754258608E+04  0.21934191768E+04  0.93940553477E+03 0.  0.
         23    2    4    4    0    0  0.40909629482E+03  0.68246524933E+02  0.13343766014E+04  0.14003250728E+04  0.91279946123E+02 0.  0.
         23    2    4    4    0    0 -0.44906389996E+03  0.88916400737E+02  0.64104925938E+03  0.79309410392E+03  0.92138982888E+02 0.  0.
          3    1    3    3  502    0  0.42340018640E+02 -0.15442200492E+03  0.23483006100E+03  0.28422524577E+03  0.00000000000E+00 0. -1.
         -4    1    3    3    0  502 -0.23724134963E+01 -0.27409207474E+01 -0.62409647252E+01  0.72173840858E+01  0.00000000000E+00 0.  1.
         13    1    5    5    0    0  0.40170540364E+03  0.77721114388E+02  0.13177622024E+04  0.13798206496E+04  0.00000000000E+00 0.  1.
        -13    1    5    5    0    0  0.73908911742E+01 -0.94745894546E+01  0.16614399015E+02  0.20504423238E+02  0.00000000000E+00 0. -1.
          4    1    6    6  503    0 -0.11159270924E+03 -0.16709163871E+02  0.13954511039E+03  0.17945742321E+03  0.00000000000E+00 0. -1.
         -4    1    6    6    0  503 -0.33747119072E+03  0.10562556461E+03  0.50150414899E+03  0.61363668071E+03  0.00000000000E+00 0.  1.
<mgrwt>
<rscale>  0 0.11475436E+04</rscale>
<asrwt>0</asrwt>
<pdfrwt beam="1">  1        1 0.36068280E+00 0.11475436E+04</pdfrwt>
<pdfrwt beam="2">  1       -2 0.21603606E-01 0.11475436E+04</pdfrwt>
<totfact> 0.28377000E+01</totfact>
</mgrwt>
</event>
<event>
12    5  0.5246737E-008  0.3594364E+04  0.7818608E-02  0.8091784E-01
         -2   -1    0    0    0  501 -0.00000000000E+00  0.00000000000E+00  0.19035713562E+04  0.19035713562E+04  0.00000000000E+00 0.  1.
          1   -1    0    0  501    0  0.00000000000E+00 -0.00000000000E+00 -0.16967383333E+04  0.16967383333E+04  0.00000000000E+00 0. -1.
        -24    2    1    2    0    0 -0.78702938762E+02 -0.16751851153E+04 -0.42375056829E+02  0.16797177329E+04  0.84951125782E+02 0.  0.
        254    2    1    2    0    0  0.78702938762E+02  0.16751851153E+04  0.24920807967E+03  0.19205919566E+04  0.90229123557E+03 0.  0.
         23    2    4    4    0    0  0.38604595154E+03  0.31882148313E+03  0.10255469417E+03  0.51922038520E+03  0.91617292625E+02 0.  0.
         23    2    4    4    0    0 -0.30734301278E+03  0.13563636321E+04  0.14665338550E+03  0.14013715714E+04  0.90294161085E+02 0.  0.
          3    1    3    3  502    0 -0.84735272229E+02 -0.15406948551E+04 -0.58488657072E+02  0.15441313499E+04  0.00000000000E+00 0. -1.
         -4    1    3    3    0  502  0.60323334677E+01 -0.13449026019E+03  0.16113600243E+02  0.13558638297E+03  0.00000000000E+00 0.  1.
         13    1    5    5    0    0  0.18302744941E+03  0.20029227495E+03  0.80960114310E+02  0.28314410245E+03  0.00000000000E+00 0.  1.
        -13    1    5    5    0    0  0.20301850214E+03  0.11852920817E+03  0.21594579862E+02  0.23607628275E+03  0.00000000000E+00 0. -1.
          1    1    6    6  503    0 -0.27135217382E+03  0.10785278168E+04  0.14206743385E+03  0.11211767968E+04  0.00000000000E+00 0. -1.
         -1    1    6    6    0  503 -0.35990838960E+02  0.27783581529E+03  0.45859516527E+01  0.28019477457E+03  0.00000000000E+00 0.  1.
<mgrwt>
<rscale>  0 0.35943636E+04</rscale>
<asrwt>0</asrwt>
<pdfrwt beam="1">  1        1 0.26103667E+00 0.35943636E+04</pdfrwt>
<pdfrwt beam="2">  1       -2 0.29285713E+00 0.35943636E+04</pdfrwt>
<totfact> 0.11974018E-01</totfact>
</mgrwt>
</event>
<event>
12    5  0.5246737E-008  0.1974267E+04  0.7818608E-02  0.8618747E-01
          1   -1    0    0  501    0  0.00000000000E+00  0.00000000000E+00  0.14031674385E+04  0.14031674385E+04  0.00000000000E+00 0. -1.
         -2   -1    0    0    0  501 -0.00000000000E+00 -0.00000000000E+00 -0.69445229958E+03  0.69445229958E+03  0.00000000000E+00 0.  1.
        -24    2    1    2    0    0  0.72516622365E+02  0.16083124484E+03 -0.52044108099E+03  0.55527322076E+03  0.79649739917E+02 0.  0.
        254    2    1    2    0    0 -0.72516622365E+02 -0.16083124484E+03  0.12291562199E+04  0.15423465173E+04  0.91481277686E+03 0.  0.
         23    2    4    4    0    0 -0.48000499699E+03 -0.11968092428E+03  0.77744897985E+03  0.92605821080E+03  0.91807258698E+02 0.  0.
         23    2    4    4    0    0  0.40748837463E+03 -0.41150320554E+02  0.45170724009E+03  0.61628830654E+03  0.89619873316E+02 0.  0.
          1    1    3    3  502    0 -0.11726202001E+02  0.14029346192E+02 -0.20556826461E+02  0.27511987970E+02  0.00000000000E+00 0. -1.
         -2    1    3    3    0  502  0.84242824365E+02  0.14680189865E+03 -0.49988425453E+03  0.52776123279E+03  0.00000000000E+00 0.  1.
         13    1    5    5    0    0 -0.19290387495E+03 -0.69370472936E+02  0.39684201463E+03  0.44666290652E+03  0.00000000000E+00 0.  1.
        -13    1    5    5    0    0 -0.28710112205E+03 -0.50310451347E+02  0.38060696522E+03  0.47939530429E+03  0.00000000000E+00 0. -1.
          3    1    6    6  503    0  0.16428022351E+03 -0.52397581236E+02  0.22620367471E+03  0.28443206712E+03  0.00000000000E+00 0. -1.
         -3    1    6    6    0  503  0.24320815111E+03  0.11247260682E+02  0.22550356538E+03  0.33185623942E+03  0.00000000000E+00 0.  1.
<mgrwt>
<rscale>  0 0.19742673E+04</rscale>
<asrwt>0</asrwt>
<pdfrwt beam="1">  1        1 0.21587191E+00 0.19742673E+04</pdfrwt>
<pdfrwt beam="2">  1       -2 0.10683882E+00 0.19742673E+04</pdfrwt>
<totfact> 0.43966234E+00</totfact>
</mgrwt>
</event>
<event>
12    5  0.5246737E-008  0.1764593E+04  0.7818608E-02  0.8725358E-01
          3   -1    0    0  501    0  0.00000000000E+00  0.00000000000E+00  0.31925070964E+03  0.31925070964E+03  0.00000000000E+00 0. -1.
         -2   -1    0    0    0  501 -0.00000000000E+00 -0.00000000000E+00 -0.24383578612E+04  0.24383578612E+04  0.00000000000E+00 0.  1.
        -24    2    1    2    0    0 -0.24978359958E+03  0.54438722490E+03 -0.11789940233E+04  0.13246790863E+04  0.77449839088E+02 0.  0.
        254    2    1    2    0    0  0.24978359958E+03 -0.54438722490E+03 -0.94011312830E+03  0.14329294845E+04  0.90040264124E+03 0.  0.
         23    2    4    4    0    0  0.22886536544E+03 -0.36975322797E+03 -0.10950037720E+04  0.11816983939E+04  0.91000155238E+02 0.  0.
         23    2    4    4    0    0  0.20918234139E+02 -0.17463399693E+03  0.15489064370E+03  0.25123109067E+03  0.90506044042E+02 0.  0.
          1    1    3    3  502    0 -0.13761979307E+02  0.48089824634E+01 -0.21587825163E+02  0.26049041864E+02  0.00000000000E+00 0. -1.
         -2    1    3    3    0  502 -0.23602162027E+03  0.53957824244E+03 -0.11574061981E+04  0.12986300445E+04  0.00000000000E+00 0.  1.
         13    1    5    5    0    0  0.43509515524E+02 -0.15293011801E+03 -0.39737316311E+03  0.42800248795E+03  0.00000000000E+00 0. -1.
        -13    1    5    5    0    0  0.18535584991E+03 -0.21682310996E+03 -0.69763060890E+03  0.75369590591E+03  0.00000000000E+00 0.  1.
          2    1    6    6  503    0  0.30699853760E+02 -0.70826829935E+02  0.18196207464E+02  0.79309664138E+02  0.00000000000E+00 0. -1.
         -2    1    6    6    0  503 -0.97816196204E+01 -0.10380716700E+03  0.13669443624E+03  0.17192142653E+03  0.00000000000E+00 0.  1.
<mgrwt>
<rscale>  0 0.17645934E+04</rscale>
<asrwt>0</asrwt>
<pdfrwt beam="1">  1        3 0.49115492E-01 0.17645934E+04</pdfrwt>
<pdfrwt beam="2">  1       -2 0.37513199E+00 0.17645934E+04</pdfrwt>
<totfact> 0.17804525E-01</totfact>
</mgrwt>
</event>
<event>
12    5  0.5246737E-008  0.1625040E+04  0.7818608E-02  0.8805311E-01
          1   -1    0    0  501    0  0.00000000000E+00  0.00000000000E+00  0.83300805188E+03  0.83300805188E+03  0.00000000000E+00 0. -1.
         -2   -1    0    0    0  501 -0.00000000000E+00 -0.00000000000E+00 -0.79253554358E+03  0.79253554358E+03  0.00000000000E+00 0.  1.
        -24    2    1    2    0    0  0.35921014736E+03 -0.18819077498E+03 -0.37215694366E+03  0.55610840155E+03  0.79423332834E+02 0.  0.
        254    2    1    2    0    0 -0.35921014736E+03  0.18819077498E+03  0.41262945196E+03  0.10694351939E+04  0.89943363936E+03 0.  0.
         23    2    4    4    0    0 -0.42060045677E+03 -0.19745927658E+03 -0.27418810725E+02  0.47405832273E+03  0.89914359376E+02 0.  0.
         23    2    4    4    0    0  0.61390309410E+02  0.38565005156E+03  0.44004826268E+03  0.59537687118E+03  0.91303958798E+02 0.  0.
          3    1    3    3  502    0  0.42422951262E+02 -0.53629841695E+01 -0.16187842130E+02  0.45722145902E+02  0.00000000000E+00 0. -1.
         -4    1    3    3    0  502  0.31678719610E+03 -0.18282779081E+03 -0.35596910153E+03  0.51038625564E+03  0.00000000000E+00 0.  1.
         13    1    5    5    0    0 -0.41832026553E+03 -0.17983850905E+03 -0.24048103840E+02  0.45597373301E+03  0.00000000000E+00 0. -1.
        -13    1    5    5    0    0 -0.22801912404E+01 -0.17620767536E+02 -0.33707068851E+01  0.18084589726E+02  0.00000000000E+00 0.  1.
          3    1    6    6  503    0  0.78402786983E+02  0.29472080067E+03  0.36911930892E+03  0.47880728020E+03  0.00000000000E+00 0. -1.
         -3    1    6    6    0  503 -0.17012477573E+02  0.90929250884E+02  0.70928953764E+02  0.11656959098E+03  0.00000000000E+00 0.  1.
<mgrwt>
<rscale>  0 0.16250397E+04</rscale>
<asrwt>0</asrwt>
<pdfrwt beam="1">  1        1 0.12815509E+00 0.16250397E+04</pdfrwt>
<pdfrwt beam="2">  1       -2 0.12192854E+00 0.16250397E+04</pdfrwt>
<totfact> 0.88627358E+00</totfact>
</mgrwt>
</event>
<event>
12    5  0.5246737E-008  0.1654004E+04  0.7818608E-02  0.8788041E-01
          1   -1    0    0  501    0  0.00000000000E+00  0.00000000000E+00  0.17045519934E+04  0.17045519934E+04  0.00000000000E+00 0. -1.
         -2   -1    0    0    0  501 -0.00000000000E+00 -0.00000000000E+00 -0.40123871874E+03  0.40123871874E+03  0.00000000000E+00 0.  1.
        -24    2    1    2    0    0  0.29081426279E+03  0.41579508088E+03  0.10133808826E+03  0.52358058656E+03  0.80054592361E+02 0.  0.
        254    2    1    2    0    0 -0.29081426279E+03 -0.41579508088E+03  0.12019751864E+04  0.15822101256E+04  0.89508996646E+03 0.  0.
         23    2    4    4    0    0 -0.16800818379E+03  0.23080405131E+03  0.65907960819E+03  0.72418538077E+03  0.92527162861E+02 0.  0.
         23    2    4    4    0    0 -0.12280607900E+03 -0.64659913219E+03  0.54289557821E+03  0.85802474481E+03  0.91099303442E+02 0.  0.
          1    1    3    3  502    0  0.12267723445E+03  0.20918593278E+03  0.12680264290E+02  0.24283584461E+03  0.00000000000E+00 0. -1.
         -2    1    3    3    0  502  0.16813702834E+03  0.20660914810E+03  0.88657823970E+02  0.28074474194E+03  0.00000000000E+00 0.  1.
         13    1    5    5    0    0 -0.89698182894E+01 -0.66694806764E+01  0.52053663513E+02  0.53240243217E+02  0.00000000000E+00 0.  1.
        -13    1    5    5    0    0 -0.15903836550E+03  0.23747353198E+03  0.60702594468E+03  0.67094513755E+03  0.00000000000E+00 0. -1.
          2    1    6    6  503    0 -0.11486713188E+03 -0.56720922157E+03  0.51121346459E+03  0.77217871338E+03  0.00000000000E+00 0. -1.
         -2    1    6    6    0  503 -0.79389471231E+01 -0.79389910619E+02  0.31682113618E+02  0.85846031433E+02  0.00000000000E+00 0.  1.
<mgrwt>
<rscale>  0 0.16540039E+04</rscale>
<asrwt>0</asrwt>
<pdfrwt beam="1">  1        1 0.26223876E+00 0.16540039E+04</pdfrwt>
<pdfrwt beam="2">  1       -2 0.61729035E-01 0.16540039E+04</pdfrwt>
<totfact> 0.96746368E+00</totfact>
</mgrwt>
</event>
<event>
12    5  0.5246737E-008  0.1511735E+04  0.7818608E-02  0.8876687E-01
          1   -1    0    0  501    0  0.00000000000E+00  0.00000000000E+00  0.15219017557E+04  0.15219017557E+04  0.00000000000E+00 0. -1.
         -2   -1    0    0    0  501 -0.00000000000E+00 -0.00000000000E+00 -0.37540896735E+03  0.37540896735E+03  0.00000000000E+00 0.  1.
        -24    2    1    2    0    0 -0.13087482361E+03 -0.44927788381E+03  0.52403918890E+03  0.70716034870E+03  0.80497521266E+02 0.  0.
        254    2    1    2    0    0  0.13087482361E+03  0.44927788381E+03  0.62245359945E+03  0.11901503744E+04  0.90001699638E+03 0.  0.
         23    2    4    4    0    0  0.93392371809E+02  0.20007950726E+03  0.82219595422E+03  0.85617985220E+03  0.91015426433E+02 0.  0.
         23    2    4    4    0    0  0.37482451804E+02  0.24919837655E+03 -0.19974235477E+03  0.33397052215E+03  0.90191664284E+02 0.  0.
          3    1    3    3  502    0 -0.70300507641E+02 -0.32171071599E+03  0.40848325382E+03  0.52468896959E+03  0.00000000000E+00 0. -1.
         -4    1    3    3    0  502 -0.60574315972E+02 -0.12756716782E+03  0.11555593508E+03  0.18247137911E+03  0.00000000000E+00 0.  1.
         13    1    5    5    0    0  0.50617161576E+01  0.10888855430E+03  0.31467383630E+03  0.33301946111E+03  0.00000000000E+00 0. -1.
        -13    1    5    5    0    0  0.88330655651E+02  0.91190952956E+02  0.50752211792E+03  0.52316039109E+03  0.00000000000E+00 0.  1.
          1    1    6    6  503    0  0.24843404406E+02  0.21435870386E+02 -0.54273538493E+02  0.63421670289E+02  0.00000000000E+00 0. -1.
         -1    1    6    6    0  503  0.12639047398E+02  0.22776250617E+03 -0.14546881628E+03  0.27054885186E+03  0.00000000000E+00 0.  1.
<mgrwt>
<rscale>  0 0.15117349E+04</rscale>
<asrwt>0</asrwt>
<pdfrwt beam="1">  1        1 0.23413873E+00 0.15117349E+04</pdfrwt>
<pdfrwt beam="2">  1       -2 0.57755227E-01 0.15117349E+04</pdfrwt>
<totfact> 0.15035967E+01</totfact>
</mgrwt>
</event>
<event>
12    5  0.5246737E-008  0.3995769E+04  0.7818608E-02  0.8005401E-01
         -2   -1    0    0    0  501 -0.00000000000E+00  0.00000000000E+00  0.38618304271E+04  0.38618304271E+04  0.00000000000E+00 0.  1.
          1   -1    0    0  501    0  0.00000000000E+00 -0.00000000000E+00 -0.10335884383E+04  0.10335884383E+04  0.00000000000E+00 0. -1.
        -24    2    1    2    0    0  0.27002695158E+03  0.17817371743E+04  0.20555887198E+04  0.27348746391E+04  0.81193559086E+02 0.  0.
        254    2    1    2    0    0 -0.27002695158E+03 -0.17817371743E+04  0.77265326894E+03  0.21605442263E+04  0.90744496626E+03 0.  0.
         23    2    4    4    0    0 -0.39436217317E+03 -0.17875695189E+04  0.80775389689E+03  0.20029082463E+04  0.90822775674E+02 0.  0.
         23    2    4    4    0    0  0.12433522160E+03  0.58323446334E+01 -0.35100627949E+02  0.15763597995E+03  0.90132039351E+02 0.  0.
          3    1    3    3  502    0  0.95067430058E+02  0.81283454944E+03  0.97764177492E+03  0.12749593174E+04  0.00000000000E+00 0. -1.
         -4    1    3    3    0  502  0.17495952152E+03  0.96890262484E+03  0.10779469449E+04  0.14599153217E+04  0.00000000000E+00 0.  1.
         13    1    5    5    0    0 -0.55750621702E+02 -0.18764152365E+03  0.60331704809E+02  0.20483502587E+03  0.00000000000E+00 0.  1.
        -13    1    5    5    0    0 -0.33861155147E+03 -0.15999279953E+04  0.74742219208E+03  0.17980732204E+04  0.00000000000E+00 0. -1.
          4    1    6    6  503    0  0.12491742606E+03 -0.10609050123E+02 -0.76090837478E+01  0.12559782416E+03  0.00000000000E+00 0.  1.
         -4    1    6    6    0  503 -0.58220446383E+00  0.16441394756E+02 -0.27491544201E+02  0.32038155786E+02  0.00000000000E+00 0. -1.
<mgrwt>
<rscale>  0 0.39957694E+04</rscale>
<asrwt>0</asrwt>
<pdfrwt beam="1">  1        1 0.15901361E+00 0.39957694E+04</pdfrwt>
<pdfrwt beam="2">  1       -2 0.59412775E+00 0.39957694E+04</pdfrwt>
<totfact> 0.52385169E-03</totfact>
</mgrwt>
</event>
<event>
12    5  0.5246737E-008  0.1267090E+04  0.7818608E-02  0.9056078E-01
         -2   -1    0    0    0  501 -0.00000000000E+00  0.00000000000E+00  0.72771438086E+03  0.72771438086E+03  0.00000000000E+00 0.  1.
          1   -1    0    0  501    0  0.00000000000E+00 -0.00000000000E+00 -0.55156151578E+03  0.55156151578E+03  0.00000000000E+00 0. -1.
        -24    2    1    2    0    0 -0.25661781361E+03 -0.16056012310E+03  0.46636169696E+01  0.31303616092E+03  0.79609254038E+02 0.  0.
        254    2    1    2    0    0  0.25661781361E+03  0.16056012310E+03  0.17148924811E+03  0.96623973573E+03  0.90143131147E+03 0.  0.
         23    2    4    4    0    0  0.56920393901E+02 -0.13698220839E+03  0.46326252120E+03  0.49503347506E+03  0.91879928338E+02 0.  0.
         23    2    4    4    0    0  0.19969741970E+03  0.29754233149E+03 -0.29177327308E+03  0.47120626066E+03  0.92158552170E+02 0.  0.
          1    1    3    3  502    0 -0.56412652257E+02 -0.60284815212E+02  0.29666392363E+02  0.87731072691E+02  0.00000000000E+00 0. -1.
         -2    1    3    3    0  502 -0.20020516135E+03 -0.10027530789E+03 -0.25002775393E+02  0.22530508822E+03  0.00000000000E+00 0.  1.
         13    1    5    5    0    0 -0.20147736711E+02 -0.64683175241E+02  0.15491760479E+03  0.16908373289E+03  0.00000000000E+00 0. -1.
        -13    1    5    5    0    0  0.77068130612E+02 -0.72299033148E+02  0.30834491640E+03  0.32594974217E+03  0.00000000000E+00 0.  1.
          1    1    6    6  503    0  0.17053197193E+03  0.18239510023E+03 -0.17731497166E+03  0.30625108198E+03  0.00000000000E+00 0. -1.
         -1    1    6    6    0  503  0.29165447776E+02  0.11514723126E+03 -0.11445830142E+03  0.16495517869E+03  0.00000000000E+00 0.  1.
<mgrwt>
<rscale>  0 0.12670900E+04</rscale>
<asrwt>0</asrwt>
<pdfrwt beam="1">  1        1 0.84855618E-01 0.12670900E+04</pdfrwt>
<pdfrwt beam="2">  1       -2 0.11195606E+00 0.12670900E+04</pdfrwt>
<totfact> 0.20953380E+01</totfact>
</mgrwt>
</event>
<event>
12    5  0.5246737E-008  0.1247152E+04  0.7818608E-02  0.9072557E-01
          1   -1    0    0  501    0  0.00000000000E+00  0.00000000000E+00  0.91088529116E+03  0.91088529116E+03  0.00000000000E+00 0. -1.
         -2   -1    0    0    0  501 -0.00000000000E+00 -0.00000000000E+00 -0.42688939759E+03  0.42688939759E+03  0.00000000000E+00 0.  1.
        -24    2    1    2    0    0  0.18478114954E+03  0.14336748319E+03 -0.37910723409E+02  0.25010583261E+03  0.80108651821E+02 0.  0.
        254    2    1    2    0    0 -0.18478114954E+03 -0.14336748319E+03  0.52190661699E+03  0.10876688561E+04  0.92516956029E+03 0.  0.
         23    2    4    4    0    0 -0.24283322518E+03 -0.42641906282E+03  0.17221850260E+02  0.49922422380E+03  0.90150103215E+02 0.  0.
         23    2    4    4    0    0  0.58052075637E+02  0.28305157963E+03  0.50468476673E+03  0.58844463234E+03  0.89845040744E+02 0.  0.
          1    1    3    3  502    0  0.10839485513E+03  0.94790512449E+02  0.15779466134E+02  0.14485743826E+03  0.00000000000E+00 0. -1.
         -2    1    3    3    0  502  0.76386294412E+02  0.48576970741E+02 -0.53690189543E+02  0.10524839435E+03  0.00000000000E+00 0.  1.
         13    1    5    5    0    0 -0.18981289979E+03 -0.24515674526E+03  0.85404028672E+01  0.31016722128E+03  0.00000000000E+00 0.  1.
        -13    1    5    5    0    0 -0.53020325382E+02 -0.18126231756E+03  0.86814473928E+01  0.18905700252E+03  0.00000000000E+00 0. -1.
          2    1    6    6  503    0 -0.18841387203E+02  0.63780839647E+02  0.15420491551E+03  0.16793495570E+03  0.00000000000E+00 0. -1.
         -2    1    6    6    0  503  0.76893462840E+02  0.21927073999E+03  0.35047985122E+03  0.42050967665E+03  0.00000000000E+00 0.  1.
<mgrwt>
<rscale>  0 0.12471524E+04</rscale>
<asrwt>0</asrwt>
<pdfrwt beam="1">  1        1 0.14013620E+00 0.12471524E+04</pdfrwt>
<pdfrwt beam="2">  1       -2 0.65675292E-01 0.12471524E+04</pdfrwt>
<totfact> 0.32908692E+01</totfact>
</mgrwt>
</event>
<event>
12    5  0.5246737E-008  0.1688196E+04  0.7818608E-02  0.8768125E-01
         -2   -1    0    0    0  501 -0.00000000000E+00  0.00000000000E+00  0.56379795308E+03  0.56379795308E+03  0.00000000000E+00 0.  1.
          1   -1    0    0  501    0  0.00000000000E+00 -0.00000000000E+00 -0.12637528819E+04  0.12637528819E+04  0.00000000000E+00 0. -1.
        -24    2    1    2    0    0  0.38179175015E+03 -0.44913784590E+03 -0.31365001883E+03  0.67239275171E+03  0.79031216218E+02 0.  0.
        254    2    1    2    0    0 -0.38179175015E+03  0.44913784590E+03 -0.38630490999E+03  0.11551580833E+04  0.91524257373E+03 0.  0.
         23    2    4    4    0    0 -0.24276471829E+03 -0.19905727768E+03  0.83110146643E+02  0.33733508260E+03  0.91264194702E+02 0.  0.
         23    2    4    4    0    0 -0.13902703186E+03  0.64819512358E+03 -0.46941505663E+03  0.81782300067E+03  0.94860588321E+02 0.  0.
          1    1    3    3  502    0  0.74965059933E+02 -0.97136288347E+02 -0.10266043758E+03  0.15998244956E+03  0.00000000000E+00 0. -1.
         -2    1    3    3    0  502  0.30682669022E+03 -0.35200155756E+03 -0.21098958126E+03  0.51241030215E+03  0.00000000000E+00 0.  1.
         13    1    5    5    0    0 -0.88711896783E+02 -0.54349830058E+02 -0.13562081973E+02  0.10491727563E+03  0.00000000000E+00 0. -1.
        -13    1    5    5    0    0 -0.15405282150E+03 -0.14470744762E+03  0.96672228616E+02  0.23241780697E+03  0.00000000000E+00 0.  1.
          4    1    6    6  503    0  0.95700809186E+01  0.57350775939E+02 -0.22980354497E+02  0.62520353825E+02  0.00000000000E+00 0. -1.
         -4    1    6    6    0  503 -0.14859711278E+03  0.59084434764E+03 -0.44643470213E+03  0.75530264685E+03  0.00000000000E+00 0.  1.
<mgrwt>
<rscale>  0 0.16881958E+04</rscale>
<asrwt>0</asrwt>
<pdfrwt beam="1">  1        1 0.19442352E+00 0.16881958E+04</pdfrwt>
<pdfrwt beam="2">  1       -2 0.86738147E-01 0.16881958E+04</pdfrwt>
<totfact> 0.92329555E+00</totfact>
</mgrwt>
</event>
<event>
12    5  0.5246737E-008  0.1275799E+04  0.7818608E-02  0.9048980E-01
          1   -1    0    0  501    0  0.00000000000E+00  0.00000000000E+00  0.12432006772E+04  0.12432006772E+04  0.00000000000E+00 0. -1.
         -2   -1    0    0    0  501 -0.00000000000E+00 -0.00000000000E+00 -0.32731293392E+03  0.32731293392E+03  0.00000000000E+00 0.  1.
        -24    2    1    2    0    0  0.10448442794E+03  0.26174603569E+03  0.82137695946E+02  0.30421332188E+03  0.79819554182E+02 0.  0.
        254    2    1    2    0    0 -0.10448442794E+03 -0.26174603569E+03  0.83375004730E+03  0.12663002892E+04  0.91046652778E+03 0.  0.
         23    2    4    4    0    0  0.14640726835E+02 -0.44745977001E+03  0.90819999794E+03  0.10167184366E+04  0.91948607928E+02 0.  0.
         23    2    4    4    0    0 -0.11912515477E+03  0.18571373432E+03 -0.74449950639E+02  0.24958185257E+03  0.89821558486E+02 0.  0.
          3    1    3    3  502    0  0.10165642278E+02  0.97394164484E+01  0.25664543820E+02  0.29272262044E+02  0.00000000000E+00 0. -1.
         -4    1    3    3    0  502  0.94318785660E+02  0.25200661924E+03  0.56473152127E+02  0.27494105983E+03  0.00000000000E+00 0.  1.
         13    1    5    5    0    0 -0.37772147524E+02 -0.16339729691E+03  0.35631935488E+03  0.39381327355E+03  0.00000000000E+00 0.  1.
        -13    1    5    5    0    0  0.52412874359E+02 -0.28406247310E+03  0.55188064306E+03  0.62290516309E+03  0.00000000000E+00 0. -1.
          3    1    6    6  503    0 -0.98655243732E+02  0.18127743554E+03 -0.88291205002E+02  0.22447650798E+03  0.00000000000E+00 0. -1.
         -3    1    6    6    0  503 -0.20469911041E+02  0.44362987737E+01  0.13841254363E+02  0.25105344594E+02  0.00000000000E+00 0.  1.
<mgrwt>
<rscale>  0 0.12757988E+04</rscale>
<asrwt>0</asrwt>
<pdfrwt beam="1">  1        1 0.19126164E+00 0.12757988E+04</pdfrwt>
<pdfrwt beam="2">  1       -2 0.50355837E-01 0.12757988E+04</pdfrwt>
<totfact> 0.31999654E+01</totfact>
</mgrwt>
</event>
<event>
12    5  0.5246737E-008  0.1489833E+04  0.7818608E-02  0.8891242E-01
         -2   -1    0    0    0  501 -0.00000000000E+00  0.00000000000E+00  0.85994415446E+03  0.85994415446E+03  0.00000000000E+00 0.  1.
          1   -1    0    0  501    0  0.00000000000E+00 -0.00000000000E+00 -0.64527481231E+03  0.64527481231E+03  0.00000000000E+00 0. -1.
        -24    2    1    2    0    0 -0.28204546669E+02  0.38465508273E+03  0.38763889554E+03  0.55267982942E+03  0.80225004741E+02 0.  0.
        254    2    1    2    0    0  0.28204546669E+02 -0.38465508273E+03 -0.17296955339E+03  0.95253913735E+03  0.85361426456E+03 0.  0.
         23    2    4    4    0    0 -0.29020625613E+03 -0.98350136556E+02  0.20144198795E+03  0.37648561896E+03  0.85265035737E+02 0.  0.
         23    2    4    4    0    0  0.31841080280E+03 -0.28630494618E+03 -0.37441154134E+03  0.57605351838E+03  0.91091669280E+02 0.  0.
          3    1    3    3  502    0 -0.25866878756E+02  0.31620174300E+02  0.37615678533E+02  0.55532604035E+02  0.00000000000E+00 0. -1.
         -4    1    3    3    0  502 -0.23376679129E+01  0.35303490843E+03  0.35002321700E+03  0.49714722538E+03  0.00000000000E+00 0.  1.
         13    1    5    5    0    0 -0.41404752034E+02 -0.35835065351E+02  0.83274147624E+01  0.55388186794E+02  0.00000000000E+00 0. -1.
        -13    1    5    5    0    0 -0.24880150409E+03 -0.62515071205E+02  0.19311457319E+03  0.32109743217E+03  0.00000000000E+00 0.  1.
          3    1    6    6  503    0  0.17919997984E+03 -0.12236836111E+03 -0.23442041745E+03  0.31943634842E+03  0.00000000000E+00 0. -1.
         -3    1    6    6    0  503  0.13921082296E+03 -0.16393658507E+03 -0.13999112389E+03  0.25661716997E+03  0.00000000000E+00 0.  1.
<mgrwt>
<rscale>  0 0.14898326E+04</rscale>
<asrwt>0</asrwt>
<pdfrwt beam="1">  1        1 0.99273048E-01 0.14898326E+04</pdfrwt>
<pdfrwt beam="2">  1       -2 0.13229910E+00 0.14898326E+04</pdfrwt>
<totfact> 0.10833528E+01</totfact>
</mgrwt>
</event>
<event>
12    5  0.5246737E-008  0.1243720E+04  0.7818608E-02  0.9075426E-01
          1   -1    0    0  501    0  0.00000000000E+00  0.00000000000E+00  0.13025994794E+04  0.13025994794E+04  0.00000000000E+00 0. -1.
         -2   -1    0    0    0  501 -0.00000000000E+00 -0.00000000000E+00 -0.29687562860E+03  0.29687562860E+03  0.00000000000E+00 0.  1.
        -24    2    1    2    0    0  0.20995858477E+03 -0.78887873972E+02  0.19383964814E+02  0.23924603887E+03  0.80975459513E+02 0.  0.
        254    2    1    2    0    0 -0.20995858477E+03  0.78887873972E+02  0.98633988595E+03  0.13602290691E+04  0.90942335896E+03 0.  0.
         23    2    4    4    0    0  0.33037961648E+03 -0.19131720811E+02  0.19979517076E+03  0.39654393632E+03  0.88387043459E+02 0.  0.
         23    2    4    4    0    0 -0.54033820125E+03  0.98019594783E+02  0.78654471519E+03  0.96368513277E+03  0.91995833826E+02 0.  0.
          3    1    3    3  502    0  0.97417802340E+02 -0.48968162376E+02  0.48311970299E+02  0.11925667953E+03  0.00000000000E+00 0. -1.
         -4    1    3    3    0  502  0.11254078243E+03 -0.29919711596E+02 -0.28928005486E+02  0.11998935933E+03  0.00000000000E+00 0.  1.
         13    1    5    5    0    0  0.92261098828E+02  0.20125505898E+01  0.13065426716E+02  0.93203358802E+02  0.00000000000E+00 0.  1.
        -13    1    5    5    0    0  0.23811851765E+03 -0.21144271400E+02  0.18672974404E+03  0.30334057752E+03  0.00000000000E+00 0. -1.
          2    1    6    6  503    0 -0.40477720564E+03  0.96020216068E+02  0.53260084444E+03  0.67581663756E+03  0.00000000000E+00 0. -1.
         -2    1    6    6    0  503 -0.13556099560E+03  0.19993787146E+01  0.25394387075E+03  0.28786849521E+03  0.00000000000E+00 0.  1.
<mgrwt>
<rscale>  0 0.12437203E+04</rscale>
<asrwt>0</asrwt>
<pdfrwt beam="1">  1        1 0.20039992E+00 0.12437203E+04</pdfrwt>
<pdfrwt beam="2">  1       -2 0.45673175E-01 0.12437203E+04</pdfrwt>
<totfact> 0.35428448E+01</totfact>
</mgrwt>
</event>
<event>
12    5  0.5246737E-008  0.1873048E+04  0.7818608E-02  0.8668390E-01
          1   -1    0    0  501    0  0.00000000000E+00  0.00000000000E+00  0.66296708147E+03  0.66296708147E+03  0.00000000000E+00 0. -1.
         -2   -1    0    0    0  501 -0.00000000000E+00 -0.00000000000E+00 -0.13229567256E+04  0.13229567256E+04  0.00000000000E+00 0.  1.
        -24    2    1    2    0    0 -0.46753274318E+03 -0.22323355455E+03  0.26471760426E+03  0.58734989149E+03  0.80525767275E+02 0.  0.
        254    2    1    2    0    0  0.46753274318E+03  0.22323355455E+03 -0.92470724843E+03  0.13985739156E+04  0.91241734766E+03 0.  0.
         23    2    4    4    0    0  0.24733468936E+03  0.44921873565E+03 -0.93441461085E+03  0.10700073335E+04  0.93878153307E+02 0.  0.
         23    2    4    4    0    0  0.22019805382E+03 -0.22598518110E+03  0.97073624271E+01  0.32856658215E+03  0.91133314642E+02 0.  0.
          3    1    3    3  502    0 -0.27877453011E+03 -0.90729418290E+02  0.16115149168E+03  0.33453978725E+03  0.00000000000E+00 0. -1.
         -4    1    3    3    0  502 -0.18875821307E+03 -0.13250413626E+03  0.10356611258E+03  0.25281010424E+03  0.00000000000E+00 0.  1.
         13    1    5    5    0    0  0.24695894787E+03  0.44806679364E+03 -0.93676037004E+03  0.10673671179E+04  0.00000000000E+00 0.  1.
        -13    1    5    5    0    0  0.37574149038E+00  0.11519420074E+01  0.23457591863E+01  0.26402155625E+01  0.00000000000E+00 0. -1.
          4    1    6    6  503    0  0.52501536484E+02 -0.87198722285E+02 -0.32474065982E+02  0.10683910081E+03  0.00000000000E+00 0. -1.
         -4    1    6    6    0  503  0.16769651734E+03 -0.13878645881E+03  0.42181428409E+02  0.22172748134E+03  0.00000000000E+00 0.  1.
<mgrwt>
<rscale>  0 0.18730475E+04</rscale>
<asrwt>0</asrwt>
<pdfrwt beam="1">  1        1 0.10199494E+00 0.18730475E+04</pdfrwt>
<pdfrwt beam="2">  1       -2 0.20353180E+00 0.18730475E+04</pdfrwt>
<totfact> 0.30604069E+00</totfact>
</mgrwt>
</event>
<event>
12    5  0.5246737E-008  0.9948184E+03  0.7818608E-02  0.9314246E-01
          1   -1    0    0  501    0  0.00000000000E+00  0.00000000000E+00  0.21623450195E+04  0.21623450195E+04  0.00000000000E+00 0. -1.
         -2   -1    0    0    0  501 -0.00000000000E+00 -0.00000000000E+00 -0.11442019142E+03  0.11442019142E+03  0.00000000000E+00 0.  1.
        -24    2    1    2    0    0  0.11717875909E+03  0.45740864430E+02  0.15469152294E+03  0.21482636193E+03  0.79986312909E+02 0.  0.
        254    2    1    2    0    0 -0.11717875909E+03 -0.45740864430E+02  0.18932333052E+04  0.20619388490E+04  0.80711608893E+03 0.  0.
         23    2    4    4    0    0 -0.32932414870E+03  0.33861139772E+02  0.17380153866E+04  0.17716589725E+04  0.92070944333E+02 0.  0.
         23    2    4    4    0    0  0.21214538961E+03 -0.79602004202E+02  0.15521791853E+03  0.29027987655E+03  0.93955623004E+02 0.  0.
          1    1    3    3  502    0  0.71452462551E+02  0.27778568325E+02  0.14604547049E+03  0.16494357433E+03  0.00000000000E+00 0. -1.
         -2    1    3    3    0  502  0.45726296536E+02  0.17962296104E+02  0.86460524519E+01  0.49882787605E+02  0.00000000000E+00 0.  1.
         13    1    5    5    0    0 -0.19717079406E+02 -0.33238225295E+01  0.34819972870E+02  0.40152727519E+02  0.00000000000E+00 0.  1.
        -13    1    5    5    0    0 -0.30960706929E+03  0.37184962301E+02  0.17031954138E+04  0.17315062449E+04  0.00000000000E+00 0. -1.
          4    1    6    6  503    0  0.15680226336E+03 -0.21030942055E+02  0.70014896991E+02  0.17300675166E+03  0.00000000000E+00 0. -1.
         -4    1    6    6    0  503  0.55343126254E+02 -0.58571062147E+02  0.85203021536E+02  0.11727312490E+03  0.00000000000E+00 0.  1.
<mgrwt>
<rscale>  0 0.99481844E+03</rscale>
<asrwt>0</asrwt>
<pdfrwt beam="1">  1        1 0.33266844E+00 0.99481844E+03</pdfrwt>
<pdfrwt beam="2">  1       -2 0.17603108E-01 0.99481844E+03</pdfrwt>
<totfact> 0.54729465E+01</totfact>
</mgrwt>
</event>
<event>
12    5  0.5246737E-008  0.1683670E+04  0.7818608E-02  0.8770733E-01
         -2   -1    0    0    0  501 -0.00000000000E+00  0.00000000000E+00  0.50714461404E+03  0.50714461404E+03  0.00000000000E+00 0.  1.
          1   -1    0    0  501    0  0.00000000000E+00 -0.00000000000E+00 -0.13974042031E+04  0.13974042031E+04  0.00000000000E+00 0. -1.
        -24    2    1    2    0    0  0.33247437968E+03 -0.49024527782E+03 -0.22262609896E+03  0.63841278109E+03  0.84432538515E+02 0.  0.
        254    2    1    2    0    0 -0.33247437968E+03  0.49024527782E+03 -0.66763349010E+03  0.12661360361E+04  0.89804584467E+03 0.  0.
         23    2    4    4    0    0 -0.26917121720E+03  0.17771846186E+03 -0.83111928643E+03  0.89625190679E+03  0.92039210687E+02 0.  0.
         23    2    4    4    0    0 -0.63303162475E+02  0.31252681596E+03  0.16348579633E+03  0.36988412926E+03  0.91686217082E+02 0.  0.
          1    1    3    3  502    0  0.25846121360E+03 -0.42780263170E+03 -0.16837196611E+03  0.52741483634E+03  0.00000000000E+00 0. -1.
         -2    1    3    3    0  502  0.74013166080E+02 -0.62442646122E+02 -0.54254132851E+02  0.11099794475E+03  0.00000000000E+00 0.  1.
         13    1    5    5    0    0 -0.15628327415E+01  0.20931960676E+01  0.22980984388E+01  0.34792488255E+01  0.00000000000E+00 0.  1.
        -13    1    5    5    0    0 -0.26760838446E+03  0.17562526579E+03 -0.83341738487E+03  0.89277265797E+03  0.00000000000E+00 0. -1.
          4    1    6    6  503    0 -0.43772426849E+02  0.27012333047E+03  0.17087803296E+03  0.32261732930E+03  0.00000000000E+00 0. -1.
         -4    1    6    6    0  503 -0.19530735626E+02  0.42403485496E+02 -0.73922366329E+01  0.47266799963E+02  0.00000000000E+00 0.  1.
<mgrwt>
<rscale>  0 0.16836698E+04</rscale>
<asrwt>0</asrwt>
<pdfrwt beam="1">  1        1 0.21498526E+00 0.16836698E+04</pdfrwt>
<pdfrwt beam="2">  1       -2 0.78022249E-01 0.16836698E+04</pdfrwt>
<totfact> 0.94318879E+00</totfact>
</mgrwt>
</event>
<event>
12    5  0.5246737E-008  0.1080001E+04  0.7818608E-02  0.9224906E-01
          1   -1    0    0  501    0  0.00000000000E+00  0.00000000000E+00  0.50564071444E+03  0.50564071444E+03  0.00000000000E+00 0. -1.
         -2   -1    0    0    0  501 -0.00000000000E+00 -0.00000000000E+00 -0.57669544688E+03  0.57669544688E+03  0.00000000000E+00 0.  1.
        -24    2    1    2    0    0  0.64234240965E+02 -0.12487997554E+03  0.19981240848E+02  0.16295438061E+03  0.80211184826E+02 0.  0.
        254    2    1    2    0    0 -0.64234240965E+02  0.12487997554E+03 -0.91035973289E+02  0.91938178070E+03  0.90402116361E+03 0.  0.
         23    2    4    4    0    0  0.48337170000E+02 -0.35039371026E+03  0.11374613306E+03  0.38260389300E+03  0.91297984425E+02 0.  0.
         23    2    4    4    0    0 -0.11257141096E+03  0.47527368580E+03 -0.20478210635E+03  0.53677788770E+03  0.87392165930E+02 0.  0.
          3    1    3    3  502    0 -0.76486042115E+01 -0.31612748022E+02  0.30685263103E+02  0.44715236280E+02  0.00000000000E+00 0. -1.
         -4    1    3    3    0  502  0.71882845176E+02 -0.93267227522E+02 -0.10704022255E+02  0.11823914433E+03  0.00000000000E+00 0.  1.
         13    1    5    5    0    0 -0.25003130616E+01 -0.16598335389E+03  0.13269425808E+02  0.16653168766E+03  0.00000000000E+00 0. -1.
        -13    1    5    5    0    0  0.50837483062E+02 -0.18441035637E+03  0.10047670725E+03  0.21607220534E+03  0.00000000000E+00 0.  1.
          3    1    6    6  503    0 -0.81713378609E+02  0.41752745365E+03 -0.14906840229E+03  0.45080776320E+03  0.00000000000E+00 0. -1.
         -3    1    6    6    0  503 -0.30858032355E+02  0.57746232150E+02 -0.55713704053E+02  0.85970124507E+02  0.00000000000E+00 0.  1.
<mgrwt>
<rscale>  0 0.10800013E+04</rscale>
<asrwt>0</asrwt>
<pdfrwt beam="1">  1        1 0.77790879E-01 0.10800013E+04</pdfrwt>
<pdfrwt beam="2">  1       -2 0.88722376E-01 0.10800013E+04</pdfrwt>
<totfact> 0.41608790E+01</totfact>
</mgrwt>
</event>
<event>
12    5  0.5246737E-008  0.2970209E+04  0.7818608E-02  0.8252289E-01
         -2   -1    0    0    0  501 -0.00000000000E+00  0.00000000000E+00  0.10480660925E+04  0.10480660925E+04  0.00000000000E+00 0.  1.
          1   -1    0    0  501    0  0.00000000000E+00 -0.00000000000E+00 -0.21043860833E+04  0.21043860833E+04  0.00000000000E+00 0. -1.
        -24    2    1    2    0    0  0.54485381071E+03 -0.11341378374E+04  0.30355857356E+02  0.12608323567E+04  0.75116205964E+02 0.  0.
        254    2    1    2    0    0 -0.54485381071E+03  0.11341378374E+04 -0.10866758481E+04  0.18916198191E+04  0.90234518443E+03 0.  0.
         23    2    4    4    0    0 -0.21906722208E+03  0.92418443034E+03 -0.28491583908E+03  0.99587469583E+03  0.92098128990E+02 0.  0.
         23    2    4    4    0    0 -0.32578658863E+03  0.20995340705E+03 -0.80176000902E+03  0.89574512326E+03  0.96555058411E+02 0.  0.
          3    1    3    3  502    0  0.36405062585E+03 -0.68219915672E+03  0.34944395009E+02  0.77404758145E+03  0.00000000000E+00 0. -1.
         -4    1    3    3    0  502  0.18080318487E+03 -0.45193868068E+03 -0.45885376529E+01  0.48678477526E+03  0.00000000000E+00 0.  1.
         13    1    5    5    0    0  0.11464231019E+01  0.13219825897E+03 -0.37671984666E+02  0.13746589537E+03  0.00000000000E+00 0.  1.
        -13    1    5    5    0    0 -0.22021364518E+03  0.79198617137E+03 -0.24724385441E+03  0.85840880047E+03  0.00000000000E+00 0. -1.
          1    1    6    6  503    0 -0.11085320806E+03  0.79735216029E+02 -0.18653655104E+03  0.23117530856E+03  0.00000000000E+00 0.  1.
         -1    1    6    6    0  503 -0.21493338057E+03  0.13021819102E+03 -0.61522345799E+03  0.66456981470E+03  0.00000000000E+00 0. -1.
<mgrwt>
<rscale>  0 0.29702092E+04</rscale>
<asrwt>0</asrwt>
<pdfrwt beam="1">  1        1 0.32375170E+00 0.29702092E+04</pdfrwt>
<pdfrwt beam="2">  1       -2 0.16124094E+00 0.29702092E+04</pdfrwt>
<totfact> 0.46829416E-01</totfact>
</mgrwt>
</event>
<event>
12    5  0.5246737E-008  0.1469025E+04  0.7818608E-02  0.8905317E-01
          1   -1    0    0  501    0  0.00000000000E+00  0.00000000000E+00  0.29556875027E+04  0.29556875027E+04  0.00000000000E+00 0. -1.
         -2   -1    0    0    0  501 -0.00000000000E+00 -0.00000000000E+00 -0.18253226219E+03  0.18253226219E+03  0.00000000000E+00 0.  1.
        -24    2    1    2    0    0  0.13358728328E+03 -0.27805785986E+03  0.16885360548E+03  0.36066660712E+03  0.80044523405E+02 0.  0.
        254    2    1    2    0    0 -0.13358728328E+03  0.27805785986E+03  0.26043016351E+04  0.27775531578E+04  0.91501519244E+03 0.  0.
         23    2    4    4    0    0  0.26925458398E+03  0.61429676628E+02  0.19638893733E+04  0.19852819209E+04  0.90615663846E+02 0.  0.
         23    2    4    4    0    0 -0.40284186726E+03  0.21662818323E+03  0.64041226177E+03  0.79227123697E+03  0.91413938309E+02 0.  0.
          1    1    3    3  502    0 -0.39364146902E+01 -0.47205720361E+02  0.42870197564E+02  0.63888412365E+02  0.00000000000E+00 0. -1.
         -2    1    3    3    0  502  0.13752369797E+03 -0.23085213950E+03  0.12598340792E+03  0.29677819476E+03  0.00000000000E+00 0.  1.
         13    1    5    5    0    0  0.15909580464E+03  0.72994245828E+02  0.10193020405E+04  0.10342225508E+04  0.00000000000E+00 0. -1.
        -13    1    5    5    0    0  0.11015877934E+03 -0.11564569200E+02  0.94458733285E+03  0.95105937002E+03  0.00000000000E+00 0.  1.
          1    1    6    6  503    0 -0.29569567833E+03  0.14132948772E+03  0.38786389916E+03  0.50778771407E+03  0.00000000000E+00 0. -1.
         -1    1    6    6    0  503 -0.10714618892E+03  0.75298695513E+02  0.25254836261E+03  0.28448352290E+03  0.00000000000E+00 0.  1.
<mgrwt>
<rscale>  0 0.14690246E+04</rscale>
<asrwt>0</asrwt>
<pdfrwt beam="1">  1        1 0.45472112E+00 0.14690246E+04</pdfrwt>
<pdfrwt beam="2">  1       -2 0.28081889E-01 0.14690246E+04</pdfrwt>
<totfact> 0.63972848E+00</totfact>
</mgrwt>
</event>
<event>
12    5  0.5246737E-008  0.1325391E+04  0.7818608E-02  0.9009669E-01
         -2   -1    0    0    0  501 -0.00000000000E+00  0.00000000000E+00  0.74239283271E+03  0.74239283271E+03  0.00000000000E+00 0.  1.
          1   -1    0    0  501    0  0.00000000000E+00 -0.00000000000E+00 -0.59155391490E+03  0.59155391490E+03  0.00000000000E+00 0. -1.
        -24    2    1    2    0    0  0.78350793289E+02 -0.17020095121E+03 -0.25794274782E+03  0.32866491243E+03  0.79868347380E+02 0.  0.
        254    2    1    2    0    0 -0.78350793289E+02  0.17020095121E+03  0.40878166563E+03  0.10052818352E+04  0.89910061027E+03 0.  0.
         23    2    4    4    0    0  0.93126412417E+02 -0.13701797080E+03 -0.21321713305E+03  0.28499622239E+03  0.91185788018E+02 0.  0.
         23    2    4    4    0    0 -0.17147720571E+03  0.30721892201E+03  0.62199879868E+03  0.72028561279E+03  0.90227270408E+02 0.  0.
          3    1    3    3  502    0  0.59438580317E+02 -0.99581612860E+02 -0.21389868787E+03  0.24331479841E+03  0.00000000000E+00 0. -1.
         -4    1    3    3    0  502  0.18912212972E+02 -0.70619338348E+02 -0.44044059943E+02  0.85350114027E+02  0.00000000000E+00 0.  1.
         13    1    5    5    0    0  0.44022648616E+02 -0.88025386262E+02 -0.18609433609E+03  0.21051737254E+03  0.00000000000E+00 0.  1.
        -13    1    5    5    0    0  0.49103763802E+02 -0.48992584535E+02 -0.27122796962E+02  0.74478849843E+02  0.00000000000E+00 0. -1.
          1    1    6    6  503    0 -0.25524664128E+02  0.75969884596E+02  0.80153345119E+02  0.11334677136E+03  0.00000000000E+00 0. -1.
         -1    1    6    6    0  503 -0.14595254158E+03  0.23124903741E+03  0.54184545356E+03  0.60693884143E+03  0.00000000000E+00 0.  1.
<mgrwt>
<rscale>  0 0.13253911E+04</rscale>
<asrwt>0</asrwt>
<pdfrwt beam="1">  1        1 0.91008295E-01 0.13253911E+04</pdfrwt>
<pdfrwt beam="2">  1       -2 0.11421428E+00 0.13253911E+04</pdfrwt>
<totfact> 0.17984296E+01</totfact>
</mgrwt>
</event>
<event>
12    5  0.5246737E-008  0.2352363E+04  0.7818608E-02  0.8457557E-01
          1   -1    0    0  501    0  0.00000000000E+00  0.00000000000E+00  0.20631820501E+04  0.20631820501E+04  0.00000000000E+00 0. -1.
         -2   -1    0    0    0  501 -0.00000000000E+00 -0.00000000000E+00 -0.67051894716E+03  0.67051894716E+03  0.00000000000E+00 0.  1.
        -24    2    1    2    0    0 -0.55664360451E+03 -0.63632656092E+03 -0.34292188332E+02  0.84998311774E+03  0.80819253277E+02 0.  0.
        254    2    1    2    0    0  0.55664360451E+03  0.63632656092E+03  0.14269552912E+04  0.18837178795E+04  0.89298827078E+03 0.  0.
         23    2    4    4    0    0  0.78391040265E+03  0.44935517457E+03  0.92670650468E+03  0.12974113350E+04  0.89753184496E+02 0.  0.
         23    2    4    4    0    0 -0.22726679814E+03  0.18697138634E+03  0.50024878656E+03  0.58630654447E+03  0.83054312282E+02 0.  0.
          1    1    3    3  502    0 -0.25716283803E+03 -0.26828460969E+03  0.21323124550E+02  0.37224190078E+03  0.00000000000E+00 0. -1.
         -2    1    3    3    0  502 -0.29948076648E+03 -0.36804195123E+03 -0.55615312883E+02  0.47774121696E+03  0.00000000000E+00 0.  1.
         13    1    5    5    0    0  0.46597265798E+03  0.31525143607E+03  0.59196456098E+03  0.81666151335E+03  0.00000000000E+00 0.  1.
        -13    1    5    5    0    0  0.31793774467E+03  0.13410373851E+03  0.33474194370E+03  0.48074982167E+03  0.00000000000E+00 0. -1.
          1    1    6    6  503    0 -0.27624876951E+02  0.63717384108E+02  0.14187542579E+03  0.15796099299E+03  0.00000000000E+00 0. -1.
         -1    1    6    6    0  503 -0.19964192119E+03  0.12325400223E+03  0.35837336077E+03  0.42834555148E+03  0.00000000000E+00 0.  1.
<mgrwt>
<rscale>  0 0.23523628E+04</rscale>
<asrwt>0</asrwt>
<pdfrwt beam="1">  1        1 0.31741262E+00 0.23523628E+04</pdfrwt>
<pdfrwt beam="2">  1       -2 0.10315676E+00 0.23523628E+04</pdfrwt>
<totfact> 0.16369177E+00</totfact>
</mgrwt>
</event>
<event>
12    5  0.5246737E-008  0.1588398E+04  0.7818608E-02  0.8827707E-01
          1   -1    0    0  501    0  0.00000000000E+00  0.00000000000E+00  0.34186975967E+04  0.34186975967E+04  0.00000000000E+00 0. -1.
         -2   -1    0    0    0  501 -0.00000000000E+00 -0.00000000000E+00 -0.18450067399E+03  0.18450067399E+03  0.00000000000E+00 0.  1.
        -24    2    1    2    0    0 -0.16135027010E+03 -0.11864094966E+03 -0.26206919040E+02  0.21684219797E+03  0.78893292625E+02 0.  0.
        254    2    1    2    0    0  0.16135027010E+03  0.11864094966E+03  0.32604038417E+04  0.33863560727E+04  0.89278477545E+03 0.  0.
         23    2    4    4    0    0 -0.10867452703E+02 -0.24888006220E+03  0.25446469863E+04  0.25583851961E+04  0.89705850438E+02 0.  0.
         23    2    4    4    0    0  0.17221772280E+03  0.36752101186E+03  0.71575685542E+03  0.82797087663E+03  0.92180574215E+02 0.  0.
          1    1    3    3  502    0 -0.26355728187E+02 -0.62126391581E+02  0.32348403932E+01  0.67563134411E+02  0.00000000000E+00 0. -1.
         -2    1    3    3    0  502 -0.13499454191E+03 -0.56514558077E+02 -0.29441759433E+02  0.14927906356E+03  0.00000000000E+00 0.  1.
         13    1    5    5    0    0 -0.45413055666E+02 -0.19890569621E+03  0.19614389304E+04  0.19720214246E+04  0.00000000000E+00 0. -1.
        -13    1    5    5    0    0  0.34545602963E+02 -0.49974365992E+02  0.58320805591E+03  0.58636377141E+03  0.00000000000E+00 0.  1.
          1    1    6    6  503    0  0.10421075481E+03  0.28239271290E+03  0.45717089454E+03  0.54736710947E+03  0.00000000000E+00 0. -1.
         -1    1    6    6    0  503  0.68006967987E+02  0.85128298956E+02  0.25858596088E+03  0.28060376716E+03  0.00000000000E+00 0.  1.
<mgrwt>
<rscale>  0 0.15883979E+04</rscale>
<asrwt>0</asrwt>
<pdfrwt beam="1">  1        1 0.52595343E+00 0.15883979E+04</pdfrwt>
<pdfrwt beam="2">  1       -2 0.28384722E-01 0.15883979E+04</pdfrwt>
<totfact> 0.27992772E+00</totfact>
</mgrwt>
</event>
<event>
12    5  0.5246737E-008  0.2550707E+04  0.7818608E-02  0.8385140E-01
          1   -1    0    0  501    0  0.00000000000E+00  0.00000000000E+00  0.10337230283E+04  0.10337230283E+04  0.00000000000E+00 0. -1.
         -2   -1    0    0    0  501 -0.00000000000E+00 -0.00000000000E+00 -0.15734640184E+04  0.15734640184E+04  0.00000000000E+00 0.  1.
        -24    2    1    2    0    0  0.91409399633E+03 -0.19857935164E+03 -0.85280508915E+03  0.12682731476E+04  0.78985211954E+02 0.  0.
        254    2    1    2    0    0 -0.91409399633E+03  0.19857935164E+03  0.31306409902E+03  0.13389138991E+04  0.90536164384E+03 0.  0.
         23    2    4    4    0    0  0.65008398170E+02  0.11691864789E+03 -0.17529649598E+03  0.23787450108E+03  0.89215215655E+02 0.  0.
         23    2    4    4    0    0 -0.97910239450E+03  0.81660703753E+02  0.48836059500E+03  0.11010393980E+04  0.92096231373E+02 0.  0.
          1    1    3    3  502    0  0.19848390165E+03 -0.11506609803E+02 -0.19321088690E+03  0.27723403128E+03  0.00000000000E+00 0. -1.
         -2    1    3    3    0  502  0.71561009468E+03 -0.18707274184E+03 -0.65959420225E+03  0.99103911628E+03  0.00000000000E+00 0.  1.
         13    1    5    5    0    0  0.25376686686E+02  0.78674864731E+02 -0.40076349771E+02  0.91868516798E+02  0.00000000000E+00 0. -1.
        -13    1    5    5    0    0  0.39631711484E+02  0.38243783156E+02 -0.13522014621E+03  0.14600598428E+03  0.00000000000E+00 0.  1.
          4    1    6    6  503    0 -0.52964183633E+03  0.14581276277E+02  0.22352751972E+03  0.57506316217E+03  0.00000000000E+00 0. -1.
         -4    1    6    6    0  503 -0.44946055817E+03  0.67079427477E+02  0.26483307528E+03  0.52597623588E+03  0.00000000000E+00 0.  1.
<mgrwt>
<rscale>  0 0.25507066E+04</rscale>
<asrwt>0</asrwt>
<pdfrwt beam="1">  1        1 0.15903431E+00 0.25507066E+04</pdfrwt>
<pdfrwt beam="2">  1       -2 0.24207139E+00 0.25507066E+04</pdfrwt>
<totfact> 0.79479362E-01</totfact>
</mgrwt>
</event>
<event>
12    5  0.5246737E-008  0.1292941E+04  0.7818608E-02  0.9035182E-01
         -2   -1    0    0    0  501 -0.00000000000E+00  0.00000000000E+00  0.31279937029E+03  0.31279937029E+03  0.00000000000E+00 0.  1.
          1   -1    0    0  501    0  0.00000000000E+00 -0.00000000000E+00 -0.13360768902E+04  0.13360768902E+04  0.00000000000E+00 0. -1.
        -24    2    1    2    0    0  0.22092912839E+03  0.61841073128E+02 -0.53579366759E+03  0.58904569432E+03  0.85240704321E+02 0.  0.
        254    2    1    2    0    0 -0.22092912839E+03 -0.61841073128E+02 -0.48748385236E+03  0.10598305662E+04  0.91266988810E+03 0.  0.
         23    2    4    4    0    0 -0.52883915264E+02  0.40176946690E+03 -0.10339923796E+03  0.42800642454E+03  0.91009252307E+02 0.  0.
         23    2    4    4    0    0 -0.16804521312E+03 -0.46361054003E+03 -0.38408461440E+03  0.63182414166E+03  0.92232469811E+02 0.  0.
          3    1    3    3  502    0  0.88330987788E+02  0.46334980567E+02 -0.32103964021E+03  0.33617814387E+03  0.00000000000E+00 0. -1.
         -4    1    3    3    0  502  0.13259814060E+03  0.15506092561E+02 -0.21475402738E+03  0.25286755046E+03  0.00000000000E+00 0.  1.
         13    1    5    5    0    0 -0.19411846711E+02  0.18991027407E+03 -0.23650373254E+01  0.19091444521E+03  0.00000000000E+00 0.  1.
        -13    1    5    5    0    0 -0.33472068553E+02  0.21185919283E+03 -0.10103420064E+03  0.23709197933E+03  0.00000000000E+00 0. -1.
          1    1    6    6  503    0 -0.10981925406E+03 -0.32946700959E+03 -0.21577977020E+03  0.40886389936E+03  0.00000000000E+00 0. -1.
         -1    1    6    6    0  503 -0.58225959065E+02 -0.13414353044E+03 -0.16830484420E+03  0.22296024231E+03  0.00000000000E+00 0.  1.
<mgrwt>
<rscale>  0 0.12929408E+04</rscale>
<asrwt>0</asrwt>
<pdfrwt beam="1">  1        1 0.20555029E+00 0.12929408E+04</pdfrwt>
<pdfrwt beam="2">  1       -2 0.48122980E-01 0.12929408E+04</pdfrwt>
<totfact> 0.30071626E+01</totfact>
</mgrwt>
</event>
<event>
12    5  0.5246737E-008  0.3489098E+04  0.7818608E-02  0.8116378E-01
         -2   -1    0    0    0  501 -0.00000000000E+00  0.00000000000E+00  0.43928534451E+04  0.43928534451E+04  0.00000000000E+00 0.  1.
          1   -1    0    0  501    0  0.00000000000E+00 -0.00000000000E+00 -0.69281871654E+03  0.69281871654E+03  0.00000000000E+00 0. -1.
        -24    2    1    2    0    0 -0.86586841832E+03 -0.11830865429E+04  0.70008206519E+03  0.16263430819E+04  0.73858216317E+02 0.  0.
        254    2    1    2    0    0  0.86586841832E+03  0.11830865429E+04  0.29999526634E+04  0.34593290798E+04  0.90433390627E+03 0.  0.
         23    2    4    4    0    0  0.87823667660E+03  0.73543277084E+03  0.26310348155E+04  0.28710339909E+04  0.91274070358E+02 0.  0.
         23    2    4    4    0    0 -0.12368258285E+02  0.44765377203E+03  0.36891784783E+03  0.58829508886E+03  0.97179523079E+02 0.  0.
          1    1    3    3  502    0 -0.71331741553E+03 -0.97337363346E+03  0.54443615887E+03  0.13238914973E+04  0.00000000000E+00 0. -1.
         -2    1    3    3    0  502 -0.15255100279E+03 -0.20971290941E+03  0.15564590632E+03  0.30245158452E+03  0.00000000000E+00 0.  1.
         13    1    5    5    0    0  0.71011253198E+03  0.55539252533E+03  0.20090145807E+04  0.22020127726E+04  0.00000000000E+00 0. -1.
        -13    1    5    5    0    0  0.16812414462E+03  0.18004024551E+03  0.62202023487E+03  0.66902121835E+03  0.00000000000E+00 0.  1.
          4    1    6    6  503    0  0.31500323192E+02  0.57688072909E+02  0.57156493745E+02  0.87103667514E+02  0.00000000000E+00 0.  1.
         -4    1    6    6    0  503 -0.43868581478E+02  0.38996569912E+03  0.31176135408E+03  0.50119142134E+03  0.00000000000E+00 0. -1.
<mgrwt>
<rscale>  0 0.34890979E+04</rscale>
<asrwt>0</asrwt>
<pdfrwt beam="1">  1        1 0.10658750E+00 0.34890979E+04</pdfrwt>
<pdfrwt beam="2">  1       -2 0.67582359E+00 0.34890979E+04</pdfrwt>
<totfact> 0.54313519E-03</totfact>
</mgrwt>
</event>
<event>
12    5  0.5246737E-008  0.2592172E+04  0.7818608E-02  0.8370865E-01
          1   -1    0    0  501    0  0.00000000000E+00  0.00000000000E+00  0.28667310397E+04  0.28667310397E+04  0.00000000000E+00 0. -1.
         -2   -1    0    0    0  501 -0.00000000000E+00 -0.00000000000E+00 -0.58597699319E+03  0.58597699319E+03  0.00000000000E+00 0.  1.
        -24    2    1    2    0    0 -0.37620449783E+02  0.11119256219E+02 -0.51225959469E+03  0.51947945778E+03  0.76877035596E+02 0.  0.
        254    2    1    2    0    0  0.37620449783E+02 -0.11119256219E+02  0.27930136412E+04  0.29332285751E+04  0.89519033612E+03 0.  0.
         23    2    4    4    0    0  0.35844791034E+03 -0.14301375413E+03  0.22343613502E+04  0.22692782929E+04  0.91189304118E+02 0.  0.
         23    2    4    4    0    0 -0.32082746056E+03  0.13189449791E+03  0.55865229096E+03  0.66395028216E+03  0.91712468923E+02 0.  0.
          1    1    3    3  502    0  0.20581416136E+02  0.18179642174E+02 -0.14665074474E+03  0.14919964816E+03  0.00000000000E+00 0. -1.
         -2    1    3    3    0  502 -0.58201865919E+02 -0.70603859555E+01 -0.36560884995E+03  0.37027980961E+03  0.00000000000E+00 0.  1.
         13    1    5    5    0    0  0.58224135872E+02 -0.48797924648E+02  0.29876036456E+03  0.30826781032E+03  0.00000000000E+00 0. -1.
        -13    1    5    5    0    0  0.30022377447E+03 -0.94215829481E+02  0.19356009857E+04  0.19610104826E+04  0.00000000000E+00 0.  1.
          3    1    6    6  503    0 -0.60861757253E+02  0.90436282679E+01  0.16782423651E+03  0.17874818899E+03  0.00000000000E+00 0. -1.
         -3    1    6    6    0  503 -0.25996570330E+03  0.12285086964E+03  0.39082805445E+03  0.48520209317E+03  0.00000000000E+00 0.  1.
<mgrwt>
<rscale>  0 0.25921716E+04</rscale>
<asrwt>0</asrwt>
<pdfrwt beam="1">  1        1 0.44103554E+00 0.25921716E+04</pdfrwt>
<pdfrwt beam="2">  1       -2 0.90150308E-01 0.25921716E+04</pdfrwt>
<totfact> 0.60898540E-01</totfact>
</mgrwt>
</event>
<event>
12    5  0.5246737E-008  0.2434950E+04  0.7818608E-02  0.8426534E-01
         -2   -1    0    0    0  501 -0.00000000000E+00  0.00000000000E+00  0.14223762363E+04  0.14223762363E+04  0.00000000000E+00 0.  1.
          1   -1    0    0  501    0  0.00000000000E+00 -0.00000000000E+00 -0.10420906040E+04  0.10420906040E+04  0.00000000000E+00 0. -1.
        -24    2    1    2    0    0 -0.57919545197E+03 -0.79358874016E+03 -0.20289301326E+03  0.10064153931E+04  0.80348669048E+02 0.  0.
        254    2    1    2    0    0  0.57919545197E+03  0.79358874016E+03  0.58317864558E+03  0.14580514472E+04  0.90585110797E+03 0.  0.
         23    2    4    4    0    0  0.17574956820E+03  0.93311343873E+02  0.60682441396E+03  0.64504721704E+03  0.90857719610E+02 0.  0.
         23    2    4    4    0    0  0.40344588377E+03  0.70027739628E+03 -0.23645768383E+02  0.81300423011E+03  0.85204125151E+02 0.  0.
          1    1    3    3  502    0 -0.30533055735E+03 -0.37621440125E+03 -0.13216914261E+03  0.50222774437E+03  0.00000000000E+00 0. -1.
         -2    1    3    3    0  502 -0.27386489462E+03 -0.41737433890E+03 -0.70723870657E+02  0.50418764876E+03  0.00000000000E+00 0.  1.
         13    1    5    5    0    0  0.17353352808E+03  0.79698691391E+02  0.60000791008E+03  0.62966281369E+03  0.00000000000E+00 0. -1.
        -13    1    5    5    0    0  0.22160401144E+01  0.13612652482E+02  0.68165038799E+01  0.15384403353E+02  0.00000000000E+00 0.  1.
          2    1    6    6  503    0  0.75453078580E+02  0.14320709803E+03  0.28849357806E+02  0.16441935847E+03  0.00000000000E+00 0.  1.
         -2    1    6    6    0  503  0.32799280519E+03  0.55707029825E+03 -0.52495126189E+02  0.64858487165E+03  0.00000000000E+00 0. -1.
<mgrwt>
<rscale>  0 0.24349496E+04</rscale>
<asrwt>0</asrwt>
<pdfrwt beam="1">  1        1 0.16032163E+00 0.24349496E+04</pdfrwt>
<pdfrwt beam="2">  1       -2 0.21882711E+00 0.24349496E+04</pdfrwt>
<totfact> 0.11055855E+00</totfact>
</mgrwt>
</event>
<event>
12    5  0.5246737E-008  0.1193029E+04  0.7818608E-02  0.9118980E-01
          1   -1    0    0  501    0  0.00000000000E+00  0.00000000000E+00  0.10428319387E+04  0.10428319387E+04  0.00000000000E+00 0. -1.
         -2   -1    0    0    0  501 -0.00000000000E+00 -0.00000000000E+00 -0.34121464828E+03  0.34121464828E+03  0.00000000000E+00 0.  1.
        -24    2    1    2    0    0 -0.24854933672E+02 -0.22878275773E+03  0.65534780015E+02  0.25302883977E+03  0.82276779232E+02 0.  0.
        254    2    1    2    0    0  0.24854933672E+02  0.22878275773E+03  0.63608251041E+03  0.11310177472E+04  0.90644407799E+03 0.  0.
         23    2    4    4    0    0 -0.16516118513E+02  0.49603428117E+03  0.85797386962E+02  0.51152251445E+03  0.89282142155E+02 0.  0.
         23    2    4    4    0    0  0.41371052185E+02 -0.26725152345E+03  0.55028512345E+03  0.61949523278E+03  0.88462905247E+02 0.  0.
          1    1    3    3  502    0 -0.50750737009E+02 -0.10326543554E+03  0.43373873195E+02  0.12296617568E+03  0.00000000000E+00 0. -1.
         -2    1    3    3    0  502  0.25895803337E+02 -0.12551732219E+03  0.22160906820E+02  0.13006266409E+03  0.00000000000E+00 0.  1.
         13    1    5    5    0    0  0.18142095417E+02  0.20373054756E+02  0.26747884419E+01  0.27410791295E+02  0.00000000000E+00 0. -1.
        -13    1    5    5    0    0 -0.34658213929E+02  0.47566122642E+03  0.83122598520E+02  0.48411172315E+03  0.00000000000E+00 0.  1.
          2    1    6    6  503    0 -0.25203052151E+02 -0.69421640171E+02  0.11374072068E+03  0.13561529966E+03  0.00000000000E+00 0. -1.
         -2    1    6    6    0  503  0.66574104336E+02 -0.19782988327E+03  0.43654440277E+03  0.48387993311E+03  0.00000000000E+00 0.  1.
<mgrwt>
<rscale>  0 0.11930290E+04</rscale>
<asrwt>0</asrwt>
<pdfrwt beam="1">  1        1 0.16043568E+00 0.11930290E+04</pdfrwt>
<pdfrwt beam="2">  1       -2 0.52494562E-01 0.11930290E+04</pdfrwt>
<totfact> 0.41665164E+01</totfact>
</mgrwt>
</event>
<event>
12    5  0.5246737E-008  0.1618118E+04  0.7818608E-02  0.8809494E-01
         -2   -1    0    0    0  501 -0.00000000000E+00  0.00000000000E+00  0.79216867248E+03  0.79216867248E+03  0.00000000000E+00 0.  1.
          1   -1    0    0  501    0  0.00000000000E+00 -0.00000000000E+00 -0.82630924497E+03  0.82630924497E+03  0.00000000000E+00 0. -1.
        -24    2    1    2    0    0 -0.11352654803E+03  0.13985803770E+03 -0.54176879700E+03  0.57630286665E+03  0.78504884468E+02 0.  0.
        254    2    1    2    0    0  0.11352654803E+03 -0.13985803770E+03  0.50762822451E+03  0.10421750508E+04  0.89218488800E+03 0.  0.
         23    2    4    4    0    0 -0.26536230203E+03  0.11731558487E+03  0.48811362963E+03  0.57493695291E+03  0.90097095447E+02 0.  0.
         23    2    4    4    0    0  0.37888885005E+03 -0.25717362257E+03  0.19514594882E+02  0.46723809788E+03  0.90750139721E+02 0.  0.
          1    1    3    3  502    0 -0.38768982316E+02  0.10439613189E+03 -0.26549567691E+03  0.28790543725E+03  0.00000000000E+00 0. -1.
         -2    1    3    3    0  502 -0.74757565711E+02  0.35461905810E+02 -0.27627312010E+03  0.28839742940E+03  0.00000000000E+00 0.  1.
         13    1    5    5    0    0 -0.19952184690E+03  0.43336939930E+02  0.34524897303E+03  0.40110336714E+03  0.00000000000E+00 0.  1.
        -13    1    5    5    0    0 -0.65840455125E+02  0.73978644938E+02  0.14286465660E+03  0.17383358578E+03  0.00000000000E+00 0. -1.
          1    1    6    6  503    0  0.21170646315E+03 -0.13615569509E+03  0.55453325755E+02  0.25774613708E+03  0.00000000000E+00 0. -1.
         -1    1    6    6    0  503  0.16718238690E+03 -0.12101792748E+03 -0.35938730873E+02  0.20949196080E+03  0.00000000000E+00 0.  1.
<mgrwt>
<rscale>  0 0.16181178E+04</rscale>
<asrwt>0</asrwt>
<pdfrwt beam="1">  1        1 0.12712450E+00 0.16181178E+04</pdfrwt>
<pdfrwt beam="2">  1       -2 0.12187210E+00 0.16181178E+04</pdfrwt>
<totfact> 0.89957910E+00</totfact>
</mgrwt>
</event>
<event>
12    5  0.5246737E-008  0.1500637E+04  0.7818608E-02  0.8884029E-01
          1   -1    0    0  501    0  0.00000000000E+00  0.00000000000E+00  0.10352192553E+04  0.10352192553E+04  0.00000000000E+00 0. -1.
         -2   -1    0    0    0  501 -0.00000000000E+00 -0.00000000000E+00 -0.54382489036E+03  0.54382489036E+03  0.00000000000E+00 0.  1.
        -24    2    1    2    0    0 -0.43118156599E+03 -0.12738062631E+03  0.19513512611E+03  0.49907513287E+03  0.94100499511E+02 0.  0.
        254    2    1    2    0    0  0.43118156599E+03  0.12738062631E+03  0.29625923882E+03  0.10799690128E+04  0.93617314912E+03 0.  0.
         23    2    4    4    0    0  0.29074990757E+03  0.50261824272E+03  0.31879390648E+03  0.66848844420E+03  0.89925739145E+02 0.  0.
         23    2    4    4    0    0  0.14043165842E+03 -0.37523761641E+03 -0.22534667656E+02  0.41148056856E+03  0.91017183032E+02 0.  0.
          3    1    3    3  502    0 -0.24335670025E+03 -0.76357822649E+02  0.16059326328E+03  0.30140205183E+03  0.00000000000E+00 0. -1.
         -4    1    3    3    0  502 -0.18782486573E+03 -0.51022803662E+02  0.34541862824E+02  0.19767308104E+03  0.00000000000E+00 0.  1.
         13    1    5    5    0    0  0.22275151911E+03  0.44020116512E+03  0.28759014419E+03  0.57105463493E+03  0.00000000000E+00 0. -1.
        -13    1    5    5    0    0  0.67998388454E+02  0.62417077599E+02  0.31203762286E+02  0.97433809271E+02  0.00000000000E+00 0.  1.
          2    1    6    6  503    0  0.15067567663E+03 -0.36944375240E+03 -0.23442622689E+02  0.39967662212E+03  0.00000000000E+00 0. -1.
         -2    1    6    6    0  503 -0.10244018209E+02 -0.57938640058E+01  0.90795503226E+00  0.11803946439E+02  0.00000000000E+00 0.  1.
<mgrwt>
<rscale>  0 0.15006372E+04</rscale>
<asrwt>0</asrwt>
<pdfrwt beam="1">  1        1 0.15926450E+00 0.15006372E+04</pdfrwt>
<pdfrwt beam="2">  1       -2 0.83665368E-01 0.15006372E+04</pdfrwt>
<totfact> 0.15049996E+01</totfact>
</mgrwt>
</event>
<event>
12    5  0.5246737E-008  0.1450821E+04  0.7818608E-02  0.8917831E-01
         -2   -1    0    0    0  501 -0.00000000000E+00  0.00000000000E+00  0.29739828985E+03  0.29739828985E+03  0.00000000000E+00 0.  1.
          1   -1    0    0  501    0  0.00000000000E+00 -0.00000000000E+00 -0.17694138553E+04  0.17694138553E+04  0.00000000000E+00 0. -1.
        -24    2    1    2    0    0  0.32525587588E+02 -0.13837364638E+03  0.13537965879E+03  0.21211788128E+03  0.80381364046E+02 0.  0.
        254    2    1    2    0    0 -0.32525587588E+02  0.13837364638E+03 -0.16073952242E+04  0.18546942639E+04  0.91431188643E+03 0.  0.
         23    2    4    4    0    0 -0.21246725687E+03 -0.31048827836E+03 -0.42945160608E+03  0.57818120926E+03  0.91211416710E+02 0.  0.
         23    2    4    4    0    0  0.17994166928E+03  0.44886192473E+03 -0.11779436181E+04  0.12765130546E+04  0.89879804246E+02 0.  0.
          1    1    3    3  502    0 -0.19174155285E+01 -0.41699778932E+02 -0.61163009577E+00  0.41748318968E+02  0.00000000000E+00 0. -1.
         -2    1    3    3    0  502  0.34443003116E+02 -0.96673867447E+02  0.13599128888E+03  0.17036956231E+03  0.00000000000E+00 0.  1.
         13    1    5    5    0    0 -0.20851385861E+03 -0.31248554934E+03 -0.40135370143E+03  0.54973633810E+03  0.00000000000E+00 0.  1.
        -13    1    5    5    0    0 -0.39533982557E+01  0.19972709871E+01 -0.28097904656E+02  0.28444871159E+02  0.00000000000E+00 0. -1.
          3    1    6    6  503    0  0.10046476003E+03  0.24583915037E+03 -0.52896016532E+03  0.59188589471E+03  0.00000000000E+00 0. -1.
         -3    1    6    6    0  503  0.79476909252E+02  0.20302277436E+03 -0.64898345283E+03  0.68462715989E+03  0.00000000000E+00 0.  1.
<mgrwt>
<rscale>  0 0.14508214E+04</rscale>
<asrwt>0</asrwt>
<pdfrwt beam="1">  1        1 0.27221752E+00 0.14508214E+04</pdfrwt>
<pdfrwt beam="2">  1       -2 0.45753583E-01 0.14508214E+04</pdfrwt>
<totfact> 0.16506718E+01</totfact>
</mgrwt>
</event>
<event>
12    5  0.5246737E-008  0.1604264E+04  0.7818608E-02  0.8817933E-01
         -2   -1    0    0    0  501 -0.00000000000E+00  0.00000000000E+00  0.26494952914E+03  0.26494952914E+03  0.00000000000E+00 0.  1.
          1   -1    0    0  501    0  0.00000000000E+00 -0.00000000000E+00 -0.24284452814E+04  0.24284452814E+04  0.00000000000E+00 0. -1.
        -24    2    1    2    0    0  0.20140250612E+03  0.50590804079E+03 -0.71031038052E+03  0.89841843076E+03  0.78159611447E+02 0.  0.
        254    2    1    2    0    0 -0.20140250612E+03 -0.50590804079E+03 -0.14531853717E+04  0.17949763798E+04  0.90204576606E+03 0.  0.
         23    2    4    4    0    0 -0.32828493029E+03  0.11479273551E+03 -0.27458407018E+03  0.45366225018E+03  0.97286474199E+02 0.  0.
         23    2    4    4    0    0  0.12688242417E+03 -0.62070077630E+03 -0.11786013016E+04  0.13413141296E+04  0.93026678484E+02 0.  0.
          3    1    3    3  502    0  0.97552491428E+02  0.14662809226E+03 -0.22857357148E+03  0.28855183867E+03  0.00000000000E+00 0. -1.
         -4    1    3    3    0  502  0.10385001469E+03  0.35927994853E+03 -0.48173680904E+03  0.60986659209E+03  0.00000000000E+00 0.  1.
         13    1    5    5    0    0 -0.19136130629E+03  0.10790804694E+03 -0.20245269941E+03  0.29874804039E+03  0.00000000000E+00 0.  1.
        -13    1    5    5    0    0 -0.13692362400E+03  0.68846885731E+01 -0.72131370773E+02  0.15491420979E+03  0.00000000000E+00 0. -1.
          4    1    6    6  503    0  0.12008726390E+03 -0.62171788560E+03 -0.11616053005E+04  0.13229818420E+04  0.00000000000E+00 0.  1.
         -4    1    6    6    0  503  0.67951602656E+01  0.10171092968E+01 -0.16996001058E+02  0.18332287536E+02  0.00000000000E+00 0. -1.
<mgrwt>
<rscale>  0 0.16042636E+04</rscale>
<asrwt>0</asrwt>
<pdfrwt beam="1">  1        1 0.37360697E+00 0.16042636E+04</pdfrwt>
<pdfrwt beam="2">  1       -2 0.40761466E-01 0.16042636E+04</pdfrwt>
<totfact> 0.73016249E+00</totfact>
</mgrwt>
</event>
<event>
12    5  0.5246737E-008  0.3805811E+04  0.7818608E-02  0.8044909E-01
          1   -1    0    0  501    0  0.00000000000E+00  0.00000000000E+00  0.12150752517E+04  0.12150752517E+04  0.00000000000E+00 0. -1.
         -2   -1    0    0    0  501 -0.00000000000E+00 -0.00000000000E+00 -0.29801032804E+04  0.29801032804E+04  0.00000000000E+00 0.  1.
        -24    2    1    2    0    0 -0.43996887756E+03  0.94575673224E+03  0.77034742170E+03  0.12992649793E+04  0.81399794309E+02 0.  0.
        254    2    1    2    0    0  0.43996887756E+03 -0.94575673224E+03 -0.25353754505E+04  0.28959135528E+04  0.93282271669E+03 0.  0.
         23    2    4    4    0    0  0.30912769649E+03 -0.11147285729E+04 -0.22077055484E+04  0.24938792008E+04  0.85381236472E+02 0.  0.
         23    2    4    4    0    0  0.13084118107E+03  0.16897184066E+03 -0.32766990203E+03  0.40203435203E+03  0.92699287582E+02 0.  0.
          1    1    3    3  502    0 -0.23478550028E+03  0.41698156847E+03  0.37317496987E+03  0.60684216871E+03  0.00000000000E+00 0. -1.
         -2    1    3    3    0  502 -0.20518337728E+03  0.52877516378E+03  0.39717245183E+03  0.69242281059E+03  0.00000000000E+00 0.  1.
         13    1    5    5    0    0  0.25548815804E+03 -0.99288693021E+03 -0.19933268365E+04  0.22415286151E+04  0.00000000000E+00 0.  1.
        -13    1    5    5    0    0  0.53639538451E+02 -0.12184164269E+03 -0.21437871195E+03  0.25235058572E+03  0.00000000000E+00 0. -1.
          4    1    6    6  503    0  0.77056194010E+02  0.33076290411E+02 -0.15124566575E+03  0.17293625829E+03  0.00000000000E+00 0. -1.
         -4    1    6    6    0  503  0.53784987065E+02  0.13589555025E+03 -0.17642423627E+03  0.22909809374E+03  0.00000000000E+00 0.  1.
<mgrwt>
<rscale>  0 0.38058112E+04</rscale>
<asrwt>0</asrwt>
<pdfrwt beam="1">  1        1 0.18693465E+00 0.38058112E+04</pdfrwt>
<pdfrwt beam="2">  1       -2 0.45847743E+00 0.38058112E+04</pdfrwt>
<totfact> 0.22179681E-02</totfact>
</mgrwt>
</event>
<event>
12    5  0.6655297E-008  0.1431452E+04  0.7818608E-02  0.8931362E-01
         -2   -1    0    0    0  501 -0.00000000000E+00  0.00000000000E+00  0.52019930049E+03  0.52019930049E+03  0.00000000000E+00 0.  1.
          1   -1    0    0  501    0  0.00000000000E+00 -0.00000000000E+00 -0.98474445538E+03  0.98474445538E+03  0.00000000000E+00 0. -1.
        -24    2    1    2    0    0 -0.30714870066E+03  0.19518324846E+03 -0.42186683651E+03  0.56288973873E+03  0.80227211222E+02 0.  0.
        254    2    1    2    0    0  0.30714870066E+03 -0.19518324846E+03 -0.42678318371E+02  0.94205401714E+03  0.86787528341E+03 0.  0.
         23    2    4    4    0    0  0.41014325247E+03 -0.43550968693E+03 -0.18240621210E+03  0.63176064599E+03  0.89237394952E+02 0.  0.
         23    2    4    4    0    0 -0.10299455181E+03  0.24032643847E+03  0.13972789373E+03  0.31029337115E+03  0.91615594531E+02 0.  0.
          3    1    3    3  502    0 -0.29153305931E+03  0.18385132583E+03 -0.36132648162E+03  0.49934923751E+03  0.00000000000E+00 0. -1.
         -4    1    3    3    0  502 -0.15615641355E+02  0.11331922634E+02 -0.60540354889E+02  0.63540501223E+02  0.00000000000E+00 0.  1.
         13    1    5    5    0    0  0.18301862089E+02 -0.26526716638E+00  0.21469606352E+00  0.18305043485E+02  0.00000000000E+00 0.  1.
        -13    1    5    5    0    0  0.39184139038E+03 -0.43524441976E+03 -0.18262090817E+03  0.61345560251E+03  0.00000000000E+00 0. -1.
          2    1    6    6  503    0 -0.10179780818E+03  0.24591976208E+03  0.14449264765E+03  0.30284888700E+03  0.00000000000E+00 0. -1.
         -2    1    6    6    0  503 -0.11967436237E+01 -0.55933236110E+01 -0.47647539166E+01  0.74444841463E+01  0.00000000000E+00 0.  1.
<mgrwt>
<rscale>  0 0.14314515E+04</rscale>
<asrwt>0</asrwt>
<pdfrwt beam="1">  1        1 0.15149915E+00 0.14314515E+04</pdfrwt>
<pdfrwt beam="2">  1       -2 0.80030662E-01 0.14314515E+04</pdfrwt>
<totfact> 0.18318120E+01</totfact>
</mgrwt>
</event>
<event>
12    5  0.5246737E-008  0.1750699E+04  0.7818608E-02  0.8732966E-01
         -2   -1    0    0    0  501 -0.00000000000E+00  0.00000000000E+00  0.22479830168E+03  0.22479830168E+03  0.00000000000E+00 0.  1.
          1   -1    0    0  501    0  0.00000000000E+00 -0.00000000000E+00 -0.34085513966E+04  0.34085513966E+04  0.00000000000E+00 0. -1.
        -24    2    1    2    0    0  0.47540793214E+03 -0.17815330355E+02 -0.20226897179E+04  0.20785018519E+04  0.50657331913E+02 0.  0.
        254    2    1    2    0    0 -0.47540793214E+03  0.17815330355E+02 -0.11610633769E+04  0.15548478464E+04  0.91823394194E+03 0.  0.
         23    2    4    4    0    0 -0.55653764399E+03  0.65996531972E+01 -0.21989951082E+03  0.60535569868E+03  0.91225119702E+02 0.  0.
         23    2    4    4    0    0  0.81129711852E+02  0.11215677158E+02 -0.94116386612E+03  0.94949214768E+03  0.95068891111E+02 0.  0.
          1    1    3    3  502    0  0.33275024677E+03 -0.28550356291E+02 -0.14865041392E+04  0.15235591244E+04  0.00000000000E+00 0. -1.
         -2    1    3    3    0  502  0.14265768537E+03  0.10735025936E+02 -0.53618557872E+03  0.55494272750E+03  0.00000000000E+00 0.  1.
         13    1    5    5    0    0 -0.53623851247E+02  0.87954531807E+01  0.47409414450E+01  0.54546805085E+02  0.00000000000E+00 0. -1.
        -13    1    5    5    0    0 -0.50291379275E+03 -0.21957999835E+01 -0.22464045227E+03  0.55080889360E+03  0.00000000000E+00 0.  1.
          1    1    6    6  503    0  0.19139906288E+02 -0.24779506484E+02 -0.60309427907E+03  0.60390650716E+03  0.00000000000E+00 0. -1.
         -1    1    6    6    0  503  0.61989805564E+02  0.35995183642E+02 -0.33806958705E+03  0.34558564052E+03  0.00000000000E+00 0.  1.
<mgrwt>
<rscale>  0 0.17506988E+04</rscale>
<asrwt>0</asrwt>
<pdfrwt beam="1">  1        1 0.52439253E+00 0.17506988E+04</pdfrwt>
<pdfrwt beam="2">  1       -2 0.34584354E-01 0.17506988E+04</pdfrwt>
<totfact> 0.19346825E+00</totfact>
</mgrwt>
</event>
<event>
12    5  0.5246737E-008  0.2173217E+04  0.7818608E-02  0.8529659E-01
          1   -1    0    0  501    0  0.00000000000E+00  0.00000000000E+00  0.70481006864E+03  0.70481006864E+03  0.00000000000E+00 0. -1.
         -2   -1    0    0    0  501 -0.00000000000E+00 -0.00000000000E+00 -0.16752282279E+04  0.16752282279E+04  0.00000000000E+00 0.  1.
        -24    2    1    2    0    0  0.86600871218E+03  0.24120933246E+03 -0.41103471482E+03  0.99175224469E+03  0.80435977135E+02 0.  0.
        254    2    1    2    0    0 -0.86600871218E+03 -0.24120933246E+03 -0.55938344447E+03  0.13882860519E+04  0.89792833359E+03 0.  0.
         23    2    4    4    0    0 -0.60655023689E+03 -0.37521525924E+02  0.12123662928E+03  0.62657225776E+03  0.92646743758E+02 0.  0.
         23    2    4    4    0    0 -0.25945847529E+03 -0.20368780653E+03 -0.68062007375E+03  0.76171379413E+03  0.90314984631E+02 0.  0.
          3    1    3    3  502    0  0.39204640935E+03  0.87284071362E+02 -0.22088086064E+03  0.45837457477E+03  0.00000000000E+00 0. -1.
         -4    1    3    3    0  502  0.47396230283E+03  0.15392526110E+03 -0.19015385418E+03  0.53337766992E+03  0.00000000000E+00 0.  1.
         13    1    5    5    0    0  0.11337807842E+01 -0.93002703754E+00 -0.46780299637E+01  0.49024864608E+01  0.00000000000E+00 0. -1.
        -13    1    5    5    0    0 -0.60768401768E+03 -0.36591498887E+02  0.12591465924E+03  0.62166977130E+03  0.00000000000E+00 0.  1.
          1    1    6    6  503    0 -0.12566773392E+03 -0.42845761319E+02 -0.26063520727E+03  0.29250444420E+03  0.00000000000E+00 0. -1.
         -1    1    6    6    0  503 -0.13379074137E+03 -0.16084204521E+03 -0.41998486648E+03  0.46920934992E+03  0.00000000000E+00 0.  1.
<mgrwt>
<rscale>  0 0.21732167E+04</rscale>
<asrwt>0</asrwt>
<pdfrwt beam="1">  1        1 0.10843232E+00 0.21732167E+04</pdfrwt>
<pdfrwt beam="2">  1       -2 0.25772742E+00 0.21732167E+04</pdfrwt>
<totfact> 0.12435518E+00</totfact>
</mgrwt>
</event>
<event>
12    5  0.5246737E-008  0.2561615E+04  0.7818608E-02  0.8381358E-01
          1   -1    0    0  501    0  0.00000000000E+00  0.00000000000E+00  0.17900283925E+04  0.17900283925E+04  0.00000000000E+00 0. -1.
         -2   -1    0    0    0  501 -0.00000000000E+00 -0.00000000000E+00 -0.91644820644E+03  0.91644820644E+03  0.00000000000E+00 0.  1.
        -24    2    1    2    0    0 -0.16033492430E+02  0.17302947238E+03  0.15507015437E+04  0.15624278966E+04  0.79431626096E+02 0.  0.
        254    2    1    2    0    0  0.16033492430E+02 -0.17302947238E+03 -0.67712135766E+03  0.11440487023E+04  0.90562565617E+03 0.  0.
         23    2    4    4    0    0 -0.19446978243E+03 -0.48771275582E+03 -0.39029132041E+03  0.66037648183E+03  0.89930831780E+02 0.  0.
         23    2    4    4    0    0  0.21050327486E+03  0.31468328344E+03 -0.28683003726E+03  0.48367222050E+03  0.91269649973E+02 0.  0.
          3    1    3    3  502    0 -0.39545941483E+02  0.15480462289E+03  0.13712841261E+04  0.13805609394E+04  0.00000000000E+00 0. -1.
         -4    1    3    3    0  502  0.23512449054E+02  0.18224849491E+02  0.17941741758E+03  0.18186695723E+03  0.00000000000E+00 0.  1.
         13    1    5    5    0    0 -0.44592702273E+02 -0.19749553177E+03 -0.18723430907E+03  0.27577106567E+03  0.00000000000E+00 0.  1.
        -13    1    5    5    0    0 -0.14987708016E+03 -0.29021722405E+03 -0.20305701133E+03  0.38460541617E+03  0.00000000000E+00 0. -1.
          3    1    6    6  503    0  0.14280476645E+03  0.27432430162E+03 -0.24426536333E+03  0.39409718535E+03  0.00000000000E+00 0. -1.
         -3    1    6    6    0  503  0.67698508414E+02  0.40358981814E+02 -0.42564673927E+02  0.89575035144E+02  0.00000000000E+00 0.  1.
<mgrwt>
<rscale>  0 0.25616154E+04</rscale>
<asrwt>0</asrwt>
<pdfrwt beam="1">  1        1 0.27538898E+00 0.25616154E+04</pdfrwt>
<pdfrwt beam="2">  1       -2 0.14099203E+00 0.25616154E+04</pdfrwt>
<totfact> 0.11329015E+00</totfact>
</mgrwt>
</event>
<event>
12    5  0.5246737E-008  0.1859123E+04  0.7818608E-02  0.8675475E-01
          1   -1    0    0  501    0  0.00000000000E+00  0.00000000000E+00  0.97672759604E+03  0.97672759604E+03  0.00000000000E+00 0. -1.
         -2   -1    0    0    0  501 -0.00000000000E+00 -0.00000000000E+00 -0.88467349429E+03  0.88467349429E+03  0.00000000000E+00 0.  1.
        -24    2    1    2    0    0 -0.19043216754E+03  0.41532014781E+03  0.56046824470E+03  0.72745773145E+03  0.79466106757E+02 0.  0.
        254    2    1    2    0    0  0.19043216754E+03 -0.41532014781E+03 -0.46841414295E+03  0.11339433589E+04  0.92609961462E+03 0.  0.
         23    2    4    4    0    0  0.10925124906E+03 -0.62310088722E+03 -0.58208210343E+03  0.86419052658E+03  0.88403280627E+02 0.  0.
         23    2    4    4    0    0  0.81180918477E+02  0.20778073941E+03  0.11366796048E+03  0.26975283229E+03  0.10041418274E+03 0.  0.
          1    1    3    3  502    0 -0.13033180694E+03  0.34530522869E+03  0.41697503560E+03  0.55685748731E+03  0.00000000000E+00 0. -1.
         -2    1    3    3    0  502 -0.60100360598E+02  0.70014919120E+02  0.14349320910E+03  0.17060024414E+03  0.00000000000E+00 0.  1.
         13    1    5    5    0    0  0.83107618976E+02 -0.41520475818E+03 -0.44226842228E+03  0.61229341405E+03  0.00000000000E+00 0.  1.
        -13    1    5    5    0    0  0.26143630085E+02 -0.20789612904E+03 -0.13981368115E+03  0.25189711253E+03  0.00000000000E+00 0. -1.
          3    1    6    6  503    0 -0.14660121048E+02  0.73083157812E+02  0.11516193535E+02  0.75423403652E+02  0.00000000000E+00 0. -1.
         -3    1    6    6    0  503  0.95841039525E+02  0.13469758160E+03  0.10215176695E+03  0.19432942864E+03  0.00000000000E+00 0.  1.
<mgrwt>
<rscale>  0 0.18591235E+04</rscale>
<asrwt>0</asrwt>
<pdfrwt beam="1">  1        1 0.15026578E+00 0.18591235E+04</pdfrwt>
<pdfrwt beam="2">  1       -2 0.13610361E+00 0.18591235E+04</pdfrwt>
<totfact> 0.50181027E+00</totfact>
</mgrwt>
</event>
<event>
12    5  0.5246737E-008  0.3065255E+04  0.7818608E-02  0.8225339E-01
         -2   -1    0    0    0  501 -0.00000000000E+00  0.00000000000E+00  0.39043616027E+04  0.39043616027E+04  0.00000000000E+00 0.  1.
          1   -1    0    0  501    0  0.00000000000E+00 -0.00000000000E+00 -0.60162133224E+03  0.60162133224E+03  0.00000000000E+00 0. -1.
        -24    2    1    2    0    0 -0.50516339190E+03 -0.32531660954E+03  0.33588272373E+04  0.34130028195E+04  0.76464939427E+02 0.  0.
        254    2    1    2    0    0  0.50516339190E+03  0.32531660954E+03 -0.56086966844E+02  0.10929801154E+04  0.91128416859E+03 0.  0.
         23    2    4    4    0    0 -0.14095779209E+03  0.39690787329E+03  0.21987302355E+02  0.43146471528E+03  0.90958232388E+02 0.  0.
         23    2    4    4    0    0  0.64612118399E+03 -0.71591263745E+02 -0.78074269200E+02  0.66151540015E+03  0.94388239147E+02 0.  0.
          3    1    3    3  502    0 -0.44581311535E+02 -0.13348204144E+02  0.36229605447E+03  0.36527263650E+03  0.00000000000E+00 0. -1.
         -4    1    3    3    0  502 -0.46058208036E+03 -0.31196840540E+03  0.29965311828E+04  0.30477301830E+04  0.00000000000E+00 0.  1.
         13    1    5    5    0    0 -0.13216108933E+01  0.11866948739E+03 -0.64848733505E+01  0.11885389129E+03  0.00000000000E+00 0.  1.
        -13    1    5    5    0    0 -0.13963618119E+03  0.27823838590E+03  0.28472175706E+02  0.31261082399E+03  0.00000000000E+00 0. -1.
          1    1    6    6  503    0  0.58298464601E+03 -0.37868802780E+02 -0.81417411223E+02  0.58985925317E+03  0.00000000000E+00 0. -1.
         -1    1    6    6    0  503  0.63136537982E+02 -0.33722460965E+02  0.33431420234E+01  0.71656146983E+02  0.00000000000E+00 0.  1.
<mgrwt>
<rscale>  0 0.30652551E+04</rscale>
<asrwt>0</asrwt>
<pdfrwt beam="1">  1        1 0.92557130E-01 0.30652551E+04</pdfrwt>
<pdfrwt beam="2">  1       -2 0.60067100E+00 0.30652551E+04</pdfrwt>
<totfact> 0.12624287E-02</totfact>
</mgrwt>
</event>
<event>
12    5  0.5246737E-008  0.2272363E+04  0.7818608E-02  0.8488898E-01
         -2   -1    0    0    0  501 -0.00000000000E+00  0.00000000000E+00  0.10008588355E+04  0.10008588355E+04  0.00000000000E+00 0.  1.
          1   -1    0    0  501    0  0.00000000000E+00 -0.00000000000E+00 -0.12898011421E+04  0.12898011421E+04  0.00000000000E+00 0. -1.
        -24    2    1    2    0    0 -0.24534769798E+03  0.40252706132E+03 -0.93670834362E+03  0.10517421335E+04  0.80718438519E+02 0.  0.
        254    2    1    2    0    0  0.24534769798E+03 -0.40252706132E+03  0.64776603707E+03  0.12389178441E+04  0.94503600872E+03 0.  0.
         23    2    4    4    0    0 -0.29396521349E+03 -0.32554010922E+03  0.97031754591E+02  0.45921408490E+03  0.95239198450E+02 0.  0.
         23    2    4    4    0    0  0.53931291146E+03 -0.76986952100E+02  0.55073428248E+03  0.77970375925E+03  0.88568024861E+02 0.  0.
          3    1    3    3  502    0 -0.16601957066E+03  0.33036813480E+03 -0.75700884924E+03  0.84247729949E+03  0.00000000000E+00 0. -1.
         -4    1    3    3    0  502 -0.79328127315E+02  0.72158926515E+02 -0.17969949438E+03  0.20926483397E+03  0.00000000000E+00 0.  1.
         13    1    5    5    0    0 -0.10231359931E+03 -0.57467124304E+02  0.67811666230E+01  0.11754372463E+03  0.00000000000E+00 0. -1.
        -13    1    5    5    0    0 -0.19165161418E+03 -0.26807298491E+03  0.90250587968E+02  0.34167036027E+03  0.00000000000E+00 0.  1.
          4    1    6    6  503    0  0.73169260690E+02  0.15305301756E+02  0.99049646746E+02  0.12409200414E+03  0.00000000000E+00 0. -1.
         -4    1    6    6    0  503  0.46614365077E+03 -0.92292253856E+02  0.45168463573E+03  0.65561175511E+03  0.00000000000E+00 0.  1.
<mgrwt>
<rscale>  0 0.22723634E+04</rscale>
<asrwt>0</asrwt>
<pdfrwt beam="1">  1        1 0.19843094E+00 0.22723634E+04</pdfrwt>
<pdfrwt beam="2">  1       -2 0.15397828E+00 0.22723634E+04</pdfrwt>
<totfact> 0.20438064E+00</totfact>
</mgrwt>
</event>
<event>
12    5  0.5246737E-008  0.1848158E+04  0.7818608E-02  0.8681101E-01
          1   -1    0    0  501    0  0.00000000000E+00  0.00000000000E+00  0.54240592403E+03  0.54240592403E+03  0.00000000000E+00 0. -1.
         -2   -1    0    0    0  501 -0.00000000000E+00 -0.00000000000E+00 -0.15743221658E+04  0.15743221658E+04  0.00000000000E+00 0.  1.
        -24    2    1    2    0    0 -0.14177004869E+03 -0.51524843150E+03  0.12245665110E+03  0.55427521873E+03  0.81521125061E+02 0.  0.
        254    2    1    2    0    0  0.14177004869E+03  0.51524843150E+03 -0.11543728928E+04  0.15624528711E+04  0.90724996870E+03 0.  0.
         23    2    4    4    0    0 -0.24740646414E+03  0.56795533501E+03 -0.53543569220E+03  0.82387494357E+03  0.91078653331E+02 0.  0.
         23    2    4    4    0    0  0.38917651283E+03 -0.52706903502E+02 -0.61893720065E+03  0.73857792750E+03  0.90430751625E+02 0.  0.
          1    1    3    3  502    0 -0.96542569314E+02 -0.42656009729E+03  0.74041031298E+02  0.44357193171E+03  0.00000000000E+00 0. -1.
         -2    1    3    3    0  502 -0.45227479372E+02 -0.88688334217E+02  0.48415619800E+02  0.11070328702E+03  0.00000000000E+00 0.  1.
         13    1    5    5    0    0 -0.94458021505E+02  0.30823835195E+03 -0.31242632234E+03  0.44893585993E+03  0.00000000000E+00 0. -1.
        -13    1    5    5    0    0 -0.15294844263E+03  0.25971698306E+03 -0.22300936986E+03  0.37493908364E+03  0.00000000000E+00 0.  1.
          3    1    6    6  503    0  0.36194935291E+03 -0.48312704849E+02 -0.60733206689E+03  0.70865625730E+03  0.00000000000E+00 0. -1.
         -3    1    6    6    0  503  0.27227159912E+02 -0.43941986533E+01 -0.11605133751E+02  0.29921670208E+02  0.00000000000E+00 0.  1.
<mgrwt>
<rscale>  0 0.18481576E+04</rscale>
<asrwt>0</asrwt>
<pdfrwt beam="1">  1        1 0.83447067E-01 0.18481576E+04</pdfrwt>
<pdfrwt beam="2">  1       -2 0.24220340E+00 0.18481576E+04</pdfrwt>
<totfact> 0.23352671E+00</totfact>
</mgrwt>
</event>
<event>
12    5  0.5246737E-008  0.1603014E+04  0.7818608E-02  0.8818699E-01
          1   -1    0    0  501    0  0.00000000000E+00  0.00000000000E+00  0.88610932415E+03  0.88610932415E+03  0.00000000000E+00 0. -1.
         -2   -1    0    0    0  501 -0.00000000000E+00 -0.00000000000E+00 -0.72498186360E+03  0.72498186360E+03  0.00000000000E+00 0.  1.
        -24    2    1    2    0    0 -0.36413199571E+03  0.39287922579E+03  0.22938636925E+02  0.54171303084E+03  0.77334535381E+02 0.  0.
        254    2    1    2    0    0  0.36413199571E+03 -0.39287922579E+03  0.13818882362E+03  0.10693781569E+04  0.91516517368E+03 0.  0.
         23    2    4    4    0    0  0.43290903276E+03 -0.13455560278E+03 -0.29801687406E+03  0.55004859148E+03  0.90686023622E+02 0.  0.
         23    2    4    4    0    0 -0.68777037055E+02 -0.25832362302E+03  0.43620569768E+03  0.51932956542E+03  0.89254757797E+02 0.  0.
          1    1    3    3  502    0 -0.49772146932E+02  0.89257543061E+02 -0.13811160020E+02  0.10312576664E+03  0.00000000000E+00 0. -1.
         -2    1    3    3    0  502 -0.31435984877E+03  0.30362168273E+03  0.36749796945E+02  0.43858726421E+03  0.00000000000E+00 0.  1.
         13    1    5    5    0    0  0.36747174655E+02 -0.40506168291E+02 -0.43415799117E+02  0.69828619689E+02  0.00000000000E+00 0. -1.
        -13    1    5    5    0    0  0.39616185811E+03 -0.94049434489E+02 -0.25460107495E+03  0.48021997179E+03  0.00000000000E+00 0.  1.
          2    1    6    6  503    0 -0.81581859373E+02 -0.13462772500E+03  0.24878174692E+03  0.29440207493E+03  0.00000000000E+00 0.  1.
         -2    1    6    6    0  503  0.12804822317E+02 -0.12369589801E+03  0.18742395076E+03  0.22492749049E+03  0.00000000000E+00 0. -1.
<mgrwt>
<rscale>  0 0.16030136E+04</rscale>
<asrwt>0</asrwt>
<pdfrwt beam="1">  1        1 0.13632451E+00 0.16030136E+04</pdfrwt>
<pdfrwt beam="2">  1       -2 0.11153567E+00 0.16030136E+04</pdfrwt>
<totfact> 0.99768935E+00</totfact>
</mgrwt>
</event>
<event>
12    5  0.5246737E-008  0.1793579E+04  0.7818608E-02  0.8709721E-01
         -2   -1    0    0    0  501 -0.00000000000E+00  0.00000000000E+00  0.56350836069E+03  0.56350836069E+03  0.00000000000E+00 0.  1.
          1   -1    0    0  501    0  0.00000000000E+00 -0.00000000000E+00 -0.14271870808E+04  0.14271870808E+04  0.00000000000E+00 0. -1.
        -24    2    1    2    0    0 -0.32642794917E+03  0.22713420721E+03  0.26995490750E+03  0.48707291532E+03  0.78862023027E+02 0.  0.
        254    2    1    2    0    0  0.32642794917E+03 -0.22713420721E+03 -0.11336336277E+04  0.15036225262E+04  0.90421808515E+03 0.  0.
         23    2    4    4    0    0  0.31384391968E+03  0.12286445065E+03 -0.40312076097E+02  0.35184615921E+03  0.92611970707E+02 0.  0.
         23    2    4    4    0    0  0.12584029496E+02 -0.34999865785E+03 -0.10933215516E+04  0.11517763670E+04  0.92624868176E+02 0.  0.
          3    1    3    3  502    0 -0.24103508349E+00  0.26733922092E+01 -0.45414723647E+01  0.52754236849E+01  0.00000000000E+00 0. -1.
         -4    1    3    3    0  502 -0.32618691409E+03  0.22446081500E+03  0.27449637986E+03  0.48179749164E+03  0.00000000000E+00 0.  1.
         13    1    5    5    0    0  0.15758965565E+03  0.25054515624E+02 -0.50085538254E+02  0.16724469936E+03  0.00000000000E+00 0. -1.
        -13    1    5    5    0    0  0.15625426402E+03  0.97809935023E+02  0.97734621568E+01  0.18460145985E+03  0.00000000000E+00 0.  1.
          3    1    6    6  503    0 -0.39758276293E+02 -0.17153969527E+03 -0.55099771433E+03  0.57845057592E+03  0.00000000000E+00 0. -1.
         -3    1    6    6    0  503  0.52342305790E+02 -0.17845896258E+03 -0.54232383723E+03  0.57332579109E+03  0.00000000000E+00 0.  1.
<mgrwt>
<rscale>  0 0.17935795E+04</rscale>
<asrwt>0</asrwt>
<pdfrwt beam="1">  1        1 0.21956724E+00 0.17935795E+04</pdfrwt>
<pdfrwt beam="2">  1       -2 0.86693594E-01 0.17935795E+04</pdfrwt>
<totfact> 0.70160388E+00</totfact>
</mgrwt>
</event>
<event>
12    5  0.5246737E-008  0.1417218E+04  0.7818608E-02  0.8941449E-01
          1   -1    0    0  501    0  0.00000000000E+00  0.00000000000E+00  0.86414170712E+03  0.86414170712E+03  0.00000000000E+00 0. -1.
         -2   -1    0    0    0  501 -0.00000000000E+00 -0.00000000000E+00 -0.58106959470E+03  0.58106959470E+03  0.00000000000E+00 0.  1.
        -24    2    1    2    0    0 -0.22742507416E+03 -0.87423926005E+02 -0.25956426101E+03  0.36511053295E+03  0.81036957487E+02 0.  0.
        254    2    1    2    0    0  0.22742507416E+03  0.87423926005E+02  0.54263637344E+03  0.10801007689E+04  0.90155328736E+03 0.  0.
         23    2    4    4    0    0 -0.30278515940E+03 -0.12310021370E+03  0.10407050082E+03  0.35480572284E+03  0.90685811738E+02 0.  0.
         23    2    4    4    0    0  0.53021023356E+03  0.21052413970E+03  0.43856587261E+03  0.72529504604E+03  0.90937198186E+02 0.  0.
          3    1    3    3  502    0 -0.10549149326E+03 -0.66273989501E+02 -0.83777268456E+02  0.15013103458E+03  0.00000000000E+00 0. -1.
         -4    1    3    3    0  502 -0.12193358090E+03 -0.21149936504E+02 -0.17578699256E+03  0.21497949837E+03  0.00000000000E+00 0.  1.
         13    1    5    5    0    0 -0.12622838734E+03 -0.57085843336E+02 -0.19309484599E+01  0.13855009145E+03  0.00000000000E+00 0. -1.
        -13    1    5    5    0    0 -0.17655677206E+03 -0.66014370360E+02  0.10600144928E+03  0.21625563138E+03  0.00000000000E+00 0.  1.
          2    1    6    6  503    0  0.31323865795E+03  0.15855963888E+03  0.30637014978E+03  0.46596382326E+03  0.00000000000E+00 0. -1.
         -2    1    6    6    0  503  0.21697157561E+03  0.51964500826E+02  0.13219572283E+03  0.25933122277E+03  0.00000000000E+00 0.  1.
<mgrwt>
<rscale>  0 0.14172177E+04</rscale>
<asrwt>0</asrwt>
<pdfrwt beam="1">  1        1 0.13294488E+00 0.14172177E+04</pdfrwt>
<pdfrwt beam="2">  1       -2 0.89395322E-01 0.14172177E+04</pdfrwt>
<totfact> 0.17848976E+01</totfact>
</mgrwt>
</event>
<event>
12    5  0.5246737E-008  0.1936932E+04  0.7818608E-02  0.8636688E-01
          1   -1    0    0  501    0  0.00000000000E+00  0.00000000000E+00  0.66274541931E+03  0.66274541931E+03  0.00000000000E+00 0. -1.
         -2   -1    0    0    0  501 -0.00000000000E+00 -0.00000000000E+00 -0.14152131529E+04  0.14152131529E+04  0.00000000000E+00 0.  1.
        -24    2    1    2    0    0  0.31095805733E+03 -0.37072543885E+03  0.33739934004E+03  0.59486452583E+03  0.76767343365E+02 0.  0.
        254    2    1    2    0    0 -0.31095805733E+03  0.37072543885E+03 -0.10898670737E+04  0.14830940464E+04  0.88183073648E+03 0.  0.
         23    2    4    4    0    0 -0.29887864195E+03 -0.47699210600E+02 -0.41597443713E+01  0.31593510460E+03  0.90520879020E+02 0.  0.
         23    2    4    4    0    0 -0.12079415379E+02  0.41842464945E+03 -0.10857073293E+04  0.11671589418E+04  0.90964229319E+02 0.  0.
          3    1    3    3  502    0  0.18829519650E+03 -0.21898172862E+03  0.24610655538E+03  0.37944237388E+03  0.00000000000E+00 0. -1.
         -4    1    3    3    0  502  0.12266286083E+03 -0.15174371024E+03  0.91292784658E+02  0.21542215196E+03  0.00000000000E+00 0.  1.
         13    1    5    5    0    0 -0.16035159627E+03  0.20086834725E+02 -0.56833824727E+01  0.16170471914E+03  0.00000000000E+00 0. -1.
        -13    1    5    5    0    0 -0.13852704568E+03 -0.67786045325E+02  0.15236381014E+01  0.15423038546E+03  0.00000000000E+00 0.  1.
          2    1    6    6  503    0 -0.29939727630E+02  0.40363746822E+03 -0.10139471477E+04  0.10917455800E+04  0.00000000000E+00 0. -1.
         -2    1    6    6    0  503  0.17860312251E+02  0.14787181237E+02 -0.71760181577E+02  0.75413361830E+02  0.00000000000E+00 0.  1.
<mgrwt>
<rscale>  0 0.19369316E+04</rscale>
<asrwt>0</asrwt>
<pdfrwt beam="1">  1        1 0.10196083E+00 0.19369316E+04</pdfrwt>
<pdfrwt beam="2">  1       -2 0.21772510E+00 0.19369316E+04</pdfrwt>
<totfact> 0.24680119E+00</totfact>
</mgrwt>
</event>
<event>
12    5  0.5246737E-008  0.1880756E+04  0.7818608E-02  0.8664495E-01
          1   -1    0    0  501    0  0.00000000000E+00  0.00000000000E+00  0.57095651174E+03  0.57095651174E+03  0.00000000000E+00 0. -1.
         -2   -1    0    0    0  501 -0.00000000000E+00 -0.00000000000E+00 -0.15488229683E+04  0.15488229683E+04  0.00000000000E+00 0.  1.
        -24    2    1    2    0    0 -0.22380346886E+03 -0.67401721488E+03 -0.21559148701E+03  0.74657298272E+03  0.80649430421E+02 0.  0.
        254    2    1    2    0    0  0.22380346886E+03  0.67401721488E+03 -0.76227496958E+03  0.13732064973E+04  0.89456456249E+03 0.  0.
         23    2    4    4    0    0 -0.14540377857E+03 -0.49946411846E+02  0.83064224497E+02  0.19704306820E+03  0.91046155639E+02 0.  0.
         23    2    4    4    0    0  0.36920724743E+03  0.72396362673E+03 -0.84533919408E+03  0.11761634291E+04  0.91239983709E+02 0.  0.
          3    1    3    3  502    0 -0.21800068176E+03 -0.64795633493E+03 -0.18992405979E+03  0.70953707283E+03  0.00000000000E+00 0. -1.
         -2    1    3    3    0  502 -0.58027870987E+01 -0.26060879949E+02 -0.25667427214E+02  0.37035909893E+02  0.00000000000E+00 0.  1.
         13    1    5    5    0    0 -0.78103757000E+02  0.20108484137E+02  0.27968723923E+02  0.85362740758E+02  0.00000000000E+00 0.  1.
        -13    1    5    5    0    0 -0.67300021567E+02 -0.70054895983E+02  0.55095500574E+02  0.11168032744E+03  0.00000000000E+00 0. -1.
          1    1    6    6  503    0  0.24971191083E+03  0.50485527240E+03 -0.52402824356E+03  0.76931169530E+03  0.00000000000E+00 0. -1.
         -1    1    6    6    0  503  0.11949533660E+03  0.21910835433E+03 -0.32131095052E+03  0.40685173384E+03  0.00000000000E+00 0.  1.
<mgrwt>
<rscale>  0 0.18807558E+04</rscale>
<asrwt>0</asrwt>
<pdfrwt beam="1">  1        1 0.87839465E-01 0.18807558E+04</pdfrwt>
<pdfrwt beam="2">  1       -2 0.23828045E+00 0.18807558E+04</pdfrwt>
<totfact> 0.22900678E+00</totfact>
</mgrwt>
</event>
<event>
12    5  0.5246737E-008  0.1049627E+04  0.7818608E-02  0.9255729E-01
         -2   -1    0    0    0  501 -0.00000000000E+00  0.00000000000E+00  0.12665374605E+03  0.12665374605E+03  0.00000000000E+00 0.  1.
          1   -1    0    0  501    0  0.00000000000E+00 -0.00000000000E+00 -0.21746628313E+04  0.21746628313E+04  0.00000000000E+00 0. -1.
        -24    2    1    2    0    0 -0.99763484840E+02  0.15843286560E+02 -0.11046548185E+03  0.16667626419E+03  0.73311607037E+02 0.  0.
        254    2    1    2    0    0  0.99763484840E+02 -0.15843286560E+02 -0.19375436034E+04  0.21346403132E+04  0.89017430252E+03 0.  0.
         23    2    4    4    0    0 -0.11469215666E+03 -0.33016143274E+03 -0.36176583992E+03  0.51114686734E+03  0.90750948124E+02 0.  0.
         23    2    4    4    0    0  0.21445564150E+03  0.31431814618E+03 -0.15757777635E+04  0.16234934458E+04  0.88703379697E+02 0.  0.
          1    1    3    3  502    0 -0.11337336397E+02  0.11770340691E+02 -0.65272460042E+02  0.67287221346E+02  0.00000000000E+00 0. -1.
         -2    1    3    3    0  502 -0.88426148443E+02  0.40729458690E+01 -0.45193021808E+02  0.99389042840E+02  0.00000000000E+00 0.  1.
         13    1    5    5    0    0 -0.12757810040E+03 -0.29689374265E+03 -0.34133973406E+03  0.47003710511E+03  0.00000000000E+00 0.  1.
        -13    1    5    5    0    0  0.12885943740E+02 -0.33267690093E+02 -0.20426105856E+02  0.41109762231E+02  0.00000000000E+00 0. -1.
          3    1    6    6  503    0  0.93293546531E+01  0.68817375465E+02 -0.23286058444E+03  0.24299571974E+03  0.00000000000E+00 0. -1.
         -3    1    6    6    0  503  0.20512628685E+03  0.24550077072E+03 -0.13429171791E+04  0.13804977261E+04  0.00000000000E+00 0.  1.
<mgrwt>
<rscale>  0 0.10496270E+04</rscale>
<asrwt>0</asrwt>
<pdfrwt beam="1">  1        1 0.33456354E+00 0.10496270E+04</pdfrwt>
<pdfrwt beam="2">  1       -2 0.19485190E-01 0.10496270E+04</pdfrwt>
<totfact> 0.44773963E+01</totfact>
</mgrwt>
</event>
<event>
12    5  0.5246737E-008  0.1224930E+04  0.7818608E-02  0.9091311E-01
          1   -1    0    0  501    0  0.00000000000E+00  0.00000000000E+00  0.68441241650E+03  0.68441241650E+03  0.00000000000E+00 0. -1.
         -2   -1    0    0    0  501 -0.00000000000E+00 -0.00000000000E+00 -0.54808089135E+03  0.54808089135E+03  0.00000000000E+00 0.  1.
        -24    2    1    2    0    0  0.10611613544E+03 -0.54425234930E+00  0.28940849996E+03  0.31876551239E+03  0.81198778533E+02 0.  0.
        254    2    1    2    0    0 -0.10611613544E+03  0.54425234930E+00 -0.15307697481E+03  0.91372779545E+03  0.89454177854E+03 0.  0.
         23    2    4    4    0    0 -0.23069263758E+03  0.30096632186E+03 -0.34900621208E+03  0.52283149085E+03  0.88020519339E+02 0.  0.
         23    2    4    4    0    0  0.12457650214E+03 -0.30042206951E+03  0.19592923727E+03  0.39089630461E+03  0.92945845526E+02 0.  0.
          3    1    3    3  502    0  0.14549141303E+02  0.16776847628E+01  0.15747455764E+03  0.15815412876E+03  0.00000000000E+00 0. -1.
         -4    1    3    3    0  502  0.91566994133E+02 -0.22219371121E+01  0.13193394231E+03  0.16061138364E+03  0.00000000000E+00 0.  1.
         13    1    5    5    0    0 -0.20729063303E+02  0.99497225999E+01 -0.11033170563E+01  0.23019738351E+02  0.00000000000E+00 0. -1.
        -13    1    5    5    0    0 -0.20996357427E+03  0.29101659926E+03 -0.34790289503E+03  0.49981175250E+03  0.00000000000E+00 0.  1.
          4    1    6    6  503    0  0.42766723479E+02 -0.23071837428E+02  0.20994943574E+02  0.52934770946E+02  0.00000000000E+00 0. -1.
         -4    1    6    6    0  503  0.81809778660E+02 -0.27735023208E+03  0.17493429370E+03  0.33796153366E+03  0.00000000000E+00 0.  1.
<mgrwt>
<rscale>  0 0.12249300E+04</rscale>
<asrwt>0</asrwt>
<pdfrwt beam="1">  1        1 0.10529422E+00 0.12249300E+04</pdfrwt>
<pdfrwt beam="2">  1       -2 0.84320137E-01 0.12249300E+04</pdfrwt>
<totfact> 0.29934890E+01</totfact>
</mgrwt>
</event>
<event>
12    5  0.5246737E-008  0.2797367E+04  0.7818608E-02  0.8304086E-01
         -2   -1    0    0    0  501 -0.00000000000E+00  0.00000000000E+00  0.61943206800E+03  0.61943206800E+03  0.00000000000E+00 0.  1.
          1   -1    0    0  501    0  0.00000000000E+00 -0.00000000000E+00 -0.31582407147E+04  0.31582407147E+04  0.00000000000E+00 0. -1.
        -24    2    1    2    0    0  0.52455266737E+03  0.89147126575E+03 -0.21396907359E+04  0.23779120322E+04  0.79452307881E+02 0.  0.
        254    2    1    2    0    0 -0.52455266737E+03 -0.89147126575E+03 -0.39911791083E+03  0.13997607505E+04  0.85449314412E+03 0.  0.
         23    2    4    4    0    0  0.22452630382E+03 -0.22450871963E+03 -0.14716284095E+03  0.36166750635E+03  0.91270242106E+02 0.  0.
         23    2    4    4    0    0 -0.74907897119E+03 -0.66696254612E+03 -0.25195506987E+03  0.10380932441E+04  0.90542162968E+02 0.  0.
          1    1    3    3  502    0  0.34747540999E+03  0.65744774553E+03 -0.15080360453E+04  0.16814129215E+04  0.00000000000E+00 0. -1.
         -2    1    3    3    0  502  0.17707725738E+03  0.23402352022E+03 -0.63165469055E+03  0.69649911068E+03  0.00000000000E+00 0.  1.
         13    1    5    5    0    0  0.56053138886E+02 -0.97238697981E+02 -0.87333403655E+02  0.14221266525E+03  0.00000000000E+00 0. -1.
        -13    1    5    5    0    0  0.16847316494E+03 -0.12727002165E+03 -0.59829437299E+02  0.21945484110E+03  0.00000000000E+00 0.  1.
          1    1    6    6  503    0 -0.31731624906E+03 -0.25357610588E+03 -0.62064549663E+02  0.41090443137E+03  0.00000000000E+00 0. -1.
         -1    1    6    6    0  503 -0.43176272213E+03 -0.41338644024E+03 -0.18989052021E+03  0.62718881277E+03  0.00000000000E+00 0.  1.
<mgrwt>
<rscale>  0 0.27973670E+04</rscale>
<asrwt>0</asrwt>
<pdfrwt beam="1">  1        1 0.48588319E+00 0.27973670E+04</pdfrwt>
<pdfrwt beam="2">  1       -2 0.95297240E-01 0.27973670E+04</pdfrwt>
<totfact> 0.32182982E-01</totfact>
</mgrwt>
</event>
<event>
12    5  0.5246737E-008  0.2034616E+04  0.7818608E-02  0.8590606E-01
          1   -1    0    0  501    0  0.00000000000E+00  0.00000000000E+00  0.19995260002E+04  0.19995260002E+04  0.00000000000E+00 0. -1.
         -2   -1    0    0    0  501 -0.00000000000E+00 -0.00000000000E+00 -0.51758023229E+03  0.51758023229E+03  0.00000000000E+00 0.  1.
        -24    2    1    2    0    0 -0.19391693074E+03 -0.74330650761E+03  0.25315966754E+03  0.81284763541E+03  0.80765839554E+02 0.  0.
        254    2    1    2    0    0  0.19391693074E+03  0.74330650761E+03  0.12287861004E+04  0.17042585971E+04  0.89692460389E+03 0.  0.
         23    2    4    4    0    0  0.12974043109E+03  0.38235368202E+02 -0.10311701391E+03  0.19310673177E+03  0.91447080093E+02 0.  0.
         23    2    4    4    0    0  0.64176499648E+02  0.70507113941E+03  0.13319031143E+04  0.15111518654E+04  0.91488357336E+02 0.  0.
          3    1    3    3  502    0  0.71961043438E+01 -0.14232603593E+02  0.28697313625E+01  0.16204514212E+02  0.00000000000E+00 0. -1.
         -4    1    3    3    0  502 -0.20111303508E+03 -0.72907390401E+03  0.25028993618E+03  0.79664312119E+03  0.00000000000E+00 0.  1.
         13    1    5    5    0    0  0.88843157288E+02 -0.11759987975E+02 -0.27681462128E+02  0.93795880824E+02  0.00000000000E+00 0.  1.
        -13    1    5    5    0    0  0.40897273801E+02  0.49995356176E+02 -0.75435551779E+02  0.99310850947E+02  0.00000000000E+00 0. -1.
          1    1    6    6  503    0  0.43702834037E+02  0.13032554808E+03  0.29449456707E+03  0.32499497876E+03  0.00000000000E+00 0. -1.
         -1    1    6    6    0  503  0.20473665611E+02  0.57474559133E+03  0.10374085472E+04  0.11861568866E+04  0.00000000000E+00 0.  1.
<mgrwt>
<rscale>  0 0.20346156E+04</rscale>
<asrwt>0</asrwt>
<pdfrwt beam="1">  1        1 0.30761938E+00 0.20346156E+04</pdfrwt>
<pdfrwt beam="2">  1       -2 0.79627729E-01 0.20346156E+04</pdfrwt>
<totfact> 0.33837373E+00</totfact>
</mgrwt>
</event>
<event>
12    5  0.5246737E-008  0.3171172E+04  0.7818608E-02  0.8196472E-01
         -2   -1    0    0    0  501 -0.00000000000E+00  0.00000000000E+00  0.11729133396E+04  0.11729133396E+04  0.00000000000E+00 0.  1.
          1   -1    0    0  501    0  0.00000000000E+00 -0.00000000000E+00 -0.21434518708E+04  0.21434518708E+04  0.00000000000E+00 0. -1.
        -24    2    1    2    0    0 -0.95085074309E+03  0.82948018712E+03 -0.12067064736E+04  0.17478172074E+04  0.81055293183E+02 0.  0.
        254    2    1    2    0    0  0.95085074309E+03 -0.82948018712E+03  0.23616794230E+03  0.15685480030E+04  0.90133957217E+03 0.  0.
         23    2    4    4    0    0  0.36769837143E+03  0.58539272388E+02  0.32001894764E+03  0.49889627771E+03  0.88636506551E+02 0.  0.
         23    2    4    4    0    0  0.58315237166E+03 -0.88801945951E+03 -0.83851005346E+02  0.10696517253E+04  0.92079168892E+02 0.  0.
          3    1    3    3  502    0 -0.92918877191E+03  0.80093462706E+03 -0.11550005492E+04  0.16849078074E+04  0.00000000000E+00 0. -1.
         -4    1    3    3    0  502 -0.21661971179E+02  0.28545560060E+02 -0.51705924316E+02  0.62909399965E+02  0.00000000000E+00 0.  1.
         13    1    5    5    0    0  0.98386317509E+02  0.31526712088E+01  0.13663932421E+03  0.16840460721E+03  0.00000000000E+00 0. -1.
        -13    1    5    5    0    0  0.26931205392E+03  0.55386601179E+02  0.18337962344E+03  0.33049167050E+03  0.00000000000E+00 0.  1.
          3    1    6    6  503    0  0.25479045486E+03 -0.33815630965E+03 -0.69345143760E+02  0.42904150686E+03  0.00000000000E+00 0. -1.
         -3    1    6    6    0  503  0.32836191680E+03 -0.54986314986E+03 -0.14505861585E+02  0.64061021846E+03  0.00000000000E+00 0.  1.
<mgrwt>
<rscale>  0 0.31711722E+04</rscale>
<asrwt>0</asrwt>
<pdfrwt beam="1">  1        1 0.32976182E+00 0.31711722E+04</pdfrwt>
<pdfrwt beam="2">  1       -2 0.18044821E+00 0.31711722E+04</pdfrwt>
<totfact> 0.31613565E-01</totfact>
</mgrwt>
</event>
<event>
12    5  0.5246737E-008  0.1684301E+04  0.7818608E-02  0.8770369E-01
          1   -1    0    0  501    0  0.00000000000E+00  0.00000000000E+00  0.62409420240E+03  0.62409420240E+03  0.00000000000E+00 0. -1.
         -2   -1    0    0    0  501 -0.00000000000E+00 -0.00000000000E+00 -0.11363942874E+04  0.11363942874E+04  0.00000000000E+00 0.  1.
        -24    2    1    2    0    0 -0.52653839778E+02 -0.22269574528E+03 -0.76027697378E+03  0.79791040595E+03  0.79209325558E+02 0.  0.
        254    2    1    2    0    0  0.52653839778E+02  0.22269574528E+03  0.24797688874E+03  0.96257808388E+03  0.90149775840E+03 0.  0.
         23    2    4    4    0    0  0.39531400502E+03 -0.10433262069E+03 -0.38743084679E+01  0.41836066730E+03  0.88612523776E+02 0.  0.
         23    2    4    4    0    0 -0.34266016525E+03  0.32702836597E+03  0.25185119721E+03  0.54421741658E+03  0.91542503643E+02 0.  0.
          3    1    3    3  502    0  0.27980961627E+01 -0.38606926947E+02 -0.57540036420E+02  0.69348251180E+02  0.00000000000E+00 0. -1.
         -4    1    3    3    0  502 -0.55451935941E+02 -0.18408881833E+03 -0.70273693736E+03  0.72856215477E+03  0.00000000000E+00 0.  1.
         13    1    5    5    0    0  0.10504502873E+03  0.11695837769E+02  0.17952526110E+01  0.10570938281E+03  0.00000000000E+00 0. -1.
        -13    1    5    5    0    0  0.29026897630E+03 -0.11602845846E+03 -0.56695610789E+01  0.31265128449E+03  0.00000000000E+00 0.  1.
          3    1    6    6  503    0 -0.12213630015E+03  0.16958094523E+03  0.13719917780E+03  0.24999717437E+03  0.00000000000E+00 0. -1.
         -3    1    6    6    0  503 -0.22052386509E+03  0.15744742074E+03  0.11465201941E+03  0.29422024221E+03  0.00000000000E+00 0.  1.
<mgrwt>
<rscale>  0 0.16843006E+04</rscale>
<asrwt>0</asrwt>
<pdfrwt beam="1">  1        1 0.96014492E-01 0.16843006E+04</pdfrwt>
<pdfrwt beam="2">  1       -2 0.17482989E+00 0.16843006E+04</pdfrwt>
<totfact> 0.53101287E+00</totfact>
</mgrwt>
</event>
<event>
12    5  0.5246737E-008  0.1565266E+04  0.7818608E-02  0.8842175E-01
          1   -1    0    0  501    0  0.00000000000E+00  0.00000000000E+00  0.10673363994E+04  0.10673363994E+04  0.00000000000E+00 0. -1.
         -2   -1    0    0    0  501 -0.00000000000E+00 -0.00000000000E+00 -0.57387170317E+03  0.57387170317E+03  0.00000000000E+00 0.  1.
        -24    2    1    2    0    0 -0.24726993410E+03 -0.55324444407E+02 -0.31561835302E+03  0.41197725229E+03  0.76857642341E+02 0.  0.
        254    2    1    2    0    0  0.24726993410E+03  0.55324444407E+02  0.80908304924E+03  0.12292308503E+04  0.89005049757E+03 0.  0.
         23    2    4    4    0    0  0.53616517410E+03  0.17471909257E+03  0.65386984835E+03  0.86820202538E+03  0.90714514050E+02 0.  0.
         23    2    4    4    0    0 -0.28889523999E+03 -0.11939464816E+03  0.15521320089E+03  0.36102882489E+03  0.92385783393E+02 0.  0.
          3    1    3    3  502    0 -0.46122779565E+02  0.19543806730E+02 -0.56269136461E+02  0.75335827429E+02  0.00000000000E+00 0. -1.
         -4    1    3    3    0  502 -0.20114715454E+03 -0.74868251137E+02 -0.25934921655E+03  0.33664142486E+03  0.00000000000E+00 0.  1.
         13    1    5    5    0    0  0.46577667727E+03  0.12388679572E+03  0.58070033881E+03  0.75465802503E+03  0.00000000000E+00 0.  1.
        -13    1    5    5    0    0  0.70388496823E+02  0.50832296852E+02  0.73169509543E+02  0.11354400035E+03  0.00000000000E+00 0. -1.
          1    1    6    6  503    0 -0.59582790832E+02 -0.34172606083E+02  0.79242250881E+02  0.10486758457E+03  0.00000000000E+00 0. -1.
         -1    1    6    6    0  503 -0.22931244916E+03 -0.85222042082E+02  0.75970950006E+02  0.25616124032E+03  0.00000000000E+00 0.  1.
<mgrwt>
<rscale>  0 0.15652657E+04</rscale>
<asrwt>0</asrwt>
<pdfrwt beam="1">  1        1 0.16420560E+00 0.15652657E+04</pdfrwt>
<pdfrwt beam="2">  1       -2 0.88287955E-01 0.15652657E+04</pdfrwt>
<totfact> 0.12510566E+01</totfact>
</mgrwt>
</event>
<event>
12    5  0.5246737E-008  0.1795018E+04  0.7818608E-02  0.8708953E-01
          1   -1    0    0  501    0  0.00000000000E+00  0.00000000000E+00  0.59472653604E+03  0.59472653604E+03  0.00000000000E+00 0. -1.
         -2   -1    0    0    0  501 -0.00000000000E+00 -0.00000000000E+00 -0.13544416839E+04  0.13544416839E+04  0.00000000000E+00 0.  1.
        -24    2    1    2    0    0  0.26285388567E+03 -0.17855230986E+03  0.35316905508E+03  0.48205394815E+03  0.81697826768E+02 0.  0.
        254    2    1    2    0    0 -0.26285388567E+03  0.17855230986E+03 -0.11128842029E+04  0.14671142718E+04  0.90163182329E+03 0.  0.
         23    2    4    4    0    0 -0.13723537168E+02  0.41297767899E+03 -0.10143021114E+04  0.11000320083E+04  0.10258044267E+03 0.  0.
         23    2    4    4    0    0 -0.24913034850E+03 -0.23442536913E+03 -0.98582091547E+02  0.36708226352E+03  0.89497347330E+02 0.  0.
          1    1    3    3  502    0  0.15252240599E+03 -0.15004401704E+03  0.22260465021E+03  0.30875414439E+03  0.00000000000E+00 0. -1.
         -2    1    3    3    0  502  0.11033147968E+03 -0.28508292811E+02  0.13056440486E+03  0.17329980376E+03  0.00000000000E+00 0.  1.
         13    1    5    5    0    0 -0.27455061428E+02  0.54287599962E+02 -0.22248021946E+03  0.23064772264E+03  0.00000000000E+00 0. -1.
        -13    1    5    5    0    0  0.13731524260E+02  0.35869007903E+03 -0.79182189193E+03  0.86938428562E+03  0.00000000000E+00 0.  1.
          2    1    6    6  503    0 -0.12729537222E+02  0.79181596055E+01 -0.55173276489E+01  0.15974331717E+02  0.00000000000E+00 0. -1.
         -2    1    6    6    0  503 -0.23640081128E+03 -0.24234352874E+03 -0.93064763898E+02  0.35110793180E+03  0.00000000000E+00 0.  1.
<mgrwt>
<rscale>  0 0.17950180E+04</rscale>
<asrwt>0</asrwt>
<pdfrwt beam="1">  1        1 0.91496391E-01 0.17950180E+04</pdfrwt>
<pdfrwt beam="2">  1       -2 0.20837564E+00 0.17950180E+04</pdfrwt>
<totfact> 0.33600781E+00</totfact>
</mgrwt>
</event>
<event>
12    5  0.5246737E-008  0.1752780E+04  0.7818608E-02  0.8731822E-01
          1   -1    0    0  501    0  0.00000000000E+00  0.00000000000E+00  0.19583138262E+04  0.19583138262E+04  0.00000000000E+00 0. -1.
         -2   -1    0    0    0  501 -0.00000000000E+00 -0.00000000000E+00 -0.39220438289E+03  0.39220438289E+03  0.00000000000E+00 0.  1.
        -24    2    1    2    0    0  0.20324761259E+03 -0.49468034048E+03  0.10523471724E+04  0.11831544004E+04  0.80009577938E+02 0.  0.
        254    2    1    2    0    0 -0.20324761259E+03  0.49468034048E+03  0.51376227091E+03  0.11673638087E+04  0.90153666571E+03 0.  0.
         23    2    4    4    0    0 -0.50741945642E+03  0.74736273302E+02  0.22871067360E+03  0.56881595789E+03  0.90459971417E+02 0.  0.
         23    2    4    4    0    0  0.30417184383E+03  0.41994406718E+03  0.28505159731E+03  0.59854785083E+03  0.90175309660E+02 0.  0.
          3    1    3    3  502    0  0.20984104316E+03 -0.46276456302E+03  0.99267860012E+03  0.11151659551E+04  0.00000000000E+00 0. -1.
         -2    1    3    3    0  502 -0.65934305654E+01 -0.31915777456E+02  0.59668572274E+02  0.67988445301E+02  0.00000000000E+00 0.  1.
         13    1    5    5    0    0 -0.21748800138E+02  0.11949843935E+02  0.33360559405E+02  0.41578071160E+02  0.00000000000E+00 0.  1.
        -13    1    5    5    0    0 -0.48567065628E+03  0.62786429367E+02  0.19535011420E+03  0.52723788673E+03  0.00000000000E+00 0. -1.
          1    1    6    6  503    0  0.19275582391E+03  0.18995028852E+03  0.15329995420E+03  0.31102539401E+03  0.00000000000E+00 0. -1.
         -1    1    6    6    0  503  0.11141601991E+03  0.22999377866E+03  0.13175164311E+03  0.28752245682E+03  0.00000000000E+00 0.  1.
<mgrwt>
<rscale>  0 0.17527798E+04</rscale>
<asrwt>0</asrwt>
<pdfrwt beam="1">  1        1 0.30127904E+00 0.17527798E+04</pdfrwt>
<pdfrwt beam="2">  1       -2 0.60339137E-01 0.17527798E+04</pdfrwt>
<totfact> 0.67717991E+00</totfact>
</mgrwt>
</event>
<event>
12    5  0.5246737E-008  0.3051731E+04  0.7818608E-02  0.8229111E-01
          1   -1    0    0  501    0  0.00000000000E+00  0.00000000000E+00  0.57223986653E+03  0.57223986653E+03  0.00000000000E+00 0. -1.
         -2   -1    0    0    0  501 -0.00000000000E+00 -0.00000000000E+00 -0.40686885767E+04  0.40686885767E+04  0.00000000000E+00 0.  1.
        -24    2    1    2    0    0 -0.10570786186E+04 -0.60405514641E+03 -0.55676674581E+03  0.13411569392E+04  0.80093074570E+02 0.  0.
        254    2    1    2    0    0  0.10570786186E+04  0.60405514641E+03 -0.29396819644E+04  0.32997715040E+04  0.87433637756E+03 0.  0.
         23    2    4    4    0    0 -0.97085256877E+02 -0.78170093828E+02 -0.30288669975E+03  0.34030311464E+03  0.92356625531E+02 0.  0.
         23    2    4    4    0    0  0.11541638755E+04  0.68222524024E+03 -0.26367952646E+04  0.29594683893E+04  0.90765357714E+02 0.  0.
          3    1    3    3  502    0 -0.97335214978E+03 -0.55382722315E+03 -0.48719673667E+03  0.12212696921E+04  0.00000000000E+00 0. -1.
         -4    1    3    3    0  502 -0.83726468825E+02 -0.50227923255E+02 -0.69570009135E+02  0.11988724714E+03  0.00000000000E+00 0.  1.
         13    1    5    5    0    0 -0.16049326615E+02  0.15800691349E+02 -0.15695768212E+02  0.27451773561E+02  0.00000000000E+00 0.  1.
        -13    1    5    5    0    0 -0.81035930262E+02 -0.93970785177E+02 -0.28719093154E+03  0.31285134108E+03  0.00000000000E+00 0. -1.
          2    1    6    6  503    0  0.10991438543E+04  0.66487224703E+03 -0.24922056014E+04  0.28037940504E+04  0.00000000000E+00 0. -1.
         -2    1    6    6    0  503  0.55020021223E+02  0.17352993208E+02 -0.14458966316E+03  0.15567433893E+03  0.00000000000E+00 0.  1.
<mgrwt>
<rscale>  0 0.30517312E+04</rscale>
<asrwt>0</asrwt>
<pdfrwt beam="1">  1        1 0.88036906E-01 0.30517312E+04</pdfrwt>
<pdfrwt beam="2">  1       -2 0.62595207E+00 0.30517312E+04</pdfrwt>
<totfact> 0.10932500E-02</totfact>
</mgrwt>
</event>
<event>
12    5  0.5246737E-008  0.1412618E+04  0.7818608E-02  0.8944735E-01
         -2   -1    0    0    0  501 -0.00000000000E+00  0.00000000000E+00  0.24933308076E+03  0.24933308076E+03  0.00000000000E+00 0.  1.
          1   -1    0    0  501    0  0.00000000000E+00 -0.00000000000E+00 -0.20008285280E+04  0.20008285280E+04  0.00000000000E+00 0. -1.
        -24    2    1    2    0    0 -0.63225117001E+02  0.13067481006E+02 -0.11796202665E+04  0.11840829553E+04  0.79876763603E+02 0.  0.
        254    2    1    2    0    0  0.63225117001E+02 -0.13067481006E+02 -0.57187518072E+03  0.10660786535E+04  0.89739305689E+03 0.  0.
         23    2    4    4    0    0 -0.14997734592E+02  0.82738290299E+02  0.22312524079E+03  0.25583110876E+03  0.92704511254E+02 0.  0.
         23    2    4    4    0    0  0.78222851593E+02 -0.95805771304E+02 -0.79500042152E+03  0.81024754470E+03  0.95801112450E+02 0.  0.
          1    1    3    3  502    0 -0.69239811979E+01 -0.29030505496E+02 -0.48405095146E+03  0.48497013865E+03  0.00000000000E+00 0. -1.
         -2    1    3    3    0  502 -0.56301135803E+02  0.42097986502E+02 -0.69556931505E+03  0.69911281665E+03  0.00000000000E+00 0.  1.
         13    1    5    5    0    0 -0.54215747954E+02  0.48589710850E+02  0.13952841795E+03  0.15738007099E+03  0.00000000000E+00 0.  1.
        -13    1    5    5    0    0  0.39218013362E+02  0.34148579448E+02  0.83596822841E+02  0.98451037777E+02  0.00000000000E+00 0. -1.
          3    1    6    6  503    0 -0.16849668360E+02 -0.86863019018E+01 -0.39408470623E+02  0.43730889785E+02  0.00000000000E+00 0. -1.
         -3    1    6    6    0  503  0.95072519953E+02 -0.87119469403E+02 -0.75559195089E+03  0.76651665491E+03  0.00000000000E+00 0.  1.
<mgrwt>
<rscale>  0 0.14126185E+04</rscale>
<asrwt>0</asrwt>
<pdfrwt beam="1">  1        1 0.30781976E+00 0.14126185E+04</pdfrwt>
<pdfrwt beam="2">  1       -2 0.38358937E-01 0.14126185E+04</pdfrwt>
<totfact> 0.16349649E+01</totfact>
</mgrwt>
</event>
<event>
12    5  0.5246737E-008  0.1746534E+04  0.7818608E-02  0.8735260E-01
         -4   -1    0    0    0  501 -0.00000000000E+00  0.00000000000E+00  0.14186783956E+04  0.14186783956E+04  0.00000000000E+00 0.  1.
          3   -1    0    0  501    0  0.00000000000E+00 -0.00000000000E+00 -0.53753937625E+03  0.53753937625E+03  0.00000000000E+00 0. -1.
        -24    2    1    2    0    0  0.24291084584E+03 -0.17614427522E+03 -0.31305373204E+03  0.44084497265E+03  0.79430258979E+02 0.  0.
        254    2    1    2    0    0 -0.24291084584E+03  0.17614427522E+03  0.11941927514E+04  0.15153727992E+04  0.88330397279E+03 0.  0.
         23    2    4    4    0    0 -0.27880024446E+02 -0.34693653125E+03  0.49389846026E+03  0.61091863728E+03  0.90242117975E+02 0.  0.
         23    2    4    4    0    0 -0.21503082140E+03  0.52308080647E+03  0.70029429111E+03  0.90445416190E+03  0.88167185297E+02 0.  0.
          3    1    3    3  502    0  0.20402407414E+03 -0.17767489421E+03 -0.28432527808E+03  0.39247299859E+03  0.00000000000E+00 0. -1.
         -4    1    3    3    0  502  0.38886771697E+02  0.15306189893E+01 -0.28728453962E+02  0.48371974061E+02  0.00000000000E+00 0.  1.
         13    1    5    5    0    0 -0.59549594157E+02 -0.26574048471E+03  0.36861862746E+03  0.45830541333E+03  0.00000000000E+00 0. -1.
        -13    1    5    5    0    0  0.31669569710E+02 -0.81196046540E+02  0.12527983280E+03  0.15261322395E+03  0.00000000000E+00 0.  1.
          3    1    6    6  503    0 -0.19481418111E+03  0.51445278542E+03  0.66739390206E+03  0.86488661343E+03  0.00000000000E+00 0. -1.
         -3    1    6    6    0  503 -0.20216640290E+02  0.86280210489E+01  0.32900389050E+02  0.39567548464E+02  0.00000000000E+00 0.  1.
<mgrwt>
<rscale>  0 0.17465343E+04</rscale>
<asrwt>0</asrwt>
<pdfrwt beam="1">  1        3 0.82698366E-01 0.17465343E+04</pdfrwt>
<pdfrwt beam="2">  1       -4 0.21825821E+00 0.17465343E+04</pdfrwt>
<totfact> 0.29314294E-01</totfact>
</mgrwt>
</event>
<event>
12    5  0.5246737E-008  0.2266050E+04  0.7818608E-02  0.8491429E-01
         -2   -1    0    0    0  501 -0.00000000000E+00  0.00000000000E+00  0.89966211639E+03  0.89966211639E+03  0.00000000000E+00 0.  1.
          1   -1    0    0  501    0  0.00000000000E+00 -0.00000000000E+00 -0.14269192793E+04  0.14269192793E+04  0.00000000000E+00 0. -1.
        -24    2    1    2    0    0 -0.18350400849E+03 -0.89388242233E+03  0.51554887800E+02  0.91739312534E+03  0.79074230299E+02 0.  0.
        254    2    1    2    0    0  0.18350400849E+03  0.89388242233E+03 -0.57881205068E+03  0.14091882703E+04  0.90448255103E+03 0.  0.
         23    2    4    4    0    0  0.24134788214E+03  0.10070328130E+04 -0.28923174389E+03  0.10792758309E+04  0.93901175076E+02 0.  0.
         23    2    4    4    0    0 -0.57843873643E+02 -0.11315039072E+03 -0.28958030679E+03  0.32991243945E+03  0.94002866889E+02 0.  0.
          3    1    3    3  502    0 -0.17664212146E+03 -0.88763336537E+03  0.56641562661E+02  0.90680962557E+03  0.00000000000E+00 0. -1.
         -4    1    3    3    0  502 -0.68618870300E+01 -0.62490569514E+01 -0.50866748609E+01  0.10583499777E+02  0.00000000000E+00 0.  1.
         13    1    5    5    0    0  0.19048189598E+03  0.84053228348E+03 -0.27473767254E+03  0.90457650919E+03  0.00000000000E+00 0.  1.
        -13    1    5    5    0    0  0.50865986160E+02  0.16650052956E+03 -0.14494071350E+02  0.17469932168E+03  0.00000000000E+00 0. -1.
          4    1    6    6  503    0 -0.65779526848E+02 -0.75680471668E+02 -0.26756100692E+03  0.28573304389E+03  0.00000000000E+00 0.  1.
         -4    1    6    6    0  503  0.79356532049E+01 -0.37469919048E+02 -0.22019299869E+02  0.44179395559E+02  0.00000000000E+00 0. -1.
<mgrwt>
<rscale>  0 0.22660496E+04</rscale>
<asrwt>0</asrwt>
<pdfrwt beam="1">  1        1 0.21952604E+00 0.22660496E+04</pdfrwt>
<pdfrwt beam="2">  1       -2 0.13840956E+00 0.22660496E+04</pdfrwt>
<totfact> 0.21657281E+00</totfact>
</mgrwt>
</event>
<event>
12    5  0.5246737E-008  0.1437896E+04  0.7818608E-02  0.8926835E-01
         -2   -1    0    0    0  501 -0.00000000000E+00  0.00000000000E+00  0.32269372108E+03  0.32269372108E+03  0.00000000000E+00 0.  1.
          1   -1    0    0  501    0  0.00000000000E+00 -0.00000000000E+00 -0.16017866792E+04  0.16017866792E+04  0.00000000000E+00 0. -1.
        -24    2    1    2    0    0  0.21081006614E+03 -0.17666675619E+03 -0.84487890380E+03  0.89203550074E+03  0.79088215057E+02 0.  0.
        254    2    1    2    0    0 -0.21081006614E+03  0.17666675619E+03 -0.43421405429E+03  0.10324448995E+04  0.89540415392E+03 0.  0.
         23    2    4    4    0    0 -0.16688710901E+03 -0.32878524089E+03 -0.33609799147E+03  0.50708437457E+03  0.90673376913E+02 0.  0.
         23    2    4    4    0    0 -0.43922957135E+02  0.50545199708E+03 -0.98116062824E+02  0.52536052495E+03  0.94688815977E+02 0.  0.
          3    1    3    3  502    0  0.17394563540E+03 -0.14841973889E+03 -0.77580099639E+03  0.80879706290E+03  0.00000000000E+00 0. -1.
         -4    1    3    3    0  502  0.36864430745E+02 -0.28247017304E+02 -0.69077907415E+02  0.83238437837E+02  0.00000000000E+00 0.  1.
         13    1    5    5    0    0 -0.49215346030E+02 -0.17602003092E+03 -0.12650448614E+03  0.22228042330E+03  0.00000000000E+00 0.  1.
        -13    1    5    5    0    0 -0.11767176298E+03 -0.15276520997E+03 -0.20959350533E+03  0.28480395126E+03  0.00000000000E+00 0. -1.
          1    1    6    6  503    0  0.79061827239E+01  0.96058682461E+02  0.14839831590E+02  0.97519222736E+02  0.00000000000E+00 0. -1.
         -1    1    6    6    0  503 -0.51829139859E+02  0.40939331462E+03 -0.11295589441E+03  0.42784130221E+03  0.00000000000E+00 0.  1.
<mgrwt>
<rscale>  0 0.14378964E+04</rscale>
<asrwt>0</asrwt>
<pdfrwt beam="1">  1        1 0.24642872E+00 0.14378964E+04</pdfrwt>
<pdfrwt beam="2">  1       -2 0.49645188E-01 0.14378964E+04</pdfrwt>
<totfact> 0.18228361E+01</totfact>
</mgrwt>
</event>
<event>
12    5  0.5246737E-008  0.1594825E+04  0.7818608E-02  0.8823734E-01
         -2   -1    0    0    0  501 -0.00000000000E+00  0.00000000000E+00  0.57722073898E+03  0.57722073898E+03  0.00000000000E+00 0.  1.
          1   -1    0    0  501    0  0.00000000000E+00 -0.00000000000E+00 -0.11015998867E+04  0.11015998867E+04  0.00000000000E+00 0. -1.
        -24    2    1    2    0    0  0.46659766117E+03  0.26430766498E+03 -0.24503111203E+03  0.59512569384E+03  0.81008804649E+02 0.  0.
        254    2    1    2    0    0 -0.46659766117E+03 -0.26430766498E+03 -0.27934803572E+03  0.10836949319E+04  0.89932611499E+03 0.  0.
         23    2    4    4    0    0  0.11520362421E+02 -0.90638155560E+02 -0.50313687082E+03  0.51947681227E+03  0.91440984891E+02 0.  0.
         23    2    4    4    0    0 -0.47811802359E+03 -0.17366950942E+03  0.22378883510E+03  0.56421811959E+03  0.97481797117E+02 0.  0.
          3    1    3    3  502    0  0.10118101462E+03  0.84693777900E+02 -0.88602550247E+02  0.15893723807E+03  0.00000000000E+00 0. -1.
         -4    1    3    3    0  502  0.36541664655E+03  0.17961388708E+03 -0.15642856178E+03  0.43618845577E+03  0.00000000000E+00 0.  1.
         13    1    5    5    0    0  0.41474528339E+02 -0.75179176113E+02 -0.43576135922E+03  0.44413962581E+03  0.00000000000E+00 0. -1.
        -13    1    5    5    0    0 -0.29954165919E+02 -0.15458979447E+02 -0.67375511598E+02  0.75337186465E+02  0.00000000000E+00 0.  1.
          1    1    6    6  503    0 -0.35432020142E+03 -0.17006431624E+03  0.15445096188E+03  0.42227926355E+03  0.00000000000E+00 0. -1.
         -1    1    6    6    0  503 -0.12379782217E+03 -0.36051931791E+01  0.69337873219E+02  0.14193885604E+03  0.00000000000E+00 0.  1.
<mgrwt>
<rscale>  0 0.15948245E+04</rscale>
<asrwt>0</asrwt>
<pdfrwt beam="1">  1        1 0.16947690E+00 0.15948245E+04</pdfrwt>
<pdfrwt beam="2">  1       -2 0.88803191E-01 0.15948245E+04</pdfrwt>
<totfact> 0.11600383E+01</totfact>
</mgrwt>
</event>
<event>
12    5  0.5246737E-008  0.1684142E+04  0.7818608E-02  0.8770461E-01
          1   -1    0    0  501    0  0.00000000000E+00  0.00000000000E+00  0.24250745905E+04  0.24250745905E+04  0.00000000000E+00 0. -1.
         -2   -1    0    0    0  501 -0.00000000000E+00 -0.00000000000E+00 -0.29239670128E+03  0.29239670128E+03  0.00000000000E+00 0.  1.
        -24    2    1    2    0    0  0.49177170679E+03 -0.68569209752E+02  0.21935333007E+03  0.54867764976E+03  0.79938300050E+02 0.  0.
        254    2    1    2    0    0 -0.49177170679E+03  0.68569209752E+02  0.19133245592E+04  0.21687936420E+04  0.89236418848E+03 0.  0.
         23    2    4    4    0    0 -0.87985041532E+02  0.40766659860E+03  0.12244384277E+04  0.12967307583E+04  0.91256633531E+02 0.  0.
         23    2    4    4    0    0 -0.40378666525E+03 -0.33909738885E+03  0.68888613153E+03  0.87206288378E+03  0.88875535965E+02 0.  0.
          1    1    3    3  502    0  0.70400068407E+02  0.18182752513E+02  0.32410189496E+02  0.79606548121E+02  0.00000000000E+00 0. -1.
         -2    1    3    3    0  502  0.42137163838E+03 -0.86751962265E+02  0.18694314058E+03  0.46907110164E+03  0.00000000000E+00 0.  1.
         13    1    5    5    0    0 -0.47477327469E+01  0.53304397138E+02  0.26962374873E+03  0.27488336727E+03  0.00000000000E+00 0. -1.
        -13    1    5    5    0    0 -0.83237308785E+02  0.35436220146E+03  0.95481467892E+03  0.10218473910E+04  0.00000000000E+00 0.  1.
          2    1    6    6  503    0 -0.73640687378E+02 -0.89350819276E+02  0.10492539254E+03  0.15625574467E+03  0.00000000000E+00 0. -1.
         -2    1    6    6    0  503 -0.33014597788E+03 -0.24974656957E+03  0.58396073898E+03  0.71580713911E+03  0.00000000000E+00 0.  1.
<mgrwt>
<rscale>  0 0.16841423E+04</rscale>
<asrwt>0</asrwt>
<pdfrwt beam="1">  1        1 0.37308839E+00 0.16841423E+04</pdfrwt>
<pdfrwt beam="2">  1       -2 0.44984109E-01 0.16841423E+04</pdfrwt>
<totfact> 0.59948025E+00</totfact>
</mgrwt>
</event>
<event>
12    5  0.5246737E-008  0.1570017E+04  0.7818608E-02  0.8839183E-01
          1   -1    0    0  501    0  0.00000000000E+00  0.00000000000E+00  0.18552915789E+04  0.18552915789E+04  0.00000000000E+00 0. -1.
         -2   -1    0    0    0  501 -0.00000000000E+00 -0.00000000000E+00 -0.33215162804E+03  0.33215162804E+03  0.00000000000E+00 0.  1.
        -24    2    1    2    0    0  0.48211724363E+03 -0.18811526031E+03  0.45114500802E+03  0.69121520529E+03  0.80138966786E+02 0.  0.
        254    2    1    2    0    0 -0.48211724363E+03  0.18811526031E+03  0.10719949429E+04  0.14962280017E+04  0.90647707509E+03 0.  0.
         23    2    4    4    0    0 -0.39728146491E+03 -0.24985810996E+03  0.21092613628E+03  0.52236181660E+03  0.90057731509E+02 0.  0.
         23    2    4    4    0    0 -0.84835778723E+02  0.43797337026E+03  0.86106880658E+03  0.97386618506E+03  0.89208039560E+02 0.  0.
          1    1    3    3  502    0  0.58941831517E+02 -0.27576853650E+02  0.95673643471E+02  0.11570682095E+03  0.00000000000E+00 0. -1.
         -2    1    3    3    0  502  0.42317541211E+03 -0.16053840666E+03  0.35547136454E+03  0.57550838434E+03  0.00000000000E+00 0.  1.
         13    1    5    5    0    0 -0.39139368459E+03 -0.23191132178E+03  0.18699021942E+03  0.49187114132E+03  0.00000000000E+00 0.  1.
        -13    1    5    5    0    0 -0.58877803155E+01 -0.17946788177E+02  0.23935916857E+02  0.30490675274E+02  0.00000000000E+00 0. -1.
          3    1    6    6  503    0 -0.68847327630E+02  0.24962906248E+03  0.41176444939E+03  0.48642017345E+03  0.00000000000E+00 0. -1.
         -3    1    6    6    0  503 -0.15988451093E+02  0.18834430778E+03  0.44930435719E+03  0.48744601161E+03  0.00000000000E+00 0.  1.
<mgrwt>
<rscale>  0 0.15700167E+04</rscale>
<asrwt>0</asrwt>
<pdfrwt beam="1">  1        1 0.28542947E+00 0.15700167E+04</pdfrwt>
<pdfrwt beam="2">  1       -2 0.51100252E-01 0.15700167E+04</pdfrwt>
<totfact> 0.11420925E+01</totfact>
</mgrwt>
</event>
<event>
12    5  0.5246737E-008  0.1868932E+04  0.7818608E-02  0.8670477E-01
         -2   -1    0    0    0  501 -0.00000000000E+00  0.00000000000E+00  0.69407366649E+03  0.69407366649E+03  0.00000000000E+00 0.  1.
          1   -1    0    0  501    0  0.00000000000E+00 -0.00000000000E+00 -0.12581179798E+04  0.12581179798E+04  0.00000000000E+00 0. -1.
        -24    2    1    2    0    0 -0.46779578300E+02 -0.15524130960E+03  0.46982950966E+03  0.50415783518E+03  0.84540886370E+02 0.  0.
        254    2    1    2    0    0  0.46779578300E+02  0.15524130960E+03 -0.10338738229E+04  0.14480338111E+04  0.10008089943E+04 0.  0.
         23    2    4    4    0    0 -0.49117481205E+02 -0.18883845748E+03 -0.10570763102E+04  0.10789548944E+04  0.93063679564E+02 0.  0.
         23    2    4    4    0    0  0.95897059504E+02  0.34407976708E+03  0.23202487292E+02  0.36907891671E+03  0.89965322232E+02 0.  0.
          1    1    3    3  502    0 -0.78087399706E+00 -0.21964415474E+02  0.18543056241E+03  0.18672851627E+03  0.00000000000E+00 0. -1.
         -2    1    3    3    0  502 -0.45998704303E+02 -0.13327689413E+03  0.28439894725E+03  0.31742931891E+03  0.00000000000E+00 0.  1.
         13    1    5    5    0    0 -0.42399601611E+02 -0.18281458976E+03 -0.79987461117E+03  0.82159496959E+03  0.00000000000E+00 0.  1.
        -13    1    5    5    0    0 -0.67178795936E+01 -0.60238677192E+01 -0.25720169906E+03  0.25735992479E+03  0.00000000000E+00 0. -1.
          4    1    6    6  503    0 -0.15951042619E+02  0.71711828698E+02  0.11909323878E+02  0.74423478360E+02  0.00000000000E+00 0. -1.
         -4    1    6    6    0  503  0.11184810212E+03  0.27236793838E+03  0.11293163414E+02  0.29465543835E+03  0.00000000000E+00 0.  1.
<mgrwt>
<rscale>  0 0.18689318E+04</rscale>
<asrwt>0</asrwt>
<pdfrwt beam="1">  1        1 0.19355661E+00 0.18689318E+04</pdfrwt>
<pdfrwt beam="2">  1       -2 0.10678056E+00 0.18689318E+04</pdfrwt>
<totfact> 0.56324125E+00</totfact>
</mgrwt>
</event>
<event>
12    5  0.5246737E-008  0.1544366E+04  0.7818608E-02  0.8855474E-01
         -4   -1    0    0    0  501 -0.00000000000E+00  0.00000000000E+00  0.13428015251E+03  0.13428015251E+03  0.00000000000E+00 0.  1.
          3   -1    0    0  501    0  0.00000000000E+00 -0.00000000000E+00 -0.44404683881E+04  0.44404683881E+04  0.00000000000E+00 0. -1.
        -24    2    1    2    0    0  0.32577607469E+03 -0.58278997519E+02 -0.25913889574E+04  0.26136723454E+04  0.80373552405E+02 0.  0.
        254    2    1    2    0    0 -0.32577607469E+03  0.58278997519E+02 -0.17147992781E+04  0.19610761952E+04  0.89205200896E+03 0.  0.
         23    2    4    4    0    0  0.52000157618E+02  0.41208139337E+03 -0.75280087067E+03  0.86478506267E+03  0.92892209420E+02 0.  0.
         23    2    4    4    0    0 -0.37777623231E+03 -0.35380239585E+03 -0.96199840747E+03  0.10962911325E+04  0.92316273215E+02 0.  0.
          3    1    3    3  502    0  0.67932512560E+02 -0.11441884904E+02 -0.32757143052E+03  0.33473688934E+03  0.00000000000E+00 0. -1.
         -4    1    3    3    0  502  0.25784356213E+03 -0.46837112615E+02 -0.22638175269E+04  0.22789354560E+04  0.00000000000E+00 0.  1.
         13    1    5    5    0    0  0.70344001167E+02  0.37476053533E+03 -0.70432006011E+03  0.80091228260E+03  0.00000000000E+00 0.  1.
        -13    1    5    5    0    0 -0.18343843549E+02  0.37320858040E+02 -0.48480810563E+02  0.63872780069E+02  0.00000000000E+00 0. -1.
          1    1    6    6  503    0 -0.35402320691E+03 -0.31713152865E+03 -0.82073650796E+03  0.94842672516E+03  0.00000000000E+00 0.  1.
         -1    1    6    6    0  503 -0.23753025397E+02 -0.36670867200E+02 -0.14126189951E+03  0.14786440738E+03  0.00000000000E+00 0. -1.
<mgrwt>
<rscale>  0 0.15443662E+04</rscale>
<asrwt>0</asrwt>
<pdfrwt beam="1">  1        3 0.68314894E+00 0.15443662E+04</pdfrwt>
<pdfrwt beam="2">  1       -4 0.20658486E-01 0.15443662E+04</pdfrwt>
<totfact> 0.20611319E-02</totfact>
</mgrwt>
</event>
<event>
12    5  0.5246737E-008  0.1384534E+04  0.7818608E-02  0.8965090E-01
         -2   -1    0    0    0  501 -0.00000000000E+00  0.00000000000E+00  0.21413982846E+03  0.21413982846E+03  0.00000000000E+00 0.  1.
          1   -1    0    0  501    0  0.00000000000E+00 -0.00000000000E+00 -0.22379468786E+04  0.22379468786E+04  0.00000000000E+00 0. -1.
        -24    2    1    2    0    0 -0.16392348825E+03  0.14613940310E+03  0.29951848041E+02  0.23644814581E+03  0.82358832675E+02 0.  0.
        254    2    1    2    0    0  0.16392348825E+03 -0.14613940310E+03 -0.20537588982E+04  0.22156385613E+04  0.80181106697E+03 0.  0.
         23    2    4    4    0    0  0.35973754582E+03  0.19939658659E+03 -0.10931495900E+04  0.11721313224E+04  0.98720363910E+02 0.  0.
         23    2    4    4    0    0 -0.19581405756E+03 -0.34553598968E+03 -0.96060930825E+03  0.10435072389E+04  0.91645235803E+02 0.  0.
          3    1    3    3  502    0 -0.41387362128E+02  0.65890728314E+02 -0.22282115088E+02  0.80938213931E+02  0.00000000000E+00 0. -1.
         -4    1    3    3    0  502 -0.12253612613E+03  0.80248674782E+02  0.52233963129E+02  0.15550993188E+03  0.00000000000E+00 0.  1.
         13    1    5    5    0    0  0.89774002526E+02  0.36482741390E+02 -0.38406861486E+03  0.39610486347E+03  0.00000000000E+00 0.  1.
        -13    1    5    5    0    0  0.26996354329E+03  0.16291384520E+03 -0.70908097510E+03  0.77602645890E+03  0.00000000000E+00 0. -1.
          3    1    6    6  503    0 -0.17092827761E+03 -0.23160061211E+03 -0.62193969517E+03  0.68532058487E+03  0.00000000000E+00 0. -1.
         -3    1    6    6    0  503 -0.24885779956E+02 -0.11393537757E+03 -0.33866961308E+03  0.35818665403E+03  0.00000000000E+00 0.  1.
<mgrwt>
<rscale>  0 0.13845339E+04</rscale>
<asrwt>0</asrwt>
<pdfrwt beam="1">  1        1 0.34429952E+00 0.13845339E+04</pdfrwt>
<pdfrwt beam="2">  1       -2 0.32944589E-01 0.13845339E+04</pdfrwt>
<totfact> 0.15154549E+01</totfact>
</mgrwt>
</event>
<event>
12    5  0.5246737E-008  0.1802682E+04  0.7818608E-02  0.8704874E-01
          1   -1    0    0  501    0  0.00000000000E+00  0.00000000000E+00  0.20110576281E+04  0.20110576281E+04  0.00000000000E+00 0. -1.
         -2   -1    0    0    0  501 -0.00000000000E+00 -0.00000000000E+00 -0.40397443032E+03  0.40397443032E+03  0.00000000000E+00 0.  1.
        -24    2    1    2    0    0  0.48235322353E+03 -0.41654346111E+03  0.30825368184E+03  0.71265852584E+03  0.81784808127E+02 0.  0.
        254    2    1    2    0    0 -0.48235322353E+03  0.41654346111E+03  0.12988295160E+04  0.17023735326E+04  0.89718696253E+03 0.  0.
         23    2    4    4    0    0 -0.64217178290E+03  0.27116867191E+03  0.48115059959E+03  0.85178382905E+03  0.90070775313E+02 0.  0.
         23    2    4    4    0    0  0.15981855937E+03  0.14537478920E+03  0.81767891637E+03  0.85058970355E+03  0.90709604010E+02 0.  0.
          3    1    3    3  502    0 -0.24035415052E+01 -0.22410463568E+01  0.62896722118E+01  0.70964270638E+01  0.00000000000E+00 0. -1.
         -4    1    3    3    0  502  0.48475676504E+03 -0.41430241476E+03  0.30196400963E+03  0.70556209878E+03  0.00000000000E+00 0.  1.
         13    1    5    5    0    0 -0.46006331147E+03  0.21626343786E+03  0.39078953742E+03  0.64120557365E+03  0.00000000000E+00 0. -1.
        -13    1    5    5    0    0 -0.18210847143E+03  0.54905234046E+02  0.90361062171E+02  0.21057825540E+03  0.00000000000E+00 0.  1.
          3    1    6    6  503    0  0.99622758085E+02  0.36199442402E+02  0.45129532327E+03  0.46357584316E+03  0.00000000000E+00 0. -1.
         -3    1    6    6    0  503  0.60195801284E+02  0.10917534680E+03  0.36638359310E+03  0.38701386039E+03  0.00000000000E+00 0.  1.
<mgrwt>
<rscale>  0 0.18026823E+04</rscale>
<asrwt>0</asrwt>
<pdfrwt beam="1">  1        1 0.30939348E+00 0.18026823E+04</pdfrwt>
<pdfrwt beam="2">  1       -2 0.62149914E-01 0.18026823E+04</pdfrwt>
<totfact> 0.58316614E+00</totfact>
</mgrwt>
</event>
<event>
12    5  0.5246737E-008  0.1121616E+04  0.7818608E-02  0.9184376E-01
         -4   -1    0    0    0  501 -0.00000000000E+00  0.00000000000E+00  0.16635357016E+03  0.16635357016E+03  0.00000000000E+00 0.  1.
          3   -1    0    0  501    0  0.00000000000E+00 -0.00000000000E+00 -0.18905837053E+04  0.18905837053E+04  0.00000000000E+00 0. -1.
        -24    2    1    2    0    0 -0.55996065148E+02  0.14426906121E+03 -0.11228979784E+03  0.20664952622E+03  0.78395833149E+02 0.  0.
        254    2    1    2    0    0  0.55996065148E+02 -0.14426906121E+03 -0.16119403373E+04  0.18502877492E+04  0.89513349988E+03 0.  0.
         23    2    4    4    0    0 -0.18309906726E+03  0.30173999020E+03 -0.44626879881E+03  0.57613448439E+03  0.90569383362E+02 0.  0.
         23    2    4    4    0    0  0.23909513240E+03 -0.44600905141E+03 -0.11656715385E+04  0.12741532648E+04  0.92659863801E+02 0.  0.
          1    1    3    3  502    0  0.10365348891E+02  0.15589578492E+02 -0.41414289029E+02  0.45449078659E+02  0.00000000000E+00 0. -1.
         -2    1    3    3    0  502 -0.66361414039E+02  0.12867948271E+03 -0.70875508806E+02  0.16120044756E+03  0.00000000000E+00 0.  1.
         13    1    5    5    0    0 -0.14670619271E+03  0.24582456137E+03 -0.29633649243E+03  0.41202880809E+03  0.00000000000E+00 0.  1.
        -13    1    5    5    0    0 -0.36392874546E+02  0.55915428835E+02 -0.14993230638E+03  0.16410567630E+03  0.00000000000E+00 0. -1.
          2    1    6    6  503    0 -0.13871703586E+01 -0.28205721286E+02 -0.11091949101E+03  0.11445794179E+03  0.00000000000E+00 0. -1.
         -2    1    6    6    0  503  0.24048230276E+03 -0.41780333012E+03 -0.10547520475E+04  0.11596953230E+04  0.00000000000E+00 0.  1.
<mgrwt>
<rscale>  0 0.11216155E+04</rscale>
<asrwt>0</asrwt>
<pdfrwt beam="1">  1        3 0.29085904E+00 0.11216155E+04</pdfrwt>
<pdfrwt beam="2">  1       -4 0.25592856E-01 0.11216155E+04</pdfrwt>
<totfact> 0.14549243E+00</totfact>
</mgrwt>
</event>
<event>
12    5  0.5246737E-008  0.1237913E+04  0.7818608E-02  0.9080304E-01
         -2   -1    0    0    0  501 -0.00000000000E+00  0.00000000000E+00  0.15184188699E+03  0.15184188699E+03  0.00000000000E+00 0.  1.
          1   -1    0    0  501    0  0.00000000000E+00 -0.00000000000E+00 -0.25230646622E+04  0.25230646622E+04  0.00000000000E+00 0. -1.
        -24    2    1    2    0    0 -0.31579098640E+02  0.18074559388E+03 -0.10850896956E+03  0.23198699834E+03  0.91529021336E+02 0.  0.
        254    2    1    2    0    0  0.31579098640E+02 -0.18074559388E+03 -0.22627138057E+04  0.24429195509E+04  0.90239456809E+03 0.  0.
         23    2    4    4    0    0  0.51261792651E+02 -0.37293569066E+03 -0.21800904877E+04  0.22141569234E+04  0.89373073210E+02 0.  0.
         23    2    4    4    0    0 -0.19682694010E+02  0.19219009678E+03 -0.82623317962E+02  0.22876262745E+03  0.90450457726E+02 0.  0.
          1    1    3    3  502    0 -0.36241725847E+02  0.20976353347E+02 -0.40589033921E+02  0.58317576825E+02  0.00000000000E+00 0. -1.
         -2    1    3    3    0  502  0.46626272066E+01  0.15976924053E+03 -0.67919935644E+02  0.17366942152E+03  0.00000000000E+00 0.  1.
         13    1    5    5    0    0  0.30069954835E+00 -0.51471556787E+02 -0.16177638783E+03  0.16976752115E+03  0.00000000000E+00 0. -1.
        -13    1    5    5    0    0  0.50961093102E+02 -0.32146413387E+03 -0.20183140999E+04  0.20443894023E+04  0.00000000000E+00 0.  1.
          3    1    6    6  503    0  0.90029864992E+01  0.14061863236E+02  0.16015614902E+02  0.23136328236E+02  0.00000000000E+00 0. -1.
         -3    1    6    6    0  503 -0.28685680510E+02  0.17812823354E+03 -0.98638932864E+02  0.20562629921E+03  0.00000000000E+00 0.  1.
<mgrwt>
<rscale>  0 0.12379126E+04</rscale>
<asrwt>0</asrwt>
<pdfrwt beam="1">  1        1 0.38816380E+00 0.12379126E+04</pdfrwt>
<pdfrwt beam="2">  1       -2 0.23360290E-01 0.12379126E+04</pdfrwt>
<totfact> 0.18456262E+01</totfact>
</mgrwt>
</event>
<event>
12    5  0.5246737E-008  0.2090398E+04  0.7818608E-02  0.8565485E-01
          1   -1    0    0  501    0  0.00000000000E+00  0.00000000000E+00  0.30132655542E+04  0.30132655542E+04  0.00000000000E+00 0. -1.
         -4   -1    0    0    0  501 -0.00000000000E+00 -0.00000000000E+00 -0.36254384597E+03  0.36254384597E+03  0.00000000000E+00 0.  1.
        -24    2    1    2    0    0 -0.50014716743E+03 -0.68201156647E+03  0.96521762867E+03  0.12856076063E+04  0.76517192235E+02 0.  0.
        254    2    1    2    0    0  0.50014716743E+03  0.68201156647E+03  0.16855040795E+04  0.20902017939E+04  0.90151681688E+03 0.  0.
         23    2    4    4    0    0  0.54146040138E+03  0.80052705410E+03  0.10283854604E+04  0.14141863821E+04  0.91233422665E+02 0.  0.
         23    2    4    4    0    0 -0.41313233942E+02 -0.11851548764E+03  0.65711861909E+03  0.67601541180E+03  0.97155819778E+02 0.  0.
          1    1    3    3  502    0 -0.32882103333E+02 -0.41388719352E+02  0.91943892648E+02  0.10605629734E+03  0.00000000000E+00 0. -1.
         -2    1    3    3    0  502 -0.46726506410E+03 -0.64062284711E+03  0.87327373602E+03  0.11795513089E+04  0.00000000000E+00 0.  1.
         13    1    5    5    0    0  0.53344371136E+03  0.79969883690E+03  0.10255485739E+04  0.14056423088E+04  0.00000000000E+00 0.  1.
        -13    1    5    5    0    0  0.80166900149E+01  0.82821719657E+00  0.28368865410E+01  0.85440732538E+01  0.00000000000E+00 0. -1.
          2    1    6    6  503    0 -0.53628911177E+02 -0.17539249041E+02  0.20766667200E+03  0.21519556694E+03  0.00000000000E+00 0. -1.
         -2    1    6    6    0  503  0.12315677235E+02 -0.10097623859E+03  0.44945194709E+03  0.46081984485E+03  0.00000000000E+00 0.  1.
<mgrwt>
<rscale>  0 0.20903979E+04</rscale>
<asrwt>0</asrwt>
<pdfrwt beam="1">  1        1 0.46357930E+00 0.20903979E+04</pdfrwt>
<pdfrwt beam="2">  1       -4 0.55775978E-01 0.20903979E+04</pdfrwt>
<totfact> 0.82120978E-01</totfact>
</mgrwt>
</event>
<event>
12    5  0.7774326E-008  0.2533406E+04  0.7818608E-02  0.8391180E-01
          1   -1    0    0  501    0  0.00000000000E+00  0.00000000000E+00  0.15287721360E+04  0.15287721360E+04  0.00000000000E+00 0. -1.
         -2   -1    0    0    0  501 -0.00000000000E+00 -0.00000000000E+00 -0.10495590248E+04  0.10495590248E+04  0.00000000000E+00 0.  1.
        -24    2    1    2    0    0 -0.50229292954E+03 -0.63187010417E+03 -0.55806333343E+03  0.98437346615E+03  0.77449474695E+02 0.  0.
        254    2    1    2    0    0  0.50229292954E+03  0.63187010417E+03  0.10372764446E+04  0.15939576947E+04  0.90177641041E+03 0.  0.
         23    2    4    4    0    0  0.68075327837E+02 -0.21426713440E+03  0.31089794828E+03  0.39373440772E+03  0.88456737646E+02 0.  0.
         23    2    4    4    0    0  0.43421760170E+03  0.84613723857E+03  0.72637849635E+03  0.12002232870E+04  0.91744572449E+02 0.  0.
          3    1    3    3  502    0 -0.30383933064E+01  0.21860707027E+01 -0.38957774241E+01  0.54025753803E+01  0.00000000000E+00 0. -1.
         -4    1    3    3    0  502 -0.49925453623E+03 -0.63405617487E+03 -0.55416755600E+03  0.97897089077E+03  0.00000000000E+00 0.  1.
         13    1    5    5    0    0 -0.14051397517E+02 -0.63977437999E+01  0.37832422096E+02  0.40861535207E+02  0.00000000000E+00 0. -1.
        -13    1    5    5    0    0  0.82126725353E+02 -0.20786939060E+03  0.27306552618E+03  0.35287287251E+03  0.00000000000E+00 0.  1.
          3    1    6    6  503    0 -0.45916577552E+01  0.12102886097E+02  0.79745371164E+01  0.15203828960E+02  0.00000000000E+00 0. -1.
         -3    1    6    6    0  503  0.43880925946E+03  0.83403435247E+03  0.71840395923E+03  0.11850194580E+04  0.00000000000E+00 0.  1.
<mgrwt>
<rscale>  0 0.25334061E+04</rscale>
<asrwt>0</asrwt>
<pdfrwt beam="1">  1        1 0.23519571E+00 0.25334061E+04</pdfrwt>
<pdfrwt beam="2">  1       -2 0.16147062E+00 0.25334061E+04</pdfrwt>
<totfact> 0.11941505E+00</totfact>
</mgrwt>
</event>
<event>
12    5  0.5246737E-008  0.1556545E+04  0.7818608E-02  0.8847698E-01
         -2   -1    0    0    0  501 -0.00000000000E+00  0.00000000000E+00  0.34954038369E+03  0.34954038369E+03  0.00000000000E+00 0.  1.
          1   -1    0    0  501    0  0.00000000000E+00 -0.00000000000E+00 -0.17328709147E+04  0.17328709147E+04  0.00000000000E+00 0. -1.
        -24    2    1    2    0    0  0.48082225706E+02 -0.26995123896E+03 -0.10052999868E+04  0.10458729832E+04  0.89647430321E+02 0.  0.
        254    2    1    2    0    0 -0.48082225706E+02  0.26995123896E+03 -0.37803054424E+03  0.10365383152E+04  0.92537506701E+03 0.  0.
         23    2    4    4    0    0 -0.33558946784E+02  0.26151419682E+03  0.26592197437E+03  0.38572298751E+03  0.92476205543E+02 0.  0.
         23    2    4    4    0    0 -0.14523278922E+02  0.84370421357E+01 -0.64395251861E+03  0.65081532768E+03  0.92755782598E+02 0.  0.
          1    1    3    3  502    0 -0.10397513624E+01 -0.21063790734E+03 -0.69970416601E+03  0.73072247059E+03  0.00000000000E+00 0. -1.
         -2    1    3    3    0  502  0.49121977068E+02 -0.59313331614E+02 -0.30559582075E+03  0.31515051261E+03  0.00000000000E+00 0.  1.
         13    1    5    5    0    0  0.49547034732E+01  0.45235968006E+01  0.42483381470E+02  0.43009879280E+02  0.00000000000E+00 0.  1.
        -13    1    5    5    0    0 -0.38513650257E+02  0.25699060002E+03  0.22343859290E+03  0.34271310823E+03  0.00000000000E+00 0. -1.
          1    1    6    6  503    0 -0.38739441861E+01  0.49681448645E+02 -0.40991280825E+03  0.41293070139E+03  0.00000000000E+00 0. -1.
         -1    1    6    6    0  503 -0.10649334736E+02 -0.41244406509E+02 -0.23403971036E+03  0.23788462629E+03  0.00000000000E+00 0.  1.
<mgrwt>
<rscale>  0 0.15565454E+04</rscale>
<asrwt>0</asrwt>
<pdfrwt beam="1">  1        1 0.26659552E+00 0.15565454E+04</pdfrwt>
<pdfrwt beam="2">  1       -2 0.53775445E-01 0.15565454E+04</pdfrwt>
<totfact> 0.12463743E+01</totfact>
</mgrwt>
</event>
<event>
12    5  0.5246737E-008  0.1271343E+04  0.7818608E-02  0.9052604E-01
         -2   -1    0    0    0  501 -0.00000000000E+00  0.00000000000E+00  0.20496034249E+03  0.20496034249E+03  0.00000000000E+00 0.  1.
          1   -1    0    0  501    0  0.00000000000E+00 -0.00000000000E+00 -0.19714961496E+04  0.19714961496E+04  0.00000000000E+00 0. -1.
        -24    2    1    2    0    0 -0.29687098989E+02  0.10690718553E+03  0.56125548630E+02  0.14684089116E+03  0.78113378768E+02 0.  0.
        254    2    1    2    0    0  0.29687098989E+02 -0.10690718553E+03 -0.18226613558E+04  0.20296156010E+04  0.88596534901E+03 0.  0.
         23    2    4    4    0    0 -0.15994586380E+03 -0.40300238186E+03 -0.55066417190E+03  0.70629931608E+03  0.87373305732E+02 0.  0.
         23    2    4    4    0    0  0.18963296278E+03  0.29609519633E+03 -0.12719971839E+04  0.13233162849E+04  0.97755450765E+02 0.  0.
          3    1    3    3  502    0 -0.16152622954E+02  0.10814809382E+02 -0.16608523983E+02  0.25567760933E+02  0.00000000000E+00 0. -1.
         -4    1    3    3    0  502 -0.13534476034E+02  0.96092376152E+02  0.72734072613E+02  0.12127313023E+03  0.00000000000E+00 0.  1.
         13    1    5    5    0    0 -0.25759751231E+02 -0.78061285035E+02 -0.56119259191E+02  0.99531403370E+02  0.00000000000E+00 0. -1.
        -13    1    5    5    0    0 -0.13418611257E+03 -0.32494109683E+03 -0.49454491271E+03  0.60676791271E+03  0.00000000000E+00 0.  1.
          1    1    6    6  503    0 -0.53310319661E+00  0.28661927482E+02 -0.46338900467E+02  0.54489301542E+02  0.00000000000E+00 0. -1.
         -1    1    6    6    0  503  0.19016606598E+03  0.26743326885E+03 -0.12256582834E+04  0.12688269833E+04  0.00000000000E+00 0.  1.
<mgrwt>
<rscale>  0 0.12713434E+04</rscale>
<asrwt>0</asrwt>
<pdfrwt beam="1">  1        1 0.30330711E+00 0.12713434E+04</pdfrwt>
<pdfrwt beam="2">  1       -2 0.31532360E-01 0.12713434E+04</pdfrwt>
<totfact> 0.25184582E+01</totfact>
</mgrwt>
</event>
<event>
12    5  0.5246737E-008  0.1664404E+04  0.7818608E-02  0.8781930E-01
          1   -1    0    0  501    0  0.00000000000E+00  0.00000000000E+00  0.78257626643E+03  0.78257626643E+03  0.00000000000E+00 0. -1.
         -2   -1    0    0    0  501 -0.00000000000E+00 -0.00000000000E+00 -0.88497518643E+03  0.88497518643E+03  0.00000000000E+00 0.  1.
        -24    2    1    2    0    0  0.21684073935E+03  0.10315750092E+02 -0.56222921292E+03  0.60773985887E+03  0.78228685624E+02 0.  0.
        254    2    1    2    0    0 -0.21684073935E+03 -0.10315750092E+02  0.45983029292E+03  0.10598115940E+04  0.92985504008E+03 0.  0.
         23    2    4    4    0    0 -0.31226802700E+03  0.14243165422E+03  0.67553652032E+03  0.76413640997E+03  0.98776343057E+02 0.  0.
         23    2    4    4    0    0  0.95427287647E+02 -0.15274740431E+03 -0.21570622741E+03  0.29567518403E+03  0.91959236389E+02 0.  0.
          1    1    3    3  502    0  0.85955270661E+02  0.35885444975E+02 -0.17588853839E+03  0.19902977579E+03  0.00000000000E+00 0. -1.
         -2    1    3    3    0  502  0.13088546869E+03 -0.25569694883E+02 -0.38634067453E+03  0.40871008308E+03  0.00000000000E+00 0.  1.
         13    1    5    5    0    0 -0.94638613432E+02  0.79427645006E+02  0.17003559489E+03  0.21018401812E+03  0.00000000000E+00 0. -1.
        -13    1    5    5    0    0 -0.21762941357E+03  0.63004009217E+02  0.50550092544E+03  0.55395239186E+03  0.00000000000E+00 0.  1.
          4    1    6    6  503    0  0.20051380331E+02  0.26326502106E+01 -0.59390726719E+02  0.62739518013E+02  0.00000000000E+00 0. -1.
         -4    1    6    6    0  503  0.75375907316E+02 -0.15538005452E+03 -0.15631550069E+03  0.23293566602E+03  0.00000000000E+00 0.  1.
<mgrwt>
<rscale>  0 0.16644045E+04</rscale>
<asrwt>0</asrwt>
<pdfrwt beam="1">  1        1 0.12039635E+00 0.16644045E+04</pdfrwt>
<pdfrwt beam="2">  1       -2 0.13615003E+00 0.16644045E+04</pdfrwt>
<totfact> 0.73893309E+00</totfact>
</mgrwt>
</event>
<event>
12    5  0.5246737E-008  0.3162042E+04  0.7818608E-02  0.8198914E-01
         -2   -1    0    0    0  501 -0.00000000000E+00  0.00000000000E+00  0.11026608481E+04  0.11026608481E+04  0.00000000000E+00 0.  1.
          1   -1    0    0  501    0  0.00000000000E+00 -0.00000000000E+00 -0.22669051942E+04  0.22669051942E+04  0.00000000000E+00 0. -1.
        -24    2    1    2    0    0 -0.12829542988E+04 -0.21000389148E+03 -0.12208033869E+04  0.17851461219E+04  0.79450611731E+02 0.  0.
        254    2    1    2    0    0  0.12829542988E+04  0.21000389148E+03  0.56559040898E+02  0.15844199204E+04  0.90394368854E+03 0.  0.
         23    2    4    4    0    0 -0.31213275684E+02  0.11380394169E+03 -0.19126148735E+03  0.24043069143E+03  0.85442115588E+02 0.  0.
         23    2    4    4    0    0  0.13141675744E+04  0.96199949791E+02  0.24782052824E+03  0.13439892290E+04  0.92742597703E+02 0.  0.
          3    1    3    3  502    0 -0.12476075015E+04 -0.21721799416E+03 -0.11875374889E+04  0.17360741408E+04  0.00000000000E+00 0. -1.
         -4    1    3    3    0  502 -0.35346797219E+02  0.72141026798E+01 -0.33265898004E+02  0.49071981019E+02  0.00000000000E+00 0.  1.
         13    1    5    5    0    0 -0.67280106661E+01 -0.11909362926E+02 -0.53811168745E+01  0.14698825519E+02  0.00000000000E+00 0.  1.
        -13    1    5    5    0    0 -0.24485265018E+02  0.12571330462E+03 -0.18588037047E+03  0.22573186591E+03  0.00000000000E+00 0. -1.
          1    1    6    6  503    0  0.86673745846E+03  0.55981534214E+02  0.20724285457E+03  0.89292628747E+03  0.00000000000E+00 0. -1.
         -1    1    6    6    0  503  0.44743011598E+03  0.40218415577E+02  0.40577673671E+02  0.45106294154E+03  0.00000000000E+00 0.  1.
<mgrwt>
<rscale>  0 0.31620421E+04</rscale>
<asrwt>0</asrwt>
<pdfrwt beam="1">  1        1 0.34875464E+00 0.31620421E+04</pdfrwt>
<pdfrwt beam="2">  1       -2 0.16964013E+00 0.31620421E+04</pdfrwt>
<totfact> 0.31035012E-01</totfact>
</mgrwt>
</event>
<event>
12    5  0.5246737E-008  0.2572376E+04  0.7818608E-02  0.8377645E-01
         -4   -1    0    0    0  501 -0.00000000000E+00  0.00000000000E+00  0.58386725534E+03  0.58386725534E+03  0.00000000000E+00 0.  1.
          1   -1    0    0  501    0  0.00000000000E+00 -0.00000000000E+00 -0.28333141955E+04  0.28333141955E+04  0.00000000000E+00 0. -1.
        -24    2    1    2    0    0 -0.64923873188E+03 -0.78824206005E+03 -0.35949745920E+03  0.10854803918E+04  0.78694227993E+02 0.  0.
        254    2    1    2    0    0  0.64923873188E+03  0.78824206005E+03 -0.18899494810E+04  0.23317010591E+04  0.90668865227E+03 0.  0.
         23    2    4    4    0    0  0.33038926785E+03 -0.14410746717E+03 -0.60490205727E+03  0.70991354960E+03  0.90259174723E+02 0.  0.
         23    2    4    4    0    0  0.31884946402E+03  0.93234952722E+03 -0.12850474237E+04  0.16217875095E+04  0.88922568286E+02 0.  0.
          1    1    3    3  502    0 -0.19742903857E+03 -0.23281294347E+03 -0.69958912442E+02  0.31316823170E+03  0.00000000000E+00 0. -1.
         -2    1    3    3    0  502 -0.45180969331E+03 -0.55542911657E+03 -0.28953854676E+03  0.77231216005E+03  0.00000000000E+00 0.  1.
         13    1    5    5    0    0  0.25442313742E+03 -0.73024034608E+02 -0.47175881222E+03  0.54094363790E+03  0.00000000000E+00 0.  1.
        -13    1    5    5    0    0  0.75966130433E+02 -0.71083432564E+02 -0.13314324505E+03  0.16896991170E+03  0.00000000000E+00 0. -1.
          1    1    6    6  503    0  0.31151862391E+03  0.92758402637E+03 -0.12814848838E+04  0.16123459574E+04  0.00000000000E+00 0. -1.
         -1    1    6    6    0  503  0.73308401129E+01  0.47655008521E+01 -0.35625399444E+01  0.94415520963E+01  0.00000000000E+00 0.  1.
<mgrwt>
<rscale>  0 0.25723759E+04</rscale>
<asrwt>0</asrwt>
<pdfrwt beam="1">  1        1 0.43589449E+00 0.25723759E+04</pdfrwt>
<pdfrwt beam="2">  1       -4 0.89825731E-01 0.25723759E+04</pdfrwt>
<totfact> 0.36641114E-01</totfact>
</mgrwt>
</event>
<event>
12    5  0.5246737E-008  0.1517909E+04  0.7818608E-02  0.8872630E-01
         -2   -1    0    0    0  501 -0.00000000000E+00  0.00000000000E+00  0.91770291744E+03  0.91770291744E+03  0.00000000000E+00 0.  1.
          1   -1    0    0  501    0  0.00000000000E+00 -0.00000000000E+00 -0.62766695300E+03  0.62766695300E+03  0.00000000000E+00 0. -1.
        -24    2    1    2    0    0 -0.30965810341E+03  0.22309636765E+03 -0.21890198593E+03  0.44762631759E+03  0.82408194306E+02 0.  0.
        254    2    1    2    0    0  0.30965810341E+03 -0.22309636765E+03  0.50893795037E+03  0.10977435529E+04  0.89463005775E+03 0.  0.
         23    2    4    4    0    0 -0.22933868635E+03 -0.21549049387E+03 -0.31175153058E+02  0.32909476705E+03  0.91099338785E+02 0.  0.
         23    2    4    4    0    0  0.53899678976E+03 -0.76058737769E+01  0.54011310343E+03  0.76864878580E+03  0.92322276449E+02 0.  0.
          1    1    3    3  502    0 -0.29868025664E+03  0.19824846592E+03 -0.21969464685E+03  0.42044986360E+03  0.00000000000E+00 0. -1.
         -2    1    3    3    0  502 -0.10977846769E+02  0.24847901734E+02  0.79266091797E+00  0.27176453992E+02  0.00000000000E+00 0.  1.
         13    1    5    5    0    0 -0.23303189069E+03 -0.20488873368E+03 -0.16656885310E+02  0.31074218751E+03  0.00000000000E+00 0. -1.
        -13    1    5    5    0    0  0.36932043448E+01 -0.10601760197E+02 -0.14518267748E+02  0.18352579546E+02  0.00000000000E+00 0.  1.
          1    1    6    6  503    0  0.45243167609E+03 -0.40331447437E+02  0.44235016264E+03  0.63403053048E+03  0.00000000000E+00 0. -1.
         -1    1    6    6    0  503  0.86565113670E+02  0.32725573660E+02  0.97762940787E+02  0.13461825533E+03  0.00000000000E+00 0.  1.
<mgrwt>
<rscale>  0 0.15179088E+04</rscale>
<asrwt>0</asrwt>
<pdfrwt beam="1">  1        1 0.96564146E-01 0.15179088E+04</pdfrwt>
<pdfrwt beam="2">  1       -2 0.14118507E+00 0.15179088E+04</pdfrwt>
<totfact> 0.95214628E+00</totfact>
</mgrwt>
</event>
<event>
12    5  0.5246737E-008  0.1257942E+04  0.7818608E-02  0.9063599E-01
          1   -1    0    0  501    0  0.00000000000E+00  0.00000000000E+00  0.10108469730E+04  0.10108469730E+04  0.00000000000E+00 0. -1.
         -2   -1    0    0    0  501 -0.00000000000E+00 -0.00000000000E+00 -0.39135948128E+03  0.39135948128E+03  0.00000000000E+00 0.  1.
        -24    2    1    2    0    0  0.16985754781E+03  0.17856865435E+03  0.34515029415E+03  0.43155503071E+03  0.79828992931E+02 0.  0.
        254    2    1    2    0    0 -0.16985754781E+03 -0.17856865435E+03  0.27433719758E+03  0.97065142359E+03  0.89786688171E+03 0.  0.
         23    2    4    4    0    0  0.23891160600E+03 -0.21748321407E+03 -0.15553914906E+03  0.36910261332E+03  0.87559170797E+02 0.  0.
         23    2    4    4    0    0 -0.40876915381E+03  0.38914559717E+02  0.42987634664E+03  0.60154881026E+03  0.91982246489E+02 0.  0.
          1    1    3    3  502    0  0.11967318814E+03  0.15285318431E+03  0.30784456384E+03  0.36394236274E+03  0.00000000000E+00 0. -1.
         -2    1    3    3    0  502  0.50184359674E+02  0.25715470037E+02  0.37305730307E+02  0.67612667961E+02  0.00000000000E+00 0.  1.
         13    1    5    5    0    0  0.12303330043E+03 -0.11812448023E+03 -0.33842461767E+02  0.17388472636E+03  0.00000000000E+00 0.  1.
        -13    1    5    5    0    0  0.11587830557E+03 -0.99358733835E+02 -0.12169668729E+03  0.19521788696E+03  0.00000000000E+00 0. -1.
          3    1    6    6  503    0 -0.11055716365E+02 -0.13564260450E+02  0.75354149890E+01  0.19052572135E+02  0.00000000000E+00 0. -1.
         -3    1    6    6    0  503 -0.39771343744E+03  0.52478820167E+02  0.42234093165E+03  0.58249623813E+03  0.00000000000E+00 0.  1.
<mgrwt>
<rscale>  0 0.12579420E+04</rscale>
<asrwt>0</asrwt>
<pdfrwt beam="1">  1        1 0.15551492E+00 0.12579420E+04</pdfrwt>
<pdfrwt beam="2">  1       -2 0.60209151E-01 0.12579420E+04</pdfrwt>
<totfact> 0.32964356E+01</totfact>
</mgrwt>
</event>
<event>
12    5  0.5246737E-008  0.1991814E+04  0.7818608E-02  0.8610458E-01
         -2   -1    0    0    0  501 -0.00000000000E+00  0.00000000000E+00  0.18006431047E+04  0.18006431047E+04  0.00000000000E+00 0.  1.
          1   -1    0    0  501    0  0.00000000000E+00 -0.00000000000E+00 -0.55082019796E+03  0.55082019796E+03  0.00000000000E+00 0. -1.
        -24    2    1    2    0    0  0.28148066908E+02  0.65840758731E+03  0.10098789782E+04  0.12091194881E+04  0.88439363614E+02 0.  0.
        254    2    1    2    0    0 -0.28148066908E+02 -0.65840758731E+03  0.23994392852E+03  0.11423438146E+04  0.90171139355E+03 0.  0.
         23    2    4    4    0    0 -0.34107866408E+03 -0.49495212044E+02 -0.10363123595E+03  0.37086117287E+03  0.89521759218E+02 0.  0.
         23    2    4    4    0    0  0.31293059717E+03 -0.60891237526E+03  0.34357516447E+03  0.77148264174E+03  0.91878906546E+02 0.  0.
          3    1    3    3  502    0  0.52090209976E+02  0.23457454227E+03  0.35405516562E+03  0.42789445680E+03  0.00000000000E+00 0. -1.
         -4    1    3    3    0  502 -0.23942143068E+02  0.42383304503E+03  0.65582381263E+03  0.78122503128E+03  0.00000000000E+00 0.  1.
         13    1    5    5    0    0 -0.25566434862E+03 -0.57531401842E+02 -0.11132920095E+03  0.28472497666E+03  0.00000000000E+00 0. -1.
        -13    1    5    5    0    0 -0.85414315463E+02  0.80361897986E+01  0.76979649952E+01  0.86136196210E+02  0.00000000000E+00 0.  1.
          4    1    6    6  503    0  0.10468463887E+03 -0.21852200509E+03  0.17096074019E+03  0.29654395123E+03  0.00000000000E+00 0. -1.
         -4    1    6    6    0  503  0.20824595830E+03 -0.39039037018E+03  0.17261442428E+03  0.47493869051E+03  0.00000000000E+00 0.  1.
<mgrwt>
<rscale>  0 0.19918138E+04</rscale>
<asrwt>0</asrwt>
<pdfrwt beam="1">  1        1 0.84741570E-01 0.19918138E+04</pdfrwt>
<pdfrwt beam="2">  1       -2 0.27702201E+00 0.19918138E+04</pdfrwt>
<totfact> 0.13820790E+00</totfact>
</mgrwt>
</event>
<event>
12    5  0.5246737E-008  0.1373981E+04  0.7818608E-02  0.8972871E-01
         -2   -1    0    0    0  501 -0.00000000000E+00  0.00000000000E+00  0.60880584495E+03  0.60880584495E+03  0.00000000000E+00 0.  1.
          1   -1    0    0  501    0  0.00000000000E+00 -0.00000000000E+00 -0.77521541653E+03  0.77521541653E+03  0.00000000000E+00 0. -1.
        -24    2    1    2    0    0  0.21967232550E+03 -0.31859137878E+03 -0.37174653686E+02  0.39490474496E+03  0.69364295483E+02 0.  0.
        254    2    1    2    0    0 -0.21967232550E+03  0.31859137878E+03 -0.12923491790E+03  0.98911651652E+03  0.90105128712E+03 0.  0.
         23    2    4    4    0    0 -0.46359420599E+03  0.42469608156E+03  0.77243188864E+02  0.63932548497E+03  0.86511363392E+02 0.  0.
         23    2    4    4    0    0  0.24392188049E+03 -0.10610470277E+03 -0.20647810676E+03  0.34979103154E+03  0.94680861035E+02 0.  0.
          3    1    3    3  502    0  0.96248384920E+02 -0.13485511622E+03 -0.50376765973E+02  0.17316891326E+03  0.00000000000E+00 0. -1.
         -4    1    3    3    0  502  0.12342394058E+03 -0.18373626256E+03  0.13202112287E+02  0.22173583170E+03  0.00000000000E+00 0.  1.
         13    1    5    5    0    0 -0.40756471813E+03  0.37885752824E+03  0.95686303567E+02  0.56462190434E+03  0.00000000000E+00 0.  1.
        -13    1    5    5    0    0 -0.56029487860E+02  0.45838553317E+02 -0.18443114703E+02  0.74703580637E+02  0.00000000000E+00 0. -1.
          2    1    6    6  503    0  0.13331646569E+02  0.98297289133E+01 -0.38326864078E+02  0.41752902663E+02  0.00000000000E+00 0. -1.
         -2    1    6    6    0  503  0.23059023392E+03 -0.11593443169E+03 -0.16815124268E+03  0.30803812888E+03  0.00000000000E+00 0.  1.
<mgrwt>
<rscale>  0 0.13739806E+04</rscale>
<asrwt>0</asrwt>
<pdfrwt beam="1">  1        1 0.11926391E+00 0.13739806E+04</pdfrwt>
<pdfrwt beam="2">  1       -2 0.93662438E-01 0.13739806E+04</pdfrwt>
<totfact> 0.19171421E+01</totfact>
</mgrwt>
</event>
<event>
12    5  0.5246737E-008  0.1099771E+04  0.7818608E-02  0.9205415E-01
         -2   -1    0    0    0  501 -0.00000000000E+00  0.00000000000E+00  0.46576122947E+03  0.46576122947E+03  0.00000000000E+00 0.  1.
          1   -1    0    0  501    0  0.00000000000E+00 -0.00000000000E+00 -0.64920450257E+03  0.64920450257E+03  0.00000000000E+00 0. -1.
        -24    2    1    2    0    0 -0.69991600879E+00 -0.27491119205E+02  0.13149821993E+03  0.15717820741E+03  0.81590168059E+02 0.  0.
        254    2    1    2    0    0  0.69991600879E+00  0.27491119205E+02 -0.31494149302E+03  0.95778752463E+03  0.90410870297E+03 0.  0.
         23    2    4    4    0    0  0.21837366449E+03  0.27266284311E+03 -0.46185845553E+03  0.58666856523E+03  0.93993027022E+02 0.  0.
         23    2    4    4    0    0 -0.21767374848E+03 -0.24517172391E+03  0.14691696250E+03  0.37111895940E+03  0.93025013684E+02 0.  0.
          3    1    3    3  502    0 -0.18511130371E+02 -0.12850989685E+02 -0.11280254307E+01  0.22562852764E+02  0.00000000000E+00 0. -1.
         -4    1    3    3    0  502  0.17811214362E+02 -0.14640129520E+02  0.13262624536E+03  0.13461535465E+03  0.00000000000E+00 0.  1.
         13    1    5    5    0    0  0.10108132827E+03  0.14496057978E+03 -0.30679004104E+03  0.35404962067E+03  0.00000000000E+00 0.  1.
        -13    1    5    5    0    0  0.11729233622E+03  0.12770226333E+03 -0.15506841448E+03  0.23261894455E+03  0.00000000000E+00 0. -1.
          3    1    6    6  503    0 -0.19899545229E+03 -0.17805775602E+03  0.13890356285E+03  0.30099494063E+03  0.00000000000E+00 0. -1.
         -3    1    6    6    0  503 -0.18678296189E+02 -0.67113967883E+02  0.80133996494E+01  0.70124018763E+02  0.00000000000E+00 0.  1.
<mgrwt>
<rscale>  0 0.10997714E+04</rscale>
<asrwt>0</asrwt>
<pdfrwt beam="1">  1        1 0.99877614E-01 0.10997714E+04</pdfrwt>
<pdfrwt beam="2">  1       -2 0.71655575E-01 0.10997714E+04</pdfrwt>
<totfact> 0.47032256E+01</totfact>
</mgrwt>
</event>
<event>
12    5  0.5246737E-008  0.3137065E+04  0.7818608E-02  0.8205639E-01
         -2   -1    0    0    0  501 -0.00000000000E+00  0.00000000000E+00  0.88804788040E+03  0.88804788040E+03  0.00000000000E+00 0.  1.
          1   -1    0    0  501    0  0.00000000000E+00 -0.00000000000E+00 -0.27704515205E+04  0.27704515205E+04  0.00000000000E+00 0. -1.
        -24    2    1    2    0    0 -0.13126790673E+04  0.41572466166E+03 -0.13301333454E+04  0.19163931145E+04  0.85758527133E+02 0.  0.
        254    2    1    2    0    0  0.13126790673E+04 -0.41572466166E+03 -0.55227029468E+03  0.17421062863E+04  0.91322423673E+03 0.  0.
         23    2    4    4    0    0  0.10377928901E+04 -0.24697438766E+03 -0.79077847287E+03  0.13309683594E+04  0.90198390579E+02 0.  0.
         23    2    4    4    0    0  0.27488617714E+03 -0.16875027401E+03  0.23850817819E+03  0.41113792692E+03  0.90050977391E+02 0.  0.
          3    1    3    3  502    0 -0.14559524236E+03  0.54042360872E+02 -0.18811865164E+03  0.24394093232E+03  0.00000000000E+00 0. -1.
         -4    1    3    3    0  502 -0.11670838249E+04  0.36168230079E+03 -0.11420146937E+04  0.16724521822E+04  0.00000000000E+00 0.  1.
         13    1    5    5    0    0  0.91023373864E+03 -0.22755371598E+03 -0.72754679782E+03  0.11872786091E+04  0.00000000000E+00 0. -1.
        -13    1    5    5    0    0  0.12755915147E+03 -0.19420671673E+02 -0.63231675047E+02  0.14368975030E+03  0.00000000000E+00 0.  1.
          2    1    6    6  503    0  0.21718758563E+03 -0.11530442523E+03  0.13306029715E+03  0.27959005796E+03  0.00000000000E+00 0. -1.
         -2    1    6    6    0  503  0.57698591510E+02 -0.53445848775E+02  0.10544788104E+03  0.13154786896E+03  0.00000000000E+00 0.  1.
<mgrwt>
<rscale>  0 0.31370646E+04</rscale>
<asrwt>0</asrwt>
<pdfrwt beam="1">  1        1 0.42622331E+00 0.31370646E+04</pdfrwt>
<pdfrwt beam="2">  1       -2 0.13662275E+00 0.31370646E+04</pdfrwt>
<totfact> 0.24765454E-01</totfact>
</mgrwt>
</event>
<event>
12    5  0.5246737E-008  0.1635793E+04  0.7818608E-02  0.8798856E-01
          1   -1    0    0  501    0  0.00000000000E+00  0.00000000000E+00  0.12132986416E+04  0.12132986416E+04  0.00000000000E+00 0. -1.
         -2   -1    0    0    0  501 -0.00000000000E+00 -0.00000000000E+00 -0.55135232329E+03  0.55135232329E+03  0.00000000000E+00 0.  1.
        -24    2    1    2    0    0 -0.38707408525E+03  0.58092019531E+02 -0.20660042956E+03  0.44986335703E+03  0.80574638039E+02 0.  0.
        254    2    1    2    0    0  0.38707408525E+03 -0.58092019531E+02  0.86854674790E+03  0.13147876079E+04  0.90614125298E+03 0.  0.
         23    2    4    4    0    0 -0.27232522206E+03 -0.12285274476E+03  0.21037027265E+03  0.37640210397E+03  0.90382900964E+02 0.  0.
         23    2    4    4    0    0  0.65939930731E+03  0.64760725232E+02  0.65817647524E+03  0.93838550392E+03  0.91485973678E+02 0.  0.
          3    1    3    3  502    0 -0.45908794581E+02  0.63819123333E+01  0.24518110464E+01  0.46415057927E+02  0.00000000000E+00 0. -1.
         -4    1    3    3    0  502 -0.34116529067E+03  0.51710107197E+02 -0.20905224061E+03  0.40344829910E+03  0.00000000000E+00 0.  1.
         13    1    5    5    0    0 -0.14237947567E+03 -0.11275388549E+03  0.11632874784E+03  0.21567969621E+03  0.00000000000E+00 0.  1.
        -13    1    5    5    0    0 -0.12994574639E+03 -0.10098859272E+02  0.94041524818E+02  0.16072240775E+03  0.00000000000E+00 0. -1.
          4    1    6    6  503    0  0.43205673370E+03 -0.14050467893E+01  0.42894485991E+03  0.60882566317E+03  0.00000000000E+00 0. -1.
         -4    1    6    6    0  503  0.22734257361E+03  0.66165772022E+02  0.22923161533E+03  0.32955984075E+03  0.00000000000E+00 0.  1.
<mgrwt>
<rscale>  0 0.16357934E+04</rscale>
<asrwt>0</asrwt>
<pdfrwt beam="1">  1        1 0.18666133E+00 0.16357934E+04</pdfrwt>
<pdfrwt beam="2">  1       -2 0.84823435E-01 0.16357934E+04</pdfrwt>
<totfact> 0.10615206E+01</totfact>
</mgrwt>
</event>
<event>
12    5  0.5246737E-008  0.1277680E+04  0.7818608E-02  0.9047455E-01
         -2   -1    0    0    0  501 -0.00000000000E+00  0.00000000000E+00  0.19800742747E+04  0.19800742747E+04  0.00000000000E+00 0.  1.
          1   -1    0    0  501    0  0.00000000000E+00 -0.00000000000E+00 -0.20611157917E+03  0.20611157917E+03  0.00000000000E+00 0. -1.
        -24    2    1    2    0    0  0.97246655120E+02  0.32463566760E+02 -0.58695049959E+02  0.14313508545E+03  0.80819234703E+02 0.  0.
        254    2    1    2    0    0 -0.97246655120E+02 -0.32463566760E+02  0.18326577455E+04  0.20430507684E+04  0.89716845415E+03 0.  0.
         23    2    4    4    0    0 -0.78092214803E+02  0.29732379669E+03  0.20648130049E+03  0.38063736384E+03  0.88036590160E+02 0.  0.
         23    2    4    4    0    0 -0.19154440317E+02 -0.32978736345E+03  0.16261764450E+04  0.16624134046E+04  0.10020927979E+03 0.  0.
          1    1    3    3  502    0  0.55909215155E+02  0.21104197042E+02 -0.76192069037E+02  0.96832116863E+02  0.00000000000E+00 0. -1.
         -2    1    3    3    0  502  0.41337439965E+02  0.11359369718E+02  0.17497019078E+02  0.46302968586E+02  0.00000000000E+00 0.  1.
         13    1    5    5    0    0 -0.41793019373E+02  0.25343268222E+03  0.19511040483E+03  0.32255674068E+03  0.00000000000E+00 0.  1.
        -13    1    5    5    0    0 -0.36299195429E+02  0.43891114476E+02  0.11370895658E+02  0.58080623162E+02  0.00000000000E+00 0. -1.
          4    1    6    6  503    0  0.33965969043E+02 -0.11614818195E+03  0.70395521177E+03  0.71428077631E+03  0.00000000000E+00 0. -1.
         -4    1    6    6    0  503 -0.53120409361E+02 -0.21363918150E+03  0.92222123326E+03  0.94813262830E+03  0.00000000000E+00 0.  1.
<mgrwt>
<rscale>  0 0.12776795E+04</rscale>
<asrwt>0</asrwt>
<pdfrwt beam="1">  1        1 0.31709475E-01 0.12776795E+04</pdfrwt>
<pdfrwt beam="2">  1       -2 0.30462680E+00 0.12776795E+04</pdfrwt>
<totfact> 0.36807141E+00</totfact>
</mgrwt>
</event>
<event>
12    5  0.5246737E-008  0.1431108E+04  0.7818608E-02  0.8931604E-01
         -2   -1    0    0    0  501 -0.00000000000E+00  0.00000000000E+00  0.32674297039E+03  0.32674297039E+03  0.00000000000E+00 0.  1.
          1   -1    0    0  501    0  0.00000000000E+00 -0.00000000000E+00 -0.15670340856E+04  0.15670340856E+04  0.00000000000E+00 0. -1.
        -24    2    1    2    0    0  0.26527924152E+03 -0.19019092961E+03 -0.73195943642E+03  0.80536965405E+03  0.79435492162E+02 0.  0.
        254    2    1    2    0    0 -0.26527924152E+03  0.19019092961E+03 -0.50833167882E+03  0.10884074020E+04  0.90536396619E+03 0.  0.
         23    2    4    4    0    0 -0.22328895156E+02 -0.13991024343E+03 -0.62949079749E+03  0.65155409903E+03  0.90502066632E+02 0.  0.
         23    2    4    4    0    0 -0.24295034636E+03  0.33010117304E+03  0.12115911867E+03  0.43685330293E+03  0.90385955791E+02 0.  0.
          1    1    3    3  502    0  0.10835089323E+03 -0.80237696051E+02 -0.39957713926E+03  0.42171067588E+03  0.00000000000E+00 0. -1.
         -2    1    3    3    0  502  0.15692834829E+03 -0.10995323356E+03 -0.33238229716E+03  0.38365897817E+03  0.00000000000E+00 0.  1.
         13    1    5    5    0    0 -0.16984615273E+01  0.11742071393E+02 -0.89840824922E+02  0.90620830027E+02  0.00000000000E+00 0. -1.
        -13    1    5    5    0    0 -0.20630433629E+02 -0.15165231483E+03 -0.53964997257E+03  0.56093326900E+03  0.00000000000E+00 0.  1.
          3    1    6    6  503    0 -0.24408858054E+03  0.31469522265E+03  0.13013889934E+03  0.41898502530E+03  0.00000000000E+00 0.  1.
         -3    1    6    6    0  503  0.11382341771E+01  0.15405950396E+02 -0.89797806674E+01  0.17868277631E+02  0.00000000000E+00 0. -1.
<mgrwt>
<rscale>  0 0.14311078E+04</rscale>
<asrwt>0</asrwt>
<pdfrwt beam="1">  1        1 0.24108216E+00 0.14311078E+04</pdfrwt>
<pdfrwt beam="2">  1       -2 0.50268150E-01 0.14311078E+04</pdfrwt>
<totfact> 0.18784763E+01</totfact>
</mgrwt>
</event>
<event>
12    5  0.5246737E-008  0.2110547E+04  0.7818608E-02  0.8556611E-01
          3   -1    0    0  501    0  0.00000000000E+00  0.00000000000E+00  0.14631599147E+04  0.14631599147E+04  0.00000000000E+00 0. -1.
         -2   -1    0    0    0  501 -0.00000000000E+00 -0.00000000000E+00 -0.76109399569E+03  0.76109399569E+03  0.00000000000E+00 0.  1.
        -24    2    1    2    0    0 -0.10902459640E+03 -0.46591440070E+03 -0.45650664515E+03  0.66638342996E+03  0.81889970467E+02 0.  0.
        254    2    1    2    0    0  0.10902459640E+03  0.46591440070E+03  0.11585725642E+04  0.15578704804E+04  0.92504456972E+03 0.  0.
         23    2    4    4    0    0 -0.36830507549E+03  0.38388272446E+03  0.50398821256E+03  0.73837589732E+03  0.90444859228E+02 0.  0.
         23    2    4    4    0    0  0.47732967190E+03  0.82031676242E+02  0.65458435162E+03  0.81949458313E+03  0.92292398449E+02 0.  0.
          3    1    3    3  502    0 -0.54822682481E+02 -0.88088618501E+02 -0.99151268682E+02  0.14351343249E+03  0.00000000000E+00 0. -1.
         -4    1    3    3    0  502 -0.54201913923E+02 -0.37782578220E+03 -0.35735537647E+03  0.52286999747E+03  0.00000000000E+00 0.  1.
         13    1    5    5    0    0 -0.10654136672E+03  0.66174876130E+02  0.14935857906E+03  0.19503374629E+03  0.00000000000E+00 0. -1.
        -13    1    5    5    0    0 -0.26176370877E+03  0.31770784833E+03  0.35462963350E+03  0.54334215103E+03  0.00000000000E+00 0.  1.
          3    1    6    6  503    0  0.14394619041E+03 -0.42484016039E+01  0.24693493386E+03  0.28585908453E+03  0.00000000000E+00 0. -1.
         -3    1    6    6    0  503  0.33338348149E+03  0.86280077846E+02  0.40764941776E+03  0.53363549860E+03  0.00000000000E+00 0.  1.
<mgrwt>
<rscale>  0 0.21105471E+04</rscale>
<asrwt>0</asrwt>
<pdfrwt beam="1">  1        3 0.22510153E+00 0.21105471E+04</pdfrwt>
<pdfrwt beam="2">  1       -2 0.11709138E+00 0.21105471E+04</pdfrwt>
<totfact> 0.22078468E-01</totfact>
</mgrwt>
</event>
<event>
12    5  0.5246737E-008  0.2701338E+04  0.7818608E-02  0.8334571E-01
         -4   -1    0    0    0  501 -0.00000000000E+00  0.00000000000E+00  0.16214337632E+04  0.16214337632E+04  0.00000000000E+00 0.  1.
          1   -1    0    0  501    0  0.00000000000E+00 -0.00000000000E+00 -0.11251195238E+04  0.11251195238E+04  0.00000000000E+00 0. -1.
        -24    2    1    2    0    0  0.55805193888E+03  0.53485554804E+03 -0.71397153110E+03  0.10552974333E+04  0.80030630004E+02 0.  0.
        254    2    1    2    0    0 -0.55805193888E+03 -0.53485554804E+03  0.12102857704E+04  0.16912558537E+04  0.89334332301E+03 0.  0.
         23    2    4    4    0    0  0.15195162070E+03 -0.22986224906E+03  0.50964784761E+02  0.29502007267E+03  0.92268550536E+02 0.  0.
         23    2    4    4    0    0 -0.71000355958E+03 -0.30499329899E+03  0.11593209857E+04  0.13962357810E+04  0.91231800089E+02 0.  0.
          1    1    3    3  502    0  0.28504817855E+03  0.25542361067E+03 -0.30190169071E+03  0.48748160564E+03  0.00000000000E+00 0. -1.
         -2    1    3    3    0  502  0.27300376033E+03  0.27943193737E+03 -0.41206984039E+03  0.56781582766E+03  0.00000000000E+00 0.  1.
         13    1    5    5    0    0  0.59506812058E+02 -0.15110635998E+03  0.60261148813E+02  0.17322124225E+03  0.00000000000E+00 0.  1.
        -13    1    5    5    0    0  0.92444808638E+02 -0.78755889073E+02 -0.92963640518E+01  0.12179883042E+03  0.00000000000E+00 0. -1.
          1    1    6    6  503    0 -0.49807237941E+03 -0.25829616749E+03  0.84118554359E+03  0.10111311112E+04  0.00000000000E+00 0. -1.
         -1    1    6    6    0  503 -0.21193118017E+03 -0.46697131492E+02  0.31813544208E+03  0.38510466983E+03  0.00000000000E+00 0.  1.
<mgrwt>
<rscale>  0 0.27013380E+04</rscale>
<asrwt>0</asrwt>
<pdfrwt beam="1">  1        1 0.17309531E+00 0.27013380E+04</pdfrwt>
<pdfrwt beam="2">  1       -4 0.24945135E+00 0.27013380E+04</pdfrwt>
<totfact> 0.32517488E-01</totfact>
</mgrwt>
</event>
<event>
12    5  0.5246737E-008  0.1370932E+04  0.7818608E-02  0.8975133E-01
         -2   -1    0    0    0  501 -0.00000000000E+00  0.00000000000E+00  0.38584219869E+03  0.38584219869E+03  0.00000000000E+00 0.  1.
          1   -1    0    0  501    0  0.00000000000E+00 -0.00000000000E+00 -0.12177607923E+04  0.12177607923E+04  0.00000000000E+00 0. -1.
        -24    2    1    2    0    0  0.28878133041E+03  0.16990788560E+03 -0.43702475257E+03  0.55625216994E+03  0.78501565740E+02 0.  0.
        254    2    1    2    0    0 -0.28878133041E+03 -0.16990788560E+03 -0.39489384103E+03  0.10473508210E+04  0.91035116864E+03 0.  0.
         23    2    4    4    0    0 -0.58693629782E+03 -0.25183714043E+02 -0.11855622282E+03  0.60607050915E+03  0.90207798641E+02 0.  0.
         23    2    4    4    0    0  0.29815496741E+03 -0.14472417156E+03 -0.27633761820E+03  0.44128031188E+03  0.92327482311E+02 0.  0.
          1    1    3    3  502    0  0.25244518909E+03  0.16978390761E+03 -0.36178834780E+03  0.47270070592E+03  0.00000000000E+00 0. -1.
         -2    1    3    3    0  502  0.36336141319E+02  0.12397798999E+00 -0.75236404772E+02  0.83551464018E+02  0.00000000000E+00 0.  1.
         13    1    5    5    0    0 -0.53659248063E+03 -0.37896705889E+02 -0.12882726457E+03  0.55314023058E+03  0.00000000000E+00 0.  1.
        -13    1    5    5    0    0 -0.50343817190E+02  0.12712991846E+02  0.10271041747E+02  0.52930278570E+02  0.00000000000E+00 0. -1.
          2    1    6    6  503    0  0.21212407694E+03 -0.12992800958E+03 -0.24326673100E+03  0.34793191015E+03  0.00000000000E+00 0. -1.
         -2    1    6    6    0  503  0.86030890471E+02 -0.14796161985E+02 -0.33070887209E+02  0.93348401730E+02  0.00000000000E+00 0.  1.
<mgrwt>
<rscale>  0 0.13709318E+04</rscale>
<asrwt>0</asrwt>
<pdfrwt beam="1">  1        1 0.18734781E+00 0.13709318E+04</pdfrwt>
<pdfrwt beam="2">  1       -2 0.59360339E-01 0.13709318E+04</pdfrwt>
<totfact> 0.23550166E+01</totfact>
</mgrwt>
</event>
<event>
12    5  0.5246737E-008  0.2045032E+04  0.7818608E-02  0.8585851E-01
         -2   -1    0    0    0  501 -0.00000000000E+00  0.00000000000E+00  0.10357187984E+04  0.10357187984E+04  0.00000000000E+00 0.  1.
          1   -1    0    0  501    0  0.00000000000E+00 -0.00000000000E+00 -0.10094816629E+04  0.10094816629E+04  0.00000000000E+00 0. -1.
        -24    2    1    2    0    0  0.36631170975E+03  0.46490231887E+02  0.72569925123E+03  0.81769941228E+03  0.75148621073E+02 0.  0.
        254    2    1    2    0    0 -0.36631170975E+03 -0.46490231887E+02 -0.69946211571E+03  0.12275010491E+04  0.93870440706E+03 0.  0.
         23    2    4    4    0    0  0.15985682391E+03  0.30664713465E+03 -0.16328270953E+03  0.39244829863E+03  0.88134865582E+02 0.  0.
         23    2    4    4    0    0 -0.52616853365E+03 -0.35313736654E+03 -0.53617940618E+03  0.83505275045E+03  0.90914327645E+02 0.  0.
          3    1    3    3  502    0  0.14673160179E+02 -0.13643024526E+02  0.35968085044E+02  0.41172040144E+02  0.00000000000E+00 0. -1.
         -4    1    3    3    0  502  0.35163854957E+03  0.60133256413E+02  0.68973116619E+03  0.77652737214E+03  0.00000000000E+00 0.  1.
         13    1    5    5    0    0  0.13900622015E+03  0.29471674580E+03 -0.16996037921E+03  0.36751492486E+03  0.00000000000E+00 0. -1.
        -13    1    5    5    0    0  0.20850603761E+02  0.11930388854E+02  0.66776696840E+01  0.24933373775E+02  0.00000000000E+00 0.  1.
          4    1    6    6  503    0 -0.50855151178E+03 -0.35076844946E+03 -0.53498954118E+03  0.81723739173E+03  0.00000000000E+00 0. -1.
         -4    1    6    6    0  503 -0.17617021869E+02 -0.23689170817E+01 -0.11898650051E+01  0.17815358723E+02  0.00000000000E+00 0.  1.
<mgrwt>
<rscale>  0 0.20450322E+04</rscale>
<asrwt>0</asrwt>
<pdfrwt beam="1">  1        1 0.15530487E+00 0.20450322E+04</pdfrwt>
<pdfrwt beam="2">  1       -2 0.15934135E+00 0.20450322E+04</pdfrwt>
<totfact> 0.30694331E+00</totfact>
</mgrwt>
</event>
<event>
12    5  0.5246737E-008  0.1205415E+04  0.7818608E-02  0.9108130E-01
         -2   -1    0    0    0  501 -0.00000000000E+00  0.00000000000E+00  0.12092389570E+03  0.12092389570E+03  0.00000000000E+00 0.  1.
          1   -1    0    0  501    0  0.00000000000E+00 -0.00000000000E+00 -0.30040074605E+04  0.30040074605E+04  0.00000000000E+00 0. -1.
        -24    2    1    2    0    0  0.73957957874E+02  0.14353249152E+03 -0.10428714528E+04  0.10583402343E+04  0.80198683193E+02 0.  0.
        254    2    1    2    0    0 -0.73957957874E+02 -0.14353249152E+03 -0.18402121120E+04  0.20665911219E+04  0.92647012491E+03 0.  0.
         23    2    4    4    0    0 -0.12636953456E+03  0.35309257896E+03 -0.11265501035E+04  0.11907564262E+04  0.90233599071E+02 0.  0.
         23    2    4    4    0    0  0.52411576684E+02 -0.49662507048E+03 -0.71366200853E+03  0.87583469568E+03  0.91594310557E+02 0.  0.
          3    1    3    3  502    0  0.26929869511E+02  0.12179247629E+03 -0.82606576989E+03  0.83542999787E+03  0.00000000000E+00 0. -1.
         -4    1    3    3    0  502  0.47028088363E+02  0.21740015224E+02 -0.21680568288E+03  0.22291023639E+03  0.00000000000E+00 0.  1.
         13    1    5    5    0    0 -0.56558196826E+01  0.38108563682E+02 -0.53450946821E+02  0.65888198019E+02  0.00000000000E+00 0. -1.
        -13    1    5    5    0    0 -0.12071371488E+03  0.31498401528E+03 -0.10730991567E+04  0.11248682282E+04  0.00000000000E+00 0.  1.
          1    1    6    6  503    0  0.28037291359E+02 -0.10214021164E+03 -0.21377031408E+03  0.23857170772E+03  0.00000000000E+00 0. -1.
         -1    1    6    6    0  503  0.24374285326E+02 -0.39448485885E+03 -0.49989169445E+03  0.63726298796E+03  0.00000000000E+00 0.  1.
<mgrwt>
<rscale>  0 0.12054149E+04</rscale>
<asrwt>0</asrwt>
<pdfrwt beam="1">  1        1 0.46215503E+00 0.12054149E+04</pdfrwt>
<pdfrwt beam="2">  1       -2 0.18603675E-01 0.12054149E+04</pdfrwt>
<totfact> 0.12676622E+01</totfact>
</mgrwt>
</event>
<event>
12    5  0.5246737E-008  0.1568086E+04  0.7818608E-02  0.8840397E-01
          1   -1    0    0  501    0  0.00000000000E+00  0.00000000000E+00  0.87039866027E+03  0.87039866027E+03  0.00000000000E+00 0. -1.
         -2   -1    0    0    0  501 -0.00000000000E+00 -0.00000000000E+00 -0.70625523831E+03  0.70625523831E+03  0.00000000000E+00 0.  1.
        -24    2    1    2    0    0 -0.51582235790E+03  0.44476840405E+02  0.12737119356E+03  0.53915837749E+03  0.80108931005E+02 0.  0.
        254    2    1    2    0    0  0.51582235790E+03 -0.44476840405E+02  0.36772228401E+02  0.10374955211E+04  0.89832837273E+03 0.  0.
         23    2    4    4    0    0  0.66302507741E+03  0.10051825464E+03  0.25527759634E+03  0.72323188112E+03  0.90507070914E+02 0.  0.
         23    2    4    4    0    0 -0.14720271951E+03 -0.14499509505E+03 -0.21850536794E+03  0.31426363997E+03  0.91240459082E+02 0.  0.
          3    1    3    3  502    0  0.62585013416E+00 -0.23193686586E+01 -0.35839235248E+01  0.43145877203E+01  0.00000000000E+00 0. -1.
         -4    1    3    3    0  502 -0.51644820803E+03  0.46796209063E+02  0.13095511708E+03  0.53484378977E+03  0.00000000000E+00 0.  1.
         13    1    5    5    0    0  0.43937257663E+03  0.67882969463E+02  0.12274091974E+03  0.46121761894E+03  0.00000000000E+00 0. -1.
        -13    1    5    5    0    0  0.22365250077E+03  0.32635285179E+02  0.13253667660E+03  0.26201426218E+03  0.00000000000E+00 0.  1.
          1    1    6    6  503    0 -0.14169214392E+03 -0.15636701446E+03 -0.21476827404E+03  0.30108589869E+03  0.00000000000E+00 0. -1.
         -1    1    6    6    0  503 -0.55105755881E+01  0.11371919411E+02 -0.37370938992E+01  0.13177741279E+02  0.00000000000E+00 0.  1.
<mgrwt>
<rscale>  0 0.15680862E+04</rscale>
<asrwt>0</asrwt>
<pdfrwt beam="1">  1        1 0.13390749E+00 0.15680862E+04</pdfrwt>
<pdfrwt beam="2">  1       -2 0.10865465E+00 0.15680862E+04</pdfrwt>
<totfact> 0.10985718E+01</totfact>
</mgrwt>
</event>
<event>
12    5  0.5246737E-008  0.1255077E+04  0.7818608E-02  0.9065968E-01
          1   -1    0    0  501    0  0.00000000000E+00  0.00000000000E+00  0.23389018549E+04  0.23389018549E+04  0.00000000000E+00 0. -1.
         -2   -1    0    0    0  501 -0.00000000000E+00 -0.00000000000E+00 -0.16837149992E+03  0.16837149992E+03  0.00000000000E+00 0.  1.
        -24    2    1    2    0    0  0.14572825929E+03  0.30859349903E+03  0.71191129435E+03  0.79316812985E+03  0.76363066937E+02 0.  0.
        254    2    1    2    0    0 -0.14572825929E+03 -0.30859349903E+03  0.14586190607E+04  0.17141052250E+04  0.83313893504E+03 0.  0.
         23    2    4    4    0    0  0.13531179234E+03 -0.15175523427E+03  0.60877558663E+01  0.22360114542E+03  0.92851920741E+02 0.  0.
         23    2    4    4    0    0 -0.28104005163E+03 -0.15683826475E+03  0.14525313048E+04  0.14905040796E+04  0.90407233951E+02 0.  0.
          1    1    3    3  502    0  0.55320207317E+02  0.54822092685E+02  0.20145801619E+03  0.21598870218E+03  0.00000000000E+00 0. -1.
         -2    1    3    3    0  502  0.90408051970E+02  0.25377140634E+03  0.51045327816E+03  0.57717942767E+03  0.00000000000E+00 0.  1.
         13    1    5    5    0    0  0.12777521212E+03 -0.78815883827E+02  0.16073198522E+01  0.15013671054E+03  0.00000000000E+00 0. -1.
        -13    1    5    5    0    0  0.75365802237E+01 -0.72939350447E+02  0.44804360141E+01  0.73464434878E+02  0.00000000000E+00 0.  1.
          3    1    6    6  503    0 -0.28625814436E+02 -0.86466513829E+01  0.29607438476E+03  0.29758064981E+03  0.00000000000E+00 0. -1.
         -3    1    6    6    0  503 -0.25241423719E+03 -0.14819161337E+03  0.11564569201E+04  0.11929234298E+04  0.00000000000E+00 0.  1.
<mgrwt>
<rscale>  0 0.12550768E+04</rscale>
<asrwt>0</asrwt>
<pdfrwt beam="1">  1        1 0.35983103E+00 0.12550768E+04</pdfrwt>
<pdfrwt beam="2">  1       -2 0.25903309E-01 0.12550768E+04</pdfrwt>
<totfact> 0.20449618E+01</totfact>
</mgrwt>
</event>
<event>
12    5  0.5246737E-008  0.1715423E+04  0.7818608E-02  0.8752617E-01
          1   -1    0    0  501    0  0.00000000000E+00  0.00000000000E+00  0.51645502846E+03  0.51645502846E+03  0.00000000000E+00 0. -1.
         -2   -1    0    0    0  501 -0.00000000000E+00 -0.00000000000E+00 -0.14244593027E+04  0.14244593027E+04  0.00000000000E+00 0.  1.
        -24    2    1    2    0    0  0.51827487059E+03 -0.16305751467E+03 -0.65800559873E+03  0.85718125255E+03  0.81189514050E+02 0.  0.
        254    2    1    2    0    0 -0.51827487059E+03  0.16305751467E+03 -0.24999867554E+03  0.10837330786E+04  0.90375962146E+03 0.  0.
         23    2    4    4    0    0 -0.13914579724E+03  0.24456897269E+02  0.33051997148E+03  0.37084586078E+03  0.91233262595E+02 0.  0.
         23    2    4    4    0    0 -0.37912907335E+03  0.13860061740E+03 -0.58051864701E+03  0.71288721785E+03  0.90869689352E+02 0.  0.
          3    1    3    3  502    0  0.19538536225E+03 -0.90709781165E+02 -0.21619107011E+03  0.30519220661E+03  0.00000000000E+00 0. -1.
         -2    1    3    3    0  502  0.32288950834E+03 -0.72347733501E+02 -0.44181452862E+03  0.55198904594E+03  0.00000000000E+00 0.  1.
         13    1    5    5    0    0 -0.14306994699E+03 -0.74997470873E-01  0.28861823353E+03  0.32213273675E+03  0.00000000000E+00 0. -1.
        -13    1    5    5    0    0  0.39241497534E+01  0.24531894740E+02  0.41901737940E+02  0.48713124035E+02  0.00000000000E+00 0.  1.
          3    1    6    6  503    0 -0.34726638445E+03  0.13080493283E+03 -0.56648946590E+03  0.67721059295E+03  0.00000000000E+00 0. -1.
         -3    1    6    6    0  503 -0.31862688901E+02  0.77956845616E+01 -0.14029181109E+02  0.35676624902E+02  0.00000000000E+00 0.  1.
<mgrwt>
<rscale>  0 0.17154232E+04</rscale>
<asrwt>0</asrwt>
<pdfrwt beam="1">  1        1 0.79454619E-01 0.17154232E+04</pdfrwt>
<pdfrwt beam="2">  1       -2 0.21914759E+00 0.17154232E+04</pdfrwt>
<totfact> 0.35238893E+00</totfact>
</mgrwt>
</event>
<event>
12    5  0.5246737E-008  0.2276118E+04  0.7818608E-02  0.8487397E-01
         -2   -1    0    0    0  501 -0.00000000000E+00  0.00000000000E+00  0.52829680934E+03  0.52829680934E+03  0.00000000000E+00 0.  1.
          1   -1    0    0  501    0  0.00000000000E+00 -0.00000000000E+00 -0.24516114825E+04  0.24516114825E+04  0.00000000000E+00 0. -1.
        -24    2    1    2    0    0  0.55373474328E+03  0.21743972248E+02 -0.18370102035E+04  0.19203495682E+04  0.77723936203E+02 0.  0.
        254    2    1    2    0    0 -0.55373474328E+03 -0.21743972248E+02 -0.86304469689E+02  0.10595587236E+04  0.89895565022E+03 0.  0.
         23    2    4    4    0    0 -0.57800639431E+03  0.34037759995E+03 -0.10171915923E+03  0.68486017413E+03  0.93479240121E+02 0.  0.
         23    2    4    4    0    0  0.24271651033E+02 -0.36212157220E+03  0.15414689545E+02  0.37469854949E+03  0.91870801905E+02 0.  0.
          1    1    3    3  502    0  0.43455600418E+03 -0.13767035232E+02 -0.14598120230E+04  0.15231807491E+04  0.00000000000E+00 0. -1.
         -2    1    3    3    0  502  0.11917873910E+03  0.35511007480E+02 -0.37719818054E+03  0.39716881915E+03  0.00000000000E+00 0.  1.
         13    1    5    5    0    0 -0.12164138510E+03  0.91976851489E+02 -0.59011116063E+02  0.16351966120E+03  0.00000000000E+00 0.  1.
        -13    1    5    5    0    0 -0.45636500921E+03  0.24840074846E+03 -0.42708043172E+02  0.52134051293E+03  0.00000000000E+00 0. -1.
          2    1    6    6  503    0  0.41049239232E+02 -0.11061586275E+03 -0.21547226497E+02  0.11993828456E+03  0.00000000000E+00 0. -1.
         -2    1    6    6    0  503 -0.16777588199E+02 -0.25150570945E+03  0.36961916043E+02  0.25476026493E+03  0.00000000000E+00 0.  1.
<mgrwt>
<rscale>  0 0.22761182E+04</rscale>
<asrwt>0</asrwt>
<pdfrwt beam="1">  1        1 0.37717100E+00 0.22761182E+04</pdfrwt>
<pdfrwt beam="2">  1       -2 0.81276433E-01 0.22761182E+04</pdfrwt>
<totfact> 0.15537097E+00</totfact>
</mgrwt>
</event>
<event>
12    5  0.5246737E-008  0.2342103E+04  0.7818608E-02  0.8461503E-01
          1   -1    0    0  501    0  0.00000000000E+00  0.00000000000E+00  0.76974488124E+03  0.76974488124E+03  0.00000000000E+00 0. -1.
         -2   -1    0    0    0  501 -0.00000000000E+00 -0.00000000000E+00 -0.17815792901E+04  0.17815792901E+04  0.00000000000E+00 0.  1.
        -24    2    1    2    0    0  0.54258878455E+03  0.35714802399E+03 -0.12562669435E+04  0.14162603800E+04  0.75030197973E+02 0.  0.
        254    2    1    2    0    0 -0.54258878455E+03 -0.35714802399E+03  0.24443253462E+03  0.11350637913E+04  0.89814544825E+03 0.  0.
         23    2    4    4    0    0 -0.29085604906E+03 -0.15378650883E+03 -0.32677930921E+03  0.47219541015E+03  0.89085671480E+02 0.  0.
         23    2    4    4    0    0 -0.25173273549E+03 -0.20336151516E+03  0.57121184383E+03  0.66286838116E+03  0.91576439399E+02 0.  0.
          3    1    3    3  502    0  0.13400389957E+03  0.99496155642E+02 -0.39441162744E+03  0.42827218209E+03  0.00000000000E+00 0. -1.
         -4    1    3    3    0  502  0.40858488497E+03  0.25765186835E+03 -0.86185531603E+03  0.98798819793E+03  0.00000000000E+00 0.  1.
         13    1    5    5    0    0 -0.14027835040E+03 -0.51467170592E+02 -0.93414627564E+02  0.17621911895E+03  0.00000000000E+00 0. -1.
        -13    1    5    5    0    0 -0.15057769865E+03 -0.10231933824E+03 -0.23336468165E+03  0.29597629120E+03  0.00000000000E+00 0.  1.
          3    1    6    6  503    0 -0.79608780961E+00  0.14589611026E+01  0.44473074390E+02  0.44504119686E+02  0.00000000000E+00 0. -1.
         -3    1    6    6    0  503 -0.25093664768E+03 -0.20482047626E+03  0.52673876944E+03  0.61836426148E+03  0.00000000000E+00 0.  1.
<mgrwt>
<rscale>  0 0.23421029E+04</rscale>
<asrwt>0</asrwt>
<pdfrwt beam="1">  1        1 0.11842229E+00 0.23421029E+04</pdfrwt>
<pdfrwt beam="2">  1       -2 0.27408912E+00 0.23421029E+04</pdfrwt>
<totfact> 0.84936263E-01</totfact>
</mgrwt>
</event>
<event>
12    5  0.5246737E-008  0.2074672E+04  0.7818608E-02  0.8572483E-01
          1   -1    0    0  501    0  0.00000000000E+00  0.00000000000E+00  0.30804368130E+04  0.30804368130E+04  0.00000000000E+00 0. -1.
         -2   -1    0    0    0  501 -0.00000000000E+00 -0.00000000000E+00 -0.34932255180E+03  0.34932255180E+03  0.00000000000E+00 0.  1.
        -24    2    1    2    0    0 -0.64314074910E+03  0.30085207675E+03  0.36350778950E+03  0.80171429446E+03  0.80410830601E+02 0.  0.
        254    2    1    2    0    0  0.64314074910E+03 -0.30085207675E+03  0.23676064717E+04  0.26280450703E+04  0.89270291343E+03 0.  0.
         23    2    4    4    0    0  0.29320188036E+02  0.27386198895E+03  0.47815478773E+03  0.55782936804E+03  0.81740690032E+02 0.  0.
         23    2    4    4    0    0  0.61382056107E+03 -0.57471406570E+03  0.18894516839E+04  0.20702157023E+04  0.93238669300E+02 0.  0.
          1    1    3    3  502    0 -0.27107756955E+03  0.10086434186E+03  0.11240055139E+03  0.31030718349E+03  0.00000000000E+00 0. -1.
         -2    1    3    3    0  502 -0.37206317956E+03  0.19998773489E+03  0.25110723811E+03  0.49140711098E+03  0.00000000000E+00 0.  1.
         13    1    5    5    0    0  0.17570569771E+02  0.76886943473E+02  0.74345769368E+02  0.10838644021E+03  0.00000000000E+00 0.  1.
        -13    1    5    5    0    0  0.11749618265E+02  0.19697504548E+03  0.40380901836E+03  0.44944292783E+03  0.00000000000E+00 0. -1.
          3    1    6    6  503    0  0.12714661205E+03 -0.91860803806E+02  0.28232944669E+03  0.32297768453E+03  0.00000000000E+00 0.  1.
         -3    1    6    6    0  503  0.48667394902E+03 -0.48285326189E+03  0.16071222372E+04  0.17472380177E+04  0.00000000000E+00 0. -1.
<mgrwt>
<rscale>  0 0.20746721E+04</rscale>
<asrwt>0</asrwt>
<pdfrwt beam="1">  1        1 0.47391334E+00 0.20746721E+04</pdfrwt>
<pdfrwt beam="2">  1       -2 0.53741933E-01 0.20746721E+04</pdfrwt>
<totfact> 0.13808276E+00</totfact>
</mgrwt>
</event>
<event>
12    5  0.5246737E-008  0.1488752E+04  0.7818608E-02  0.8891967E-01
         -2   -1    0    0    0  501 -0.00000000000E+00  0.00000000000E+00  0.39123721850E+03  0.39123721850E+03  0.00000000000E+00 0.  1.
          1   -1    0    0  501    0  0.00000000000E+00 -0.00000000000E+00 -0.14162652580E+04  0.14162652580E+04  0.00000000000E+00 0. -1.
        -24    2    1    2    0    0 -0.16674386933E+03 -0.26802217102E+03  0.88686616620E+02  0.33768054040E+03  0.80767748981E+02 0.  0.
        254    2    1    2    0    0  0.16674386933E+03  0.26802217102E+03 -0.11137146561E+04  0.14698219361E+04  0.90574653544E+03 0.  0.
         23    2    4    4    0    0  0.31894164729E+03  0.52947100603E+03 -0.59720235558E+03  0.86430634478E+03  0.91167338014E+02 0.  0.
         23    2    4    4    0    0 -0.15219777795E+03 -0.26144883500E+03 -0.51651230056E+03  0.60551559133E+03  0.91348332119E+02 0.  0.
          1    1    3    3  502    0 -0.11436720448E+02 -0.19367801536E+02  0.31944692636E+02  0.39068832828E+02  0.00000000000E+00 0. -1.
         -2    1    3    3    0  502 -0.15530714889E+03 -0.24865436949E+03  0.56741923984E+02  0.29861170757E+03  0.00000000000E+00 0.  1.
         13    1    5    5    0    0  0.16721245965E+03  0.35936062667E+03 -0.39559497665E+03  0.55999593946E+03  0.00000000000E+00 0. -1.
        -13    1    5    5    0    0  0.15172918764E+03  0.17011037936E+03 -0.20160737893E+03  0.30431040532E+03  0.00000000000E+00 0.  1.
          4    1    6    6  503    0 -0.13888468202E+03 -0.23384424093E+03 -0.39083521741E+03  0.47615570046E+03  0.00000000000E+00 0. -1.
         -4    1    6    6    0  503 -0.13313095936E+02 -0.27604594072E+02 -0.12567708315E+03  0.12935989087E+03  0.00000000000E+00 0.  1.
<mgrwt>
<rscale>  0 0.14887521E+04</rscale>
<asrwt>0</asrwt>
<pdfrwt beam="1">  1        1 0.21788696E+00 0.14887521E+04</pdfrwt>
<pdfrwt beam="2">  1       -2 0.60190341E-01 0.14887521E+04</pdfrwt>
<totfact> 0.16353854E+01</totfact>
</mgrwt>
</event>
<event>
12    5  0.5246737E-008  0.1978146E+04  0.7818608E-02  0.8616907E-01
         -2   -1    0    0    0  501 -0.00000000000E+00  0.00000000000E+00  0.13130500008E+04  0.13130500008E+04  0.00000000000E+00 0.  1.
          1   -1    0    0  501    0  0.00000000000E+00 -0.00000000000E+00 -0.74503286842E+03  0.74503286842E+03  0.00000000000E+00 0. -1.
        -24    2    1    2    0    0 -0.42096679014E+03 -0.65405890574E+03  0.35124011280E+03  0.85719024156E+03  0.79996267510E+02 0.  0.
        254    2    1    2    0    0  0.42096679014E+03  0.65405890574E+03  0.21677701957E+03  0.12008926277E+04  0.88890085857E+03 0.  0.
         23    2    4    4    0    0  0.48238178718E+03  0.80668165405E+03  0.43001492214E+02  0.94528816652E+03  0.91066513319E+02 0.  0.
         23    2    4    4    0    0 -0.61414997035E+02 -0.15262274831E+03  0.17377552735E+03  0.25560446113E+03  0.89834300137E+02 0.  0.
          3    1    3    3  502    0 -0.18735824640E+03 -0.29600404827E+03  0.11483310368E+03  0.36865722669E+03  0.00000000000E+00 0. -1.
         -4    1    3    3    0  502 -0.23360854374E+03 -0.35805485746E+03  0.23640700912E+03  0.48853301487E+03  0.00000000000E+00 0.  1.
         13    1    5    5    0    0  0.37667960057E+03  0.68848419246E+03  0.51614023709E+02  0.78648713416E+03  0.00000000000E+00 0. -1.
        -13    1    5    5    0    0  0.10570218661E+03  0.11819746159E+03 -0.86125314950E+01  0.15880103236E+03  0.00000000000E+00 0.  1.
          1    1    6    6  503    0 -0.59808354953E+02 -0.16080610503E+03  0.17714584098E+03  0.24660959372E+03  0.00000000000E+00 0. -1.
         -1    1    6    6    0  503 -0.16066420820E+01  0.81833567164E+01 -0.33703136252E+01  0.89948674176E+01  0.00000000000E+00 0.  1.
<mgrwt>
<rscale>  0 0.19781460E+04</rscale>
<asrwt>0</asrwt>
<pdfrwt beam="1">  1        1 0.11462044E+00 0.19781460E+04</pdfrwt>
<pdfrwt beam="2">  1       -2 0.20200769E+00 0.19781460E+04</pdfrwt>
<totfact> 0.25983974E+00</totfact>
</mgrwt>
</event>
<event>
12    5  0.5246737E-008  0.1819649E+04  0.7818608E-02  0.8695919E-01
          1   -1    0    0  501    0  0.00000000000E+00  0.00000000000E+00  0.99716808321E+03  0.99716808321E+03  0.00000000000E+00 0. -1.
         -2   -1    0    0    0  501 -0.00000000000E+00 -0.00000000000E+00 -0.83013184716E+03  0.83013184716E+03  0.00000000000E+00 0.  1.
        -24    2    1    2    0    0  0.65847601340E+03 -0.18181615110E+03  0.11440294649E+03  0.69807921781E+03  0.87056229777E+02 0.  0.
        254    2    1    2    0    0 -0.65847601340E+03  0.18181615110E+03  0.52633289564E+02  0.11292207126E+04  0.89761984240E+03 0.  0.
         23    2    4    4    0    0 -0.27022326248E+02  0.24831602482E+02 -0.34686730098E+03  0.36025918080E+03  0.90127344706E+02 0.  0.
         23    2    4    4    0    0 -0.63145368715E+03  0.15698454862E+03  0.39950059054E+03  0.76896153176E+03  0.91231617107E+02 0.  0.
          1    1    3    3  502    0  0.46814587451E+03 -0.92399528982E+02  0.98129495693E+02  0.48716283797E+03  0.00000000000E+00 0. -1.
         -2    1    3    3    0  502  0.19033013889E+03 -0.89416622119E+02  0.16273450794E+02  0.21091637983E+03  0.00000000000E+00 0.  1.
         13    1    5    5    0    0 -0.28660044878E+01  0.45557833980E+02 -0.30092920881E+03  0.30437167893E+03  0.00000000000E+00 0. -1.
        -13    1    5    5    0    0 -0.24156321760E+02 -0.20726231499E+02 -0.45938092165E+02  0.55887501866E+02  0.00000000000E+00 0.  1.
          1    1    6    6  503    0 -0.37610195831E+03  0.48538808358E+02  0.24381228599E+03  0.45083603424E+03  0.00000000000E+00 0. -1.
         -1    1    6    6    0  503 -0.25535172884E+03  0.10844574026E+03  0.15568830455E+03  0.31812549752E+03  0.00000000000E+00 0.  1.
<mgrwt>
<rscale>  0 0.18196494E+04</rscale>
<asrwt>0</asrwt>
<pdfrwt beam="1">  1        1 0.15341047E+00 0.18196494E+04</pdfrwt>
<pdfrwt beam="2">  1       -2 0.12771259E+00 0.18196494E+04</pdfrwt>
<totfact> 0.57047267E+00</totfact>
</mgrwt>
</event>
<event>
12    5  0.5246737E-008  0.1409144E+04  0.7818608E-02  0.8947226E-01
          1   -1    0    0  501    0  0.00000000000E+00  0.00000000000E+00  0.63825516474E+03  0.63825516474E+03  0.00000000000E+00 0. -1.
         -2   -1    0    0    0  501 -0.00000000000E+00 -0.00000000000E+00 -0.77777976700E+03  0.77777976700E+03  0.00000000000E+00 0.  1.
        -24    2    1    2    0    0 -0.21382263259E+03  0.26494988924E+03 -0.28116267757E+03  0.44877481066E+03  0.80173670291E+02 0.  0.
        254    2    1    2    0    0  0.21382263259E+03 -0.26494988924E+03  0.14163807531E+03  0.96726012108E+03  0.89421039775E+03 0.  0.
         23    2    4    4    0    0  0.27126610132E+03 -0.84923482819E+02  0.48167296984E+03  0.56712900113E+03  0.93963601422E+02 0.  0.
         23    2    4    4    0    0 -0.57443468732E+02 -0.18002640642E+03 -0.34003489453E+03  0.40013111995E+03  0.93658552998E+02 0.  0.
          1    1    3    3  502    0 -0.63122362219E+02  0.35311476939E+02 -0.82938440543E+02  0.11004598101E+03  0.00000000000E+00 0. -1.
         -2    1    3    3    0  502 -0.15070027037E+03  0.22963841230E+03 -0.19822423703E+03  0.33872882965E+03  0.00000000000E+00 0.  1.
         13    1    5    5    0    0  0.27123738182E+03 -0.81627559848E+02  0.48549392737E+03  0.56208284918E+03  0.00000000000E+00 0. -1.
        -13    1    5    5    0    0  0.28719497317E-01 -0.32959229715E+01 -0.38209575351E+01  0.50461519526E+01  0.00000000000E+00 0.  1.
          2    1    6    6  503    0 -0.36168412932E+01 -0.69584730637E+02 -0.51861695111E+02  0.86860530153E+02  0.00000000000E+00 0. -1.
         -2    1    6    6    0  503 -0.53826627439E+02 -0.11044167578E+03 -0.28817319942E+03  0.31327058980E+03  0.00000000000E+00 0.  1.
<mgrwt>
<rscale>  0 0.14091444E+04</rscale>
<asrwt>0</asrwt>
<pdfrwt beam="1">  1        1 0.98193102E-01 0.14091444E+04</pdfrwt>
<pdfrwt beam="2">  1       -2 0.11965843E+00 0.14091444E+04</pdfrwt>
<totfact> 0.14267610E+01</totfact>
</mgrwt>
</event>
<event>
12    5  0.5246737E-008  0.1473022E+04  0.7818608E-02  0.8902594E-01
         -2   -1    0    0    0  501 -0.00000000000E+00  0.00000000000E+00  0.78261730751E+03  0.78261730751E+03  0.00000000000E+00 0.  1.
          1   -1    0    0  501    0  0.00000000000E+00 -0.00000000000E+00 -0.69312124516E+03  0.69312124516E+03  0.00000000000E+00 0. -1.
        -24    2    1    2    0    0 -0.13415305635E+03 -0.38528329309E+03  0.83826245268E+02  0.42423981985E+03  0.80698989416E+02 0.  0.
        254    2    1    2    0    0  0.13415305635E+03  0.38528329309E+03  0.56698170803E+01  0.10514987328E+04  0.96911154148E+03 0.  0.
         23    2    4    4    0    0  0.37801260248E+03  0.13350499718E+03 -0.35305190278E+03  0.54170577812E+03  0.89902125042E+02 0.  0.
         23    2    4    4    0    0 -0.24385954614E+03  0.25177829591E+03  0.35872171986E+03  0.50979295470E+03  0.91366272914E+02 0.  0.
          3    1    3    3  502    0 -0.13688257706E+03 -0.29888920536E+03  0.56322399581E+02  0.33353232179E+03  0.00000000000E+00 0. -1.
         -4    1    3    3    0  502  0.27295207090E+01 -0.86394087732E+02  0.27503845688E+02  0.90707498069E+02  0.00000000000E+00 0.  1.
         13    1    5    5    0    0  0.14153468484E+03  0.94280451386E+02 -0.16603875557E+03  0.23767570107E+03  0.00000000000E+00 0. -1.
        -13    1    5    5    0    0  0.23647791764E+03  0.39224545793E+02 -0.18701314721E+03  0.30403007705E+03  0.00000000000E+00 0.  1.
          4    1    6    6  503    0 -0.86321259185E+02  0.50735316250E+02  0.14792280986E+03  0.17862415789E+03  0.00000000000E+00 0. -1.
         -4    1    6    6    0  503 -0.15753828695E+03  0.20104297966E+03  0.21079891000E+03  0.33116879681E+03  0.00000000000E+00 0.  1.
<mgrwt>
<rscale>  0 0.14730223E+04</rscale>
<asrwt>0</asrwt>
<pdfrwt beam="1">  1        1 0.10663404E+00 0.14730223E+04</pdfrwt>
<pdfrwt beam="2">  1       -2 0.12040266E+00 0.14730223E+04</pdfrwt>
<totfact> 0.12359189E+01</totfact>
</mgrwt>
</event>
<event>
12    5  0.5246737E-008  0.1843496E+04  0.7818608E-02  0.8683505E-01
         -2   -1    0    0    0  501 -0.00000000000E+00  0.00000000000E+00  0.75967617701E+03  0.75967617701E+03  0.00000000000E+00 0.  1.
          1   -1    0    0  501    0  0.00000000000E+00 -0.00000000000E+00 -0.11183972530E+04  0.11183972530E+04  0.00000000000E+00 0. -1.
        -24    2    1    2    0    0  0.14931279895E+03  0.34520616337E+02  0.55825347121E+03  0.58425446509E+03  0.78869239720E+02 0.  0.
        254    2    1    2    0    0 -0.14931279895E+03 -0.34520616337E+02 -0.91697454724E+03  0.12938189650E+04  0.89979953820E+03 0.  0.
         23    2    4    4    0    0  0.45805390985E+02 -0.78188970513E+02  0.15504198442E+03  0.19904034086E+03  0.85833509792E+02 0.  0.
         23    2    4    4    0    0 -0.19511818994E+03  0.43668354176E+02 -0.10720165317E+04  0.10947786241E+04  0.96657945628E+02 0.  0.
          3    1    3    3  502    0  0.56711785295E+02  0.74949796289E+01  0.93625860734E+02  0.10971874548E+03  0.00000000000E+00 0. -1.
         -4    1    3    3    0  502  0.92601013659E+02  0.27025636708E+02  0.46462761047E+03  0.47453571961E+03  0.00000000000E+00 0.  1.
         13    1    5    5    0    0  0.29966393551E+02 -0.69061251720E+02  0.45458890941E+02  0.87942890544E+02  0.00000000000E+00 0. -1.
        -13    1    5    5    0    0  0.15838997434E+02 -0.91277187930E+01  0.10958309348E+03  0.11109745032E+03  0.00000000000E+00 0.  1.
          4    1    6    6  503    0 -0.62691683116E+02  0.59892193621E+02 -0.35325029990E+03  0.36373492597E+03  0.00000000000E+00 0. -1.
         -4    1    6    6    0  503 -0.13242650682E+03 -0.16223839444E+02 -0.71876623176E+03  0.73104369814E+03  0.00000000000E+00 0.  1.
<mgrwt>
<rscale>  0 0.18434964E+04</rscale>
<asrwt>0</asrwt>
<pdfrwt beam="1">  1        1 0.17206112E+00 0.18434964E+04</pdfrwt>
<pdfrwt beam="2">  1       -2 0.11687326E+00 0.18434964E+04</pdfrwt>
<totfact> 0.57388170E+00</totfact>
</mgrwt>
</event>
<event>
12    5  0.5246737E-008  0.1899864E+04  0.7818608E-02  0.8654924E-01
          1   -1    0    0  501    0  0.00000000000E+00  0.00000000000E+00  0.12768307997E+04  0.12768307997E+04  0.00000000000E+00 0. -1.
         -2   -1    0    0    0  501 -0.00000000000E+00 -0.00000000000E+00 -0.70672679743E+03  0.70672679743E+03  0.00000000000E+00 0.  1.
        -24    2    1    2    0    0 -0.34253737806E+03  0.25110889422E+03 -0.40250204490E+03  0.59046699212E+03  0.79093871454E+02 0.  0.
        254    2    1    2    0    0  0.34253737806E+03 -0.25110889422E+03  0.97260604714E+03  0.13930906050E+04  0.90241419460E+03 0.  0.
         23    2    4    4    0    0 -0.22259741298E+03 -0.15891255440E+03  0.34248229886E+02  0.29030726132E+03  0.91118365397E+02 0.  0.
         23    2    4    4    0    0  0.56513479104E+03 -0.92196339820E+02  0.93835781725E+03  0.11027833437E+04  0.87967111620E+02 0.  0.
          1    1    3    3  502    0 -0.84841831358E+02  0.92193749807E+02 -0.15577641716E+03  0.19991026986E+03  0.00000000000E+00 0. -1.
         -2    1    3    3    0  502 -0.25769554671E+03  0.15891514441E+03 -0.24672562774E+03  0.39055672225E+03  0.00000000000E+00 0.  1.
         13    1    5    5    0    0 -0.59969827887E+02 -0.84902331207E+02  0.40409996325E+02  0.11152467845E+03  0.00000000000E+00 0. -1.
        -13    1    5    5    0    0 -0.16262758509E+03 -0.74010223194E+02 -0.61617664389E+01  0.17878258287E+03  0.00000000000E+00 0.  1.
          2    1    6    6  503    0  0.26717925318E+03 -0.42437209305E+02  0.36034717098E+03  0.45059488867E+03  0.00000000000E+00 0. -1.
         -2    1    6    6    0  503  0.29795553786E+03 -0.49759130515E+02  0.57801064627E+03  0.65218845499E+03  0.00000000000E+00 0.  1.
<mgrwt>
<rscale>  0 0.18998637E+04</rscale>
<asrwt>0</asrwt>
<pdfrwt beam="1">  1        1 0.19643551E+00 0.18998637E+04</pdfrwt>
<pdfrwt beam="2">  1       -2 0.10872720E+00 0.18998637E+04</pdfrwt>
<totfact> 0.52137055E+00</totfact>
</mgrwt>
</event>
<event>
12    5  0.5246737E-008  0.1605318E+04  0.7818608E-02  0.8817288E-01
          1   -1    0    0  501    0  0.00000000000E+00  0.00000000000E+00  0.15444264811E+04  0.15444264811E+04  0.00000000000E+00 0. -1.
         -2   -1    0    0    0  501 -0.00000000000E+00 -0.00000000000E+00 -0.41715233538E+03  0.41715233538E+03  0.00000000000E+00 0.  1.
        -24    2    1    2    0    0 -0.21845950257E+03 -0.12856858286E+03  0.97839449811E+03  0.10137602763E+04  0.78737977969E+02 0.  0.
        254    2    1    2    0    0  0.21845950257E+03  0.12856858286E+03  0.14887964760E+03  0.94781854014E+03  0.90107735562E+03 0.  0.
         23    2    4    4    0    0  0.70547587284E+02  0.88146050001E+02  0.51792542740E+03  0.53790860069E+03  0.91390514578E+02 0.  0.
         23    2    4    4    0    0  0.14791191528E+03  0.40422532859E+02 -0.36904577980E+03  0.40990993945E+03  0.91211046619E+02 0.  0.
          1    1    3    3  502    0 -0.15923710799E+03 -0.60851401073E+02  0.54143928179E+03  0.56764059530E+03  0.00000000000E+00 0. -1.
         -2    1    3    3    0  502 -0.59222394573E+02 -0.67717181787E+02  0.43695521632E+03  0.44611968103E+03  0.00000000000E+00 0.  1.
         13    1    5    5    0    0  0.17205766927E+02 -0.16872767773E+02  0.51804341345E+02  0.57135089832E+02  0.00000000000E+00 0. -1.
        -13    1    5    5    0    0  0.53341820358E+02  0.10501881777E+03  0.46612108605E+03  0.48077351086E+03  0.00000000000E+00 0.  1.
          2    1    6    6  503    0 -0.10083743194E+02  0.38641781783E+01 -0.61499717649E+01  0.12427224248E+02  0.00000000000E+00 0. -1.
         -2    1    6    6    0  503  0.15799565848E+03  0.36558354680E+02 -0.36289580803E+03  0.39748271520E+03  0.00000000000E+00 0.  1.
<mgrwt>
<rscale>  0 0.16053176E+04</rscale>
<asrwt>0</asrwt>
<pdfrwt beam="1">  1        1 0.23760407E+00 0.16053176E+04</pdfrwt>
<pdfrwt beam="2">  1       -2 0.64177283E-01 0.16053176E+04</pdfrwt>
<totfact> 0.11509021E+01</totfact>
</mgrwt>
</event>
<event>
12    5  0.5246737E-008  0.2787747E+04  0.7818608E-02  0.8307083E-01
          1   -1    0    0  501    0  0.00000000000E+00  0.00000000000E+00  0.15519539995E+04  0.15519539995E+04  0.00000000000E+00 0. -1.
         -2   -1    0    0    0  501 -0.00000000000E+00 -0.00000000000E+00 -0.12518946385E+04  0.12518946385E+04  0.00000000000E+00 0.  1.
        -24    2    1    2    0    0 -0.95303062948E+03 -0.40660189794E+03  0.83372001233E+03  0.13322981170E+04  0.79603576237E+02 0.  0.
        254    2    1    2    0    0  0.95303062948E+03  0.40660189794E+03 -0.53366065125E+03  0.14715505210E+04  0.89837339740E+03 0.  0.
         23    2    4    4    0    0  0.78017569619E+03  0.41848197768E+03  0.13416390611E+02  0.89005434190E+03  0.90639116462E+02 0.  0.
         23    2    4    4    0    0  0.17285493329E+03 -0.11880079743E+02 -0.54707704186E+03  0.58149617914E+03  0.93939088583E+02 0.  0.
          3    1    3    3  502    0 -0.55172948344E+03 -0.21461102142E+03  0.43157744349E+03  0.73261340633E+03  0.00000000000E+00 0. -1.
         -4    1    3    3    0  502 -0.40130114604E+03 -0.19199087652E+03  0.40214256884E+03  0.59968471062E+03  0.00000000000E+00 0.  1.
         13    1    5    5    0    0  0.30926623562E+03  0.21616953767E+03 -0.84505190858E+00  0.37732689757E+03  0.00000000000E+00 0.  1.
        -13    1    5    5    0    0  0.47090946057E+03  0.20231244001E+03  0.14261442520E+02  0.51272744434E+03  0.00000000000E+00 0. -1.
          2    1    6    6  503    0  0.12851086930E+03  0.10178161452E+02 -0.48628871758E+03  0.50308583298E+03  0.00000000000E+00 0. -1.
         -2    1    6    6    0  503  0.44344063992E+02 -0.22058241195E+02 -0.60788324280E+02  0.78410346158E+02  0.00000000000E+00 0.  1.
<mgrwt>
<rscale>  0 0.27877467E+04</rscale>
<asrwt>0</asrwt>
<pdfrwt beam="1">  1        1 0.23876215E+00 0.27877467E+04</pdfrwt>
<pdfrwt beam="2">  1       -2 0.19259917E+00 0.27877467E+04</pdfrwt>
<totfact> 0.68258590E-01</totfact>
</mgrwt>
</event>
<event>
12    5  0.5246737E-008  0.1322615E+04  0.7818608E-02  0.9011821E-01
         -4   -1    0    0    0  501 -0.00000000000E+00  0.00000000000E+00  0.48818576789E+03  0.48818576789E+03  0.00000000000E+00 0.  1.
          3   -1    0    0  501    0  0.00000000000E+00 -0.00000000000E+00 -0.89582146004E+03  0.89582146004E+03  0.00000000000E+00 0. -1.
        -24    2    1    2    0    0 -0.15989034430E+02  0.34132546843E+03 -0.17783000317E+03  0.39345892412E+03  0.80172877713E+02 0.  0.
        254    2    1    2    0    0  0.15989034430E+02 -0.34132546843E+03 -0.22980568898E+03  0.99054830381E+03  0.90089764283E+03 0.  0.
         23    2    4    4    0    0  0.23836531385E+03 -0.55301215072E+03 -0.26917130309E+03  0.66747693116E+03  0.10213619112E+03 0.  0.
         23    2    4    4    0    0 -0.22237627942E+03  0.21168668229E+03  0.39365614110E+02  0.32307137265E+03  0.92536474651E+02 0.  0.
          3    1    3    3  502    0 -0.14914116250E+02  0.13152429639E+03 -0.27072337394E+02  0.13510730127E+03  0.00000000000E+00 0. -1.
         -4    1    3    3    0  502 -0.10749181799E+01  0.20980117204E+03 -0.15075766578E+03  0.25835162285E+03  0.00000000000E+00 0.  1.
         13    1    5    5    0    0  0.85621830228E+02 -0.10915191211E+03 -0.35867888006E+02  0.14328901953E+03  0.00000000000E+00 0. -1.
        -13    1    5    5    0    0  0.15274348363E+03 -0.44386023861E+03 -0.23330341508E+03  0.52418791163E+03  0.00000000000E+00 0.  1.
          2    1    6    6  503    0 -0.14179111379E+03  0.13774811940E+03 -0.19892759586E+02  0.19868313021E+03  0.00000000000E+00 0. -1.
         -2    1    6    6    0  503 -0.80585165636E+02  0.73938562889E+02  0.59258373696E+02  0.12438824243E+03  0.00000000000E+00 0.  1.
<mgrwt>
<rscale>  0 0.13226145E+04</rscale>
<asrwt>0</asrwt>
<pdfrwt beam="1">  1        3 0.13781869E+00 0.13226145E+04</pdfrwt>
<pdfrwt beam="2">  1       -4 0.75105503E-01 0.13226145E+04</pdfrwt>
<totfact> 0.14412466E+00</totfact>
</mgrwt>
</event>
<event>
12    5  0.5246737E-008  0.1870932E+04  0.7818608E-02  0.8669462E-01
         -2   -1    0    0    0  501 -0.00000000000E+00  0.00000000000E+00  0.86998774849E+03  0.86998774849E+03  0.00000000000E+00 0.  1.
          1   -1    0    0  501    0  0.00000000000E+00 -0.00000000000E+00 -0.10058726417E+04  0.10058726417E+04  0.00000000000E+00 0. -1.
        -24    2    1    2    0    0 -0.34987749440E+03  0.61699040727E+03  0.60469013123E+02  0.71614940142E+03  0.78243465284E+02 0.  0.
        254    2    1    2    0    0  0.34987749440E+03 -0.61699040727E+03 -0.19635390632E+03  0.11597109888E+04  0.89626073057E+03 0.  0.
         23    2    4    4    0    0  0.11852599112E+03  0.18779980336E+03  0.10963836452E+03  0.26314234559E+03  0.88916513399E+02 0.  0.
         23    2    4    4    0    0  0.23135150328E+03 -0.80479021062E+03 -0.30599227085E+03  0.89656864316E+03  0.94832804977E+02 0.  0.
          1    1    3    3  502    0 -0.15156614236E+03  0.23892169461E+03  0.59965011043E+02  0.28922599160E+03  0.00000000000E+00 0. -1.
         -2    1    3    3    0  502 -0.19831135204E+03  0.37806871266E+03  0.50400208036E+00  0.42692340982E+03  0.00000000000E+00 0.  1.
         13    1    5    5    0    0  0.98812541567E+02  0.12156224142E+03  0.11423038408E+03  0.19388109128E+03  0.00000000000E+00 0.  1.
        -13    1    5    5    0    0  0.19713449551E+02  0.66237561939E+02 -0.45920195535E+01  0.69261254308E+02  0.00000000000E+00 0. -1.
          1    1    6    6  503    0  0.68390107540E+02 -0.33409117034E+03 -0.83896862398E+02  0.35118769972E+03  0.00000000000E+00 0. -1.
         -1    1    6    6    0  503  0.16296139574E+03 -0.47069904028E+03 -0.22209540845E+03  0.54538094345E+03  0.00000000000E+00 0.  1.
<mgrwt>
<rscale>  0 0.18709323E+04</rscale>
<asrwt>0</asrwt>
<pdfrwt beam="1">  1        1 0.15474964E+00 0.18709323E+04</pdfrwt>
<pdfrwt beam="2">  1       -2 0.13384427E+00 0.18709323E+04</pdfrwt>
<totfact> 0.49642081E+00</totfact>
</mgrwt>
</event>
<event>
12    5  0.5246737E-008  0.1749123E+04  0.7818608E-02  0.8733833E-01
         -2   -1    0    0    0  501 -0.00000000000E+00  0.00000000000E+00  0.99763063646E+03  0.99763063646E+03  0.00000000000E+00 0.  1.
          1   -1    0    0  501    0  0.00000000000E+00 -0.00000000000E+00 -0.76667473557E+03  0.76667473557E+03  0.00000000000E+00 0. -1.
        -24    2    1    2    0    0  0.29707059976E+03 -0.32775140941E+03 -0.39040900608E+03  0.59532510828E+03  0.79503867308E+02 0.  0.
        254    2    1    2    0    0 -0.29707059976E+03  0.32775140941E+03  0.62136490696E+03  0.11689802637E+04  0.88586036248E+03 0.  0.
         23    2    4    4    0    0 -0.39026763377E+03  0.50686845571E+03  0.67803200517E+03  0.93657650510E+03  0.90684577053E+02 0.  0.
         23    2    4    4    0    0  0.93197034016E+02 -0.17911704630E+03 -0.56667098208E+02  0.23240375864E+03  0.10015859218E+03 0.  0.
          1    1    3    3  502    0 -0.35869260790E+01  0.10376686336E+01 -0.18805431847E+01  0.41808178099E+01  0.00000000000E+00 0. -1.
         -2    1    3    3    0  502  0.30065752584E+03 -0.32878907804E+03 -0.38852846289E+03  0.59114429047E+03  0.00000000000E+00 0.  1.
         13    1    5    5    0    0 -0.29403633197E+03  0.33215417430E+03  0.42453477131E+03  0.61401427677E+03  0.00000000000E+00 0. -1.
        -13    1    5    5    0    0 -0.96231301801E+02  0.17471428141E+03  0.25349723385E+03  0.32256222833E+03  0.00000000000E+00 0.  1.
          4    1    6    6  503    0  0.82562503443E+02 -0.15342124308E+03 -0.56712802155E+01  0.17431812362E+03  0.00000000000E+00 0. -1.
         -4    1    6    6    0  503  0.10634530574E+02 -0.25695803223E+02 -0.50995817993E+02  0.58085635027E+02  0.00000000000E+00 0.  1.
<mgrwt>
<rscale>  0 0.17491234E+04</rscale>
<asrwt>0</asrwt>
<pdfrwt beam="1">  1        1 0.11794996E+00 0.17491234E+04</pdfrwt>
<pdfrwt beam="2">  1       -2 0.15348164E+00 0.17491234E+04</pdfrwt>
<totfact> 0.55333308E+00</totfact>
</mgrwt>
</event>
<event>
12    5  0.5246737E-008  0.1410337E+04  0.7818608E-02  0.8946370E-01
         -2   -1    0    0    0  501 -0.00000000000E+00  0.00000000000E+00  0.30141911089E+03  0.30141911089E+03  0.00000000000E+00 0.  1.
          1   -1    0    0  501    0  0.00000000000E+00 -0.00000000000E+00 -0.16497392645E+04  0.16497392645E+04  0.00000000000E+00 0. -1.
        -24    2    1    2    0    0  0.70562670494E+02  0.38242344331E+03 -0.34518318409E+03  0.52599105451E+03  0.79299296211E+02 0.  0.
        254    2    1    2    0    0 -0.70562670494E+02 -0.38242344331E+03 -0.10031369695E+04  0.14251673209E+04  0.93466107892E+03 0.  0.
         23    2    4    4    0    0  0.87985981026E+02  0.24058081572E+02 -0.96924815459E+03  0.97806917165E+03  0.94111610419E+02 0.  0.
         23    2    4    4    0    0 -0.15854865152E+03 -0.40648152488E+03 -0.33888814929E+02  0.44709814924E+03  0.91560899414E+02 0.  0.
          1    1    3    3  502    0  0.61515234269E+02  0.26915642965E+03 -0.28733465333E+03  0.39848527033E+03  0.00000000000E+00 0. -1.
         -2    1    3    3    0  502  0.90474362249E+01  0.11326701367E+03 -0.57848530766E+02  0.12750578418E+03  0.00000000000E+00 0.  1.
         13    1    5    5    0    0  0.90698616312E+02  0.21590267768E+02 -0.96987747732E+03  0.97434834617E+03  0.00000000000E+00 0.  1.
        -13    1    5    5    0    0 -0.27126352865E+01  0.24678138047E+01  0.62932273412E+00  0.37208254831E+01  0.00000000000E+00 0. -1.
          1    1    6    6  503    0 -0.80701592101E+02 -0.17664756416E+03  0.29148400031E+02  0.19638415953E+03  0.00000000000E+00 0.  1.
         -1    1    6    6    0  503 -0.77847059419E+02 -0.22983396073E+03 -0.63037214960E+02  0.25071398970E+03  0.00000000000E+00 0. -1.
<mgrwt>
<rscale>  0 0.14103375E+04</rscale>
<asrwt>0</asrwt>
<pdfrwt beam="1">  1        1 0.25380604E+00 0.14103375E+04</pdfrwt>
<pdfrwt beam="2">  1       -2 0.46372172E-01 0.14103375E+04</pdfrwt>
<totfact> 0.19448516E+01</totfact>
</mgrwt>
</event>
<event>
12    5  0.5246737E-008  0.1439955E+04  0.7818608E-02  0.8925394E-01
          1   -1    0    0  501    0  0.00000000000E+00  0.00000000000E+00  0.17435737448E+04  0.17435737448E+04  0.00000000000E+00 0. -1.
         -2   -1    0    0    0  501 -0.00000000000E+00 -0.00000000000E+00 -0.29730188005E+03  0.29730188005E+03  0.00000000000E+00 0.  1.
        -24    2    1    2    0    0  0.83895237348E+02  0.22862936415E+03 -0.64343177924E+02  0.26332001039E+03  0.76730608807E+02 0.  0.
        254    2    1    2    0    0 -0.83895237348E+02 -0.22862936415E+03  0.15106150427E+04  0.17775556145E+04  0.90467472515E+03 0.  0.
         23    2    4    4    0    0  0.16504117356E+02  0.31963557005E+03  0.82187320688E+03  0.88681309288E+03  0.92317982986E+02 0.  0.
         23    2    4    4    0    0 -0.10039935470E+03 -0.54826493420E+03  0.68874183582E+03  0.89074252160E+03  0.91555747349E+02 0.  0.
          1    1    3    3  502    0  0.10390333896E+02 -0.33716933947E+01  0.19251115918E+01  0.11092042618E+02  0.00000000000E+00 0. -1.
         -2    1    3    3    0  502  0.73504903452E+02  0.23200105754E+03 -0.66268289516E+02  0.25222796778E+03  0.00000000000E+00 0.  1.
         13    1    5    5    0    0  0.13275232982E+01  0.16033569434E+03  0.53280426489E+03  0.55640783772E+03  0.00000000000E+00 0.  1.
        -13    1    5    5    0    0  0.15176594058E+02  0.15929987572E+03  0.28906894199E+03  0.33040525516E+03  0.00000000000E+00 0. -1.
          1    1    6    6  503    0 -0.10818689634E+03 -0.49476407769E+03  0.58509549178E+03  0.77384276931E+03  0.00000000000E+00 0. -1.
         -1    1    6    6    0  503  0.77875416373E+01 -0.53500856516E+02  0.10364634404E+03  0.11689975229E+03  0.00000000000E+00 0.  1.
<mgrwt>
<rscale>  0 0.14399552E+04</rscale>
<asrwt>0</asrwt>
<pdfrwt beam="1">  1        1 0.26824211E+00 0.14399552E+04</pdfrwt>
<pdfrwt beam="2">  1       -2 0.45738752E-01 0.14399552E+04</pdfrwt>
<totfact> 0.17214394E+01</totfact>
</mgrwt>
</event>
<event>
12    5  0.5246737E-008  0.3375220E+04  0.7818608E-02  0.8144015E-01
          1   -1    0    0  501    0  0.00000000000E+00  0.00000000000E+00  0.12889111554E+04  0.12889111554E+04  0.00000000000E+00 0. -1.
         -2   -1    0    0    0  501 -0.00000000000E+00 -0.00000000000E+00 -0.22096387325E+04  0.22096387325E+04  0.00000000000E+00 0.  1.
        -24    2    1    2    0    0  0.13816536793E+04 -0.58429755642E+03  0.42004031000E+02  0.15028044621E+04  0.79286750623E+02 0.  0.
        254    2    1    2    0    0 -0.13816536793E+04  0.58429755642E+03 -0.96273160808E+03  0.19957454257E+04  0.89765089600E+03 0.  0.
         23    2    4    4    0    0 -0.12244034059E+04  0.35496316769E+03 -0.36345222487E+03  0.13288104356E+04  0.92071185776E+02 0.  0.
         23    2    4    4    0    0 -0.15725027344E+03  0.22933438873E+03 -0.59927938322E+03  0.66693499013E+03  0.91348735932E+02 0.  0.
          3    1    3    3  502    0  0.92767902476E+03 -0.40479580728E+03 -0.70247700147E+01  0.10121745729E+04  0.00000000000E+00 0. -1.
         -4    1    3    3    0  502  0.45397465454E+03 -0.17950174914E+03  0.49028801014E+02  0.49062988927E+03  0.00000000000E+00 0.  1.
         13    1    5    5    0    0 -0.43781439109E+03  0.15646762486E+03 -0.16794534409E+03  0.49433712917E+03  0.00000000000E+00 0. -1.
        -13    1    5    5    0    0 -0.78658901478E+03  0.19849554283E+03 -0.19550688078E+03  0.83447330642E+03  0.00000000000E+00 0.  1.
          4    1    6    6  503    0 -0.12064330790E+03  0.17492985571E+03 -0.35253807269E+03  0.41162890431E+03  0.00000000000E+00 0. -1.
         -4    1    6    6    0  503 -0.36606965538E+02  0.54404533014E+02 -0.24674131052E+03  0.25530608582E+03  0.00000000000E+00 0.  1.
<mgrwt>
<rscale>  0 0.33752203E+04</rscale>
<asrwt>0</asrwt>
<pdfrwt beam="1">  1        1 0.19829402E+00 0.33752203E+04</pdfrwt>
<pdfrwt beam="2">  1       -2 0.33994442E+00 0.33752203E+04</pdfrwt>
<totfact> 0.11995271E-01</totfact>
</mgrwt>
</event>
<event>
12    5  0.5246737E-008  0.2533399E+04  0.7818608E-02  0.8391183E-01
          1   -1    0    0  501    0  0.00000000000E+00  0.00000000000E+00  0.12752174601E+04  0.12752174601E+04  0.00000000000E+00 0. -1.
         -2   -1    0    0    0  501 -0.00000000000E+00 -0.00000000000E+00 -0.12582387386E+04  0.12582387386E+04  0.00000000000E+00 0.  1.
        -24    2    1    2    0    0 -0.46188036433E+03 -0.77076153501E+03  0.65108806181E+03  0.11125977938E+04  0.80940544249E+02 0.  0.
        254    2    1    2    0    0  0.46188036433E+03  0.77076153501E+03 -0.63410934031E+03  0.14208584050E+04  0.89963166724E+03 0.  0.
         23    2    4    4    0    0  0.18195296615E+03 -0.12727971143E+03  0.65831680966E+02  0.24476983287E+03  0.79192512483E+02 0.  0.
         23    2    4    4    0    0  0.27992739818E+03  0.89804124644E+03 -0.69994102127E+03  0.11760885721E+04  0.91812132081E+02 0.  0.
          1    1    3    3  502    0 -0.35795524226E+03 -0.54239400176E+03  0.44119743630E+03  0.78547971737E+03  0.00000000000E+00 0. -1.
         -2    1    3    3    0  502 -0.10392512207E+03 -0.22836753325E+03  0.20989062551E+03  0.32711807642E+03  0.00000000000E+00 0.  1.
         13    1    5    5    0    0  0.28980852777E+02 -0.18026527248E+00  0.31747964819E+02  0.42986690887E+02  0.00000000000E+00 0. -1.
        -13    1    5    5    0    0  0.15297211338E+03 -0.12709944616E+03  0.34083716146E+02  0.20178314199E+03  0.00000000000E+00 0.  1.
          4    1    6    6  503    0  0.22024129810E+03  0.78121291473E+03 -0.62961238120E+03  0.10272349284E+04  0.00000000000E+00 0.  1.
         -4    1    6    6    0  503  0.59686100074E+02  0.11682833171E+03 -0.70328640077E+02  0.14885364372E+03  0.00000000000E+00 0. -1.
<mgrwt>
<rscale>  0 0.25333993E+04</rscale>
<asrwt>0</asrwt>
<pdfrwt beam="1">  1        1 0.19618730E+00 0.25333993E+04</pdfrwt>
<pdfrwt beam="2">  1       -2 0.19357519E+00 0.25333993E+04</pdfrwt>
<totfact> 0.10746986E+00</totfact>
</mgrwt>
</event>
<event>
12    5  0.5246737E-008  0.1590136E+04  0.7818608E-02  0.8826631E-01
          1   -1    0    0  501    0  0.00000000000E+00  0.00000000000E+00  0.12798311653E+04  0.12798311653E+04  0.00000000000E+00 0. -1.
         -2   -1    0    0    0  501 -0.00000000000E+00 -0.00000000000E+00 -0.49391923870E+03  0.49391923870E+03  0.00000000000E+00 0.  1.
        -24    2    1    2    0    0  0.58239929902E+02  0.25192520298E+03 -0.25625220315E+03  0.37342794396E+03  0.83216827527E+02 0.  0.
        254    2    1    2    0    0 -0.58239929902E+02 -0.25192520298E+03  0.10421641298E+04  0.14003224601E+04  0.89885411577E+03 0.  0.
         23    2    4    4    0    0  0.27542277369E+03 -0.23516621419E+03  0.97796710722E+03  0.10461176500E+04  0.82350605542E+02 0.  0.
         23    2    4    4    0    0 -0.33366270359E+03 -0.16758988794E+02  0.64197022572E+02  0.35420481010E+03  0.98631264399E+02 0.  0.
          3    1    3    3  502    0 -0.97341875845E+01  0.13458400218E+03 -0.14450104216E+03  0.19770725641E+03  0.00000000000E+00 0. -1.
         -4    1    3    3    0  502  0.67974117486E+02  0.11734120080E+03 -0.11175116098E+03  0.17572068756E+03  0.00000000000E+00 0.  1.
         13    1    5    5    0    0 -0.13618480121E+01 -0.80701191479E+01  0.64112300644E+02  0.64632565685E+02  0.00000000000E+00 0.  1.
        -13    1    5    5    0    0  0.27678462170E+03 -0.22709609504E+03  0.91385480658E+03  0.98148508430E+03  0.00000000000E+00 0. -1.
          3    1    6    6  503    0 -0.18083030867E+03  0.39686809914E+02  0.27038291865E+02  0.18709813640E+03  0.00000000000E+00 0. -1.
         -3    1    6    6    0  503 -0.15283239491E+03 -0.56445798708E+02  0.37158730707E+02  0.16710667370E+03  0.00000000000E+00 0.  1.
<mgrwt>
<rscale>  0 0.15901361E+04</rscale>
<asrwt>0</asrwt>
<pdfrwt beam="1">  1        1 0.19689710E+00 0.15901361E+04</pdfrwt>
<pdfrwt beam="2">  1       -2 0.75987576E-01 0.15901361E+04</pdfrwt>
<totfact> 0.12219007E+01</totfact>
</mgrwt>
</event>
<event>
12    5  0.5246737E-008  0.1625693E+04  0.7818608E-02  0.8804918E-01
          1   -1    0    0  501    0  0.00000000000E+00  0.00000000000E+00  0.14878585693E+04  0.14878585693E+04  0.00000000000E+00 0. -1.
         -4   -1    0    0    0  501 -0.00000000000E+00 -0.00000000000E+00 -0.44407398905E+03  0.44407398905E+03  0.00000000000E+00 0.  1.
        -24    2    1    2    0    0  0.41704396467E+03  0.25401667861E+03  0.69300685949E+03  0.85152427491E+03  0.79905832000E+02 0.  0.
        254    2    1    2    0    0 -0.41704396467E+03 -0.25401667861E+03  0.35077772074E+03  0.10804082834E+04  0.89765634182E+03 0.  0.
         23    2    4    4    0    0  0.57863038649E+02 -0.41743042656E+03 -0.41637998437E+02  0.43552992469E+03  0.10176590848E+03 0.  0.
         23    2    4    4    0    0 -0.47490700332E+03  0.16341374795E+03  0.39241571917E+03  0.64487835871E+03  0.98169679936E+02 0.  0.
          1    1    3    3  502    0  0.27066471797E+03  0.13597305626E+03  0.37465739867E+03  0.48178442063E+03  0.00000000000E+00 0. -1.
         -2    1    3    3    0  502  0.14637924670E+03  0.11804362235E+03  0.31834946082E+03  0.36973985428E+03  0.00000000000E+00 0.  1.
         13    1    5    5    0    0  0.11200848012E+01 -0.18926471257E+03  0.25593730028E+02  0.19099064121E+03  0.00000000000E+00 0. -1.
        -13    1    5    5    0    0  0.56742953848E+02 -0.22816571400E+03 -0.67231728464E+02  0.24453928349E+03  0.00000000000E+00 0.  1.
          3    1    6    6  503    0  0.44978068480E+01  0.28080541023E+01  0.86057027105E+01  0.10108093461E+02  0.00000000000E+00 0. -1.
         -3    1    6    6    0  503 -0.47940481017E+03  0.16060569385E+03  0.38381001646E+03  0.63477026525E+03  0.00000000000E+00 0.  1.
<mgrwt>
<rscale>  0 0.16256928E+04</rscale>
<asrwt>0</asrwt>
<pdfrwt beam="1">  1        1 0.22890132E+00 0.16256928E+04</pdfrwt>
<pdfrwt beam="2">  1       -4 0.68319076E-01 0.16256928E+04</pdfrwt>
<totfact> 0.61893991E+00</totfact>
</mgrwt>
</event>
<event>
12    5  0.5251522E-008  0.1680970E+04  0.7818608E-02  0.8772293E-01
         -2   -1    0    0    0  501 -0.00000000000E+00  0.00000000000E+00  0.74459103456E+03  0.74459103456E+03  0.00000000000E+00 0.  1.
          1   -1    0    0  501    0  0.00000000000E+00 -0.00000000000E+00 -0.94872894519E+03  0.94872894519E+03  0.00000000000E+00 0. -1.
        -24    2    1    2    0    0  0.53080002909E+02 -0.34110823533E+03  0.41609372490E+03  0.54644418205E+03  0.79340665996E+02 0.  0.
        254    2    1    2    0    0 -0.53080002909E+02  0.34110823533E+03 -0.62023163554E+03  0.11468757977E+04  0.90081324297E+03 0.  0.
         23    2    4    4    0    0 -0.58015951890E+02  0.56146006687E+03 -0.11098309364E+03  0.58368282346E+03  0.98818692418E+02 0.  0.
         23    2    4    4    0    0  0.49359489804E+01 -0.22035183154E+03 -0.50924854190E+03  0.56319297424E+03  0.96296186572E+02 0.  0.
          3    1    3    3  502    0  0.51900450703E+01 -0.94506326539E+01  0.45734760957E+02  0.46988502691E+02  0.00000000000E+00 0. -1.
         -4    1    3    3    0  502  0.47889957839E+02 -0.33165760267E+03  0.37035896395E+03  0.49945567936E+03  0.00000000000E+00 0.  1.
         13    1    5    5    0    0 -0.59960480209E+02  0.55967636920E+03 -0.11893265819E+03  0.57530676566E+03  0.00000000000E+00 0. -1.
        -13    1    5    5    0    0  0.19445283196E+01  0.17836976625E+01  0.79495645500E+01  0.83760578001E+01  0.00000000000E+00 0.  1.
          4    1    6    6  503    0 -0.35983008332E+02 -0.74799947677E+02 -0.12281130155E+03  0.14823098478E+03  0.00000000000E+00 0.  1.
         -4    1    6    6    0  503  0.40918957313E+02 -0.14555188386E+03 -0.38643724035E+03  0.41496198945E+03  0.00000000000E+00 0. -1.
<mgrwt>
<rscale>  0 0.16809700E+04</rscale>
<asrwt>0</asrwt>
<pdfrwt beam="1">  1        1 0.14595830E+00 0.16809700E+04</pdfrwt>
<pdfrwt beam="2">  1       -2 0.11455247E+00 0.16809700E+04</pdfrwt>
<totfact> 0.82617973E+00</totfact>
</mgrwt>
</event>
<event>
12    5  0.5246737E-008  0.1770273E+04  0.7818608E-02  0.8722269E-01
         -4   -1    0    0    0  501 -0.00000000000E+00  0.00000000000E+00  0.34219414533E+04  0.34219414533E+04  0.00000000000E+00 0.  1.
          1   -1    0    0  501    0  0.00000000000E+00 -0.00000000000E+00 -0.22895395017E+03  0.22895395017E+03  0.00000000000E+00 0. -1.
        -24    2    1    2    0    0  0.33270867663E+03  0.15966583146E+03  0.72589314836E+02  0.38420150707E+03  0.78443279933E+02 0.  0.
        254    2    1    2    0    0 -0.33270867663E+03 -0.15966583146E+03  0.31203981883E+04  0.32666938964E+04  0.89342930221E+03 0.  0.
         23    2    4    4    0    0 -0.61235332906E+03 -0.13009831739E+03  0.25093359863E+04  0.25878508593E+04  0.91119735388E+02 0.  0.
         23    2    4    4    0    0  0.27964465243E+03 -0.29567514066E+02  0.61106220206E+03  0.67884303714E+03  0.91408340778E+02 0.  0.
          3    1    3    3  502    0  0.31435434920E+03  0.13727889541E+03  0.48287347370E+02  0.34640412801E+03  0.00000000000E+00 0. -1.
         -4    1    3    3    0  502  0.18354327428E+02  0.22386936053E+02  0.24301967465E+02  0.37797379061E+02  0.00000000000E+00 0.  1.
         13    1    5    5    0    0 -0.17823018192E+03 -0.66711485828E+02  0.63826023850E+03  0.66602744098E+03  0.00000000000E+00 0.  1.
        -13    1    5    5    0    0 -0.43412314714E+03 -0.63386831566E+02  0.18710757478E+04  0.19218234183E+04  0.00000000000E+00 0. -1.
          4    1    6    6  503    0  0.55571349279E+02 -0.41317934886E+02  0.18037720825E+03  0.19321305303E+03  0.00000000000E+00 0. -1.
         -4    1    6    6    0  503  0.22407330315E+03  0.11750420820E+02  0.43068499381E+03  0.48562998411E+03  0.00000000000E+00 0.  1.
<mgrwt>
<rscale>  0 0.17702734E+04</rscale>
<asrwt>0</asrwt>
<pdfrwt beam="1">  1        1 0.35223687E-01 0.17702734E+04</pdfrwt>
<pdfrwt beam="2">  1       -4 0.52645250E+00 0.17702734E+04</pdfrwt>
<totfact> 0.41166488E-02</totfact>
</mgrwt>
</event>
<event>
12    5  0.5246737E-008  0.2923197E+04  0.7818608E-02  0.8266009E-01
          1   -1    0    0  501    0  0.00000000000E+00  0.00000000000E+00  0.13531667532E+04  0.13531667532E+04  0.00000000000E+00 0. -1.
         -2   -1    0    0    0  501 -0.00000000000E+00 -0.00000000000E+00 -0.15787185793E+04  0.15787185793E+04  0.00000000000E+00 0.  1.
        -24    2    1    2    0    0 -0.86530276443E+03  0.19535026420E+03 -0.10864999052E+04  0.14048967418E+04  0.79638002195E+02 0.  0.
        254    2    1    2    0    0  0.86530276443E+03 -0.19535026420E+03  0.86094807907E+03  0.15269885906E+04  0.89641059860E+03 0.  0.
         23    2    4    4    0    0  0.16848735166E+03  0.13601534714E+03  0.69418138715E+03  0.73252670370E+03  0.88427433688E+02 0.  0.
         23    2    4    4    0    0  0.69681541276E+03 -0.33136561133E+03  0.16676669191E+03  0.79446188695E+03  0.89463246371E+02 0.  0.
          1    1    3    3  502    0 -0.70479004314E+02 -0.59037412073E+01 -0.84144021594E+02  0.10991979157E+03  0.00000000000E+00 0. -1.
         -2    1    3    3    0  502 -0.79482376011E+03  0.20125400540E+03 -0.10023558836E+04  0.12949769502E+04  0.00000000000E+00 0.  1.
         13    1    5    5    0    0  0.87136769127E+02  0.12251202483E+03  0.48119225672E+03  0.50413093606E+03  0.00000000000E+00 0.  1.
        -13    1    5    5    0    0  0.81350582536E+02  0.13503322306E+02  0.21298913043E+03  0.22839576764E+03  0.00000000000E+00 0. -1.
          1    1    6    6  503    0  0.11132215084E+03 -0.90588149741E+02  0.24394783666E+02  0.14558138484E+03  0.00000000000E+00 0. -1.
         -1    1    6    6    0  503  0.58549326192E+03 -0.24077746159E+03  0.14237190825E+03  0.64888050211E+03  0.00000000000E+00 0.  1.
<mgrwt>
<rscale>  0 0.29231965E+04</rscale>
<asrwt>0</asrwt>
<pdfrwt beam="1">  1        1 0.20817950E+00 0.29231965E+04</pdfrwt>
<pdfrwt beam="2">  1       -2 0.24287978E+00 0.29231965E+04</pdfrwt>
<totfact> 0.44333241E-01</totfact>
</mgrwt>
</event>
<event>
12    5  0.5246737E-008  0.1477435E+04  0.7818608E-02  0.8899598E-01
         -2   -1    0    0    0  501 -0.00000000000E+00  0.00000000000E+00  0.13378726419E+04  0.13378726419E+04  0.00000000000E+00 0.  1.
          1   -1    0    0  501    0  0.00000000000E+00 -0.00000000000E+00 -0.40788911626E+03  0.40788911626E+03  0.00000000000E+00 0. -1.
        -24    2    1    2    0    0 -0.46322766642E+03 -0.54288476153E+02  0.35652576067E+03  0.59251769422E+03  0.80246435188E+02 0.  0.
        254    2    1    2    0    0  0.46322766642E+03  0.54288476153E+02  0.57345776494E+03  0.11532440639E+04  0.88520672908E+03 0.  0.
         23    2    4    4    0    0  0.66877545582E+03  0.32422903851E+02  0.17924291549E+03  0.69882652589E+03  0.88986715437E+02 0.  0.
         23    2    4    4    0    0 -0.20554778940E+03  0.21865572303E+02  0.39421484944E+03  0.45441753802E+03  0.91443722368E+02 0.  0.
          3    1    3    3  502    0 -0.36053470537E+03 -0.57169054445E+02  0.23851120914E+03  0.43605179904E+03  0.00000000000E+00 0. -1.
         -4    1    3    3    0  502 -0.10269296105E+03  0.28805782919E+01  0.11801455153E+03  0.15646589518E+03  0.00000000000E+00 0.  1.
         13    1    5    5    0    0  0.21085114516E+03  0.47582725412E+02  0.38786579733E+02  0.21960582857E+03  0.00000000000E+00 0.  1.
        -13    1    5    5    0    0  0.45792431067E+03 -0.15159821561E+02  0.14045633576E+03  0.47922069732E+03  0.00000000000E+00 0. -1.
          4    1    6    6  503    0 -0.15395052397E+03 -0.38074703152E+01  0.34797730904E+03  0.38053050899E+03  0.00000000000E+00 0. -1.
         -4    1    6    6    0  503 -0.51597265434E+02  0.25673042618E+02  0.46237540399E+02  0.73887029035E+02  0.00000000000E+00 0.  1.
<mgrwt>
<rscale>  0 0.14774352E+04</rscale>
<asrwt>0</asrwt>
<pdfrwt beam="1">  1        1 0.62752172E-01 0.14774352E+04</pdfrwt>
<pdfrwt beam="2">  1       -2 0.20582656E+00 0.14774352E+04</pdfrwt>
<totfact> 0.60274865E+00</totfact>
</mgrwt>
</event>
<event>
12    5  0.5246737E-008  0.2515026E+04  0.7818608E-02  0.8397652E-01
         -2   -1    0    0    0  501 -0.00000000000E+00  0.00000000000E+00  0.13246253398E+04  0.13246253398E+04  0.00000000000E+00 0.  1.
          1   -1    0    0  501    0  0.00000000000E+00 -0.00000000000E+00 -0.11938010756E+04  0.11938010756E+04  0.00000000000E+00 0. -1.
        -24    2    1    2    0    0 -0.99562289854E+03 -0.45719260993E+03 -0.11049858771E+03  0.11039695290E+04  0.79048999956E+02 0.  0.
        254    2    1    2    0    0  0.99562289854E+03  0.45719260993E+03  0.24132285193E+03  0.14144568864E+04  0.86148797211E+03 0.  0.
         23    2    4    4    0    0  0.11089058203E+04  0.37382348057E+03  0.71026577676E+02  0.11759018587E+04  0.91018095330E+02 0.  0.
         23    2    4    4    0    0 -0.11328292177E+03  0.83369129359E+02  0.17029627425E+03  0.23855502772E+03  0.90134611180E+02 0.  0.
          1    1    3    3  502    0 -0.70274000995E+03 -0.36033986101E+03 -0.69873216385E+02  0.79282444676E+03  0.00000000000E+00 0. -1.
         -2    1    3    3    0  502 -0.29288288859E+03 -0.96852748917E+02 -0.40625371325E+02  0.31114508223E+03  0.00000000000E+00 0.  1.
         13    1    5    5    0    0  0.71386709897E+03  0.23969152510E+03  0.89320660252E+02  0.75831157353E+03  0.00000000000E+00 0. -1.
        -13    1    5    5    0    0  0.39503872134E+03  0.13413195548E+03 -0.18294082575E+02  0.41759028520E+03  0.00000000000E+00 0.  1.
          1    1    6    6  503    0 -0.12534468076E+03  0.87461781505E+02  0.14731167072E+03  0.21227713148E+03  0.00000000000E+00 0. -1.
         -1    1    6    6    0  503  0.12061758989E+02 -0.40926521454E+01  0.22984603526E+02  0.26277896239E+02  0.00000000000E+00 0.  1.
<mgrwt>
<rscale>  0 0.25150262E+04</rscale>
<asrwt>0</asrwt>
<pdfrwt beam="1">  1        1 0.18366170E+00 0.25150262E+04</pdfrwt>
<pdfrwt beam="2">  1       -2 0.20378851E+00 0.25150262E+04</pdfrwt>
<totfact> 0.10559777E+00</totfact>
</mgrwt>
</event>
<event>
12    5  0.5246737E-008  0.1421279E+04  0.7818608E-02  0.8938558E-01
         -2   -1    0    0    0  501 -0.00000000000E+00  0.00000000000E+00  0.64452509854E+03  0.64452509854E+03  0.00000000000E+00 0.  1.
          1   -1    0    0  501    0  0.00000000000E+00 -0.00000000000E+00 -0.78353569625E+03  0.78353569625E+03  0.00000000000E+00 0. -1.
        -24    2    1    2    0    0 -0.16631775199E+03 -0.52164789258E+02  0.34417217089E+03  0.39395243901E+03  0.79757639898E+02 0.  0.
        254    2    1    2    0    0  0.16631775199E+03  0.52164789258E+02 -0.48318276860E+03  0.10341083558E+04  0.89751420254E+03 0.  0.
         23    2    4    4    0    0  0.52355922449E+03  0.10297296720E+02 -0.20689377318E+03  0.56991269362E+03  0.88176805952E+02 0.  0.
         23    2    4    4    0    0 -0.35724147250E+03  0.41867492538E+02 -0.27628899543E+03  0.46419566216E+03  0.98831407810E+02 0.  0.
          3    1    3    3  502    0  0.11874464010E+01 -0.73404645418E+01 -0.11649477030E+01  0.75265896524E+01  0.00000000000E+00 0. -1.
         -4    1    3    3    0  502 -0.16750519839E+03 -0.44824324717E+02  0.34533711859E+03  0.38642584936E+03  0.00000000000E+00 0.  1.
         13    1    5    5    0    0  0.11506596809E+03  0.59964798849E+01 -0.86335403278E+02  0.14397894514E+03  0.00000000000E+00 0.  1.
        -13    1    5    5    0    0  0.40849325639E+03  0.43008168350E+01 -0.12055836990E+03  0.42593374848E+03  0.00000000000E+00 0. -1.
          1    1    6    6  503    0 -0.11513264744E+03 -0.22135003411E+02 -0.12611688639E+03  0.17219452348E+03  0.00000000000E+00 0. -1.
         -1    1    6    6    0  503 -0.24210882506E+03  0.64002495949E+02 -0.15017210903E+03  0.29200113868E+03  0.00000000000E+00 0.  1.
<mgrwt>
<rscale>  0 0.14212789E+04</rscale>
<asrwt>0</asrwt>
<pdfrwt beam="1">  1        1 0.12054395E+00 0.14212789E+04</pdfrwt>
<pdfrwt beam="2">  1       -2 0.99157708E-01 0.14212789E+04</pdfrwt>
<totfact> 0.16426467E+01</totfact>
</mgrwt>
</event>
<event>
12    5  0.5246737E-008  0.1333962E+04  0.7818608E-02  0.9003058E-01
         -2   -1    0    0    0  501 -0.00000000000E+00  0.00000000000E+00  0.58148611694E+03  0.58148611694E+03  0.00000000000E+00 0.  1.
          1   -1    0    0  501    0  0.00000000000E+00 -0.00000000000E+00 -0.76504659231E+03  0.76504659231E+03  0.00000000000E+00 0. -1.
        -24    2    1    2    0    0  0.17865457149E+03 -0.26457188746E+03 -0.21219824288E+03  0.39174506834E+03  0.80748775451E+02 0.  0.
        254    2    1    2    0    0 -0.17865457149E+03  0.26457188746E+03  0.28637767510E+02  0.95478764091E+03  0.89937955166E+03 0.  0.
         23    2    4    4    0    0 -0.50513869570E+03  0.30064227836E+03 -0.75680906894E+02  0.59869389193E+03  0.84592524116E+02 0.  0.
         23    2    4    4    0    0  0.32648412421E+03 -0.36070390903E+02  0.10431867440E+03  0.35609374897E+03  0.89595846806E+02 0.  0.
          3    1    3    3  502    0  0.11434022454E+03 -0.20125788698E+03 -0.18829207083E+03  0.29838285466E+03  0.00000000000E+00 0. -1.
         -4    1    3    3    0  502  0.64314346952E+02 -0.63314000480E+02 -0.23906172056E+02  0.93362213678E+02  0.00000000000E+00 0.  1.
         13    1    5    5    0    0 -0.37556756137E+03  0.18043391637E+03 -0.64169934118E+02  0.42157463370E+03  0.00000000000E+00 0. -1.
        -13    1    5    5    0    0 -0.12957113433E+03  0.12020836199E+03 -0.11510972776E+02  0.17711925824E+03  0.00000000000E+00 0.  1.
          3    1    6    6  503    0  0.72127685427E+02  0.17180221915E+02 -0.46723708446E+01  0.74292624664E+02  0.00000000000E+00 0. -1.
         -3    1    6    6    0  503  0.25435643878E+03 -0.53250612818E+02  0.10899104525E+03  0.28180112431E+03  0.00000000000E+00 0.  1.
<mgrwt>
<rscale>  0 0.13339625E+04</rscale>
<asrwt>0</asrwt>
<pdfrwt beam="1">  1        1 0.11769948E+00 0.13339625E+04</pdfrwt>
<pdfrwt beam="2">  1       -2 0.89459403E-01 0.13339625E+04</pdfrwt>
<totfact> 0.21842218E+01</totfact>
</mgrwt>
</event>
<event>
12    5  0.5246737E-008  0.2088856E+04  0.7818608E-02  0.8566168E-01
         -2   -1    0    0    0  501 -0.00000000000E+00  0.00000000000E+00  0.17627466706E+04  0.17627466706E+04  0.00000000000E+00 0.  1.
          1   -1    0    0  501    0  0.00000000000E+00 -0.00000000000E+00 -0.61882387518E+03  0.61882387518E+03  0.00000000000E+00 0. -1.
        -24    2    1    2    0    0  0.62852200623E+02  0.16347140668E+03  0.14062698231E+04  0.14193034343E+04  0.78448221414E+02 0.  0.
        254    2    1    2    0    0 -0.62852200623E+02 -0.16347140668E+03 -0.26234702764E+03  0.96226711147E+03  0.90909775656E+03 0.  0.
         23    2    4    4    0    0  0.18421266233E+03 -0.14703143186E+03  0.26917971816E+03  0.36884956163E+03  0.89664550019E+02 0.  0.
         23    2    4    4    0    0 -0.24706486295E+03 -0.16439974814E+02 -0.53152674580E+03  0.59341754984E+03  0.91172296666E+02 0.  0.
          1    1    3    3  502    0 -0.12494296541E+02  0.72497004078E+02  0.57266492267E+03  0.57737079654E+03  0.00000000000E+00 0. -1.
         -2    1    3    3    0  502  0.75346497165E+02  0.90974402598E+02  0.83360490039E+03  0.84193263776E+03  0.00000000000E+00 0.  1.
         13    1    5    5    0    0  0.72055685904E+02 -0.63595653523E+02  0.17698776239E+03  0.20139785762E+03  0.00000000000E+00 0.  1.
        -13    1    5    5    0    0  0.11215697642E+03 -0.83435778339E+02  0.92191955767E+02  0.16745170401E+03  0.00000000000E+00 0. -1.
          4    1    6    6  503    0 -0.22508405427E+03 -0.18295817596E+02 -0.52317045844E+03  0.56982883133E+03  0.00000000000E+00 0. -1.
         -4    1    6    6    0  503 -0.21980808679E+02  0.18558427820E+01 -0.83562873631E+01  0.23588718513E+02  0.00000000000E+00 0.  1.
<mgrwt>
<rscale>  0 0.20888559E+04</rscale>
<asrwt>0</asrwt>
<pdfrwt beam="1">  1        1 0.95203674E-01 0.20888559E+04</pdfrwt>
<pdfrwt beam="2">  1       -2 0.27119179E+00 0.20888559E+04</pdfrwt>
<totfact> 0.12584936E+00</totfact>
</mgrwt>
</event>
<event>
12    5  0.5246737E-008  0.1757458E+04  0.7818608E-02  0.8729256E-01
         -2   -1    0    0    0  501 -0.00000000000E+00  0.00000000000E+00  0.62614528413E+03  0.62614528413E+03  0.00000000000E+00 0.  1.
          1   -1    0    0  501    0  0.00000000000E+00 -0.00000000000E+00 -0.12332029589E+04  0.12332029589E+04  0.00000000000E+00 0. -1.
        -24    2    1    2    0    0  0.26103219071E+03 -0.28753638868E+03 -0.77031225114E+03  0.86446853716E+03  0.55766549742E+02 0.  0.
        254    2    1    2    0    0 -0.26103219071E+03  0.28753638868E+03  0.16325457633E+03  0.99487970591E+03  0.90128718683E+03 0.  0.
         23    2    4    4    0    0 -0.56670986978E+03  0.23014483021E+03 -0.27309446580E+02  0.61890546555E+03  0.90396073106E+02 0.  0.
         23    2    4    4    0    0  0.30567767907E+03  0.57391558471E+02  0.19056402291E+03  0.37597424037E+03  0.91155625863E+02 0.  0.
          1    1    3    3  502    0  0.16929910872E+03 -0.22343784630E+03 -0.54206805975E+03  0.61026587712E+03  0.00000000000E+00 0. -1.
         -2    1    3    3    0  502  0.91733081990E+02 -0.64098542386E+02 -0.22824419139E+03  0.25420266004E+03  0.00000000000E+00 0.  1.
         13    1    5    5    0    0 -0.78694124519E+02  0.68010704517E+02 -0.17101803090E+01  0.10402473686E+03  0.00000000000E+00 0. -1.
        -13    1    5    5    0    0 -0.48801574526E+03  0.16213412569E+03 -0.25599266271E+02  0.51488072868E+03  0.00000000000E+00 0.  1.
          1    1    6    6  503    0  0.58385400346E+02  0.49724097752E+02  0.45445145261E+02  0.89143715979E+02  0.00000000000E+00 0. -1.
         -1    1    6    6    0  503  0.24729227872E+03  0.76674607190E+01  0.14511887765E+03  0.28683052439E+03  0.00000000000E+00 0.  1.
<mgrwt>
<rscale>  0 0.17574575E+04</rscale>
<asrwt>0</asrwt>
<pdfrwt beam="1">  1        1 0.18972353E+00 0.17574575E+04</pdfrwt>
<pdfrwt beam="2">  1       -2 0.96330045E-01 0.17574575E+04</pdfrwt>
<totfact> 0.75738456E+00</totfact>
</mgrwt>
</event>
<event>
12    5  0.5246737E-008  0.1063601E+04  0.7818608E-02  0.9241413E-01
          1   -1    0    0  501    0  0.00000000000E+00  0.00000000000E+00  0.10608191582E+04  0.10608191582E+04  0.00000000000E+00 0. -1.
         -2   -1    0    0    0  501 -0.00000000000E+00 -0.00000000000E+00 -0.26659750260E+03  0.26659750260E+03  0.00000000000E+00 0.  1.
        -24    2    1    2    0    0 -0.18198330820E+02 -0.10721845336E+03  0.20817785336E+03  0.24851750211E+03  0.81215480311E+02 0.  0.
        254    2    1    2    0    0  0.18198330820E+02  0.10721845336E+03  0.58604380222E+03  0.10788991587E+04  0.89930477618E+03 0.  0.
         23    2    4    4    0    0  0.34885824034E+03  0.33592182689E+03  0.32256396896E+03  0.58949633451E+03  0.94407990664E+02 0.  0.
         23    2    4    4    0    0 -0.33065990952E+03 -0.22870337353E+03  0.26347983326E+03  0.48940282415E+03  0.91936352580E+02 0.  0.
          3    1    3    3  502    0 -0.31096057909E+02 -0.82477460232E+02  0.20134233771E+03  0.21979134018E+03  0.00000000000E+00 0. -1.
         -4    1    3    3    0  502  0.12897727090E+02 -0.24740993125E+02  0.68355156423E+01  0.28726161926E+02  0.00000000000E+00 0.  1.
         13    1    5    5    0    0  0.19309971452E+03  0.20180527372E+03  0.13091188692E+03  0.30846521747E+03  0.00000000000E+00 0. -1.
        -13    1    5    5    0    0  0.15575852582E+03  0.13411655317E+03  0.19165208204E+03  0.28103111704E+03  0.00000000000E+00 0.  1.
          1    1    6    6  503    0 -0.13055281244E+03 -0.14094517018E+03  0.14614151566E+03  0.24138541885E+03  0.00000000000E+00 0. -1.
         -1    1    6    6    0  503 -0.20010709708E+03 -0.87758203358E+02  0.11733831760E+03  0.24801740531E+03  0.00000000000E+00 0.  1.
<mgrwt>
<rscale>  0 0.10636009E+04</rscale>
<asrwt>0</asrwt>
<pdfrwt beam="1">  1        1 0.16320294E+00 0.10636009E+04</pdfrwt>
<pdfrwt beam="2">  1       -2 0.41015001E-01 0.10636009E+04</pdfrwt>
<totfact> 0.66916511E+01</totfact>
</mgrwt>
</event>
<event>
12    5  0.5246737E-008  0.1689546E+04  0.7818608E-02  0.8767349E-01
         -2   -1    0    0    0  501 -0.00000000000E+00  0.00000000000E+00  0.47650136179E+03  0.47650136179E+03  0.00000000000E+00 0.  1.
          1   -1    0    0  501    0  0.00000000000E+00 -0.00000000000E+00 -0.14976696618E+04  0.14976696618E+04  0.00000000000E+00 0. -1.
        -24    2    1    2    0    0  0.49279464870E+03 -0.32781696175E+03 -0.31034667025E+03  0.67309773519E+03  0.80218322015E+02 0.  0.
        254    2    1    2    0    0 -0.49279464870E+03  0.32781696175E+03 -0.71082162976E+03  0.13010732884E+04  0.91499387226E+03 0.  0.
         23    2    4    4    0    0 -0.71242110099E+03  0.32778816068E+03 -0.71550108992E+03  0.10654417382E+04  0.90749019143E+02 0.  0.
         23    2    4    4    0    0  0.21962645229E+03  0.28801067083E-01  0.46794601594E+01  0.23563155017E+03  0.85232333721E+02 0.  0.
          3    1    3    3  502    0 -0.68575328055E+00 -0.62932493052E+01  0.17061533779E+01  0.65563864841E+01  0.00000000000E+00 0. -1.
         -4    1    3    3    0  502  0.49348040198E+03 -0.32152371244E+03 -0.31205282363E+03  0.66654134871E+03  0.00000000000E+00 0.  1.
         13    1    5    5    0    0 -0.63068510429E+03  0.29715158282E+03 -0.67030445715E+03  0.96714571251E+03  0.00000000000E+00 0. -1.
        -13    1    5    5    0    0 -0.81735996704E+02  0.30636577857E+02 -0.45196632765E+02  0.98296025725E+02  0.00000000000E+00 0.  1.
          1    1    6    6  503    0  0.21691899261E+03 -0.16134223641E+02 -0.29871906768E+01  0.21753869963E+03  0.00000000000E+00 0. -1.
         -1    1    6    6    0  503  0.27074596820E+01  0.16163024708E+02  0.76666508362E+01  0.18092850541E+02  0.00000000000E+00 0.  1.
<mgrwt>
<rscale>  0 0.16895463E+04</rscale>
<asrwt>0</asrwt>
<pdfrwt beam="1">  1        1 0.23041071E+00 0.16895463E+04</pdfrwt>
<pdfrwt beam="2">  1       -2 0.73307903E-01 0.16895463E+04</pdfrwt>
<totfact> 0.92169807E+00</totfact>
</mgrwt>
</event>
<event>
12    5  0.5246737E-008  0.1087535E+04  0.7818608E-02  0.9217427E-01
         -2   -1    0    0    0  501 -0.00000000000E+00  0.00000000000E+00  0.16081643232E+03  0.16081643232E+03  0.00000000000E+00 0.  1.
          1   -1    0    0  501    0  0.00000000000E+00 -0.00000000000E+00 -0.18386368586E+04  0.18386368586E+04  0.00000000000E+00 0. -1.
        -24    2    1    2    0    0 -0.10007147651E+03  0.64169962353E+02 -0.11514982923E+03  0.18459634449E+03  0.81757218323E+02 0.  0.
        254    2    1    2    0    0  0.10007147651E+03 -0.64169962353E+02 -0.15626705971E+04  0.18148569464E+04  0.91522361020E+03 0.  0.
         23    2    4    4    0    0  0.34093221909E+03 -0.37000831165E+03 -0.72879309470E+03  0.89039792315E+03  0.92348026268E+02 0.  0.
         23    2    4    4    0    0 -0.24086074259E+03  0.30583834930E+03 -0.83387750235E+03  0.92445902329E+03  0.87873793568E+02 0.  0.
          1    1    3    3  502    0 -0.74531689997E+02  0.65299240817E+02 -0.12291054782E+03  0.15787959473E+03  0.00000000000E+00 0. -1.
         -2    1    3    3    0  502 -0.25539786508E+02 -0.11292784636E+01  0.77607185919E+01  0.26716749761E+02  0.00000000000E+00 0.  1.
         13    1    5    5    0    0  0.22792538576E+02 -0.26373758693E+02 -0.18061513382E+02  0.39259307533E+02  0.00000000000E+00 0.  1.
        -13    1    5    5    0    0  0.31813968052E+03 -0.34363455296E+03 -0.71073158132E+03  0.85113861562E+03  0.00000000000E+00 0. -1.
          3    1    6    6  503    0 -0.23313494451E+03  0.28034786408E+03 -0.71463634185E+03  0.80227920847E+03  0.00000000000E+00 0. -1.
         -3    1    6    6    0  503 -0.77257980764E+01  0.25490485215E+02 -0.11924116050E+03  0.12217981483E+03  0.00000000000E+00 0.  1.
<mgrwt>
<rscale>  0 0.10875349E+04</rscale>
<asrwt>0</asrwt>
<pdfrwt beam="1">  1        1 0.28286720E+00 0.10875349E+04</pdfrwt>
<pdfrwt beam="2">  1       -2 0.24740990E-01 0.10875349E+04</pdfrwt>
<totfact> 0.49163899E+01</totfact>
</mgrwt>
</event>
<event>
12    5  0.5246737E-008  0.1637756E+04  0.7818608E-02  0.8797683E-01
         -2   -1    0    0    0  501 -0.00000000000E+00  0.00000000000E+00  0.42933741551E+03  0.42933741551E+03  0.00000000000E+00 0.  1.
          1   -1    0    0  501    0  0.00000000000E+00 -0.00000000000E+00 -0.15618514927E+04  0.15618514927E+04  0.00000000000E+00 0. -1.
        -24    2    1    2    0    0  0.83077207473E+02 -0.19663849216E+03 -0.10516814342E+04  0.10763051439E+04  0.82646262922E+02 0.  0.
        254    2    1    2    0    0 -0.83077207473E+02  0.19663849216E+03 -0.80832643026E+02  0.91488376433E+03  0.88595139091E+03 0.  0.
         23    2    4    4    0    0  0.49540324526E+02 -0.32224819875E+03 -0.14438240048E+03  0.36794120481E+03  0.90754103358E+02 0.  0.
         23    2    4    4    0    0 -0.13261753200E+03  0.51888669091E+03  0.63549757455E+02  0.54694255952E+03  0.90976831894E+02 0.  0.
          3    1    3    3  502    0  0.76649580977E+02 -0.20316627933E+03 -0.10319809418E+04  0.10545787593E+04  0.00000000000E+00 0. -1.
         -4    1    3    3    0  502  0.64276264961E+01  0.65277871683E+01 -0.19700492372E+02  0.21726384591E+02  0.00000000000E+00 0.  1.
         13    1    5    5    0    0  0.41911393529E+01 -0.25437092478E+03 -0.90013031564E+02  0.26986010982E+03  0.00000000000E+00 0.  1.
        -13    1    5    5    0    0  0.45349185173E+02 -0.67877273973E+02 -0.54369368917E+02  0.98081094989E+02  0.00000000000E+00 0. -1.
          2    1    6    6  503    0 -0.14530459755E+03  0.49807570033E+03  0.61819944960E+02  0.52250792810E+03  0.00000000000E+00 0.  1.
         -2    1    6    6    0  503  0.12687065556E+02  0.20810990579E+02  0.17298124946E+01  0.24434631418E+02  0.00000000000E+00 0. -1.
<mgrwt>
<rscale>  0 0.16377561E+04</rscale>
<asrwt>0</asrwt>
<pdfrwt beam="1">  1        1 0.24028484E+00 0.16377561E+04</pdfrwt>
<pdfrwt beam="2">  1       -2 0.66051911E-01 0.16377561E+04</pdfrwt>
<totfact> 0.10494051E+01</totfact>
</mgrwt>
</event>
<event>
12    5  0.5246737E-008  0.1786984E+04  0.7818608E-02  0.8713252E-01
         -2   -1    0    0    0  501 -0.00000000000E+00  0.00000000000E+00  0.26164583954E+03  0.26164583954E+03  0.00000000000E+00 0.  1.
          1   -1    0    0  501    0  0.00000000000E+00 -0.00000000000E+00 -0.30511783748E+04  0.30511783748E+04  0.00000000000E+00 0. -1.
        -24    2    1    2    0    0 -0.45916568047E+03  0.21880214898E+03 -0.18460306395E+04  0.19164395154E+04  0.78764153262E+02 0.  0.
        254    2    1    2    0    0  0.45916568047E+03 -0.21880214898E+03 -0.94350189581E+03  0.13963846989E+04  0.89497871345E+03 0.  0.
         23    2    4    4    0    0 -0.12469404196E+02  0.18814977568E+03  0.54446748507E+02  0.21633214374E+03  0.90990789986E+02 0.  0.
         23    2    4    4    0    0  0.47163508467E+03 -0.40695192466E+03 -0.99794864432E+03  0.11800525552E+04  0.92590573371E+02 0.  0.
          3    1    3    3  502    0 -0.32704200453E+03  0.14573469882E+03 -0.11603966749E+04  0.12143786552E+04  0.00000000000E+00 0. -1.
         -4    1    3    3    0  502 -0.13212367594E+03  0.73067450158E+02 -0.68563396462E+03  0.70206086022E+03  0.00000000000E+00 0.  1.
         13    1    5    5    0    0  0.34780452557E+02  0.12364192178E+03  0.23398912758E+02  0.13055463922E+03  0.00000000000E+00 0.  1.
        -13    1    5    5    0    0 -0.47249856753E+02  0.64507853894E+02  0.31047835749E+02  0.85777504521E+02  0.00000000000E+00 0. -1.
          3    1    6    6  503    0  0.17282766920E+03 -0.11078120733E+03 -0.38994692023E+03  0.44068183504E+03  0.00000000000E+00 0. -1.
         -3    1    6    6    0  503  0.29880741547E+03 -0.29617071733E+03 -0.60800172409E+03  0.73937072016E+03  0.00000000000E+00 0.  1.
<mgrwt>
<rscale>  0 0.17869842E+04</rscale>
<asrwt>0</asrwt>
<pdfrwt beam="1">  1        1 0.46941203E+00 0.17869842E+04</pdfrwt>
<pdfrwt beam="2">  1       -2 0.40253209E-01 0.17869842E+04</pdfrwt>
<totfact> 0.26669767E+00</totfact>
</mgrwt>
</event>
<event>
12    5  0.5246737E-008  0.1617747E+04  0.7818608E-02  0.8809719E-01
          1   -1    0    0  501    0  0.00000000000E+00  0.00000000000E+00  0.11638700679E+04  0.11638700679E+04  0.00000000000E+00 0. -1.
         -2   -1    0    0    0  501 -0.00000000000E+00 -0.00000000000E+00 -0.56215573400E+03  0.56215573400E+03  0.00000000000E+00 0.  1.
        -24    2    1    2    0    0 -0.21153016698E+03 -0.43320505421E+03  0.55562822744E+03  0.73981739985E+03  0.78711037708E+02 0.  0.
        254    2    1    2    0    0  0.21153016698E+03  0.43320505421E+03  0.46086106417E+02  0.98620840200E+03  0.85911084991E+03 0.  0.
         23    2    4    4    0    0  0.30030003888E+03  0.65328371692E+03  0.86991311546E+02  0.72889031871E+03  0.82181994836E+02 0.  0.
         23    2    4    4    0    0 -0.88769871898E+02 -0.22007866271E+03 -0.40905205129E+02  0.25731808329E+03  0.90689868482E+02 0.  0.
          3    1    3    3  502    0 -0.11785803851E+03 -0.29011508614E+03  0.40483389937E+03  0.51180832987E+03  0.00000000000E+00 0. -1.
         -4    1    3    3    0  502 -0.93672128465E+02 -0.14308996807E+03  0.15079432807E+03  0.22800906998E+03  0.00000000000E+00 0.  1.
         13    1    5    5    0    0  0.28707593623E+03  0.56625578097E+03  0.65211469777E+02  0.63820900843E+03  0.00000000000E+00 0.  1.
        -13    1    5    5    0    0  0.13224102646E+02  0.87027935954E+02  0.21779841769E+02  0.90681310283E+02  0.00000000000E+00 0. -1.
          1    1    6    6  503    0  0.47419215288E+01 -0.16604008706E+02  0.18834890929E+02  0.25552534927E+02  0.00000000000E+00 0. -1.
         -1    1    6    6    0  503 -0.93511793427E+02 -0.20347465401E+03 -0.59740096057E+02  0.23176554837E+03  0.00000000000E+00 0.  1.
<mgrwt>
<rscale>  0 0.16177469E+04</rscale>
<asrwt>0</asrwt>
<pdfrwt beam="1">  1        1 0.17905693E+00 0.16177469E+04</pdfrwt>
<pdfrwt beam="2">  1       -2 0.86485497E-01 0.16177469E+04</pdfrwt>
<totfact> 0.11055979E+01</totfact>
</mgrwt>
</event>
<event>
12    5  0.5246737E-008  0.1442650E+04  0.7818608E-02  0.8923512E-01
          3   -1    0    0  501    0  0.00000000000E+00  0.00000000000E+00  0.37977421328E+03  0.37977421328E+03  0.00000000000E+00 0. -1.
         -4   -1    0    0    0  501 -0.00000000000E+00 -0.00000000000E+00 -0.13700503546E+04  0.13700503546E+04  0.00000000000E+00 0.  1.
        -24    2    1    2    0    0 -0.34746093889E+03 -0.46656114768E+02 -0.61058951863E+03  0.70863317854E+03  0.80221720056E+02 0.  0.
        254    2    1    2    0    0  0.34746093889E+03  0.46656114768E+02 -0.37968662264E+03  0.10411913893E+04  0.90388698444E+03 0.  0.
         23    2    4    4    0    0 -0.29143452145E+02  0.18074122680E+03 -0.55796247397E+03  0.59433227158E+03  0.91607831593E+02 0.  0.
         23    2    4    4    0    0  0.37660439103E+03 -0.13408511203E+03  0.17827585133E+03  0.44685911773E+03  0.89950582614E+02 0.  0.
          1    1    3    3  502    0 -0.33237699287E+03 -0.57272559825E+02 -0.54885711498E+03  0.64420396161E+03  0.00000000000E+00 0. -1.
         -2    1    3    3    0  502 -0.15083946024E+02  0.10616445058E+02 -0.61732403653E+02  0.64429216929E+02  0.00000000000E+00 0.  1.
         13    1    5    5    0    0 -0.42582429039E+02  0.29207154456E+02 -0.16759463696E+03  0.17536899233E+03  0.00000000000E+00 0. -1.
        -13    1    5    5    0    0  0.13438976894E+02  0.15153407235E+03 -0.39036783701E+03  0.41896327924E+03  0.00000000000E+00 0.  1.
          2    1    6    6  503    0  0.39400699289E+02 -0.15988258536E+02 -0.90053915656E+01  0.43464198977E+02  0.00000000000E+00 0. -1.
         -2    1    6    6    0  503  0.33720369175E+03 -0.11809685350E+03  0.18728124289E+03  0.40339491875E+03  0.00000000000E+00 0.  1.
<mgrwt>
<rscale>  0 0.14426501E+04</rscale>
<asrwt>0</asrwt>
<pdfrwt beam="1">  1        3 0.58426802E-01 0.14426501E+04</pdfrwt>
<pdfrwt beam="2">  1       -4 0.21077698E+00 0.14426501E+04</pdfrwt>
<totfact> 0.71330252E-01</totfact>
</mgrwt>
</event>
<event>
12    5  0.5246737E-008  0.1133132E+04  0.7818608E-02  0.9173487E-01
         -2   -1    0    0    0  501 -0.00000000000E+00  0.00000000000E+00  0.50351735392E+03  0.50351735392E+03  0.00000000000E+00 0.  1.
          1   -1    0    0  501    0  0.00000000000E+00 -0.00000000000E+00 -0.63750976631E+03  0.63750976631E+03  0.00000000000E+00 0. -1.
        -24    2    1    2    0    0  0.60290952537E+02  0.19714338991E+03 -0.92697403086E+02  0.23973583959E+03  0.79874583593E+02 0.  0.
        254    2    1    2    0    0 -0.60290952537E+02 -0.19714338991E+03 -0.41295009306E+02  0.90129128064E+03  0.87642465712E+03 0.  0.
         23    2    4    4    0    0 -0.92266727035E+01 -0.43727420842E+03 -0.29601052736E+03  0.53622478802E+03  0.92848942602E+02 0.  0.
         23    2    4    4    0    0 -0.51064279834E+02  0.24013081851E+03  0.25471551805E+03  0.36506649262E+03  0.90128675919E+02 0.  0.
          1    1    3    3  502    0  0.48193550903E+02  0.16118238176E+03 -0.10678661870E+03  0.19926304342E+03  0.00000000000E+00 0. -1.
         -2    1    3    3    0  502  0.12097401634E+02  0.35961008150E+02  0.14089215619E+02  0.40472796175E+02  0.00000000000E+00 0.  1.
         13    1    5    5    0    0 -0.44970884213E+02 -0.24156507419E+03 -0.13549016232E+03  0.28059517027E+03  0.00000000000E+00 0. -1.
        -13    1    5    5    0    0  0.35744211510E+02 -0.19570913423E+03 -0.16052036503E+03  0.25562961774E+03  0.00000000000E+00 0.  1.
          1    1    6    6  503    0 -0.64960028497E+02  0.23491308958E+03  0.22434196260E+03  0.33126014119E+03  0.00000000000E+00 0. -1.
         -1    1    6    6    0  503  0.13895748663E+02  0.52177289285E+01  0.30373555446E+02  0.33806351423E+02  0.00000000000E+00 0.  1.
<mgrwt>
<rscale>  0 0.11331323E+04</rscale>
<asrwt>0</asrwt>
<pdfrwt beam="1">  1        1 0.98078426E-01 0.11331323E+04</pdfrwt>
<pdfrwt beam="2">  1       -2 0.77464208E-01 0.11331323E+04</pdfrwt>
<totfact> 0.40554165E+01</totfact>
</mgrwt>
</event>
<event>
12    5  0.5246737E-008  0.2194196E+04  0.7818608E-02  0.8520848E-01
         -4   -1    0    0    0  501 -0.00000000000E+00  0.00000000000E+00  0.10731649085E+04  0.10731649085E+04  0.00000000000E+00 0.  1.
          1   -1    0    0  501    0  0.00000000000E+00 -0.00000000000E+00 -0.11215648023E+04  0.11215648023E+04  0.00000000000E+00 0. -1.
        -24    2    1    2    0    0 -0.23351236095E+02  0.82417153335E+01 -0.91793899661E+03  0.92185676420E+03  0.81207672743E+02 0.  0.
        254    2    1    2    0    0  0.23351236095E+02 -0.82417153335E+01  0.86953910286E+03  0.12728729466E+04  0.92924382201E+03 0.  0.
         23    2    4    4    0    0  0.18301027492E+02  0.11637529260E+03  0.10351661993E+04  0.10457330605E+04  0.90057966118E+02 0.  0.
         23    2    4    4    0    0  0.50502086035E+01 -0.12461700793E+03 -0.16562709647E+03  0.22713988612E+03  0.92764699677E+02 0.  0.
          3    1    3    3  502    0 -0.92063954033E+01 -0.35385950769E+02 -0.30040832340E+03  0.30262531949E+03  0.00000000000E+00 0. -1.
         -4    1    3    3    0  502 -0.14144840692E+02  0.43627666103E+02 -0.61753067321E+03  0.61923144471E+03  0.00000000000E+00 0.  1.
         13    1    5    5    0    0  0.15177323332E+02  0.24658504263E+02  0.64054744617E+02  0.70295115648E+02  0.00000000000E+00 0. -1.
        -13    1    5    5    0    0  0.31237041593E+01  0.91716788338E+02  0.97111145472E+03  0.97543794486E+03  0.00000000000E+00 0.  1.
          3    1    6    6  503    0 -0.14393977588E+02 -0.76100205091E+02 -0.32266046181E+02  0.83901880442E+02  0.00000000000E+00 0. -1.
         -3    1    6    6    0  503  0.19444186191E+02 -0.48516802844E+02 -0.13336105029E+03  0.14323800568E+03  0.00000000000E+00 0.  1.
<mgrwt>
<rscale>  0 0.21941960E+04</rscale>
<asrwt>0</asrwt>
<pdfrwt beam="1">  1        1 0.17254843E+00 0.21941960E+04</pdfrwt>
<pdfrwt beam="2">  1       -4 0.16510229E+00 0.21941960E+04</pdfrwt>
<totfact> 0.12398945E+00</totfact>
</mgrwt>
</event>
<event>
12    5  0.5246737E-008  0.1758091E+04  0.7818608E-02  0.8728909E-01
         -2   -1    0    0    0  501 -0.00000000000E+00  0.00000000000E+00  0.40005414881E+03  0.40005414881E+03  0.00000000000E+00 0.  1.
          1   -1    0    0  501    0  0.00000000000E+00 -0.00000000000E+00 -0.19315412755E+04  0.19315412755E+04  0.00000000000E+00 0. -1.
        -24    2    1    2    0    0 -0.49893547371E+03  0.12700841450E+03 -0.55474976946E+02  0.52386387503E+03  0.79297807113E+02 0.  0.
        254    2    1    2    0    0  0.49893547371E+03 -0.12700841450E+03 -0.14760121498E+04  0.18077315493E+04  0.90786218327E+03 0.  0.
         23    2    4    4    0    0  0.70385935081E+03 -0.19934180866E+03 -0.13557788263E+04  0.15432182252E+04  0.90725533072E+02 0.  0.
         23    2    4    4    0    0 -0.20492387710E+03  0.72333394154E+02 -0.12023332350E+03  0.26451332413E+03  0.91023794943E+02 0.  0.
          1    1    3    3  502    0 -0.58404858886E+02 -0.96682198925E+01 -0.13443485158E+02  0.60706913202E+02  0.00000000000E+00 0. -1.
         -2    1    3    3    0  502 -0.44053061482E+03  0.13667663439E+03 -0.42031491788E+02  0.46315696183E+03  0.00000000000E+00 0.  1.
         13    1    5    5    0    0  0.38378803467E+02 -0.40125202230E+01 -0.12085097989E+03  0.12686209921E+03  0.00000000000E+00 0. -1.
        -13    1    5    5    0    0  0.66548054734E+03 -0.19532928843E+03 -0.12349278464E+04  0.14163561260E+04  0.00000000000E+00 0.  1.
          4    1    6    6  503    0 -0.58935428614E+02  0.59777087236E+02 -0.18017909797E+02  0.85856449832E+02  0.00000000000E+00 0. -1.
         -4    1    6    6    0  503 -0.14598844849E+03  0.12556306918E+02 -0.10221541370E+03  0.17865687429E+03  0.00000000000E+00 0.  1.
<mgrwt>
<rscale>  0 0.17580911E+04</rscale>
<asrwt>0</asrwt>
<pdfrwt beam="1">  1        1 0.29716020E+00 0.17580911E+04</pdfrwt>
<pdfrwt beam="2">  1       -2 0.61546792E-01 0.17580911E+04</pdfrwt>
<totfact> 0.67667296E+00</totfact>
</mgrwt>
</event>
<event>
12    5  0.5246737E-008  0.2141120E+04  0.7818608E-02  0.8543343E-01
          1   -1    0    0  501    0  0.00000000000E+00  0.00000000000E+00  0.12394071000E+04  0.12394071000E+04  0.00000000000E+00 0. -1.
         -2   -1    0    0    0  501 -0.00000000000E+00 -0.00000000000E+00 -0.92471523846E+03  0.92471523846E+03  0.00000000000E+00 0.  1.
        -24    2    1    2    0    0  0.53745739643E+02 -0.11660827848E+03 -0.74454195598E+03  0.75880222472E+03  0.70370426148E+02 0.  0.
        254    2    1    2    0    0 -0.53745739643E+02  0.11660827848E+03  0.10592338175E+04  0.14053201137E+04  0.91458309998E+03 0.  0.
         23    2    4    4    0    0 -0.63811318179E+02  0.20438590057E+03 -0.89227523306E+02  0.24973099093E+03  0.92512357187E+02 0.  0.
         23    2    4    4    0    0  0.10065578536E+02 -0.87777622098E+02  0.11484613408E+04  0.11555891228E+04  0.92825333838E+02 0.  0.
          3    1    3    3  502    0  0.52348825217E+01  0.24127708924E+01 -0.36013372985E+01  0.67966968987E+01  0.00000000000E+00 0. -1.
         -4    1    3    3    0  502  0.48510857121E+02 -0.11902104937E+03 -0.74094061869E+03  0.75200552782E+03  0.00000000000E+00 0.  1.
         13    1    5    5    0    0 -0.43781069061E+02  0.20693663323E+03 -0.89154544221E+02  0.22953885278E+03  0.00000000000E+00 0.  1.
        -13    1    5    5    0    0 -0.20030249118E+02 -0.25507326586E+01 -0.72979085020E-01  0.20192138143E+02  0.00000000000E+00 0. -1.
          3    1    6    6  503    0  0.96679587451E+01 -0.14289988491E+02  0.76242028126E+03  0.76261547222E+03  0.00000000000E+00 0. -1.
         -3    1    6    6    0  503  0.39761979093E+00 -0.73487633606E+02  0.38604105953E+03  0.39297365056E+03  0.00000000000E+00 0.  1.
<mgrwt>
<rscale>  0 0.21411199E+04</rscale>
<asrwt>0</asrwt>
<pdfrwt beam="1">  1        1 0.19067802E+00 0.21411199E+04</pdfrwt>
<pdfrwt beam="2">  1       -2 0.14226388E+00 0.21411199E+04</pdfrwt>
<totfact> 0.27699814E+00</totfact>
</mgrwt>
</event>
<event>
12    5  0.5246737E-008  0.1585855E+04  0.7818608E-02  0.8829286E-01
         -2   -1    0    0    0  501 -0.00000000000E+00  0.00000000000E+00  0.72933234767E+03  0.72933234767E+03  0.00000000000E+00 0.  1.
          1   -1    0    0  501    0  0.00000000000E+00 -0.00000000000E+00 -0.86206739773E+03  0.86206739773E+03  0.00000000000E+00 0. -1.
        -24    2    1    2    0    0 -0.30384604656E+03 -0.41177700245E+03  0.72822457261E+02  0.52336131156E+03  0.81983122643E+02 0.  0.
        254    2    1    2    0    0  0.30384604656E+03  0.41177700245E+03 -0.20555750732E+03  0.10680384338E+04  0.91464172635E+03 0.  0.
         23    2    4    4    0    0 -0.46620392194E+02  0.20966476986E+03  0.32098283146E+03  0.39739862532E+03  0.93610430126E+02 0.  0.
         23    2    4    4    0    0  0.35046643875E+03  0.20211223259E+03 -0.52654033878E+03  0.67063980852E+03  0.94005027284E+02 0.  0.
          1    1    3    3  502    0 -0.30867433155E+03 -0.40846493967E+03  0.74246658316E+02  0.51733549672E+03  0.00000000000E+00 0. -1.
         -2    1    3    3    0  502  0.48282849899E+01 -0.33120627794E+01 -0.14242010553E+01  0.60258148365E+01  0.00000000000E+00 0.  1.
         13    1    5    5    0    0  0.23605500568E+02  0.32678622096E+02  0.32691049802E+02  0.51901991641E+02  0.00000000000E+00 0. -1.
        -13    1    5    5    0    0 -0.70225892762E+02  0.17698614777E+03  0.28829178165E+03  0.34549663368E+03  0.00000000000E+00 0.  1.
          1    1    6    6  503    0  0.13750981900E+03  0.61570025277E+02 -0.12943782279E+03  0.19863023008E+03  0.00000000000E+00 0. -1.
         -1    1    6    6    0  503  0.21295661976E+03  0.14054220731E+03 -0.39710251599E+03  0.47200957844E+03  0.00000000000E+00 0.  1.
<mgrwt>
<rscale>  0 0.15858545E+04</rscale>
<asrwt>0</asrwt>
<pdfrwt beam="1">  1        1 0.13262575E+00 0.15858545E+04</pdfrwt>
<pdfrwt beam="2">  1       -2 0.11220498E+00 0.15858545E+04</pdfrwt>
<totfact> 0.10310343E+01</totfact>
</mgrwt>
</event>
<event>
12    5  0.5246737E-008  0.2680816E+04  0.7818608E-02  0.8341256E-01
          1   -1    0    0  501    0  0.00000000000E+00  0.00000000000E+00  0.21934941341E+04  0.21934941341E+04  0.00000000000E+00 0. -1.
         -2   -1    0    0    0  501 -0.00000000000E+00 -0.00000000000E+00 -0.81910137228E+03  0.81910137228E+03  0.00000000000E+00 0.  1.
        -24    2    1    2    0    0 -0.31373495745E+03 -0.19552128018E+02  0.18386170580E+04  0.18675898981E+04  0.92560423841E+02 0.  0.
        254    2    1    2    0    0  0.31373495745E+03  0.19552128018E+02 -0.46422429616E+03  0.11450056084E+04  0.99835952282E+03 0.  0.
         23    2    4    4    0    0  0.43746100583E+02  0.48853037845E+03 -0.21583534124E+03  0.54283178358E+03  0.86636013026E+02 0.  0.
         23    2    4    4    0    0  0.26998885686E+03 -0.46897825043E+03 -0.24838895492E+03  0.60217382479E+03  0.89898054090E+02 0.  0.
          1    1    3    3  502    0 -0.22751536456E+03 -0.17719282138E+02  0.15383401999E+04  0.15551745190E+04  0.00000000000E+00 0. -1.
         -2    1    3    3    0  502 -0.86219592885E+02 -0.18328458794E+01  0.30027685817E+03  0.31241537906E+03  0.00000000000E+00 0.  1.
         13    1    5    5    0    0  0.40952169366E+02  0.21657398482E+03 -0.56167009725E+02  0.22745571890E+03  0.00000000000E+00 0. -1.
        -13    1    5    5    0    0  0.27939312166E+01  0.27195639363E+03 -0.15966833152E+03  0.31537606468E+03  0.00000000000E+00 0.  1.
          1    1    6    6  503    0  0.36776337961E+02 -0.13203666379E+03 -0.83304267612E+02  0.16039258281E+03  0.00000000000E+00 0. -1.
         -1    1    6    6    0  503  0.23321251890E+03 -0.33694158664E+03 -0.16508468730E+03  0.44178124198E+03  0.00000000000E+00 0.  1.
<mgrwt>
<rscale>  0 0.26808163E+04</rscale>
<asrwt>0</asrwt>
<pdfrwt beam="1">  1        1 0.33746063E+00 0.26808163E+04</pdfrwt>
<pdfrwt beam="2">  1       -2 0.12601560E+00 0.26808163E+04</pdfrwt>
<totfact> 0.79495526E-01</totfact>
</mgrwt>
</event>
<event>
12    5  0.6349963E-008  0.2129902E+04  0.7818608E-02  0.8548184E-01
          1   -1    0    0  501    0  0.00000000000E+00  0.00000000000E+00  0.85017987869E+03  0.85017987869E+03  0.00000000000E+00 0. -1.
         -2   -1    0    0    0  501 -0.00000000000E+00 -0.00000000000E+00 -0.13339775309E+04  0.13339775309E+04  0.00000000000E+00 0.  1.
        -24    2    1    2    0    0  0.40917165537E+03 -0.65933065000E+03  0.20984909801E+03  0.80775576762E+03  0.79337170342E+02 0.  0.
        254    2    1    2    0    0 -0.40917165537E+03  0.65933065000E+03 -0.69364675021E+03  0.13764016420E+04  0.90066493009E+03 0.  0.
         23    2    4    4    0    0 -0.26232449836E+03  0.57090506313E+03 -0.89445476517E+03  0.10971658111E+04  0.94745747234E+02 0.  0.
         23    2    4    4    0    0 -0.14684715700E+03  0.88425586870E+02  0.20080801496E+03  0.27923583082E+03  0.90915446474E+02 0.  0.
          1    1    3    3  502    0  0.35096720410E+03 -0.51616642114E+03  0.14943235899E+03  0.64182223597E+03  0.00000000000E+00 0. -1.
         -4    1    3    3    0  502  0.58204451262E+02 -0.14316422886E+03  0.60416739019E+02  0.16593353165E+03  0.00000000000E+00 0.  1.
         13    1    5    5    0    0  0.27978369986E+01  0.14525463103E+02 -0.62105952432E+01  0.16043330810E+02  0.00000000000E+00 0. -1.
        -13    1    5    5    0    0 -0.26512233536E+03  0.55637960003E+03 -0.88824416993E+03  0.10811224803E+04  0.00000000000E+00 0.  1.
          4    1    6    6  503    0  0.73068953828E+01  0.18279476899E+02  0.49342361815E+01  0.20294745195E+02  0.00000000000E+00 0. -1.
         -4    1    6    6    0  503 -0.15415405238E+03  0.70146109971E+02  0.19587377878E+03  0.25894108563E+03  0.00000000000E+00 0.  1.
<mgrwt>
<rscale>  0 0.21299022E+04</rscale>
<asrwt>0</asrwt>
<pdfrwt beam="1">  1        1 0.13079690E+00 0.21299022E+04</pdfrwt>
<pdfrwt beam="2">  1       -2 0.20522731E+00 0.21299022E+04</pdfrwt>
<totfact> 0.19780895E+00</totfact>
</mgrwt>
</event>
<event>
12    5  0.5246737E-008  0.1542406E+04  0.7818608E-02  0.8856733E-01
          1   -1    0    0  501    0  0.00000000000E+00  0.00000000000E+00  0.15999449891E+04  0.15999449891E+04  0.00000000000E+00 0. -1.
         -2   -1    0    0    0  501 -0.00000000000E+00 -0.00000000000E+00 -0.37173400781E+03  0.37173400781E+03  0.00000000000E+00 0.  1.
        -24    2    1    2    0    0 -0.41427971635E+03 -0.10024417960E+03  0.66866849850E+03  0.79710600167E+03  0.81140853359E+02 0.  0.
        254    2    1    2    0    0  0.41427971635E+03  0.10024417960E+03  0.55954248277E+03  0.11745729952E+04  0.94066856658E+03 0.  0.
         23    2    4    4    0    0 -0.17226130153E+03  0.20268862613E+03  0.49369717977E+03  0.56906282694E+03  0.96638297411E+02 0.  0.
         23    2    4    4    0    0  0.58654101787E+03 -0.10244444653E+03  0.65845302997E+02  0.60551016827E+03  0.88214112718E+02 0.  0.
          1    1    3    3  502    0 -0.38785445965E+03 -0.83648670867E+02  0.57686200031E+03  0.70014137815E+03  0.00000000000E+00 0. -1.
         -2    1    3    3    0  502 -0.26425256696E+02 -0.16595508731E+02  0.91806498199E+02  0.96964623513E+02  0.00000000000E+00 0.  1.
         13    1    5    5    0    0 -0.12971035071E+03  0.17603319117E+03  0.31506444352E+03  0.38350757886E+03  0.00000000000E+00 0. -1.
        -13    1    5    5    0    0 -0.42550950814E+02  0.26655434957E+02  0.17863273625E+03  0.18555524808E+03  0.00000000000E+00 0.  1.
          4    1    6    6  503    0  0.19354564625E+03 -0.74867306987E+02  0.33693299118E+02  0.21023860074E+03  0.00000000000E+00 0. -1.
         -4    1    6    6    0  503  0.39299537163E+03 -0.27577139546E+02  0.32152003879E+02  0.39527156753E+03  0.00000000000E+00 0.  1.
<mgrwt>
<rscale>  0 0.15424059E+04</rscale>
<asrwt>0</asrwt>
<pdfrwt beam="1">  1        1 0.24614538E+00 0.15424059E+04</pdfrwt>
<pdfrwt beam="2">  1       -2 0.57189848E-01 0.15424059E+04</pdfrwt>
<totfact> 0.13528523E+01</totfact>
</mgrwt>
</event>
<event>
12    5  0.5246737E-008  0.2699917E+04  0.7818608E-02  0.8335032E-01
         -2   -1    0    0    0  501 -0.00000000000E+00  0.00000000000E+00  0.17072286979E+04  0.17072286979E+04  0.00000000000E+00 0.  1.
          1   -1    0    0  501    0  0.00000000000E+00 -0.00000000000E+00 -0.10674541182E+04  0.10674541182E+04  0.00000000000E+00 0. -1.
        -24    2    1    2    0    0  0.54549062551E+03 -0.99487809481E+03  0.69024788917E+03  0.13304466826E+04  0.79396352206E+02 0.  0.
        254    2    1    2    0    0 -0.54549062551E+03  0.99487809481E+03 -0.50473309446E+02  0.14442361335E+04  0.89214797448E+03 0.  0.
         23    2    4    4    0    0 -0.50566120028E+03  0.13234554592E+03 -0.19156355811E+03  0.56443593149E+03  0.93181172828E+02 0.  0.
         23    2    4    4    0    0 -0.39829425228E+02  0.86253254889E+03  0.14109024866E+03  0.87980020204E+03  0.92699278456E+02 0.  0.
          3    1    3    3  502    0  0.14142850814E+03 -0.19338365817E+03  0.13485572206E+03  0.27492785951E+03  0.00000000000E+00 0. -1.
         -4    1    3    3    0  502  0.40406211737E+03 -0.80149443664E+03  0.55539216711E+03  0.10555188231E+04  0.00000000000E+00 0.  1.
         13    1    5    5    0    0 -0.43016791724E+03  0.78249742694E+02 -0.14577589856E+03  0.46088835075E+03  0.00000000000E+00 0.  1.
        -13    1    5    5    0    0 -0.75493283036E+02  0.54095803222E+02 -0.45787659551E+02  0.10354758074E+03  0.00000000000E+00 0. -1.
          3    1    6    6  503    0 -0.43145574139E+02  0.17149602694E+03  0.16429564169E+02  0.17760168469E+03  0.00000000000E+00 0. -1.
         -3    1    6    6    0  503  0.33161489104E+01  0.69103652195E+03  0.12466068449E+03  0.70219851735E+03  0.00000000000E+00 0.  1.
<mgrwt>
<rscale>  0 0.26999173E+04</rscale>
<asrwt>0</asrwt>
<pdfrwt beam="1">  1        1 0.16422371E+00 0.26999173E+04</pdfrwt>
<pdfrwt beam="2">  1       -2 0.26265057E+00 0.26999173E+04</pdfrwt>
<totfact> 0.55255970E-01</totfact>
</mgrwt>
</event>
<event>
12    5  0.5246737E-008  0.2379064E+04  0.7818608E-02  0.8447383E-01
         -2   -1    0    0    0  501 -0.00000000000E+00  0.00000000000E+00  0.95910775692E+03  0.95910775692E+03  0.00000000000E+00 0.  1.
          1   -1    0    0  501    0  0.00000000000E+00 -0.00000000000E+00 -0.14753159150E+04  0.14753159150E+04  0.00000000000E+00 0. -1.
        -24    2    1    2    0    0  0.77440222770E+03  0.32691983238E+03 -0.81487423161E+03  0.11734035403E+04  0.79249404292E+02 0.  0.
        254    2    1    2    0    0 -0.77440222770E+03 -0.32691983238E+03  0.29866607355E+03  0.12610201316E+04  0.89128837176E+03 0.  0.
         23    2    4    4    0    0 -0.71592073652E+03  0.63323770665E+02  0.42117671188E+03  0.83796943877E+03  0.90832575496E+02 0.  0.
         23    2    4    4    0    0 -0.58481491184E+02 -0.39024360304E+03 -0.12251063834E+03  0.42305069279E+03  0.90845350123E+02 0.  0.
          1    1    3    3  502    0  0.56449709264E+03  0.20520180622E+03 -0.60620070561E+03  0.85337216052E+03  0.00000000000E+00 0. -1.
         -2    1    3    3    0  502  0.20990513507E+03  0.12171802616E+03 -0.20867352600E+03  0.32003137982E+03  0.00000000000E+00 0.  1.
         13    1    5    5    0    0 -0.43887016566E+03  0.83076409973E+02  0.25706230378E+03  0.51535399507E+03  0.00000000000E+00 0. -1.
        -13    1    5    5    0    0 -0.27705057085E+03 -0.19752639308E+02  0.16411440810E+03  0.32261544370E+03  0.00000000000E+00 0.  1.
          4    1    6    6  503    0 -0.59338476475E+02 -0.38690710449E+03 -0.13189422442E+03  0.41305477691E+03  0.00000000000E+00 0.  1.
         -4    1    6    6    0  503  0.85698529084E+00 -0.33364985507E+01  0.93835860860E+01  0.99959158760E+01  0.00000000000E+00 0. -1.
<mgrwt>
<rscale>  0 0.23790645E+04</rscale>
<asrwt>0</asrwt>
<pdfrwt beam="1">  1        1 0.22697168E+00 0.23790645E+04</pdfrwt>
<pdfrwt beam="2">  1       -2 0.14755504E+00 0.23790645E+04</pdfrwt>
<totfact> 0.16786077E+00</totfact>
</mgrwt>
</event>
<event>
12    5  0.5246737E-008  0.4635260E+04  0.7818608E-02  0.7887375E-01
         -4   -1    0    0    0  501 -0.00000000000E+00  0.00000000000E+00  0.18242371445E+04  0.18242371445E+04  0.00000000000E+00 0.  1.
          3   -1    0    0  501    0  0.00000000000E+00 -0.00000000000E+00 -0.29444681447E+04  0.29444681447E+04  0.00000000000E+00 0. -1.
        -24    2    1    2    0    0 -0.94096382229E+02 -0.21764739799E+04 -0.10198870017E+04  0.24066836207E+04  0.77868091226E+02 0.  0.
        254    2    1    2    0    0  0.94096382229E+02  0.21764739799E+04 -0.10034399858E+03  0.23620216685E+04  0.90729506228E+03 0.  0.
         23    2    4    4    0    0  0.12681714035E+03  0.14366690552E+04 -0.48270542332E+03  0.15236343930E+04  0.91414859971E+02 0.  0.
         23    2    4    4    0    0 -0.32720758123E+02  0.73980492479E+03  0.38236142474E+03  0.83838727556E+03  0.91164630960E+02 0.  0.
          3    1    3    3  502    0 -0.10410165383E+03 -0.19928667633E+04 -0.92030583309E+03  0.21975709128E+04  0.00000000000E+00 0. -1.
         -4    1    3    3    0  502  0.10005271601E+02 -0.18360721665E+03 -0.99581168576E+02  0.20911270789E+03  0.00000000000E+00 0.  1.
         13    1    5    5    0    0 -0.44364957900E+01  0.33044679742E+02  0.58506771509E+00  0.33346299020E+02  0.00000000000E+00 0. -1.
        -13    1    5    5    0    0  0.13125363614E+03  0.14036243754E+04 -0.48329049103E+03  0.14902880939E+04  0.00000000000E+00 0.  1.
          3    1    6    6  503    0  0.23512212623E+02  0.82024267626E+02  0.33191832281E+02  0.91556006641E+02  0.00000000000E+00 0. -1.
         -3    1    6    6    0  503 -0.56232970746E+02  0.65778065716E+03  0.34916959246E+03  0.74683126891E+03  0.00000000000E+00 0.  1.
<mgrwt>
<rscale>  0 0.46352597E+04</rscale>
<asrwt>0</asrwt>
<pdfrwt beam="1">  1        3 0.45299509E+00 0.46352597E+04</pdfrwt>
<pdfrwt beam="2">  1       -4 0.28065187E+00 0.46352597E+04</pdfrwt>
<totfact> 0.40402889E-04</totfact>
</mgrwt>
</event>
<event>
12    5  0.5246737E-008  0.3320999E+04  0.7818608E-02  0.8157573E-01
          3   -1    0    0  501    0  0.00000000000E+00  0.00000000000E+00  0.88236841685E+03  0.88236841685E+03  0.00000000000E+00 0. -1.
         -4   -1    0    0    0  501 -0.00000000000E+00 -0.00000000000E+00 -0.31248383816E+04  0.31248383816E+04  0.00000000000E+00 0.  1.
        -24    2    1    2    0    0 -0.10809369624E+04  0.10286097309E+04 -0.14758289904E+04  0.21000693915E+04  0.75878487666E+02 0.  0.
        254    2    1    2    0    0  0.10809369624E+04 -0.10286097309E+04 -0.76664097438E+03  0.19071374070E+04  0.90717804776E+03 0.  0.
         23    2    4    4    0    0  0.11145283569E+04 -0.11405239934E+04 -0.67040535038E+03  0.17325129616E+04  0.95861307868E+02 0.  0.
         23    2    4    4    0    0 -0.33591394519E+02  0.11191426248E+03 -0.96235624003E+02  0.17462444541E+03  0.87058702474E+02 0.  0.
          1    1    3    3  502    0 -0.88127240744E+00 -0.13576627160E+01 -0.18765864361E+01  0.24781980871E+01  0.00000000000E+00 0. -1.
         -2    1    3    3    0  502 -0.10800556900E+04  0.10299673936E+04 -0.14739524040E+04  0.20975911934E+04  0.00000000000E+00 0.  1.
         13    1    5    5    0    0  0.11004381635E+04 -0.11061508591E+04 -0.65186390495E+03  0.16909939165E+04  0.00000000000E+00 0.  1.
        -13    1    5    5    0    0  0.14090193376E+02 -0.34373134298E+02 -0.18541445427E+02  0.41519045141E+02  0.00000000000E+00 0. -1.
          2    1    6    6  503    0 -0.89782842494E+01  0.90747121630E+02 -0.10684761495E+03  0.14047085994E+03  0.00000000000E+00 0.  1.
         -2    1    6    6    0  503 -0.24613110270E+02  0.21167140846E+02  0.10611990944E+02  0.34153585471E+02  0.00000000000E+00 0. -1.
<mgrwt>
<rscale>  0 0.33209991E+04</rscale>
<asrwt>0</asrwt>
<pdfrwt beam="1">  1        3 0.13574898E+00 0.33209991E+04</pdfrwt>
<pdfrwt beam="2">  1       -4 0.48074438E+00 0.33209991E+04</pdfrwt>
<totfact> 0.13444609E-03</totfact>
</mgrwt>
</event>
<event>
12    5  0.5246737E-008  0.1385884E+04  0.7818608E-02  0.8964100E-01
         -2   -1    0    0    0  501 -0.00000000000E+00  0.00000000000E+00  0.96474128747E+03  0.96474128747E+03  0.00000000000E+00 0.  1.
          1   -1    0    0  501    0  0.00000000000E+00 -0.00000000000E+00 -0.49771731153E+03  0.49771731153E+03  0.00000000000E+00 0. -1.
        -24    2    1    2    0    0  0.11129640512E+03  0.16933909896E+03 -0.22319166692E+03  0.31185529123E+03  0.79853504979E+02 0.  0.
        254    2    1    2    0    0 -0.11129640512E+03 -0.16933909896E+03  0.69021564285E+03  0.11506033078E+04  0.89801320590E+03 0.  0.
         23    2    4    4    0    0 -0.42106974800E+03 -0.19420800085E+03  0.10921447504E+03  0.48539768083E+03  0.93094719095E+02 0.  0.
         23    2    4    4    0    0  0.30977334288E+03  0.24868901885E+02  0.58100116781E+03  0.66520562693E+03  0.91423098116E+02 0.  0.
          3    1    3    3  502    0  0.89410873624E+02  0.10031866814E+03 -0.18868370736E+03  0.23164559336E+03  0.00000000000E+00 0. -1.
         -4    1    3    3    0  502  0.21885531498E+02  0.69020430825E+02 -0.34507959558E+02  0.80209697874E+02  0.00000000000E+00 0.  1.
         13    1    5    5    0    0 -0.17494037064E+03 -0.75679249701E+02 -0.15483393063E+01  0.19061447865E+03  0.00000000000E+00 0. -1.
        -13    1    5    5    0    0 -0.24612937736E+03 -0.11852875114E+03  0.11076281435E+03  0.29478320218E+03  0.00000000000E+00 0.  1.
          3    1    6    6  503    0  0.30590351695E+03  0.23301601798E+02  0.51775916493E+03  0.60182595424E+03  0.00000000000E+00 0. -1.
         -3    1    6    6    0  503  0.38698259253E+01  0.15673000870E+01  0.63242002880E+02  0.63379672692E+02  0.00000000000E+00 0.  1.
<mgrwt>
<rscale>  0 0.13858837E+04</rscale>
<asrwt>0</asrwt>
<pdfrwt beam="1">  1        1 0.76571894E-01 0.13858837E+04</pdfrwt>
<pdfrwt beam="2">  1       -2 0.14842174E+00 0.13858837E+04</pdfrwt>
<totfact> 0.11722385E+01</totfact>
</mgrwt>
</event>
<event>
12    5  0.5246737E-008  0.1987892E+04  0.7818608E-02  0.8612303E-01
          1   -1    0    0  501    0  0.00000000000E+00  0.00000000000E+00  0.19474243564E+04  0.19474243564E+04  0.00000000000E+00 0. -1.
         -2   -1    0    0    0  501 -0.00000000000E+00 -0.00000000000E+00 -0.50729998388E+03  0.50729998388E+03  0.00000000000E+00 0.  1.
        -24    2    1    2    0    0  0.58328726603E+02 -0.76340330783E+03  0.34975606563E+03  0.84536435896E+03  0.78260738586E+02 0.  0.
        254    2    1    2    0    0 -0.58328726603E+02  0.76340330783E+03  0.10903683068E+04  0.16093599813E+04  0.90274561976E+03 0.  0.
         23    2    4    4    0    0 -0.17241593155E+03 -0.69356794155E+02 -0.25293792855E+02  0.20943735184E+03  0.93201985182E+02 0.  0.
         23    2    4    4    0    0  0.11408720494E+03  0.83276010199E+03  0.11156620997E+04  0.13999226294E+04  0.92607612502E+02 0.  0.
          1    1    3    3  502    0  0.19150906305E+02 -0.75240486687E+02  0.57861128271E+02  0.96828705527E+02  0.00000000000E+00 0. -1.
         -2    1    3    3    0  502  0.39177820298E+02 -0.68816282114E+03  0.29189493736E+03  0.74853565343E+03  0.00000000000E+00 0.  1.
         13    1    5    5    0    0 -0.22226748761E+02 -0.18232447277E+02  0.29881145057E+02  0.41464844437E+02  0.00000000000E+00 0. -1.
        -13    1    5    5    0    0 -0.15018918279E+03 -0.51124346878E+02 -0.55174937913E+02  0.16797250740E+03  0.00000000000E+00 0.  1.
          3    1    6    6  503    0 -0.76090997657E+01  0.61984463371E+02  0.11622409980E+03  0.13193943108E+03  0.00000000000E+00 0. -1.
         -3    1    6    6    0  503  0.12169630471E+03  0.77077563861E+03  0.99943799990E+03  0.12679831984E+04  0.00000000000E+00 0.  1.
<mgrwt>
<rscale>  0 0.19878917E+04</rscale>
<asrwt>0</asrwt>
<pdfrwt beam="1">  1        1 0.29960374E+00 0.19878917E+04</pdfrwt>
<pdfrwt beam="2">  1       -2 0.78046153E-01 0.19878917E+04</pdfrwt>
<totfact> 0.38549328E+00</totfact>
</mgrwt>
</event>
<event>
12    5  0.5246737E-008  0.2157998E+04  0.7818608E-02  0.8536116E-01
          1   -1    0    0  501    0  0.00000000000E+00  0.00000000000E+00  0.14433648802E+04  0.14433648802E+04  0.00000000000E+00 0. -1.
         -2   -1    0    0    0  501 -0.00000000000E+00 -0.00000000000E+00 -0.80661473272E+03  0.80661473272E+03  0.00000000000E+00 0.  1.
        -24    2    1    2    0    0  0.12058760960E+03 -0.68029936517E+03 -0.32088583615E+03  0.76549818114E+03  0.75307022553E+02 0.  0.
        254    2    1    2    0    0 -0.12058760960E+03  0.68029936517E+03  0.95763598365E+03  0.14844814318E+04  0.89959426762E+03 0.  0.
         23    2    4    4    0    0 -0.30269510772E+03  0.69858225725E+03  0.10144664098E+04  0.12714782926E+04  0.88732482738E+02 0.  0.
         23    2    4    4    0    0  0.18210749811E+03 -0.18282892078E+02 -0.56830426169E+02  0.21300313921E+03  0.92969000019E+02 0.  0.
          1    1    3    3  502    0 -0.18328862623E+01 -0.17742367670E+03 -0.82421010996E+02  0.19564187583E+03  0.00000000000E+00 0. -1.
         -2    1    3    3    0  502  0.12242049587E+03 -0.50287568847E+03 -0.23846482516E+03  0.56985630531E+03  0.00000000000E+00 0.  1.
         13    1    5    5    0    0 -0.17360283557E+02  0.93352410208E+02  0.16194690154E+03  0.18773079357E+03  0.00000000000E+00 0. -1.
        -13    1    5    5    0    0 -0.28533482416E+03  0.60522984704E+03  0.85251950829E+03  0.10837474990E+04  0.00000000000E+00 0.  1.
          3    1    6    6  503    0  0.54513567562E+02  0.30489209581E+02  0.58048171935E+01  0.62729712672E+02  0.00000000000E+00 0. -1.
         -3    1    6    6    0  503  0.12759393055E+03 -0.48772101659E+02 -0.62635243362E+02  0.15027342654E+03  0.00000000000E+00 0.  1.
<mgrwt>
<rscale>  0 0.21579985E+04</rscale>
<asrwt>0</asrwt>
<pdfrwt beam="1">  1        1 0.22205614E+00 0.21579985E+04</pdfrwt>
<pdfrwt beam="2">  1       -2 0.12409457E+00 0.21579985E+04</pdfrwt>
<totfact> 0.28097177E+00</totfact>
</mgrwt>
</event>
<event>
12    5  0.5246737E-008  0.2250986E+04  0.7818608E-02  0.8497501E-01
          1   -1    0    0  501    0  0.00000000000E+00  0.00000000000E+00  0.14887684906E+04  0.14887684906E+04  0.00000000000E+00 0. -1.
         -2   -1    0    0    0  501 -0.00000000000E+00 -0.00000000000E+00 -0.85086052815E+03  0.85086052815E+03  0.00000000000E+00 0.  1.
        -24    2    1    2    0    0  0.51630876523E+03  0.43691057977E+03  0.97034429442E+03  0.11850817939E+04  0.73384008183E+02 0.  0.
        254    2    1    2    0    0 -0.51630876523E+03 -0.43691057977E+03 -0.33243633200E+03  0.11545472249E+04  0.87464266065E+03 0.  0.
         23    2    4    4    0    0 -0.27652424451E+02 -0.57916026808E+03 -0.21148299204E+03  0.62440565556E+03  0.94689461279E+02 0.  0.
         23    2    4    4    0    0 -0.48865634078E+03  0.14224968831E+03 -0.12095333996E+03  0.53014156929E+03  0.86025460409E+02 0.  0.
          1    1    3    3  502    0  0.45823780115E+03  0.41349377880E+03  0.89352338267E+03  0.10859756088E+04  0.00000000000E+00 0. -1.
         -2    1    3    3    0  502  0.58070964079E+02  0.23416800962E+02  0.76820911750E+02  0.99106185067E+02  0.00000000000E+00 0.  1.
         13    1    5    5    0    0 -0.58718968202E+02 -0.29508411108E+03 -0.12535050858E+03  0.32593757046E+03  0.00000000000E+00 0. -1.
        -13    1    5    5    0    0  0.31066543750E+02 -0.28407615700E+03 -0.86132483466E+02  0.29846808510E+03  0.00000000000E+00 0.  1.
          2    1    6    6  503    0  0.22232429662E+01  0.44618455558E+01 -0.54204933015E+01  0.73642801876E+01  0.00000000000E+00 0.  1.
         -2    1    6    6    0  503 -0.49087958374E+03  0.13778784276E+03 -0.11553284666E+03  0.52277728911E+03  0.00000000000E+00 0. -1.
<mgrwt>
<rscale>  0 0.22509859E+04</rscale>
<asrwt>0</asrwt>
<pdfrwt beam="1">  1        1 0.22904131E+00 0.22509859E+04</pdfrwt>
<pdfrwt beam="2">  1       -2 0.13090162E+00 0.22509859E+04</pdfrwt>
<totfact> 0.22650354E+00</totfact>
</mgrwt>
</event>
<event>
12    5  0.5246737E-008  0.2712701E+04  0.7818608E-02  0.8330896E-01
          1   -1    0    0  501    0  0.00000000000E+00  0.00000000000E+00  0.20454775827E+04  0.20454775827E+04  0.00000000000E+00 0. -1.
         -2   -1    0    0    0  501 -0.00000000000E+00 -0.00000000000E+00 -0.89939255358E+03  0.89939255358E+03  0.00000000000E+00 0.  1.
        -24    2    1    2    0    0  0.10100329142E+03 -0.12022893676E+04  0.57622207008E+03  0.13393416030E+04  0.78119569153E+02 0.  0.
        254    2    1    2    0    0 -0.10100329142E+03  0.12022893676E+04  0.56986295901E+03  0.16055285333E+04  0.89290351707E+03 0.  0.
         23    2    4    4    0    0 -0.18017887248E+03  0.65449756723E+03 -0.14144743211E+03  0.69971521198E+03  0.93608280768E+02 0.  0.
         23    2    4    4    0    0  0.79175581057E+02  0.54779180036E+03  0.71131039112E+03  0.90581332129E+03  0.90502327778E+02 0.  0.
          3    1    3    3  502    0  0.63878565014E+02 -0.62547302183E+03  0.34155459395E+03  0.71551136452E+03  0.00000000000E+00 0. -1.
         -4    1    3    3    0  502  0.37124726410E+02 -0.57681634576E+03  0.23466747613E+03  0.62383023845E+03  0.00000000000E+00 0.  1.
         13    1    5    5    0    0 -0.65074855926E+02  0.25873045378E+03 -0.10216652363E+03  0.28568196152E+03  0.00000000000E+00 0.  1.
        -13    1    5    5    0    0 -0.11510401655E+03  0.39576711345E+03 -0.39280908477E+02  0.41403325046E+03  0.00000000000E+00 0. -1.
          2    1    6    6  503    0  0.21389803320E+02  0.28758463483E+03  0.43487712795E+03  0.52180509990E+03  0.00000000000E+00 0. -1.
         -2    1    6    6    0  503  0.57785777738E+02  0.26020716553E+03  0.27643326318E+03  0.38400822139E+03  0.00000000000E+00 0.  1.
<mgrwt>
<rscale>  0 0.27127015E+04</rscale>
<asrwt>0</asrwt>
<pdfrwt beam="1">  1        1 0.31468886E+00 0.27127015E+04</pdfrwt>
<pdfrwt beam="2">  1       -2 0.13836809E+00 0.27127015E+04</pdfrwt>
<totfact> 0.78784482E-01</totfact>
</mgrwt>
</event>
<event>
12    5  0.5246737E-008  0.2081367E+04  0.7818608E-02  0.8569496E-01
          1   -1    0    0  501    0  0.00000000000E+00  0.00000000000E+00  0.26058144456E+04  0.26058144456E+04  0.00000000000E+00 0. -1.
         -2   -1    0    0    0  501 -0.00000000000E+00 -0.00000000000E+00 -0.41561739384E+03  0.41561739384E+03  0.00000000000E+00 0.  1.
        -24    2    1    2    0    0  0.40125980272E+03  0.46034140520E+03  0.12294667113E+03  0.62828509989E+03  0.81869678046E+02 0.  0.
        254    2    1    2    0    0 -0.40125980272E+03 -0.46034140520E+03  0.20672503806E+04  0.23931467396E+04  0.10395689213E+04 0.  0.
         23    2    4    4    0    0  0.46002976328E+01 -0.30215502922E+03  0.18869439599E+04  0.19130366343E+04  0.88503287398E+02 0.  0.
         23    2    4    4    0    0 -0.40586010035E+03 -0.15818637599E+03  0.18030642071E+03  0.48011010526E+03  0.90829275112E+02 0.  0.
          3    1    3    3  502    0  0.89514879576E+01  0.66265085800E+01  0.15260675918E+02  0.18892537735E+02  0.00000000000E+00 0. -1.
         -4    1    3    3    0  502  0.39230831476E+03  0.45371489662E+03  0.10768599522E+03  0.60939256216E+03  0.00000000000E+00 0.  1.
         13    1    5    5    0    0 -0.39383008103E+02 -0.16806969270E+03  0.95639417280E+03  0.97184785677E+03  0.00000000000E+00 0.  1.
        -13    1    5    5    0    0  0.43983305736E+02 -0.13408533652E+03  0.93054978712E+03  0.94118877754E+03  0.00000000000E+00 0. -1.
          1    1    6    6  503    0 -0.19768801426E+03 -0.52360071425E+02  0.12649213094E+03  0.24046286044E+03  0.00000000000E+00 0. -1.
         -1    1    6    6    0  503 -0.20817208609E+03 -0.10582630456E+03  0.53814289765E+02  0.23964724482E+03  0.00000000000E+00 0.  1.
<mgrwt>
<rscale>  0 0.20813667E+04</rscale>
<asrwt>0</asrwt>
<pdfrwt beam="1">  1        1 0.40089452E+00 0.20813667E+04</pdfrwt>
<pdfrwt beam="2">  1       -2 0.63941139E-01 0.20813667E+04</pdfrwt>
<totfact> 0.20932568E+00</totfact>
</mgrwt>
</event>
<event>
12    5  0.5246737E-008  0.1535529E+04  0.7818608E-02  0.8861164E-01
          1   -1    0    0  501    0  0.00000000000E+00  0.00000000000E+00  0.25221172708E+03  0.25221172708E+03  0.00000000000E+00 0. -1.
         -2   -1    0    0    0  501 -0.00000000000E+00 -0.00000000000E+00 -0.23371737590E+04  0.23371737590E+04  0.00000000000E+00 0.  1.
        -24    2    1    2    0    0 -0.35444520183E+03 -0.17021427697E+03 -0.11942405390E+04  0.12598377248E+04  0.79851904092E+02 0.  0.
        254    2    1    2    0    0  0.35444520183E+03  0.17021427697E+03 -0.89072149288E+03  0.13295477613E+04  0.90537736355E+03 0.  0.
         23    2    4    4    0    0 -0.22669712229E+03  0.29059458695E+03 -0.27025725771E+03  0.46629041874E+03  0.92471455307E+02 0.  0.
         23    2    4    4    0    0  0.58114232411E+03 -0.12038030998E+03 -0.62046423517E+03  0.86325734253E+03  0.89551953628E+02 0.  0.
          1    1    3    3  502    0 -0.42556515056E+02 -0.12580877087E+01 -0.19244716476E+03  0.19710035764E+03  0.00000000000E+00 0. -1.
         -2    1    3    3    0  502 -0.31188868677E+03 -0.16895618926E+03 -0.10017933742E+04  0.10627373671E+04  0.00000000000E+00 0.  1.
         13    1    5    5    0    0 -0.13135844250E+03  0.23403197582E+03 -0.17768936957E+03  0.32186879031E+03  0.00000000000E+00 0.  1.
        -13    1    5    5    0    0 -0.95338679789E+02  0.56562611128E+02 -0.92567888144E+02  0.14442162843E+03  0.00000000000E+00 0. -1.
          1    1    6    6  503    0  0.28890809202E+03 -0.14232718785E+02 -0.29515829460E+03  0.41326610651E+03  0.00000000000E+00 0. -1.
         -1    1    6    6    0  503  0.29223423209E+03 -0.10614759120E+03 -0.32530594058E+03  0.44999123602E+03  0.00000000000E+00 0.  1.
<mgrwt>
<rscale>  0 0.15355294E+04</rscale>
<asrwt>0</asrwt>
<pdfrwt beam="1">  1        1 0.38801805E-01 0.15355294E+04</pdfrwt>
<pdfrwt beam="2">  1       -2 0.35956519E+00 0.15355294E+04</pdfrwt>
<totfact> 0.12618208E+00</totfact>
</mgrwt>
</event>
<event>
12    5  0.5246737E-008  0.3476638E+04  0.7818608E-02  0.8119349E-01
          1   -1    0    0  501    0  0.00000000000E+00  0.00000000000E+00  0.13249622236E+04  0.13249622236E+04  0.00000000000E+00 0. -1.
         -2   -1    0    0    0  501 -0.00000000000E+00 -0.00000000000E+00 -0.22806333915E+04  0.22806333915E+04  0.00000000000E+00 0.  1.
        -24    2    1    2    0    0 -0.12836153279E+04  0.92038038079E+03 -0.48328926565E+03  0.16537217664E+04  0.80366728510E+02 0.  0.
        254    2    1    2    0    0  0.12836153279E+04 -0.92038038079E+03 -0.47238190224E+03  0.19518738487E+04  0.10449394739E+04 0.  0.
         23    2    4    4    0    0  0.13758855399E+04 -0.10306565843E+04 -0.45190621939E+03  0.17798402493E+04  0.91093731962E+02 0.  0.
         23    2    4    4    0    0 -0.92270211999E+02  0.11027620354E+03 -0.20475682856E+02  0.17203359941E+03  0.92204515342E+02 0.  0.
          3    1    3    3  502    0 -0.42082337504E+03  0.28136284207E+03 -0.19022266450E+03  0.54077908980E+03  0.00000000000E+00 0. -1.
         -4    1    3    3    0  502 -0.86279195288E+03  0.63901753872E+03 -0.29306660116E+03  0.11129426766E+04  0.00000000000E+00 0.  1.
         13    1    5    5    0    0  0.16372036322E+03 -0.12409557835E+03 -0.23899451276E+02  0.20682179206E+03  0.00000000000E+00 0.  1.
        -13    1    5    5    0    0  0.12121651767E+04 -0.90656100597E+03 -0.42800676811E+03  0.15730184572E+04  0.00000000000E+00 0. -1.
          1    1    6    6  503    0 -0.76267174547E+02  0.95367456219E+02  0.22167138142E+02  0.12410888619E+03  0.00000000000E+00 0. -1.
         -1    1    6    6    0  503 -0.16003037452E+02  0.14908747316E+02 -0.42642820998E+02  0.47924713217E+02  0.00000000000E+00 0.  1.
<mgrwt>
<rscale>  0 0.34766381E+04</rscale>
<asrwt>0</asrwt>
<pdfrwt beam="1">  1        1 0.20384035E+00 0.34766381E+04</pdfrwt>
<pdfrwt beam="2">  1       -2 0.35086667E+00 0.34766381E+04</pdfrwt>
<totfact> 0.95690605E-02</totfact>
</mgrwt>
</event>
<event>
12    5  0.5246737E-008  0.1871021E+04  0.7818608E-02  0.8669417E-01
         -2   -1    0    0    0  501 -0.00000000000E+00  0.00000000000E+00  0.29767991479E+03  0.29767991479E+03  0.00000000000E+00 0.  1.
          1   -1    0    0  501    0  0.00000000000E+00 -0.00000000000E+00 -0.29400022911E+04  0.29400022911E+04  0.00000000000E+00 0. -1.
        -24    2    1    2    0    0  0.65967418350E+03  0.69459191268E+02 -0.54156705458E+03  0.86109310366E+03  0.90508844498E+02 0.  0.
        254    2    1    2    0    0 -0.65967418350E+03 -0.69459191268E+02 -0.21007553218E+04  0.23765891023E+04  0.89163234096E+03 0.  0.
         23    2    4    4    0    0 -0.58796097739E+03 -0.49782613855E+02 -0.51985533066E+03  0.79130331591E+03  0.87948583746E+02 0.  0.
         23    2    4    4    0    0 -0.71713206117E+02 -0.19676577412E+02 -0.15808999911E+04  0.15852857864E+04  0.91412750272E+02 0.  0.
          1    1    3    3  502    0  0.28821297119E+03  0.48492569736E+02 -0.29168490275E+03  0.41291443251E+03  0.00000000000E+00 0. -1.
         -2    1    3    3    0  502  0.37146121231E+03  0.20966621531E+02 -0.24988215183E+03  0.44817867115E+03  0.00000000000E+00 0.  1.
         13    1    5    5    0    0 -0.55112632704E+03 -0.65114492228E+02 -0.46851475595E+03  0.72628245332E+03  0.00000000000E+00 0. -1.
        -13    1    5    5    0    0 -0.36834650348E+02  0.15331878373E+02 -0.51340574715E+02  0.65020862596E+02  0.00000000000E+00 0.  1.
          3    1    6    6  503    0 -0.66445806551E+02 -0.26651983569E+02 -0.15683987011E+04  0.15700318019E+04  0.00000000000E+00 0. -1.
         -3    1    6    6    0  503 -0.52673995658E+01  0.69754061571E+01 -0.12501290001E+02  0.15253984428E+02  0.00000000000E+00 0.  1.
<mgrwt>
<rscale>  0 0.18710207E+04</rscale>
<asrwt>0</asrwt>
<pdfrwt beam="1">  1        1 0.45230804E+00 0.18710207E+04</pdfrwt>
<pdfrwt beam="2">  1       -2 0.45796911E-01 0.18710207E+04</pdfrwt>
<totfact> 0.24678192E+00</totfact>
</mgrwt>
</event>
<event>
12    5  0.5246737E-008  0.1464058E+04  0.7818608E-02  0.8908712E-01
          1   -1    0    0  501    0  0.00000000000E+00  0.00000000000E+00  0.33781182825E+03  0.33781182825E+03  0.00000000000E+00 0. -1.
         -2   -1    0    0    0  501 -0.00000000000E+00 -0.00000000000E+00 -0.15862873437E+04  0.15862873437E+04  0.00000000000E+00 0.  1.
        -24    2    1    2    0    0 -0.26123427421E+03 -0.21988643220E+03 -0.42793052195E+01  0.35064630315E+03  0.79631202246E+02 0.  0.
        254    2    1    2    0    0  0.26123427421E+03  0.21988643220E+03 -0.12441962103E+04  0.15734528688E+04  0.90063107415E+03 0.  0.
         23    2    4    4    0    0 -0.27533293580E+03  0.26913806157E+03 -0.36856761339E+03  0.54085228789E+03  0.91845467773E+02 0.  0.
         23    2    4    4    0    0  0.53656721001E+03 -0.49251629376E+02 -0.87562859688E+03  0.10326005810E+04  0.95960545276E+02 0.  0.
          3    1    3    3  502    0 -0.21998992155E+03 -0.21561395558E+03  0.53392563636E+01  0.30808026727E+03  0.00000000000E+00 0. -1.
         -4    1    3    3    0  502 -0.41244352666E+02 -0.42724766131E+01 -0.96185615831E+01  0.42566035876E+02  0.00000000000E+00 0.  1.
         13    1    5    5    0    0 -0.45193176042E+02  0.90126880072E+02 -0.12742794026E+03  0.16249048474E+03  0.00000000000E+00 0. -1.
        -13    1    5    5    0    0 -0.23013975976E+03  0.17901118150E+03 -0.24113967313E+03  0.37836180315E+03  0.00000000000E+00 0.  1.
          3    1    6    6  503    0  0.26967555318E+03  0.23384720040E+02 -0.43680859164E+03  0.51388081775E+03  0.00000000000E+00 0.  1.
         -3    1    6    6    0  503  0.26689165683E+03 -0.72636349415E+02 -0.43882000524E+03  0.51871976321E+03  0.00000000000E+00 0. -1.
<mgrwt>
<rscale>  0 0.14640582E+04</rscale>
<asrwt>0</asrwt>
<pdfrwt beam="1">  1        1 0.51971051E-01 0.14640582E+04</pdfrwt>
<pdfrwt beam="2">  1       -2 0.24404421E+00 0.14640582E+04</pdfrwt>
<totfact> 0.44493896E+00</totfact>
</mgrwt>
</event>
<event>
12    5  0.5246737E-008  0.3382559E+04  0.7818608E-02  0.8142200E-01
         -2   -1    0    0    0  501 -0.00000000000E+00  0.00000000000E+00  0.19944068442E+04  0.19944068442E+04  0.00000000000E+00 0.  1.
          1   -1    0    0  501    0  0.00000000000E+00 -0.00000000000E+00 -0.14342237181E+04  0.14342237181E+04  0.00000000000E+00 0. -1.
        -24    2    1    2    0    0 -0.85288982196E+03 -0.12270789212E+04 -0.22684421831E+03  0.15134985165E+04  0.77946987893E+02 0.  0.
        254    2    1    2    0    0  0.85288982196E+03  0.12270789212E+04  0.78702734448E+03  0.19151320458E+04  0.90287041417E+03 0.  0.
         23    2    4    4    0    0  0.89016476547E+03  0.53402304843E+03  0.53022656612E+03  0.11696133451E+04  0.96339190730E+02 0.  0.
         23    2    4    4    0    0 -0.37274943510E+02  0.69305587274E+03  0.25680077835E+03  0.74551870072E+03  0.90197722864E+02 0.  0.
          3    1    3    3  502    0 -0.84150483558E+03 -0.11890119338E+04 -0.22119762983E+03  0.14733662676E+04  0.00000000000E+00 0. -1.
         -4    1    3    3    0  502 -0.11384986376E+02 -0.38066987359E+02 -0.56465884802E+01  0.40132248913E+02  0.00000000000E+00 0.  1.
         13    1    5    5    0    0  0.60339920597E+03  0.37878526376E+03  0.31546797362E+03  0.77915911095E+03  0.00000000000E+00 0. -1.
        -13    1    5    5    0    0  0.28676555950E+03  0.15523778467E+03  0.21475859251E+03  0.39045423414E+03  0.00000000000E+00 0.  1.
          4    1    6    6  503    0 -0.62105461718E+01  0.21662691369E+03  0.36757788358E+02  0.21981111351E+03  0.00000000000E+00 0.  1.
         -4    1    6    6    0  503 -0.31064397339E+02  0.47642895905E+03  0.22004299000E+03  0.52570758721E+03  0.00000000000E+00 0. -1.
<mgrwt>
<rscale>  0 0.33825586E+04</rscale>
<asrwt>0</asrwt>
<pdfrwt beam="1">  1        1 0.22064980E+00 0.33825586E+04</pdfrwt>
<pdfrwt beam="2">  1       -2 0.30683182E+00 0.33825586E+04</pdfrwt>
<totfact> 0.15178553E-01</totfact>
</mgrwt>
</event>
<event>
12    5  0.5246737E-008  0.1483959E+04  0.7818608E-02  0.8895190E-01
          1   -1    0    0  501    0  0.00000000000E+00  0.00000000000E+00  0.19672289998E+04  0.19672289998E+04  0.00000000000E+00 0. -1.
         -2   -1    0    0    0  501 -0.00000000000E+00 -0.00000000000E+00 -0.27985242991E+03  0.27985242991E+03  0.00000000000E+00 0.  1.
        -24    2    1    2    0    0 -0.31425093034E+03 -0.14899937229E+03  0.68523875461E+02  0.36324493052E+03  0.79352995425E+02 0.  0.
        254    2    1    2    0    0  0.31425093034E+03  0.14899937229E+03  0.16188526944E+04  0.18838364992E+04  0.89844390434E+03 0.  0.
         23    2    4    4    0    0  0.43110922032E+03 -0.80295275571E+02  0.15340155555E+04  0.15981392908E+04  0.92428228664E+02 0.  0.
         23    2    4    4    0    0 -0.11685828998E+03  0.22929464786E+03  0.84837138980E+02  0.28569720834E+03  0.90518833572E+02 0.  0.
          1    1    3    3  502    0 -0.12186676641E+03 -0.85808244942E+02 -0.12916641551E+01  0.14905110550E+03  0.00000000000E+00 0. -1.
         -2    1    3    3    0  502 -0.19238416393E+03 -0.63191127346E+02  0.69815539617E+02  0.21419382502E+03  0.00000000000E+00 0.  1.
         13    1    5    5    0    0  0.37934460186E+03 -0.88749023523E+02  0.14228340255E+04  0.14752068941E+04  0.00000000000E+00 0.  1.
        -13    1    5    5    0    0  0.51764618460E+02  0.84537479524E+01  0.11118152992E+03  0.12293239676E+03  0.00000000000E+00 0. -1.
          2    1    6    6  503    0 -0.25386753056E+02  0.85389785466E+02  0.72282284733E+02  0.11471979506E+03  0.00000000000E+00 0. -1.
         -2    1    6    6    0  503 -0.91471536926E+02  0.14390486239E+03  0.12554854247E+02  0.17097741328E+03  0.00000000000E+00 0.  1.
<mgrwt>
<rscale>  0 0.14839593E+04</rscale>
<asrwt>0</asrwt>
<pdfrwt beam="1">  1        1 0.30265061E+00 0.14839593E+04</pdfrwt>
<pdfrwt beam="2">  1       -2 0.43054221E-01 0.14839593E+04</pdfrwt>
<totfact> 0.13649774E+01</totfact>
</mgrwt>
</event>
<event>
12    5  0.5246737E-008  0.3803231E+04  0.7818608E-02  0.8045462E-01
          1   -1    0    0  501    0  0.00000000000E+00  0.00000000000E+00  0.16852219269E+04  0.16852219269E+04  0.00000000000E+00 0. -1.
         -2   -1    0    0    0  501 -0.00000000000E+00 -0.00000000000E+00 -0.21457954111E+04  0.21457954111E+04  0.00000000000E+00 0.  1.
        -24    2    1    2    0    0  0.91633878982E+03 -0.34530214219E+03  0.12971841894E+04  0.16271941727E+04  0.78509282362E+02 0.  0.
        254    2    1    2    0    0 -0.91633878982E+03  0.34530214219E+03 -0.17577576736E+04  0.22038231653E+04  0.89900731787E+03 0.  0.
         23    2    4    4    0    0 -0.82419369761E+02 -0.17596116532E+03 -0.31827521898E+02  0.21525866779E+03  0.86994360137E+02 0.  0.
         23    2    4    4    0    0 -0.83391942005E+03  0.52126330750E+03 -0.17259301517E+04  0.19885644975E+04  0.91743322406E+02 0.  0.
          1    1    3    3  502    0  0.21436954601E+03 -0.10594905238E+03  0.27740011086E+03  0.36623807210E+03  0.00000000000E+00 0. -1.
         -2    1    3    3    0  502  0.70196924381E+03 -0.23935308980E+03  0.10197840785E+04  0.12609561006E+04  0.00000000000E+00 0.  1.
         13    1    5    5    0    0 -0.43699420374E+02 -0.67964019758E+02  0.28445349811E+02  0.85661457194E+02  0.00000000000E+00 0. -1.
        -13    1    5    5    0    0 -0.38719949387E+02 -0.10799714556E+03 -0.60272871709E+02  0.12959721059E+03  0.00000000000E+00 0.  1.
          2    1    6    6  503    0 -0.35102521078E+03  0.24597474869E+03 -0.83174484914E+03  0.93569320274E+03  0.00000000000E+00 0. -1.
         -2    1    6    6    0  503 -0.48289420927E+03  0.27528855881E+03 -0.89418530258E+03  0.10528712948E+04  0.00000000000E+00 0.  1.
<mgrwt>
<rscale>  0 0.38032310E+04</rscale>
<asrwt>0</asrwt>
<pdfrwt beam="1">  1        1 0.25926491E+00 0.38032310E+04</pdfrwt>
<pdfrwt beam="2">  1       -2 0.33012237E+00 0.38032310E+04</pdfrwt>
<totfact> 0.70623154E-02</totfact>
</mgrwt>
</event>
<event>
12    5  0.5246737E-008  0.2536840E+04  0.7818608E-02  0.8389977E-01
          1   -1    0    0  501    0  0.00000000000E+00  0.00000000000E+00  0.39550732330E+04  0.39550732330E+04  0.00000000000E+00 0. -1.
         -2   -1    0    0    0  501 -0.00000000000E+00 -0.00000000000E+00 -0.40679133542E+03  0.40679133542E+03  0.00000000000E+00 0.  1.
        -24    2    1    2    0    0  0.43376380589E+03  0.95151651649E+03  0.91900941768E+03  0.13945315037E+04  0.81271671489E+02 0.  0.
        254    2    1    2    0    0 -0.43376380589E+03 -0.95151651649E+03  0.26292724799E+04  0.29673330647E+04  0.89356422431E+03 0.  0.
         23    2    4    4    0    0 -0.24696600599E+03 -0.42585162100E+03  0.22038691019E+04  0.22598045165E+04  0.85648252754E+02 0.  0.
         23    2    4    4    0    0 -0.18679779991E+03 -0.52566489549E+03  0.42540337804E+03  0.70752854827E+03  0.91714841605E+02 0.  0.
          1    1    3    3  502    0  0.57622739561E+02  0.14136784040E+03  0.17335969883E+03  0.23099530643E+03  0.00000000000E+00 0. -1.
         -2    1    3    3    0  502  0.37614106633E+03  0.81014867609E+03  0.74564971885E+03  0.11635361973E+04  0.00000000000E+00 0.  1.
         13    1    5    5    0    0 -0.46112814837E+02 -0.15769980969E+03  0.76487485415E+03  0.78232292832E+03  0.00000000000E+00 0. -1.
        -13    1    5    5    0    0 -0.20085319115E+03 -0.26815181131E+03  0.14389942477E+04  0.14774815882E+04  0.00000000000E+00 0.  1.
          4    1    6    6  503    0 -0.65187187319E+02 -0.12094093133E+03  0.14840512922E+03  0.20223788132E+03  0.00000000000E+00 0. -1.
         -4    1    6    6    0  503 -0.12161061259E+03 -0.40472396416E+03  0.27699824882E+03  0.50529066695E+03  0.00000000000E+00 0.  1.
<mgrwt>
<rscale>  0 0.25368402E+04</rscale>
<asrwt>0</asrwt>
<pdfrwt beam="1">  1        1 0.60847278E+00 0.25368402E+04</pdfrwt>
<pdfrwt beam="2">  1       -2 0.62583285E-01 0.25368402E+04</pdfrwt>
<totfact> 0.19411658E-01</totfact>
</mgrwt>
</event>
<event>
12    5  0.5246737E-008  0.1621843E+04  0.7818608E-02  0.8807240E-01
          1   -1    0    0  501    0  0.00000000000E+00  0.00000000000E+00  0.45282647114E+03  0.45282647114E+03  0.00000000000E+00 0. -1.
         -2   -1    0    0    0  501 -0.00000000000E+00 -0.00000000000E+00 -0.14521975830E+04  0.14521975830E+04  0.00000000000E+00 0.  1.
        -24    2    1    2    0    0 -0.33057954433E+03  0.60902418702E+02  0.17102836474E+03  0.38675641002E+03  0.85661423114E+02 0.  0.
        254    2    1    2    0    0  0.33057954433E+03 -0.60902418702E+02 -0.11703994766E+04  0.15182676441E+04  0.90681297114E+03 0.  0.
         23    2    4    4    0    0  0.24239823545E+01 -0.29538206816E+03 -0.10399591704E+04  0.10849096580E+04  0.90870500488E+02 0.  0.
         23    2    4    4    0    0  0.32815556198E+03  0.23447964946E+03 -0.13044030616E+03  0.43335798617E+03  0.90098234371E+02 0.  0.
          3    1    3    3  502    0 -0.30625412717E+03  0.78752358468E+02  0.15007874384E+03  0.35002450446E+03  0.00000000000E+00 0. -1.
         -4    1    3    3    0  502 -0.24325417167E+02 -0.17849939766E+02  0.20949620908E+02  0.36731905562E+02  0.00000000000E+00 0.  1.
         13    1    5    5    0    0 -0.36616590853E+02 -0.22705516894E+03 -0.79738281397E+03  0.82988805057E+03  0.00000000000E+00 0. -1.
        -13    1    5    5    0    0  0.39040573207E+02 -0.68326899220E+02 -0.24257635648E+03  0.25502160739E+03  0.00000000000E+00 0.  1.
          1    1    6    6  503    0  0.24725211166E+03  0.13898998203E+03 -0.11930169653E+03  0.30770881791E+03  0.00000000000E+00 0. -1.
         -1    1    6    6    0  503  0.80903450316E+02  0.95489667430E+02 -0.11138609631E+02  0.12564916826E+03  0.00000000000E+00 0.  1.
<mgrwt>
<rscale>  0 0.16218428E+04</rscale>
<asrwt>0</asrwt>
<pdfrwt beam="1">  1        1 0.69665609E-01 0.16218428E+04</pdfrwt>
<pdfrwt beam="2">  1       -2 0.22341502E+00 0.16218428E+04</pdfrwt>
<totfact> 0.39970851E+00</totfact>
</mgrwt>
</event>
<event>
12    5  0.5246737E-008  0.2019579E+04  0.7818608E-02  0.8597521E-01
         -2   -1    0    0    0  501 -0.00000000000E+00  0.00000000000E+00  0.95121650480E+03  0.95121650480E+03  0.00000000000E+00 0.  1.
          1   -1    0    0  501    0  0.00000000000E+00 -0.00000000000E+00 -0.10719691138E+04  0.10719691138E+04  0.00000000000E+00 0. -1.
        -24    2    1    2    0    0  0.50671128911E+03 -0.22690387183E+03  0.53980471017E+03  0.77845115436E+03  0.79720618667E+02 0.  0.
        254    2    1    2    0    0 -0.50671128911E+03  0.22690387183E+03 -0.66055731917E+03  0.12447344642E+04  0.89709877773E+03 0.  0.
         23    2    4    4    0    0 -0.30172672090E+03  0.56045265098E+03 -0.31635326191E+03  0.71627468259E+03  0.88452509872E+02 0.  0.
         23    2    4    4    0    0 -0.20498456821E+03 -0.33354877914E+03 -0.34420405725E+03  0.52845978165E+03  0.86717048618E+02 0.  0.
          3    1    3    3  502    0  0.24767857681E+01 -0.24964503443E+01  0.19944407869E+02  0.20252065013E+02  0.00000000000E+00 0. -1.
         -4    1    3    3    0  502  0.50423450334E+03 -0.22440742149E+03  0.51986030230E+03  0.75819908935E+03  0.00000000000E+00 0.  1.
         13    1    5    5    0    0 -0.30272508519E+03  0.56319694303E+03 -0.31323950754E+03  0.71200580259E+03  0.00000000000E+00 0.  1.
        -13    1    5    5    0    0  0.99836428957E+00 -0.27442920525E+01 -0.31137543765E+01  0.42688799984E+01  0.00000000000E+00 0. -1.
          1    1    6    6  503    0 -0.34148155925E+02 -0.11654334198E+02 -0.38846242665E+02  0.53018398957E+02  0.00000000000E+00 0. -1.
         -1    1    6    6    0  503 -0.17083641229E+03 -0.32189444495E+03 -0.30535781459E+03  0.47544138270E+03  0.00000000000E+00 0.  1.
<mgrwt>
<rscale>  0 0.20195789E+04</rscale>
<asrwt>0</asrwt>
<pdfrwt beam="1">  1        1 0.16491832E+00 0.20195789E+04</pdfrwt>
<pdfrwt beam="2">  1       -2 0.14634100E+00 0.20195789E+04</pdfrwt>
<totfact> 0.34578717E+00</totfact>
</mgrwt>
</event>
<event>
12    5  0.5246737E-008  0.1891189E+04  0.7818608E-02  0.8659255E-01
          1   -1    0    0  501    0  0.00000000000E+00  0.00000000000E+00  0.12335932028E+04  0.12335932028E+04  0.00000000000E+00 0. -1.
         -2   -1    0    0    0  501 -0.00000000000E+00 -0.00000000000E+00 -0.72483286114E+03  0.72483286114E+03  0.00000000000E+00 0.  1.
        -24    2    1    2    0    0 -0.68760674521E+03 -0.24734773305E+03  0.22398001177E+03  0.76843116870E+03  0.79595717542E+02 0.  0.
        254    2    1    2    0    0  0.68760674521E+03  0.24734773305E+03  0.28478032984E+03  0.11899948952E+04  0.89498831123E+03 0.  0.
         23    2    4    4    0    0  0.50288880487E+03  0.45142865746E+02 -0.25894413425E+03  0.57467987930E+03  0.90938828960E+02 0.  0.
         23    2    4    4    0    0  0.18471794034E+03  0.20220486730E+03  0.54372446409E+03  0.61531501590E+03  0.89267855947E+02 0.  0.
          3    1    3    3  502    0 -0.57120099260E+02 -0.22662582768E+02 -0.33788555826E+01  0.61544415362E+02  0.00000000000E+00 0. -1.
         -4    1    3    3    0  502 -0.63048664595E+03 -0.22468515028E+03  0.22735886735E+03  0.70688675334E+03  0.00000000000E+00 0.  1.
         13    1    5    5    0    0  0.24942260733E+03  0.25369494092E+02 -0.77772960935E+02  0.26249548897E+03  0.00000000000E+00 0. -1.
        -13    1    5    5    0    0  0.25346619755E+03  0.19773371654E+02 -0.18117117331E+03  0.31218439033E+03  0.00000000000E+00 0.  1.
          3    1    6    6  503    0  0.71186823434E+02  0.11169932265E+03  0.34215597373E+03  0.36689918625E+03  0.00000000000E+00 0. -1.
         -3    1    6    6    0  503  0.11353111690E+03  0.90505544646E+02  0.20156849036E+03  0.24841582966E+03  0.00000000000E+00 0.  1.
<mgrwt>
<rscale>  0 0.18911889E+04</rscale>
<asrwt>0</asrwt>
<pdfrwt beam="1">  1        1 0.18978357E+00 0.18911889E+04</pdfrwt>
<pdfrwt beam="2">  1       -2 0.11151275E+00 0.18911889E+04</pdfrwt>
<totfact> 0.52727033E+00</totfact>
</mgrwt>
</event>
<event>
12    5  0.5246737E-008  0.1086511E+04  0.7818608E-02  0.9218440E-01
          1   -1    0    0  501    0  0.00000000000E+00  0.00000000000E+00  0.88284114512E+03  0.88284114512E+03  0.00000000000E+00 0. -1.
         -2   -1    0    0    0  501 -0.00000000000E+00 -0.00000000000E+00 -0.33429188380E+03  0.33429188380E+03  0.00000000000E+00 0.  1.
        -24    2    1    2    0    0  0.12984753321E+03  0.11878996929E+02  0.13690466590E+03  0.20540754917E+03  0.80298700235E+02 0.  0.
        254    2    1    2    0    0 -0.12984753321E+03 -0.11878996929E+02  0.41164459542E+03  0.10117254798E+04  0.91495119050E+03 0.  0.
         23    2    4    4    0    0 -0.40393578863E+03  0.16360495719E+03  0.49266395288E+03  0.66470632290E+03  0.95843736767E+02 0.  0.
         23    2    4    4    0    0  0.27408825542E+03 -0.17548395412E+03 -0.81019357465E+02  0.34701915685E+03  0.89102014732E+02 0.  0.
          1    1    3    3  502    0  0.82858801812E+02 -0.69116786530E+01  0.13002305721E+03  0.15433517987E+03  0.00000000000E+00 0. -1.
         -2    1    3    3    0  502  0.46988731397E+02  0.18790675582E+02  0.68816086940E+01  0.51072369295E+02  0.00000000000E+00 0.  1.
         13    1    5    5    0    0 -0.22873851831E+03  0.13862115799E+03  0.32521699891E+03  0.42107390275E+03  0.00000000000E+00 0. -1.
        -13    1    5    5    0    0 -0.17519727032E+03  0.24983799198E+02  0.16744695397E+03  0.24363242015E+03  0.00000000000E+00 0.  1.
          3    1    6    6  503    0  0.13934025354E+03 -0.12622266574E+03 -0.13610995965E+02  0.18850232575E+03  0.00000000000E+00 0. -1.
         -3    1    6    6    0  503  0.13474800188E+03 -0.49261288379E+02 -0.67408361500E+02  0.15851683110E+03  0.00000000000E+00 0.  1.
<mgrwt>
<rscale>  0 0.10865112E+04</rscale>
<asrwt>0</asrwt>
<pdfrwt beam="1">  1        1 0.13582171E+00 0.10865112E+04</pdfrwt>
<pdfrwt beam="2">  1       -2 0.51429521E-01 0.10865112E+04</pdfrwt>
<totfact> 0.58693403E+01</totfact>
</mgrwt>
</event>
<event>
12    5  0.5246737E-008  0.1333838E+04  0.7818608E-02  0.9003154E-01
          1   -1    0    0  501    0  0.00000000000E+00  0.00000000000E+00  0.83588072312E+03  0.83588072312E+03  0.00000000000E+00 0. -1.
         -2   -1    0    0    0  501 -0.00000000000E+00 -0.00000000000E+00 -0.53211028998E+03  0.53211028998E+03  0.00000000000E+00 0.  1.
        -24    2    1    2    0    0 -0.20155440945E+03  0.29694282348E+02 -0.23027838497E+03  0.31774191818E+03  0.80161472123E+02 0.  0.
        254    2    1    2    0    0  0.20155440945E+03 -0.29694282348E+02  0.53404881811E+03  0.10502490949E+04  0.88108404302E+03 0.  0.
         23    2    4    4    0    0  0.84045546073E+02 -0.34940203356E+03  0.58692139697E+03  0.69435634518E+03  0.92241926518E+02 0.  0.
         23    2    4    4    0    0  0.11750886337E+03  0.31970775121E+03 -0.52872578853E+02  0.35589274973E+03  0.88559361778E+02 0.  0.
          3    1    3    3  502    0 -0.10069941612E+03  0.17607116503E+02 -0.57424223295E+02  0.11725154318E+03  0.00000000000E+00 0. -1.
         -4    1    3    3    0  502 -0.10085499333E+03  0.12087165845E+02 -0.17285416168E+03  0.20049037500E+03  0.00000000000E+00 0.  1.
         13    1    5    5    0    0  0.22246593739E+02 -0.97159418628E+02  0.24870137089E+03  0.26793140063E+03  0.00000000000E+00 0.  1.
        -13    1    5    5    0    0  0.61798952335E+02 -0.25224261493E+03  0.33822002608E+03  0.42642494455E+03  0.00000000000E+00 0. -1.
          3    1    6    6  503    0  0.67474763721E+01  0.75158955252E+02  0.19315326109E+02  0.77894022971E+02  0.00000000000E+00 0. -1.
         -3    1    6    6    0  503  0.11076138700E+03  0.24454879596E+03 -0.72187904962E+02  0.27799872676E+03  0.00000000000E+00 0.  1.
<mgrwt>
<rscale>  0 0.13338377E+04</rscale>
<asrwt>0</asrwt>
<pdfrwt beam="1">  1        1 0.12859703E+00 0.13338377E+04</pdfrwt>
<pdfrwt beam="2">  1       -2 0.81863122E-01 0.13338377E+04</pdfrwt>
<totfact> 0.23204201E+01</totfact>
</mgrwt>
</event>
<event>
12    5  0.5246737E-008  0.2080648E+04  0.7818608E-02  0.8569816E-01
          1   -1    0    0  501    0  0.00000000000E+00  0.00000000000E+00  0.17304857358E+04  0.17304857358E+04  0.00000000000E+00 0. -1.
         -2   -1    0    0    0  501 -0.00000000000E+00 -0.00000000000E+00 -0.62541643907E+03  0.62541643907E+03  0.00000000000E+00 0.  1.
        -24    2    1    2    0    0  0.42206129323E+03  0.41884153155E+03  0.11317598546E+04  0.12810292530E+04  0.81188760552E+02 0.  0.
        254    2    1    2    0    0 -0.42206129323E+03 -0.41884153155E+03 -0.26690557811E+02  0.10748729219E+04  0.89502818310E+03 0.  0.
         23    2    4    4    0    0 -0.85474603866E+02  0.72064729832E+02 -0.35894754741E+03  0.38687130858E+03  0.91251489958E+02 0.  0.
         23    2    4    4    0    0 -0.33658668936E+03 -0.49090626138E+03  0.33225698960E+03  0.68800161331E+03  0.93123336805E+02 0.  0.
          3    1    3    3  502    0  0.27472279615E+03  0.31649765304E+03  0.74796545654E+03  0.85737722344E+03  0.00000000000E+00 0. -1.
         -4    1    3    3    0  502  0.14733849708E+03  0.10234387851E+03  0.38379439801E+03  0.42365202954E+03  0.00000000000E+00 0.  1.
         13    1    5    5    0    0 -0.67039838539E+02  0.37609508608E+02 -0.32838587264E+03  0.33726265201E+03  0.00000000000E+00 0. -1.
        -13    1    5    5    0    0 -0.18434765327E+02  0.34455221224E+02 -0.30561674768E+02  0.49608656571E+02  0.00000000000E+00 0.  1.
          3    1    6    6  503    0 -0.23945301320E+03 -0.36261781642E+03  0.19413461690E+03  0.47593873113E+03  0.00000000000E+00 0. -1.
         -3    1    6    6    0  503 -0.97133676168E+02 -0.12828844496E+03  0.13812237270E+03  0.21206288218E+03  0.00000000000E+00 0.  1.
<mgrwt>
<rscale>  0 0.20806482E+04</rscale>
<asrwt>0</asrwt>
<pdfrwt beam="1">  1        1 0.26622857E+00 0.20806482E+04</pdfrwt>
<pdfrwt beam="2">  1       -2 0.96217914E-01 0.20806482E+04</pdfrwt>
<totfact> 0.33242518E+00</totfact>
</mgrwt>
</event>
<event>
12    5  0.5246737E-008  0.1250678E+04  0.7818608E-02  0.9069619E-01
          3   -1    0    0  501    0  0.00000000000E+00  0.00000000000E+00  0.24855668044E+04  0.24855668044E+04  0.00000000000E+00 0. -1.
         -4   -1    0    0    0  501 -0.00000000000E+00 -0.00000000000E+00 -0.15732790095E+03  0.15732790095E+03  0.00000000000E+00 0.  1.
        -24    2    1    2    0    0  0.22210632115E+03  0.18474650724E+03  0.66390661151E+03  0.72852189954E+03  0.80682584636E+02 0.  0.
        254    2    1    2    0    0 -0.22210632115E+03 -0.18474650724E+03  0.16643322919E+04  0.19143728058E+04  0.90075455691E+03 0.  0.
         23    2    4    4    0    0 -0.47037961391E+03  0.14368830330E+03  0.68234170473E+03  0.84580604258E+03  0.88850154608E+02 0.  0.
         23    2    4    4    0    0  0.24827329275E+03 -0.32843481054E+03  0.98199058719E+03  0.10685667632E+04  0.89556470635E+02 0.  0.
          3    1    3    3  502    0  0.18554574944E+03  0.17721114047E+03  0.61936837586E+03  0.67040897850E+03  0.00000000000E+00 0. -1.
         -4    1    3    3    0  502  0.36560571714E+02  0.75353667741E+01  0.44538235658E+02  0.58112921042E+02  0.00000000000E+00 0.  1.
         13    1    5    5    0    0 -0.17308198627E+03  0.77086584745E+02  0.32517792455E+03  0.37635142903E+03  0.00000000000E+00 0. -1.
        -13    1    5    5    0    0 -0.29729762764E+03  0.66601718553E+02  0.35716378017E+03  0.46945461355E+03  0.00000000000E+00 0.  1.
          3    1    6    6  503    0  0.59512739853E+02 -0.79075645699E+02  0.14971095719E+03  0.17946613789E+03  0.00000000000E+00 0. -1.
         -3    1    6    6    0  503  0.18876055290E+03 -0.24935916484E+03  0.83227963000E+03  0.88910062532E+03  0.00000000000E+00 0.  1.
<mgrwt>
<rscale>  0 0.12506782E+04</rscale>
<asrwt>0</asrwt>
<pdfrwt beam="1">  1        3 0.38239486E+00 0.12506782E+04</pdfrwt>
<pdfrwt beam="2">  1       -4 0.24204294E-01 0.12506782E+04</pdfrwt>
<totfact> 0.51258546E-01</totfact>
</mgrwt>
</event>
<event>
12    5  0.5246737E-008  0.1692303E+04  0.7818608E-02  0.8765766E-01
         -2   -1    0    0    0  501 -0.00000000000E+00  0.00000000000E+00  0.10478398652E+04  0.10478398652E+04  0.00000000000E+00 0.  1.
          1   -1    0    0  501    0  0.00000000000E+00 -0.00000000000E+00 -0.68328436144E+03  0.68328436144E+03  0.00000000000E+00 0. -1.
        -24    2    1    2    0    0  0.23643924485E+03  0.52392725102E+03  0.31570610665E+03  0.66079529903E+03  0.81097475814E+02 0.  0.
        254    2    1    2    0    0 -0.23643924485E+03 -0.52392725102E+03  0.48849397141E+02  0.10703289276E+04  0.90156223794E+03 0.  0.
         23    2    4    4    0    0 -0.16987913908E+02 -0.58758728516E+03 -0.28075752174E+03  0.65798124352E+03  0.92558759253E+02 0.  0.
         23    2    4    4    0    0 -0.21945133094E+03  0.63660034142E+02  0.32960691888E+03  0.41234768412E+03  0.95803992728E+02 0.  0.
          3    1    3    3  502    0  0.69215681406E+02  0.23733489369E+03  0.15812814185E+03  0.29346749660E+03  0.00000000000E+00 0. -1.
         -4    1    3    3    0  502  0.16722356344E+03  0.28659235733E+03  0.15757796479E+03  0.36732780243E+03  0.00000000000E+00 0.  1.
         13    1    5    5    0    0 -0.48229876447E+01 -0.47339379498E+03 -0.26362704625E+03  0.54187098635E+03  0.00000000000E+00 0.  1.
        -13    1    5    5    0    0 -0.12164926263E+02 -0.11419349018E+03 -0.17130475497E+02  0.11611025717E+03  0.00000000000E+00 0. -1.
          2    1    6    6  503    0 -0.56888538589E+01  0.45920818426E+01 -0.64231138642E+01  0.97317349732E+01  0.00000000000E+00 0. -1.
         -2    1    6    6    0  503 -0.21376247708E+03  0.59067952300E+02  0.33603003275E+03  0.40261594915E+03  0.00000000000E+00 0.  1.
<mgrwt>
<rscale>  0 0.16923033E+04</rscale>
<asrwt>0</asrwt>
<pdfrwt beam="1">  1        1 0.10512067E+00 0.16923033E+04</pdfrwt>
<pdfrwt beam="2">  1       -2 0.16120613E+00 0.16923033E+04</pdfrwt>
<totfact> 0.58111830E+00</totfact>
</mgrwt>
</event>
<event>
12    5  0.5246737E-008  0.1574020E+04  0.7818608E-02  0.8836669E-01
         -2   -1    0    0    0  501 -0.00000000000E+00  0.00000000000E+00  0.32185981257E+03  0.32185981257E+03  0.00000000000E+00 0.  1.
          1   -1    0    0  501    0  0.00000000000E+00 -0.00000000000E+00 -0.19243930263E+04  0.19243930263E+04  0.00000000000E+00 0. -1.
        -24    2    1    2    0    0 -0.24717298816E+02  0.24589988897E+02  0.21020778963E+03  0.22766360536E+03  0.80173499156E+02 0.  0.
        254    2    1    2    0    0  0.24717298816E+02 -0.24589988897E+02 -0.18127410034E+04  0.20185892335E+04  0.88738770332E+03 0.  0.
         23    2    4    4    0    0 -0.18544377086E+03  0.15590542626E+03 -0.97887552073E+02  0.27909723816E+03  0.98068350696E+02 0.  0.
         23    2    4    4    0    0  0.21016106968E+03 -0.18049541516E+03 -0.17148534513E+04  0.17394919954E+04  0.91453662658E+02 0.  0.
          3    1    3    3  502    0 -0.12188951419E+02  0.19533045701E+01 -0.31522825590E+01  0.12740597348E+02  0.00000000000E+00 0. -1.
         -4    1    3    3    0  502 -0.12528347396E+02  0.22636684327E+02  0.21336007219E+03  0.21492300801E+03  0.00000000000E+00 0.  1.
         13    1    5    5    0    0 -0.16732322119E+03  0.13290956905E+03 -0.11749685058E+03  0.24385963953E+03  0.00000000000E+00 0. -1.
        -13    1    5    5    0    0 -0.18120549674E+02  0.22995857211E+02  0.19609298509E+02  0.35237598632E+02  0.00000000000E+00 0.  1.
          3    1    6    6  503    0  0.11280959383E+02  0.32841318767E+01 -0.20435865514E+02  0.23572657171E+02  0.00000000000E+00 0. -1.
         -3    1    6    6    0  503  0.19888011030E+03 -0.18377954703E+03 -0.16944175858E+04  0.17159193382E+04  0.00000000000E+00 0.  1.
<mgrwt>
<rscale>  0 0.15740200E+04</rscale>
<asrwt>0</asrwt>
<pdfrwt beam="1">  1        1 0.29606046E+00 0.15740200E+04</pdfrwt>
<pdfrwt beam="2">  1       -2 0.49516895E-01 0.15740200E+04</pdfrwt>
<totfact> 0.10931481E+01</totfact>
</mgrwt>
</event>
<event>
12    5  0.5246737E-008  0.1797153E+04  0.7818608E-02  0.8707815E-01
         -2   -1    0    0    0  501 -0.00000000000E+00  0.00000000000E+00  0.62444533713E+03  0.62444533713E+03  0.00000000000E+00 0.  1.
          1   -1    0    0  501    0  0.00000000000E+00 -0.00000000000E+00 -0.12930505627E+04  0.12930505627E+04  0.00000000000E+00 0. -1.
        -24    2    1    2    0    0  0.13170832793E+03  0.57470001766E+03  0.67542732117E+02  0.59885187870E+03  0.80214450157E+02 0.  0.
        254    2    1    2    0    0 -0.13170832793E+03 -0.57470001766E+03 -0.73614795771E+03  0.13186440212E+04  0.92156445512E+03 0.  0.
         23    2    4    4    0    0  0.31875264168E+03 -0.49640255730E+03 -0.25867212905E+03  0.65124254062E+03  0.95847957165E+02 0.  0.
         23    2    4    4    0    0 -0.45046096961E+03 -0.78297460365E+02 -0.47747582866E+03  0.66740148054E+03  0.91629644921E+02 0.  0.
          3    1    3    3  502    0  0.10049354813E+03  0.47687745764E+03  0.84965517739E+02  0.49470213465E+03  0.00000000000E+00 0. -1.
         -4    1    3    3    0  502  0.31214779801E+02  0.97822560028E+02 -0.17422785622E+02  0.10414974406E+03  0.00000000000E+00 0.  1.
         13    1    5    5    0    0  0.21161678138E+03 -0.34400297187E+03 -0.22371629726E+03  0.46170194767E+03  0.00000000000E+00 0.  1.
        -13    1    5    5    0    0  0.10713586030E+03 -0.15239958543E+03 -0.34955831789E+02  0.18954059295E+03  0.00000000000E+00 0. -1.
          2    1    6    6  503    0 -0.27685733289E+03 -0.62443688368E+02 -0.35425799263E+03  0.45392501840E+03  0.00000000000E+00 0. -1.
         -2    1    6    6    0  503 -0.17360363672E+03 -0.15853771996E+02 -0.12321783604E+03  0.21347646214E+03  0.00000000000E+00 0.  1.
<mgrwt>
<rscale>  0 0.17971526E+04</rscale>
<asrwt>0</asrwt>
<pdfrwt beam="1">  1        1 0.19893086E+00 0.17971526E+04</pdfrwt>
<pdfrwt beam="2">  1       -2 0.96068512E-01 0.17971526E+04</pdfrwt>
<totfact> 0.68787557E+00</totfact>
</mgrwt>
</event>
<event>
12    5  0.5246737E-008  0.1667840E+04  0.7818608E-02  0.8779922E-01
          1   -1    0    0  501    0  0.00000000000E+00  0.00000000000E+00  0.13611395836E+04  0.13611395836E+04  0.00000000000E+00 0. -1.
         -2   -1    0    0    0  501 -0.00000000000E+00 -0.00000000000E+00 -0.51091198784E+03  0.51091198784E+03  0.00000000000E+00 0.  1.
        -24    2    1    2    0    0 -0.41552353663E+02  0.43089129893E+03 -0.14670764168E+03  0.46384595820E+03  0.78968545773E+02 0.  0.
        254    2    1    2    0    0  0.41552353663E+02 -0.43089129893E+03  0.99693523748E+03  0.14082056133E+04  0.89541569786E+03 0.  0.
         23    2    4    4    0    0  0.21944500775E+03 -0.57088251008E+03  0.33586718327E+03  0.70374715210E+03  0.91598785766E+02 0.  0.
         23    2    4    4    0    0 -0.17789265409E+03  0.13999121114E+03  0.66106805421E+03  0.70445846119E+03  0.89484164297E+02 0.  0.
          3    1    3    3  502    0 -0.82661468778E+01  0.15047205093E+03 -0.12580436066E+02  0.15122312875E+03  0.00000000000E+00 0. -1.
         -4    1    3    3    0  502 -0.33286206785E+02  0.28041924800E+03 -0.13412720561E+03  0.31262282945E+03  0.00000000000E+00 0.  1.
         13    1    5    5    0    0  0.19633823714E+02 -0.98512235780E+02  0.90414542458E+02  0.13514783431E+03  0.00000000000E+00 0. -1.
        -13    1    5    5    0    0  0.19981118404E+03 -0.47237027430E+03  0.24545264081E+03  0.56859931779E+03  0.00000000000E+00 0.  1.
          3    1    6    6  503    0 -0.81155506331E+02  0.17627840372E+02  0.16979211506E+03  0.18901407170E+03  0.00000000000E+00 0. -1.
         -3    1    6    6    0  503 -0.96737147761E+02  0.12236337077E+03  0.49127593915E+03  0.51544438948E+03  0.00000000000E+00 0.  1.
<mgrwt>
<rscale>  0 0.16678400E+04</rscale>
<asrwt>0</asrwt>
<pdfrwt beam="1">  1        1 0.20940609E+00 0.16678400E+04</pdfrwt>
<pdfrwt beam="2">  1       -2 0.78601845E-01 0.16678400E+04</pdfrwt>
<totfact> 0.98521179E+00</totfact>
</mgrwt>
</event>
<event>
12    5  0.5246737E-008  0.1837093E+04  0.7818608E-02  0.8686819E-01
         -2   -1    0    0    0  501 -0.00000000000E+00  0.00000000000E+00  0.88585648920E+03  0.88585648920E+03  0.00000000000E+00 0.  1.
          1   -1    0    0  501    0  0.00000000000E+00 -0.00000000000E+00 -0.95244276055E+03  0.95244276055E+03  0.00000000000E+00 0. -1.
        -24    2    1    2    0    0 -0.28321446736E+03  0.35801327716E+03  0.50019027779E+03  0.68162079861E+03  0.77670187062E+02 0.  0.
        254    2    1    2    0    0  0.28321446736E+03 -0.35801327716E+03 -0.56677654915E+03  0.11566784511E+04  0.89904696291E+03 0.  0.
         23    2    4    4    0    0 -0.35512263652E+02  0.18341385866E+03 -0.47081454434E+03  0.51480734625E+03  0.91970126509E+02 0.  0.
         23    2    4    4    0    0  0.31872673101E+03 -0.54142713582E+03 -0.95962004809E+02  0.64187110489E+03  0.89776034994E+02 0.  0.
          1    1    3    3  502    0 -0.38806856811E+02  0.55067227285E+02  0.11938363423E+03  0.13707962569E+03  0.00000000000E+00 0. -1.
         -2    1    3    3    0  502 -0.24440761055E+03  0.30294604988E+03  0.38080664356E+03  0.54454117292E+03  0.00000000000E+00 0.  1.
         13    1    5    5    0    0 -0.51725524452E+02  0.85965889245E+02 -0.31239752671E+03  0.32811260063E+03  0.00000000000E+00 0. -1.
        -13    1    5    5    0    0  0.16213260800E+02  0.97447969413E+02 -0.15841701763E+03  0.18669474562E+03  0.00000000000E+00 0.  1.
          1    1    6    6  503    0  0.11678317369E+03 -0.16195026565E+03  0.72209709439E+01  0.19979574726E+03  0.00000000000E+00 0. -1.
         -1    1    6    6    0  503  0.20194355732E+03 -0.37947687017E+03 -0.10318297575E+03  0.44207535763E+03  0.00000000000E+00 0.  1.
<mgrwt>
<rscale>  0 0.18370929E+04</rscale>
<asrwt>0</asrwt>
<pdfrwt beam="1">  1        1 0.14652966E+00 0.18370929E+04</pdfrwt>
<pdfrwt beam="2">  1       -2 0.13628561E+00 0.18370929E+04</pdfrwt>
<totfact> 0.52375938E+00</totfact>
</mgrwt>
</event>
<event>
12    5  0.5246737E-008  0.1148990E+04  0.7818608E-02  0.9158716E-01
         -2   -1    0    0    0  501 -0.00000000000E+00  0.00000000000E+00  0.21030298689E+03  0.21030298689E+03  0.00000000000E+00 0.  1.
          1   -1    0    0  501    0  0.00000000000E+00 -0.00000000000E+00 -0.15693758916E+04  0.15693758916E+04  0.00000000000E+00 0. -1.
        -24    2    1    2    0    0  0.14023214840E+03  0.19074881163E+02 -0.50915586464E+03  0.53424856854E+03  0.78440626965E+02 0.  0.
        254    2    1    2    0    0 -0.14023214840E+03 -0.19074881163E+02 -0.84991704006E+03  0.12454303099E+04  0.89928236689E+03 0.  0.
         23    2    4    4    0    0  0.78623430872E+02  0.31295473934E+03 -0.39181765438E+02  0.33759304676E+03  0.91167657185E+02 0.  0.
         23    2    4    4    0    0 -0.21885557927E+03 -0.33202962051E+03 -0.81073527462E+03  0.90783726319E+03  0.93463241109E+02 0.  0.
          3    1    3    3  502    0  0.90721198949E+02  0.45301279440E+01 -0.18595850873E+03  0.20695754387E+03  0.00000000000E+00 0. -1.
         -4    1    3    3    0  502  0.49510949452E+02  0.14544753219E+02 -0.32319735591E+03  0.32729102467E+03  0.00000000000E+00 0.  1.
         13    1    5    5    0    0  0.70481670377E+02  0.10609435984E+03 -0.28200582870E+01  0.12740342138E+03  0.00000000000E+00 0. -1.
        -13    1    5    5    0    0  0.81417604948E+01  0.20686037950E+03 -0.36361707151E+02  0.21018962538E+03  0.00000000000E+00 0.  1.
          4    1    6    6  503    0 -0.18165720794E+03 -0.19497108126E+03 -0.53122894677E+03  0.59432083727E+03  0.00000000000E+00 0. -1.
         -4    1    6    6    0  503 -0.37198371328E+02 -0.13705853925E+03 -0.27950632785E+03  0.31351642592E+03  0.00000000000E+00 0.  1.
<mgrwt>
<rscale>  0 0.11489899E+04</rscale>
<asrwt>0</asrwt>
<pdfrwt beam="1">  1        1 0.24144244E+00 0.11489899E+04</pdfrwt>
<pdfrwt beam="2">  1       -2 0.32354306E-01 0.11489899E+04</pdfrwt>
<totfact> 0.45427221E+01</totfact>
</mgrwt>
</event>
<event>
12    5  0.5246737E-008  0.1095541E+04  0.7818608E-02  0.9209549E-01
          1   -1    0    0  501    0  0.00000000000E+00  0.00000000000E+00  0.50470926861E+03  0.50470926861E+03  0.00000000000E+00 0. -1.
         -2   -1    0    0    0  501 -0.00000000000E+00 -0.00000000000E+00 -0.59450522325E+03  0.59450522325E+03  0.00000000000E+00 0.  1.
        -24    2    1    2    0    0 -0.79344076734E+02 -0.54053130225E+02  0.11822398435E+03  0.17217310535E+03  0.80308432506E+02 0.  0.
        254    2    1    2    0    0  0.79344076734E+02  0.54053130225E+02 -0.20801993899E+03  0.92704138651E+03  0.89828515176E+03 0.  0.
         23    2    4    4    0    0  0.16159228152E+03 -0.22843265760E+03 -0.44841999348E+03  0.53636170840E+03  0.91158363196E+02 0.  0.
         23    2    4    4    0    0 -0.82248204784E+02  0.28248578782E+03  0.24040005449E+03  0.39067967811E+03  0.90969429906E+02 0.  0.
          1    1    3    3  502    0 -0.22380672050E+02 -0.10321242053E+02  0.92759185754E+02  0.95977544565E+02  0.00000000000E+00 0. -1.
         -2    1    3    3    0  502 -0.56963404684E+02 -0.43731888172E+02  0.25464798596E+02  0.76195560788E+02  0.00000000000E+00 0.  1.
         13    1    5    5    0    0  0.10769387441E+03 -0.17612517736E+03 -0.25010248110E+03  0.32429816487E+03  0.00000000000E+00 0. -1.
        -13    1    5    5    0    0  0.53898407106E+02 -0.52307480237E+02 -0.19831751237E+03  0.21206354352E+03  0.00000000000E+00 0.  1.
          4    1    6    6  503    0 -0.34745214963E+02  0.10474551697E+03  0.36947417241E+02  0.11637854154E+03  0.00000000000E+00 0. -1.
         -4    1    6    6    0  503 -0.47502989821E+02  0.17774027085E+03  0.20345263724E+03  0.27430113657E+03  0.00000000000E+00 0.  1.
<mgrwt>
<rscale>  0 0.10955406E+04</rscale>
<asrwt>0</asrwt>
<pdfrwt beam="1">  1        1 0.77647580E-01 0.10955406E+04</pdfrwt>
<pdfrwt beam="2">  1       -2 0.91462342E-01 0.10955406E+04</pdfrwt>
<totfact> 0.38843034E+01</totfact>
</mgrwt>
</event>
<event>
12    5  0.5246737E-008  0.1607162E+04  0.7818608E-02  0.8816160E-01
          1   -1    0    0  501    0  0.00000000000E+00  0.00000000000E+00  0.11978997255E+04  0.11978997255E+04  0.00000000000E+00 0. -1.
         -2   -1    0    0    0  501 -0.00000000000E+00 -0.00000000000E+00 -0.53906199871E+03  0.53906199871E+03  0.00000000000E+00 0.  1.
        -24    2    1    2    0    0  0.12698039211E+03  0.11448980109E+03 -0.33656000392E+03  0.39032026993E+03  0.99223698520E+02 0.  0.
        254    2    1    2    0    0 -0.12698039211E+03 -0.11448980109E+03  0.99539773074E+03  0.13466414543E+04  0.89072702302E+03 0.  0.
         23    2    4    4    0    0 -0.14486117510E+03 -0.46599908768E+03  0.35821747343E+03  0.61298591104E+03  0.96395327101E+02 0.  0.
         23    2    4    4    0    0  0.17880782998E+02  0.35150928659E+03  0.63718025731E+03  0.73365554326E+03  0.91505600368E+02 0.  0.
          1    1    3    3  502    0  0.48799417200E+02  0.13540805154E+02 -0.18667778534E+03  0.19342526221E+03  0.00000000000E+00 0. -1.
         -2    1    3    3    0  502  0.78180974906E+02  0.10094899594E+03 -0.14988221858E+03  0.19689500772E+03  0.00000000000E+00 0.  1.
         13    1    5    5    0    0  0.85535131223E+01 -0.60536821047E+02  0.24351378424E+02  0.65809261661E+02  0.00000000000E+00 0. -1.
        -13    1    5    5    0    0 -0.15341468823E+03 -0.40546226663E+03  0.33386609501E+03  0.54717664937E+03  0.00000000000E+00 0.  1.
          2    1    6    6  503    0  0.34854509295E+02  0.23051163583E+03  0.33912565618E+03  0.41152966084E+03  0.00000000000E+00 0.  1.
         -2    1    6    6    0  503 -0.16973726297E+02  0.12099765076E+03  0.29805460113E+03  0.32212588242E+03  0.00000000000E+00 0. -1.
<mgrwt>
<rscale>  0 0.16071617E+04</rscale>
<asrwt>0</asrwt>
<pdfrwt beam="1">  1        1 0.18429226E+00 0.16071617E+04</pdfrwt>
<pdfrwt beam="2">  1       -2 0.82932615E-01 0.16071617E+04</pdfrwt>
<totfact> 0.11493414E+01</totfact>
</mgrwt>
</event>
<event>
12    5  0.5246737E-008  0.2539979E+04  0.7818608E-02  0.8388880E-01
          1   -1    0    0  501    0  0.00000000000E+00  0.00000000000E+00  0.53372387992E+03  0.53372387992E+03  0.00000000000E+00 0. -1.
         -2   -1    0    0    0  501 -0.00000000000E+00 -0.00000000000E+00 -0.30219240477E+04  0.30219240477E+04  0.00000000000E+00 0.  1.
        -24    2    1    2    0    0 -0.51326105272E+02  0.85613230886E+03 -0.10416696263E+03  0.86759955870E+03  0.79254897643E+02 0.  0.
        254    2    1    2    0    0  0.51326105272E+02 -0.85613230886E+03 -0.23840332051E+04  0.26880483689E+04  0.89799377002E+03 0.  0.
         23    2    4    4    0    0 -0.17860806797E+03 -0.88522446155E+03 -0.21958010922E+04  0.23759961868E+04  0.91061812655E+02 0.  0.
         23    2    4    4    0    0  0.22993417324E+03  0.29092152690E+02 -0.18823211289E+03  0.31205218210E+03  0.90714710246E+02 0.  0.
          1    1    3    3  502    0 -0.17912183633E+02  0.34351041902E+03 -0.28227749303E+01  0.34398869510E+03  0.00000000000E+00 0. -1.
         -2    1    3    3    0  502 -0.33413921639E+02  0.51262188984E+03 -0.10134418770E+03  0.52361086360E+03  0.00000000000E+00 0.  1.
         13    1    5    5    0    0 -0.18570715542E+03 -0.84283727417E+03 -0.20577942283E+04  0.22314521963E+04  0.00000000000E+00 0. -1.
        -13    1    5    5    0    0  0.70990874547E+01 -0.42387187380E+02 -0.13800686398E+03  0.14454399055E+03  0.00000000000E+00 0.  1.
          4    1    6    6  503    0  0.14369965324E+03 -0.11646439973E+02 -0.70346959769E+02  0.16041796861E+03  0.00000000000E+00 0. -1.
         -4    1    6    6    0  503  0.86234520005E+02  0.40738592663E+02 -0.11788515312E+03  0.15163421349E+03  0.00000000000E+00 0.  1.
<mgrwt>
<rscale>  0 0.25399788E+04</rscale>
<asrwt>0</asrwt>
<pdfrwt beam="1">  1        1 0.82111365E-01 0.25399788E+04</pdfrwt>
<pdfrwt beam="2">  1       -2 0.46491140E+00 0.25399788E+04</pdfrwt>
<totfact> 0.86772954E-02</totfact>
</mgrwt>
</event>
<event>
12    5  0.5246737E-008  0.1900625E+04  0.7818608E-02  0.8654546E-01
         -2   -1    0    0    0  501 -0.00000000000E+00  0.00000000000E+00  0.49702045399E+03  0.49702045399E+03  0.00000000000E+00 0.  1.
          1   -1    0    0  501    0  0.00000000000E+00 -0.00000000000E+00 -0.18170145622E+04  0.18170145622E+04  0.00000000000E+00 0. -1.
        -24    2    1    2    0    0 -0.55536800366E+03  0.47715511533E+03 -0.63389832353E+03  0.97170994576E+03  0.79262289576E+02 0.  0.
        254    2    1    2    0    0  0.55536800366E+03 -0.47715511533E+03 -0.68609578472E+03  0.13423250705E+04  0.89162690930E+03 0.  0.
         23    2    4    4    0    0  0.35017307277E+03 -0.45215844979E+03  0.42482189785E+02  0.57944023293E+03  0.82932517593E+02 0.  0.
         23    2    4    4    0    0  0.20519493088E+03 -0.24996665533E+02 -0.72857797450E+03  0.76288483752E+03  0.91856504656E+02 0.  0.
          3    1    3    3  502    0 -0.49587614739E+03  0.42884834862E+03 -0.53248082552E+03  0.84459451171E+03  0.00000000000E+00 0. -1.
         -4    1    3    3    0  502 -0.59491856266E+02  0.48306766708E+02 -0.10141749800E+03  0.12711543405E+03  0.00000000000E+00 0.  1.
         13    1    5    5    0    0  0.20086608160E+03 -0.24884213520E+03 -0.17085486960E+02  0.32025225191E+03  0.00000000000E+00 0.  1.
        -13    1    5    5    0    0  0.14930699118E+03 -0.20331631459E+03  0.59567676745E+02  0.25918798102E+03  0.00000000000E+00 0. -1.
          2    1    6    6  503    0  0.12342157357E+03  0.49392908270E+01 -0.28153988263E+03  0.30744428264E+03  0.00000000000E+00 0. -1.
         -2    1    6    6    0  503  0.81773357314E+02 -0.29935956360E+02 -0.44703809187E+03  0.45544055489E+03  0.00000000000E+00 0.  1.
<mgrwt>
<rscale>  0 0.19006245E+04</rscale>
<asrwt>0</asrwt>
<pdfrwt beam="1">  1        1 0.27954070E+00 0.19006245E+04</pdfrwt>
<pdfrwt beam="2">  1       -2 0.76464686E-01 0.19006245E+04</pdfrwt>
<totfact> 0.49839875E+00</totfact>
</mgrwt>
</event>
<event>
12    5  0.5246737E-008  0.3132908E+04  0.7818608E-02  0.8206764E-01
          3   -1    0    0  501    0  0.00000000000E+00  0.00000000000E+00  0.28360624829E+04  0.28360624829E+04  0.00000000000E+00 0. -1.
         -4   -1    0    0    0  501 -0.00000000000E+00 -0.00000000000E+00 -0.86520615379E+03  0.86520615379E+03  0.00000000000E+00 0.  1.
        -24    2    1    2    0    0  0.99803539820E+03 -0.32949858221E+03 -0.23202423345E+03  0.10791191012E+04  0.77581041338E+02 0.  0.
        254    2    1    2    0    0 -0.99803539820E+03  0.32949858221E+03  0.22028805626E+04  0.26221495355E+04  0.95830133139E+03 0.  0.
         23    2    4    4    0    0 -0.23611324561E+03  0.21753561675E+03  0.54816771050E+02  0.33837809689E+03  0.91780437807E+02 0.  0.
         23    2    4    4    0    0 -0.76192215259E+03  0.11196296546E+03  0.21480637915E+04  0.22837714386E+04  0.91503328000E+02 0.  0.
          1    1    3    3  502    0  0.66147956481E+03 -0.21964906932E+03 -0.19120100337E+03  0.72274390485E+03  0.00000000000E+00 0. -1.
         -2    1    3    3    0  502  0.33655583339E+03 -0.10984951289E+03 -0.40823230073E+02  0.35637519637E+03  0.00000000000E+00 0.  1.
         13    1    5    5    0    0 -0.20856323917E+03  0.22339180012E+03  0.47602221748E+02  0.30930323731E+03  0.00000000000E+00 0. -1.
        -13    1    5    5    0    0 -0.27550006439E+02 -0.58561833698E+01  0.72145493027E+01  0.29074859589E+02  0.00000000000E+00 0.  1.
          3    1    6    6  503    0 -0.67978482193E+03  0.12804866140E+03  0.19055728680E+04  0.20272424174E+04  0.00000000000E+00 0. -1.
         -3    1    6    6    0  503 -0.82137330668E+02 -0.16085695941E+02  0.24249092355E+03  0.25652902118E+03  0.00000000000E+00 0.  1.
<mgrwt>
<rscale>  0 0.31329084E+04</rscale>
<asrwt>0</asrwt>
<pdfrwt beam="1">  1        3 0.43631730E+00 0.31329084E+04</pdfrwt>
<pdfrwt beam="2">  1       -4 0.13310864E+00 0.31329084E+04</pdfrwt>
<totfact> 0.56398494E-03</totfact>
</mgrwt>
</event>
<event>
12    5  0.5246737E-008  0.1821649E+04  0.7818608E-02  0.8694871E-01
         -2   -1    0    0    0  501 -0.00000000000E+00  0.00000000000E+00  0.10666765892E+04  0.10666765892E+04  0.00000000000E+00 0.  1.
          1   -1    0    0  501    0  0.00000000000E+00 -0.00000000000E+00 -0.77774376453E+03  0.77774376453E+03  0.00000000000E+00 0. -1.
        -24    2    1    2    0    0  0.12081959007E+03 -0.66022533104E+03  0.24430864662E+03  0.71704400282E+03  0.63012110593E+02 0.  0.
        254    2    1    2    0    0 -0.12081959007E+03  0.66022533104E+03  0.44624178005E+02  0.11273763509E+04  0.90470506693E+03 0.  0.
         23    2    4    4    0    0  0.25953176135E+03  0.46730127342E+03  0.30198641952E+03  0.62089208727E+03  0.92649723005E+02 0.  0.
         23    2    4    4    0    0 -0.38035135142E+03  0.19292405762E+03 -0.25736224151E+03  0.50648426359E+03  0.91674115051E+02 0.  0.
          1    1    3    3  502    0 -0.66735631339E+01 -0.51219370909E+02  0.24317785899E+02  0.57090411737E+02  0.00000000000E+00 0. -1.
         -2    1    3    3    0  502  0.12749315320E+03 -0.60900596013E+03  0.21999086073E+03  0.65995359108E+03  0.00000000000E+00 0.  1.
         13    1    5    5    0    0  0.23779806659E+03  0.45154629121E+03  0.26455844657E+03  0.57483314556E+03  0.00000000000E+00 0.  1.
        -13    1    5    5    0    0  0.21733694764E+02  0.15754982203E+02  0.37427972953E+02  0.46058941712E+02  0.00000000000E+00 0. -1.
          1    1    6    6  503    0 -0.13429712965E+03  0.11603619839E+03 -0.12149060909E+03  0.21508158096E+03  0.00000000000E+00 0. -1.
         -1    1    6    6    0  503 -0.24605422177E+03  0.76887859224E+02 -0.13587163242E+03  0.29140268263E+03  0.00000000000E+00 0.  1.
<mgrwt>
<rscale>  0 0.18216488E+04</rscale>
<asrwt>0</asrwt>
<pdfrwt beam="1">  1        1 0.11965289E+00 0.18216488E+04</pdfrwt>
<pdfrwt beam="2">  1       -2 0.16410409E+00 0.18216488E+04</pdfrwt>
<totfact> 0.44827586E+00</totfact>
</mgrwt>
</event>
<event>
12    5  0.5246737E-008  0.1722558E+04  0.7818608E-02  0.8748602E-01
          1   -1    0    0  501    0  0.00000000000E+00  0.00000000000E+00  0.85132216136E+03  0.85132216136E+03  0.00000000000E+00 0. -1.
         -2   -1    0    0    0  501 -0.00000000000E+00 -0.00000000000E+00 -0.87135275330E+03  0.87135275330E+03  0.00000000000E+00 0.  1.
        -24    2    1    2    0    0 -0.51919182633E+03 -0.30311204855E+03 -0.16475127720E+03  0.62857358598E+03  0.80775634608E+02 0.  0.
        254    2    1    2    0    0  0.51919182633E+03  0.30311204855E+03  0.14472068527E+03  0.10941013287E+04  0.90259435749E+03 0.  0.
         23    2    4    4    0    0  0.32562378859E+03  0.33879212123E+03 -0.32393437521E+03  0.57769546086E+03  0.89373446574E+02 0.  0.
         23    2    4    4    0    0  0.19356803774E+03 -0.35680072680E+02  0.46865506048E+03  0.51640586781E+03  0.91081292157E+02 0.  0.
          1    1    3    3  502    0 -0.43519389385E+03 -0.25605472548E+03 -0.16825496924E+03  0.53222878761E+03  0.00000000000E+00 0. -1.
         -2    1    3    3    0  502 -0.83997932483E+02 -0.47057323068E+02  0.35036920333E+01  0.96344798373E+02  0.00000000000E+00 0.  1.
         13    1    5    5    0    0  0.29185996260E+02  0.64432695475E+02 -0.24364716531E+02  0.74813327927E+02  0.00000000000E+00 0.  1.
        -13    1    5    5    0    0  0.29643779234E+03  0.27435942575E+03 -0.29956965868E+03  0.50288213294E+03  0.00000000000E+00 0. -1.
          1    1    6    6  503    0  0.19241325542E+03 -0.44983831825E+02  0.46672799121E+03  0.50683471050E+03  0.00000000000E+00 0. -1.
         -1    1    6    6    0  503  0.11547823117E+01  0.93037591448E+01  0.19270692723E+01  0.95711573173E+01  0.00000000000E+00 0.  1.
<mgrwt>
<rscale>  0 0.17225585E+04</rscale>
<asrwt>0</asrwt>
<pdfrwt beam="1">  1        1 0.13097264E+00 0.17225585E+04</pdfrwt>
<pdfrwt beam="2">  1       -2 0.13405427E+00 0.17225585E+04</pdfrwt>
<totfact> 0.66760018E+00</totfact>
</mgrwt>
</event>
<event>
12    5  0.5246737E-008  0.2417407E+04  0.7818608E-02  0.8433015E-01
          1   -1    0    0  501    0  0.00000000000E+00  0.00000000000E+00  0.22800992758E+04  0.22800992758E+04  0.00000000000E+00 0. -1.
         -2   -1    0    0    0  501 -0.00000000000E+00 -0.00000000000E+00 -0.64074606130E+03  0.64074606130E+03  0.00000000000E+00 0.  1.
        -24    2    1    2    0    0  0.92848345351E+03 -0.46725897112E+03  0.71688449783E+03  0.12657418397E+04  0.88128042733E+02 0.  0.
        254    2    1    2    0    0 -0.92848345351E+03  0.46725897112E+03  0.92246871662E+03  0.16551034974E+04  0.89889186469E+03 0.  0.
         23    2    4    4    0    0 -0.51841190172E+03  0.80603458449E+02  0.94446580302E+03  0.10843455758E+04  0.92422169291E+02 0.  0.
         23    2    4    4    0    0 -0.41007155179E+03  0.38665551267E+03 -0.21997086396E+02  0.57075792157E+03  0.87290149285E+02 0.  0.
          3    1    3    3  502    0  0.79821633629E+03 -0.38106805193E+03  0.63912186178E+03  0.10912556684E+04  0.00000000000E+00 0. -1.
         -4    1    3    3    0  502  0.13026711723E+03 -0.86190919184E+02  0.77762636049E+02  0.17448617122E+03  0.00000000000E+00 0.  1.
         13    1    5    5    0    0 -0.36463651542E+03  0.46869544204E+02  0.57176679145E+03  0.67976010941E+03  0.00000000000E+00 0.  1.
        -13    1    5    5    0    0 -0.15377538631E+03  0.33733914245E+02  0.37269901157E+03  0.40458546641E+03  0.00000000000E+00 0. -1.
          2    1    6    6  503    0 -0.29501510047E+03  0.23156769091E+03  0.91523212529E+01  0.37515499459E+03  0.00000000000E+00 0. -1.
         -2    1    6    6    0  503 -0.11505645132E+03  0.15508782176E+03 -0.31149407649E+02  0.19560292698E+03  0.00000000000E+00 0.  1.
<mgrwt>
<rscale>  0 0.24174074E+04</rscale>
<asrwt>0</asrwt>
<pdfrwt beam="1">  1        1 0.35078450E+00 0.24174074E+04</pdfrwt>
<pdfrwt beam="2">  1       -2 0.98576318E-01 0.24174074E+04</pdfrwt>
<totfact> 0.12903803E+00</totfact>
</mgrwt>
</event>
<event>
12    5  0.5246737E-008  0.1575078E+04  0.7818608E-02  0.8836007E-01
          1   -1    0    0  501    0  0.00000000000E+00  0.00000000000E+00  0.24212423773E+04  0.24212423773E+04  0.00000000000E+00 0. -1.
         -2   -1    0    0    0  501 -0.00000000000E+00 -0.00000000000E+00 -0.25615669344E+03  0.25615669344E+03  0.00000000000E+00 0.  1.
        -24    2    1    2    0    0 -0.19675288959E+03 -0.37723330477E+03  0.12618035836E+04  0.13340234162E+04  0.80333837028E+02 0.  0.
        254    2    1    2    0    0  0.19675288959E+03  0.37723330477E+03  0.90328210025E+03  0.13433756546E+04  0.89873407135E+03 0.  0.
         23    2    4    4    0    0 -0.31986765915E+03 -0.24172562161E+02  0.27877316330E+03  0.43446283816E+03  0.90243276942E+02 0.  0.
         23    2    4    4    0    0  0.51662054875E+03  0.40140586694E+03  0.62450893695E+03  0.90891281646E+03  0.89931274864E+02 0.  0.
          3    1    3    3  502    0 -0.13293694565E+03 -0.26133212534E+03  0.97582096262E+03  0.10189176916E+04  0.00000000000E+00 0. -1.
         -4    1    3    3    0  502 -0.63815943941E+02 -0.11590117943E+03  0.28598262101E+03  0.31510572451E+03  0.00000000000E+00 0.  1.
         13    1    5    5    0    0 -0.22831216545E+03 -0.51712939597E+02  0.16802374205E+03  0.28815386672E+03  0.00000000000E+00 0.  1.
        -13    1    5    5    0    0 -0.91555493702E+02  0.27540377436E+02  0.11074942125E+03  0.14630897144E+03  0.00000000000E+00 0. -1.
          4    1    6    6  503    0  0.25836516621E+03  0.24878860665E+03  0.37269282163E+03  0.51725068313E+03  0.00000000000E+00 0.  1.
         -4    1    6    6    0  503  0.25825538254E+03  0.15261726028E+03  0.25181611532E+03  0.39166213333E+03  0.00000000000E+00 0. -1.
<mgrwt>
<rscale>  0 0.15750777E+04</rscale>
<asrwt>0</asrwt>
<pdfrwt beam="1">  1        1 0.37249881E+00 0.15750777E+04</pdfrwt>
<pdfrwt beam="2">  1       -2 0.39408724E-01 0.15750777E+04</pdfrwt>
<totfact> 0.79107185E+00</totfact>
</mgrwt>
</event>
<event>
12    5  0.5246737E-008  0.2064604E+04  0.7818608E-02  0.8576998E-01
         -2   -1    0    0    0  501 -0.00000000000E+00  0.00000000000E+00  0.58544704915E+03  0.58544704915E+03  0.00000000000E+00 0.  1.
          1   -1    0    0  501    0  0.00000000000E+00 -0.00000000000E+00 -0.18202291125E+04  0.18202291125E+04  0.00000000000E+00 0. -1.
        -24    2    1    2    0    0  0.56052538765E+03 -0.22181317420E+03  0.17841029918E+03  0.63371036149E+03  0.79804717665E+02 0.  0.
        254    2    1    2    0    0 -0.56052538765E+03  0.22181317420E+03 -0.14131923625E+04  0.17719658001E+04  0.88281388125E+03 0.  0.
         23    2    4    4    0    0 -0.69384281835E+03  0.40769418599E+03 -0.11928142620E+04  0.14418021159E+04  0.91406082171E+02 0.  0.
         23    2    4    4    0    0  0.13331743070E+03 -0.18588101179E+03 -0.22037810045E+03  0.33016368420E+03  0.90090306551E+02 0.  0.
          3    1    3    3  502    0  0.27523106772E+03 -0.10792763089E+03  0.12909134845E+03  0.32259121252E+03  0.00000000000E+00 0. -1.
         -4    1    3    3    0  502  0.28529431992E+03 -0.11388554332E+03  0.49318950731E+02  0.31111914897E+03  0.00000000000E+00 0.  1.
         13    1    5    5    0    0 -0.39854530589E+03  0.28125690226E+03 -0.68552136612E+03  0.84135803873E+03  0.00000000000E+00 0. -1.
        -13    1    5    5    0    0 -0.29529751245E+03  0.12643728373E+03 -0.50729289591E+03  0.60044407718E+03  0.00000000000E+00 0.  1.
          1    1    6    6  503    0  0.10453154843E+02 -0.78315646487E+02 -0.99182645802E+02  0.12680617556E+03  0.00000000000E+00 0. -1.
         -1    1    6    6    0  503  0.12286427586E+03 -0.10756536530E+03 -0.12119545465E+03  0.20335750864E+03  0.00000000000E+00 0.  1.
<mgrwt>
<rscale>  0 0.20646043E+04</rscale>
<asrwt>0</asrwt>
<pdfrwt beam="1">  1        1 0.28003525E+00 0.20646043E+04</pdfrwt>
<pdfrwt beam="2">  1       -2 0.90068777E-01 0.20646043E+04</pdfrwt>
<totfact> 0.33729789E+00</totfact>
</mgrwt>
</event>
<event>
12    5  0.5246737E-008  0.1572812E+04  0.7818608E-02  0.8837427E-01
          3   -1    0    0  501    0  0.00000000000E+00  0.00000000000E+00  0.48993853057E+03  0.48993853057E+03  0.00000000000E+00 0. -1.
         -4   -1    0    0    0  501 -0.00000000000E+00 -0.00000000000E+00 -0.12622690217E+04  0.12622690217E+04  0.00000000000E+00 0.  1.
        -24    2    1    2    0    0  0.16860337845E+01  0.83428285389E+02 -0.83983336800E+03  0.84774997921E+03  0.79980120904E+02 0.  0.
        254    2    1    2    0    0 -0.16860337845E+01 -0.83428285389E+02  0.67502876838E+02  0.90445757308E+03  0.89806666880E+03 0.  0.
         23    2    4    4    0    0  0.41350648225E+03 -0.13782437371E+03 -0.79654915783E+02  0.45120198583E+03  0.85177212687E+02 0.  0.
         23    2    4    4    0    0 -0.41519251603E+03  0.54396088319E+02  0.14715779262E+03  0.45325558725E+03  0.91877372882E+02 0.  0.
          1    1    3    3  502    0  0.26295883203E+02  0.42757093692E+02 -0.20183998760E+03  0.20798803603E+03  0.00000000000E+00 0. -1.
         -2    1    3    3    0  502 -0.24609849419E+02  0.40671191697E+02 -0.63799338039E+03  0.63976194319E+03  0.00000000000E+00 0.  1.
         13    1    5    5    0    0  0.29513458188E+03 -0.13580962289E+03 -0.70615253253E+02  0.33246832795E+03  0.00000000000E+00 0. -1.
        -13    1    5    5    0    0  0.11837190036E+03 -0.20147508147E+01 -0.90396625297E+01  0.11873365789E+03  0.00000000000E+00 0.  1.
          3    1    6    6  503    0 -0.27235650051E+03  0.43533817152E+02  0.50373435020E+02  0.28037606810E+03  0.00000000000E+00 0. -1.
         -3    1    6    6    0  503 -0.14283601552E+03  0.10862271166E+02  0.96784357601E+02  0.17287951915E+03  0.00000000000E+00 0.  1.
<mgrwt>
<rscale>  0 0.15728118E+04</rscale>
<asrwt>0</asrwt>
<pdfrwt beam="1">  1        3 0.75375160E-01 0.15728118E+04</pdfrwt>
<pdfrwt beam="2">  1       -4 0.19419523E+00 0.15728118E+04</pdfrwt>
<totfact> 0.52486816E-01</totfact>
</mgrwt>
</event>
<event>
12    5  0.5246737E-008  0.1755395E+04  0.7818608E-02  0.8730386E-01
          1   -1    0    0  501    0  0.00000000000E+00  0.00000000000E+00  0.10042135191E+04  0.10042135191E+04  0.00000000000E+00 0. -1.
         -2   -1    0    0    0  501 -0.00000000000E+00 -0.00000000000E+00 -0.76712098424E+03  0.76712098424E+03  0.00000000000E+00 0.  1.
        -24    2    1    2    0    0  0.41670022868E+03  0.13025926441E+03 -0.39163315852E+03  0.59188044963E+03  0.79620218850E+02 0.  0.
        254    2    1    2    0    0 -0.41670022868E+03 -0.13025926441E+03  0.62872569342E+03  0.11794540538E+04  0.89733455902E+03 0.  0.
         23    2    4    4    0    0 -0.15129592020E+03  0.36468820034E+03  0.12855802030E+03  0.42285941387E+03  0.79968621226E+02 0.  0.
         23    2    4    4    0    0 -0.26540430848E+03 -0.49494746475E+03  0.50016767311E+03  0.75659463989E+03  0.82796787727E+02 0.  0.
          3    1    3    3  502    0  0.45571582384E+02  0.17068929633E+02 -0.82503920985E+02  0.95786295772E+02  0.00000000000E+00 0. -1.
         -4    1    3    3    0  502  0.37112864629E+03  0.11319033478E+03 -0.30912923753E+03  0.49609415385E+03  0.00000000000E+00 0.  1.
         13    1    5    5    0    0 -0.39030600864E+01  0.95274029072E+02  0.38463155946E+02  0.10281920472E+03  0.00000000000E+00 0. -1.
        -13    1    5    5    0    0 -0.14739286011E+03  0.26941417126E+03  0.90094864358E+02  0.32004020915E+03  0.00000000000E+00 0.  1.
          3    1    6    6  503    0 -0.19819746446E+03 -0.28441414235E+03  0.30194058044E+03  0.45971921148E+03  0.00000000000E+00 0. -1.
         -3    1    6    6    0  503 -0.67206844025E+02 -0.21053332240E+03  0.19822709267E+03  0.29687542841E+03  0.00000000000E+00 0.  1.
<mgrwt>
<rscale>  0 0.17553954E+04</rscale>
<asrwt>0</asrwt>
<pdfrwt beam="1">  1        1 0.15449439E+00 0.17553954E+04</pdfrwt>
<pdfrwt beam="2">  1       -2 0.11801861E+00 0.17553954E+04</pdfrwt>
<totfact> 0.68998552E+00</totfact>
</mgrwt>
</event>
<event>
12    5  0.5246737E-008  0.1642824E+04  0.7818608E-02  0.8794663E-01
          1   -1    0    0  501    0  0.00000000000E+00  0.00000000000E+00  0.76417817189E+03  0.76417817189E+03  0.00000000000E+00 0. -1.
         -2   -1    0    0    0  501 -0.00000000000E+00 -0.00000000000E+00 -0.88293211086E+03  0.88293211086E+03  0.00000000000E+00 0.  1.
        -24    2    1    2    0    0 -0.43514883157E+03 -0.38782550407E+03 -0.11843403621E+03  0.59983635164E+03  0.77549342976E+02 0.  0.
        254    2    1    2    0    0  0.43514883157E+03  0.38782550407E+03 -0.31990276829E+00  0.10472739311E+04  0.87006865087E+03 0.  0.
         23    2    4    4    0    0  0.51742669415E+03 -0.10312692424E+03 -0.55484478912E+02  0.53816389937E+03  0.90422944344E+02 0.  0.
         23    2    4    4    0    0 -0.82277862588E+02  0.49095242832E+03  0.55164576144E+02  0.50911003173E+03  0.91356228075E+02 0.  0.
          1    1    3    3  502    0 -0.60717861037E+02 -0.40609435083E+02 -0.39762174324E+02  0.83167393693E+02  0.00000000000E+00 0. -1.
         -2    1    3    3    0  502 -0.37443097053E+03 -0.34721606899E+03 -0.78671861886E+02  0.51666895795E+03  0.00000000000E+00 0.  1.
         13    1    5    5    0    0  0.51584895334E+02  0.12463561321E+02 -0.20607640642E+02  0.56929927457E+02  0.00000000000E+00 0.  1.
        -13    1    5    5    0    0  0.46584179882E+03 -0.11559048556E+03 -0.34876838270E+02  0.48123397192E+03  0.00000000000E+00 0. -1.
          4    1    6    6  503    0 -0.49927832685E+02  0.21871179817E+03 -0.18879216537E+02  0.22513121497E+03  0.00000000000E+00 0. -1.
         -4    1    6    6    0  503 -0.32350029903E+02  0.27224063015E+03  0.74043792681E+02  0.28397881677E+03  0.00000000000E+00 0.  1.
<mgrwt>
<rscale>  0 0.16428237E+04</rscale>
<asrwt>0</asrwt>
<pdfrwt beam="1">  1        1 0.11756587E+00 0.16428237E+04</pdfrwt>
<pdfrwt beam="2">  1       -2 0.13583571E+00 0.16428237E+04</pdfrwt>
<totfact> 0.77319319E+00</totfact>
</mgrwt>
</event>
<event>
12    5  0.5246737E-008  0.2990241E+04  0.7818608E-02  0.8246523E-01
         -2   -1    0    0    0  501 -0.00000000000E+00  0.00000000000E+00  0.24292484865E+04  0.24292484865E+04  0.00000000000E+00 0.  1.
          1   -1    0    0  501    0  0.00000000000E+00 -0.00000000000E+00 -0.92019597771E+03  0.92019597771E+03  0.00000000000E+00 0. -1.
        -24    2    1    2    0    0  0.33120087330E+03  0.90745707820E+03  0.17556705244E+04  0.20054147897E+04  0.78339780220E+02 0.  0.
        254    2    1    2    0    0 -0.33120087330E+03 -0.90745707820E+03 -0.24661801558E+03  0.13440296746E+04  0.90134508000E+03 0.  0.
         23    2    4    4    0    0 -0.32584657151E+03 -0.65630931030E+03  0.25069041474E+03  0.77979780869E+03  0.91219731722E+02 0.  0.
         23    2    4    4    0    0 -0.53543017938E+01 -0.25114776790E+03 -0.49730843032E+03  0.56423186587E+03  0.89095755919E+02 0.  0.
          1    1    3    3  502    0  0.10195321834E+01  0.20492080270E+02  0.61227779962E+02  0.64574033781E+02  0.00000000000E+00 0. -1.
         -2    1    3    3    0  502  0.33018134112E+03  0.88696499793E+03  0.16944427444E+04  0.19408407559E+04  0.00000000000E+00 0.  1.
         13    1    5    5    0    0 -0.21801849830E+03 -0.48283375648E+03  0.14224558022E+03  0.54853833694E+03  0.00000000000E+00 0.  1.
        -13    1    5    5    0    0 -0.10782807321E+03 -0.17347555382E+03  0.10844483451E+03  0.23125947176E+03  0.00000000000E+00 0. -1.
          4    1    6    6  503    0  0.87851266095E+01  0.11662323059E+01 -0.47286361416E+02  0.48109651041E+02  0.00000000000E+00 0.  1.
         -4    1    6    6    0  503 -0.14139428403E+02 -0.25231400021E+03 -0.45002206891E+03  0.51612221483E+03  0.00000000000E+00 0. -1.
<mgrwt>
<rscale>  0 0.29902406E+04</rscale>
<asrwt>0</asrwt>
<pdfrwt beam="1">  1        1 0.14156861E+00 0.29902406E+04</pdfrwt>
<pdfrwt beam="2">  1       -2 0.37373053E+00 0.29902406E+04</pdfrwt>
<totfact> 0.14378080E-01</totfact>
</mgrwt>
</event>
<event>
12    5  0.5246737E-008  0.1291096E+04  0.7818608E-02  0.9036656E-01
          1   -1    0    0  501    0  0.00000000000E+00  0.00000000000E+00  0.36099068236E+03  0.36099068236E+03  0.00000000000E+00 0. -1.
         -2   -1    0    0    0  501 -0.00000000000E+00 -0.00000000000E+00 -0.11544122406E+04  0.11544122406E+04  0.00000000000E+00 0.  1.
        -24    2    1    2    0    0 -0.12357589386E+02  0.28379058100E+03 -0.34133091054E+03  0.45211386151E+03  0.84913776283E+02 0.  0.
        254    2    1    2    0    0  0.12357589386E+02 -0.28379058100E+03 -0.45209064768E+03  0.10632890614E+04  0.91951501920E+03 0.  0.
         23    2    4    4    0    0 -0.30374276311E+03 -0.23441203026E+03  0.10999257553E+03  0.41018657836E+03  0.94583277165E+02 0.  0.
         23    2    4    4    0    0  0.31610035250E+03 -0.49378550740E+02 -0.56208322322E+03  0.65310248306E+03  0.90816460165E+02 0.  0.
          1    1    3    3  502    0 -0.17203522943E+02  0.89834711127E+02 -0.17105288807E+03  0.19397249043E+03  0.00000000000E+00 0. -1.
         -2    1    3    3    0  502  0.48459335569E+01  0.19395586987E+03 -0.17027802247E+03  0.25814137108E+03  0.00000000000E+00 0.  1.
         13    1    5    5    0    0 -0.26739898624E+03 -0.19640971902E+03  0.59092565438E+02  0.33700285883E+03  0.00000000000E+00 0. -1.
        -13    1    5    5    0    0 -0.36343776879E+02 -0.38002311238E+02  0.50900010096E+02  0.73183719535E+02  0.00000000000E+00 0.  1.
          3    1    6    6  503    0  0.13018321042E+03  0.15603022388E+02 -0.17361464167E+03  0.21756186795E+03  0.00000000000E+00 0. -1.
         -3    1    6    6    0  503  0.18591714208E+03 -0.64981573128E+02 -0.38846858154E+03  0.43554061511E+03  0.00000000000E+00 0.  1.
<mgrwt>
<rscale>  0 0.12910958E+04</rscale>
<asrwt>0</asrwt>
<pdfrwt beam="1">  1        1 0.55537028E-01 0.12910958E+04</pdfrwt>
<pdfrwt beam="2">  1       -2 0.17760188E+00 0.12910958E+04</pdfrwt>
<totfact> 0.11111723E+01</totfact>
</mgrwt>
</event>
<event>
12    5  0.5246737E-008  0.2405693E+04  0.7818608E-02  0.8437375E-01
          1   -1    0    0  501    0  0.00000000000E+00  0.00000000000E+00  0.18008280135E+04  0.18008280135E+04  0.00000000000E+00 0. -1.
         -2   -1    0    0    0  501 -0.00000000000E+00 -0.00000000000E+00 -0.80343041280E+03  0.80343041280E+03  0.00000000000E+00 0.  1.
        -24    2    1    2    0    0 -0.93869906601E+03 -0.42902700531E+03  0.38503658146E+03  0.11044937572E+04  0.80207124562E+02 0.  0.
        254    2    1    2    0    0  0.93869906601E+03  0.42902700531E+03  0.61236101921E+03  0.14997646691E+04  0.89949315557E+03 0.  0.
         23    2    4    4    0    0  0.28994819638E+03  0.25323978421E+03 -0.19925087538E+03  0.44230338026E+03  0.87926241540E+02 0.  0.
         23    2    4    4    0    0  0.64875086963E+03  0.17578722109E+03  0.81161189460E+03  0.10574612888E+04  0.87929926324E+02 0.  0.
          1    1    3    3  502    0 -0.40253091032E+03 -0.16957552497E+03  0.20296070852E+03  0.48164306456E+03  0.00000000000E+00 0. -1.
         -2    1    3    3    0  502 -0.53616815569E+03 -0.25945148034E+03  0.18207587293E+03  0.62285069265E+03  0.00000000000E+00 0.  1.
         13    1    5    5    0    0  0.12329249271E+03  0.16509429840E+03 -0.95437938368E+02  0.22708052801E+03  0.00000000000E+00 0. -1.
        -13    1    5    5    0    0  0.16665570367E+03  0.88145485812E+02 -0.10381293701E+03  0.21522285224E+03  0.00000000000E+00 0.  1.
          4    1    6    6  503    0  0.41786692833E+03  0.72178849427E+02  0.53214382461E+03  0.68044074405E+03  0.00000000000E+00 0. -1.
         -4    1    6    6    0  503  0.23088394130E+03  0.10360837167E+03  0.27946806998E+03  0.37702054476E+03  0.00000000000E+00 0.  1.
<mgrwt>
<rscale>  0 0.24056932E+04</rscale>
<asrwt>0</asrwt>
<pdfrwt beam="1">  1        1 0.27705046E+00 0.24056932E+04</pdfrwt>
<pdfrwt beam="2">  1       -2 0.12360468E+00 0.24056932E+04</pdfrwt>
<totfact> 0.15788378E+00</totfact>
</mgrwt>
</event>
<event>
12    5  0.5246737E-008  0.1525871E+04  0.7818608E-02  0.8867429E-01
          1   -1    0    0  501    0  0.00000000000E+00  0.00000000000E+00  0.20706706368E+04  0.20706706368E+04  0.00000000000E+00 0. -1.
         -2   -1    0    0    0  501 -0.00000000000E+00 -0.00000000000E+00 -0.28110253341E+03  0.28110253341E+03  0.00000000000E+00 0.  1.
        -24    2    1    2    0    0 -0.20416842616E+03  0.14488661303E+03  0.12521451721E+04  0.12793344560E+04  0.78436224590E+02 0.  0.
        254    2    1    2    0    0  0.20416842616E+03 -0.14488661303E+03  0.53742293130E+03  0.10724387142E+04  0.89365793895E+03 0.  0.
         23    2    4    4    0    0  0.48952569930E+02  0.36703221752E+03  0.17939346493E+03  0.42285252916E+03  0.97535856791E+02 0.  0.
         23    2    4    4    0    0  0.15521585623E+03 -0.51191883054E+03  0.35802946638E+03  0.64958618509E+03  0.87317019949E+02 0.  0.
          3    1    3    3  502    0 -0.16030594692E+03  0.78854021682E+02  0.96754655946E+03  0.98390156930E+03  0.00000000000E+00 0. -1.
         -4    1    3    3    0  502 -0.43862479248E+02  0.66032591343E+02  0.28459861267E+03  0.29543288669E+03  0.00000000000E+00 0.  1.
         13    1    5    5    0    0  0.49309594524E+02  0.11691972629E+03  0.26249745041E+02  0.12957896289E+03  0.00000000000E+00 0.  1.
        -13    1    5    5    0    0 -0.35702459442E+00  0.25011249123E+03  0.15314371988E+03  0.29327356627E+03  0.00000000000E+00 0. -1.
          1    1    6    6  503    0  0.14154341400E+03 -0.50859496524E+03  0.34788663679E+03  0.63224084712E+03  0.00000000000E+00 0. -1.
         -1    1    6    6    0  503  0.13672442235E+02 -0.33238653086E+01  0.10142829586E+02  0.17345337969E+02  0.00000000000E+00 0.  1.
<mgrwt>
<rscale>  0 0.15258712E+04</rscale>
<asrwt>0</asrwt>
<pdfrwt beam="1">  1        1 0.31856470E+00 0.15258712E+04</pdfrwt>
<pdfrwt beam="2">  1       -2 0.43246545E-01 0.15258712E+04</pdfrwt>
<totfact> 0.11472688E+01</totfact>
</mgrwt>
</event>
<event>
12    5  0.5246737E-008  0.1504633E+04  0.7818608E-02  0.8881378E-01
         -2   -1    0    0    0  501 -0.00000000000E+00  0.00000000000E+00  0.69406066617E+03  0.69406066617E+03  0.00000000000E+00 0.  1.
          1   -1    0    0  501    0  0.00000000000E+00 -0.00000000000E+00 -0.81546238718E+03  0.81546238718E+03  0.00000000000E+00 0. -1.
        -24    2    1    2    0    0 -0.85224096215E+02  0.42198097310E+03  0.17348934469E+03  0.47084868996E+03  0.79176056266E+02 0.  0.
        254    2    1    2    0    0  0.85224096215E+02 -0.42198097310E+03 -0.29489106570E+03  0.10386743634E+04  0.89808273801E+03 0.  0.
         23    2    4    4    0    0  0.42556175201E+03 -0.11371679794E+03  0.56135808092E+02  0.45407226572E+03  0.94847660134E+02 0.  0.
         23    2    4    4    0    0 -0.34033765580E+03 -0.30826417516E+03 -0.35102687379E+03  0.58460209767E+03  0.87654006421E+02 0.  0.
          3    1    3    3  502    0 -0.78621583474E+02  0.39070071700E+03  0.13491803949E+03  0.42075085387E+03  0.00000000000E+00 0. -1.
         -4    1    3    3    0  502 -0.66025127407E+01  0.31280256092E+02  0.38571305202E+02  0.50097836088E+02  0.00000000000E+00 0.  1.
         13    1    5    5    0    0  0.15367994988E+03  0.53425959508E+01  0.17845110026E+02  0.15480477473E+03  0.00000000000E+00 0. -1.
        -13    1    5    5    0    0  0.27188180213E+03 -0.11905939389E+03  0.38290698066E+02  0.29926749099E+03  0.00000000000E+00 0.  1.
          1    1    6    6  503    0 -0.13782265524E+03 -0.69680283083E+02 -0.12174429420E+03  0.19665222938E+03  0.00000000000E+00 0. -1.
         -1    1    6    6    0  503 -0.20251500055E+03 -0.23858389208E+03 -0.22928257958E+03  0.38794986829E+03  0.00000000000E+00 0.  1.
<mgrwt>
<rscale>  0 0.15046333E+04</rscale>
<asrwt>0</asrwt>
<pdfrwt beam="1">  1        1 0.12545575E+00 0.15046333E+04</pdfrwt>
<pdfrwt beam="2">  1       -2 0.10677856E+00 0.15046333E+04</pdfrwt>
<totfact> 0.12819854E+01</totfact>
</mgrwt>
</event>
<event>
12    5  0.5246737E-008  0.1316142E+04  0.7818608E-02  0.9016861E-01
          1   -1    0    0  501    0  0.00000000000E+00  0.00000000000E+00  0.12954316088E+04  0.12954316088E+04  0.00000000000E+00 0. -1.
         -2   -1    0    0    0  501 -0.00000000000E+00 -0.00000000000E+00 -0.33429606099E+03  0.33429606099E+03  0.00000000000E+00 0.  1.
        -24    2    1    2    0    0 -0.51993465594E+02 -0.12063720551E+03 -0.13614349494E+03  0.20452817610E+03  0.77717873027E+02 0.  0.
        254    2    1    2    0    0  0.51993465594E+02  0.12063720551E+03  0.10972790427E+04  0.14251994937E+04  0.89995313398E+03 0.  0.
         23    2    4    4    0    0  0.11911102201E+03 -0.73279287005E+02 -0.10810256761E+03  0.19915846691E+03  0.91764047150E+02 0.  0.
         23    2    4    4    0    0 -0.67117556418E+02  0.19391649251E+03  0.12053816104E+04  0.12260410268E+04  0.90129907976E+02 0.  0.
          1    1    3    3  502    0 -0.25064731173E+02 -0.96738985871E+01 -0.64134126863E+02  0.69534245456E+02  0.00000000000E+00 0. -1.
         -2    1    3    3    0  502 -0.26928734421E+02 -0.11096330692E+03 -0.72009368075E+02  0.13499393064E+03  0.00000000000E+00 0.  1.
         13    1    5    5    0    0  0.42265251510E+02  0.27080661035E+01  0.50934067015E+01  0.42657096702E+02  0.00000000000E+00 0. -1.
        -13    1    5    5    0    0  0.76845770501E+02 -0.75987353108E+02 -0.11319597431E+03  0.15650137021E+03  0.00000000000E+00 0.  1.
          2    1    6    6  503    0 -0.61980045640E+01  0.35148219584E+02  0.46558907381E+03  0.46695502808E+03  0.00000000000E+00 0.  1.
         -2    1    6    6    0  503 -0.60919551854E+02  0.15876827293E+03  0.73979253655E+03  0.75908599870E+03  0.00000000000E+00 0. -1.
<mgrwt>
<rscale>  0 0.13161424E+04</rscale>
<asrwt>0</asrwt>
<pdfrwt beam="1">  1        1 0.19929717E+00 0.13161424E+04</pdfrwt>
<pdfrwt beam="2">  1       -2 0.51430164E-01 0.13161424E+04</pdfrwt>
<totfact> 0.28020095E+01</totfact>
</mgrwt>
</event>
<event>
12    5  0.5246737E-008  0.1954358E+04  0.7818608E-02  0.8628262E-01
         -2   -1    0    0    0  501 -0.00000000000E+00  0.00000000000E+00  0.37762068859E+03  0.37762068859E+03  0.00000000000E+00 0.  1.
          1   -1    0    0  501    0  0.00000000000E+00 -0.00000000000E+00 -0.25286725081E+04  0.25286725081E+04  0.00000000000E+00 0. -1.
        -24    2    1    2    0    0 -0.45894327621E+03  0.40720117109E+03 -0.15281838288E+04  0.16487318683E+04  0.80803678114E+02 0.  0.
        254    2    1    2    0    0  0.45894327621E+03 -0.40720117109E+03 -0.62286799072E+03  0.12575613284E+04  0.90391052451E+03 0.  0.
         23    2    4    4    0    0  0.13022393137E+03 -0.27803364092E+02 -0.72019191506E+03  0.73816682920E+03  0.92100889537E+02 0.  0.
         23    2    4    4    0    0  0.32871934484E+03 -0.37939780700E+03  0.97323924340E+02  0.51939449920E+03  0.91102118125E+02 0.  0.
          3    1    3    3  502    0 -0.24757752740E+03  0.21466271687E+03 -0.92215392702E+03  0.97864323388E+03  0.00000000000E+00 0. -1.
         -4    1    3    3    0  502 -0.21136574881E+03  0.19253845422E+03 -0.60602990176E+03  0.67008863440E+03  0.00000000000E+00 0.  1.
         13    1    5    5    0    0  0.75569961108E+02  0.33255215877E+01 -0.19394197651E+03  0.20817148788E+03  0.00000000000E+00 0.  1.
        -13    1    5    5    0    0  0.54653970263E+02 -0.31128885679E+02 -0.52624993855E+03  0.52999534132E+03  0.00000000000E+00 0. -1.
          4    1    6    6  503    0  0.17330950168E+03 -0.13898645690E+03  0.64008196916E+02  0.23119357225E+03  0.00000000000E+00 0. -1.
         -4    1    6    6    0  503  0.15540984316E+03 -0.24041135009E+03  0.33315727424E+02  0.28820092695E+03  0.00000000000E+00 0.  1.
<mgrwt>
<rscale>  0 0.19543583E+04</rscale>
<asrwt>0</asrwt>
<pdfrwt beam="1">  1        1 0.38902652E+00 0.19543583E+04</pdfrwt>
<pdfrwt beam="2">  1       -2 0.58095493E-01 0.19543583E+04</pdfrwt>
<totfact> 0.29367144E+00</totfact>
</mgrwt>
</event>
<event>
12    5  0.5246737E-008  0.1213561E+04  0.7818608E-02  0.9101069E-01
          1   -1    0    0  501    0  0.00000000000E+00  0.00000000000E+00  0.23232154375E+04  0.23232154375E+04  0.00000000000E+00 0. -1.
         -2   -1    0    0    0  501 -0.00000000000E+00 -0.00000000000E+00 -0.15847967478E+03  0.15847967478E+03  0.00000000000E+00 0.  1.
        -24    2    1    2    0    0  0.68729101844E+02 -0.12938700273E+03  0.94047924636E+03  0.95509017918E+03  0.78938910721E+02 0.  0.
        254    2    1    2    0    0 -0.68729101844E+02  0.12938700273E+03  0.12242565164E+04  0.15266049331E+04  0.90014105449E+03 0.  0.
         23    2    4    4    0    0 -0.31209638214E+03  0.40253377664E+03  0.84971060255E+03  0.99509920101E+03  0.93684143191E+02 0.  0.
         23    2    4    4    0    0  0.24336728029E+03 -0.27314677391E+03  0.37454591382E+03  0.53150573209E+03  0.91525452611E+02 0.  0.
          3    1    3    3  502    0  0.66296317559E+02 -0.98074774322E+02  0.86885826511E+03  0.87688570973E+03  0.00000000000E+00 0. -1.
         -4    1    3    3    0  502  0.24327842848E+01 -0.31312228410E+02  0.71620981248E+02  0.78204469452E+02  0.00000000000E+00 0.  1.
         13    1    5    5    0    0 -0.18233048245E+03  0.16464329552E+03  0.36968102011E+03  0.44386470486E+03  0.00000000000E+00 0. -1.
        -13    1    5    5    0    0 -0.12976589969E+03  0.23789048112E+03  0.48002958244E+03  0.55123449615E+03  0.00000000000E+00 0.  1.
          3    1    6    6  503    0  0.15833187733E+03 -0.10895016923E+03  0.19253624436E+03  0.27204655511E+03  0.00000000000E+00 0. -1.
         -3    1    6    6    0  503  0.85035402962E+02 -0.16419660468E+03  0.18200966946E+03  0.25945917699E+03  0.00000000000E+00 0.  1.
<mgrwt>
<rscale>  0 0.12135608E+04</rscale>
<asrwt>0</asrwt>
<pdfrwt beam="1">  1        1 0.35741773E+00 0.12135608E+04</pdfrwt>
<pdfrwt beam="2">  1       -2 0.24381490E-01 0.12135608E+04</pdfrwt>
<totfact> 0.23482030E+01</totfact>
</mgrwt>
</event>
<event>
12    5  0.5246737E-008  0.1579087E+04  0.7818608E-02  0.8833500E-01
         -2   -1    0    0    0  501 -0.00000000000E+00  0.00000000000E+00  0.69307275608E+03  0.69307275608E+03  0.00000000000E+00 0.  1.
          1   -1    0    0  501    0  0.00000000000E+00 -0.00000000000E+00 -0.89944244216E+03  0.89944244216E+03  0.00000000000E+00 0. -1.
        -24    2    1    2    0    0 -0.43635966890E+03  0.31831745345E+03  0.29710803068E+01  0.54594151481E+03  0.79420075956E+02 0.  0.
        254    2    1    2    0    0  0.43635966890E+03 -0.31831745345E+03 -0.20934076638E+03  0.10465736834E+04  0.87164049732E+03 0.  0.
         23    2    4    4    0    0 -0.53390588707E+02  0.23394856197E+03 -0.15131168863E+03  0.30057693027E+03  0.99341729831E+02 0.  0.
         23    2    4    4    0    0  0.48975025760E+03 -0.55226601541E+03 -0.58029077754E+02  0.74599675316E+03  0.91053364897E+02 0.  0.
          3    1    3    3  502    0 -0.21261912848E+03  0.13439743413E+03 -0.34525706846E+02  0.25389286821E+03  0.00000000000E+00 0. -1.
         -4    1    3    3    0  502 -0.22374054042E+03  0.18392001932E+03  0.37496787153E+02  0.29204864660E+03  0.00000000000E+00 0.  1.
         13    1    5    5    0    0 -0.44854538617E+02  0.26543566477E+02 -0.29154739000E+02  0.59720091778E+02  0.00000000000E+00 0.  1.
        -13    1    5    5    0    0 -0.85360500893E+01  0.20740499549E+03 -0.12215694963E+03  0.24085683849E+03  0.00000000000E+00 0. -1.
          1    1    6    6  503    0  0.29085084561E+03 -0.26916590300E+03 -0.54291478278E+02  0.39999007781E+03  0.00000000000E+00 0.  1.
         -1    1    6    6    0  503  0.19889941199E+03 -0.28310011242E+03 -0.37375994766E+01  0.34600667535E+03  0.00000000000E+00 0. -1.
<mgrwt>
<rscale>  0 0.15790871E+04</rscale>
<asrwt>0</asrwt>
<pdfrwt beam="1">  1        1 0.13837576E+00 0.15790871E+04</pdfrwt>
<pdfrwt beam="2">  1       -2 0.10662658E+00 0.15790871E+04</pdfrwt>
<totfact> 0.10869168E+01</totfact>
</mgrwt>
</event>
<event>
12    5  0.5246737E-008  0.1381339E+04  0.7818608E-02  0.8967438E-01
         -2   -1    0    0    0  501 -0.00000000000E+00  0.00000000000E+00  0.40363752325E+03  0.40363752325E+03  0.00000000000E+00 0.  1.
          1   -1    0    0  501    0  0.00000000000E+00 -0.00000000000E+00 -0.11818135641E+04  0.11818135641E+04  0.00000000000E+00 0. -1.
        -24    2    1    2    0    0 -0.36021219765E+02 -0.33537891699E+03  0.10569135843E+01  0.34746600684E+03  0.83396418400E+02 0.  0.
        254    2    1    2    0    0  0.36021219765E+02  0.33537891699E+03 -0.77923295448E+03  0.12379850806E+04  0.90090316690E+03 0.  0.
         23    2    4    4    0    0 -0.13815274523E+03 -0.14661363343E+03 -0.67078444891E+03  0.70637145714E+03  0.91799346601E+02 0.  0.
         23    2    4    4    0    0  0.17417396499E+03  0.48199255043E+03 -0.10844850557E+03  0.53161362343E+03  0.90545996642E+02 0.  0.
          1    1    3    3  502    0 -0.39056154481E+02 -0.59796713404E+02  0.73224502809E+01  0.71795880208E+02  0.00000000000E+00 0. -1.
         -2    1    3    3    0  502  0.30349347157E+01 -0.27558220359E+03 -0.62655366966E+01  0.27567012663E+03  0.00000000000E+00 0.  1.
         13    1    5    5    0    0 -0.10608861402E+03 -0.15316178121E+03 -0.60249605818E+03  0.63064635524E+03  0.00000000000E+00 0. -1.
        -13    1    5    5    0    0 -0.32064131210E+02  0.65481477816E+01 -0.68288390732E+02  0.75725101904E+02  0.00000000000E+00 0.  1.
          2    1    6    6  503    0  0.17397738774E+03  0.42086012851E+03 -0.11619459567E+03  0.46999208852E+03  0.00000000000E+00 0.  1.
         -2    1    6    6    0  503  0.19657725505E+00  0.61132421920E+02  0.77460901032E+01  0.61621534907E+02  0.00000000000E+00 0. -1.
<mgrwt>
<rscale>  0 0.13813389E+04</rscale>
<asrwt>0</asrwt>
<pdfrwt beam="1">  1        1 0.18181747E+00 0.13813389E+04</pdfrwt>
<pdfrwt beam="2">  1       -2 0.62098080E-01 0.13813389E+04</pdfrwt>
<totfact> 0.22719238E+01</totfact>
</mgrwt>
</event>
<event>
12    5  0.5246737E-008  0.1277751E+04  0.7818608E-02  0.9047397E-01
          1   -1    0    0  501    0  0.00000000000E+00  0.00000000000E+00  0.30268656101E+04  0.30268656101E+04  0.00000000000E+00 0. -1.
         -2   -1    0    0    0  501 -0.00000000000E+00 -0.00000000000E+00 -0.13484635587E+03  0.13484635587E+03  0.00000000000E+00 0.  1.
        -24    2    1    2    0    0 -0.15187056032E+03 -0.24741643998E+02  0.13281448967E+04  0.13400146601E+04  0.89406972134E+02 0.  0.
        254    2    1    2    0    0  0.15187056032E+03  0.24741643998E+02  0.15638743576E+04  0.18216973059E+04  0.92152116197E+03 0.  0.
         23    2    4    4    0    0  0.48755336774E+03  0.14667677989E+03  0.11841340237E+04  0.12921679008E+04  0.91116045534E+02 0.  0.
         23    2    4    4    0    0 -0.33568280742E+03 -0.12193513589E+03  0.37974033393E+03  0.52952940509E+03  0.92992177491E+02 0.  0.
          1    1    3    3  502    0 -0.15014754229E+03 -0.41971150259E+02  0.12638291803E+04  0.12734088341E+04  0.00000000000E+00 0. -1.
         -2    1    3    3    0  502 -0.17230180231E+01  0.17229506261E+02  0.64315716382E+02  0.66605825953E+02  0.00000000000E+00 0.  1.
         13    1    5    5    0    0  0.11506346203E+03  0.75331797133E+02  0.33906405956E+03  0.36589467944E+03  0.00000000000E+00 0. -1.
        -13    1    5    5    0    0  0.37248990571E+03  0.71344982757E+02  0.84506996410E+03  0.92627322138E+03  0.00000000000E+00 0.  1.
          2    1    6    6  503    0 -0.19866287005E+03 -0.11329231980E+03  0.20352916424E+03  0.30614736053E+03  0.00000000000E+00 0. -1.
         -2    1    6    6    0  503 -0.13701993737E+03 -0.86428160901E+01  0.17621116969E+03  0.22338204456E+03  0.00000000000E+00 0.  1.
<mgrwt>
<rscale>  0 0.12777508E+04</rscale>
<asrwt>0</asrwt>
<pdfrwt beam="1">  1        1 0.46567158E+00 0.12777508E+04</pdfrwt>
<pdfrwt beam="2">  1       -2 0.20745595E-01 0.12777508E+04</pdfrwt>
<totfact> 0.10002252E+01</totfact>
</mgrwt>
</event>
<event>
12    5  0.5246737E-008  0.1991300E+04  0.7818608E-02  0.8610699E-01
         -2   -1    0    0    0  501 -0.00000000000E+00  0.00000000000E+00  0.46775435515E+03  0.46775435515E+03  0.00000000000E+00 0.  1.
          1   -1    0    0  501    0  0.00000000000E+00 -0.00000000000E+00 -0.21193160578E+04  0.21193160578E+04  0.00000000000E+00 0. -1.
        -24    2    1    2    0    0  0.39311219907E+03 -0.38050159363E+03 -0.13099659843E+04  0.14218783259E+04  0.80052668871E+02 0.  0.
        254    2    1    2    0    0 -0.39311219907E+03  0.38050159363E+03 -0.34159571835E+03  0.11651920871E+04  0.97039492019E+03 0.  0.
         23    2    4    4    0    0  0.20910126877E+03 -0.17475336550E+03 -0.12608310043E+03  0.31318207759E+03  0.89016774566E+02 0.  0.
         23    2    4    4    0    0 -0.60221346783E+03  0.55525495914E+03 -0.21551261792E+03  0.85201000946E+03  0.92229264629E+02 0.  0.
          1    1    3    3  502    0  0.32322855615E+03 -0.28862263686E+03 -0.10999014919E+04  0.11821856952E+04  0.00000000000E+00 0. -1.
         -2    1    3    3    0  502  0.69883642921E+02 -0.91878956773E+02 -0.21006449240E+03  0.23969263070E+03  0.00000000000E+00 0.  1.
         13    1    5    5    0    0  0.42517722068E+02 -0.16664511233E+02  0.92814618468E+01  0.46600516719E+02  0.00000000000E+00 0. -1.
        -13    1    5    5    0    0  0.16658354670E+03 -0.15808885427E+03 -0.13536456228E+03  0.26658156087E+03  0.00000000000E+00 0.  1.
          3    1    6    6  503    0 -0.81498728355E+02  0.36882548152E+02 -0.27531495130E+02  0.93596732345E+02  0.00000000000E+00 0. -1.
         -3    1    6    6    0  503 -0.52071473948E+03  0.51837241099E+03 -0.18798112279E+03  0.75841327712E+03  0.00000000000E+00 0.  1.
<mgrwt>
<rscale>  0 0.19913004E+04</rscale>
<asrwt>0</asrwt>
<pdfrwt beam="1">  1        1 0.32604863E+00 0.19913004E+04</pdfrwt>
<pdfrwt beam="2">  1       -2 0.71962208E-01 0.19913004E+04</pdfrwt>
<totfact> 0.35272394E+00</totfact>
</mgrwt>
</event>
<event>
12    5  0.5246737E-008  0.1891439E+04  0.7818608E-02  0.8659130E-01
          1   -1    0    0  501    0  0.00000000000E+00  0.00000000000E+00  0.17810030376E+04  0.17810030376E+04  0.00000000000E+00 0. -1.
         -2   -1    0    0    0  501 -0.00000000000E+00 -0.00000000000E+00 -0.50218051740E+03  0.50218051740E+03  0.00000000000E+00 0.  1.
        -24    2    1    2    0    0 -0.31700014920E+03  0.23995675608E+03  0.11984688494E+04  0.12654771221E+04  0.83883396906E+02 0.  0.
        254    2    1    2    0    0  0.31700014920E+03 -0.23995675608E+03  0.80353670820E+02  0.10177064329E+04  0.93338166457E+03 0.  0.
         23    2    4    4    0    0  0.25812582397E+03 -0.18383518119E+03 -0.40227549172E+03  0.52017318862E+03  0.91270258488E+02 0.  0.
         23    2    4    4    0    0  0.58874325238E+02 -0.56121574886E+02  0.48262916254E+03  0.49753324427E+03  0.89401360654E+02 0.  0.
          1    1    3    3  502    0 -0.26625618889E+03  0.22818325743E+03  0.97879241957E+03  0.10397088812E+04  0.00000000000E+00 0. -1.
         -2    1    3    3    0  502 -0.50743960314E+02  0.11773498646E+02  0.21967642984E+03  0.22576824092E+03  0.00000000000E+00 0.  1.
         13    1    5    5    0    0  0.15345474875E+03 -0.11788855367E+03 -0.17261201027E+03  0.25930865217E+03  0.00000000000E+00 0.  1.
        -13    1    5    5    0    0  0.10467107521E+03 -0.65946627521E+02 -0.22966348145E+03  0.26086453645E+03  0.00000000000E+00 0. -1.
          4    1    6    6  503    0  0.81540394213E+02 -0.45893887462E+02  0.41655808421E+03  0.42693760939E+03  0.00000000000E+00 0. -1.
         -4    1    6    6    0  503 -0.22666068974E+02 -0.10227687424E+02  0.66071078328E+02  0.70595634881E+02  0.00000000000E+00 0.  1.
<mgrwt>
<rscale>  0 0.18914386E+04</rscale>
<asrwt>0</asrwt>
<pdfrwt beam="1">  1        1 0.27400046E+00 0.18914386E+04</pdfrwt>
<pdfrwt beam="2">  1       -2 0.77258542E-01 0.18914386E+04</pdfrwt>
<totfact> 0.51567617E+00</totfact>
</mgrwt>
</event>
<event>
12    5  0.5246737E-008  0.1967062E+04  0.7818608E-02  0.8622177E-01
          1   -1    0    0  501    0  0.00000000000E+00  0.00000000000E+00  0.36129281198E+03  0.36129281198E+03  0.00000000000E+00 0. -1.
         -2   -1    0    0    0  501 -0.00000000000E+00 -0.00000000000E+00 -0.26774216152E+04  0.26774216152E+04  0.00000000000E+00 0.  1.
        -24    2    1    2    0    0  0.20403814274E+03 -0.24380053643E+02  0.23687563623E+03  0.32372112227E+03  0.80370064442E+02 0.  0.
        254    2    1    2    0    0 -0.20403814274E+03  0.24380053643E+02 -0.25530044395E+04  0.27149933049E+04  0.90062812924E+03 0.  0.
         23    2    4    4    0    0  0.42195560145E+02  0.20285095328E+03 -0.22953722570E+04  0.23064785113E+04  0.90445287849E+02 0.  0.
         23    2    4    4    0    0 -0.24623370288E+03 -0.17847089964E+03 -0.25763218243E+03  0.40851479365E+03  0.89594066509E+02 0.  0.
          3    1    3    3  502    0  0.38291737250E+02 -0.66357720011E+01  0.10246775639E+03  0.10958983398E+03  0.00000000000E+00 0. -1.
         -4    1    3    3    0  502  0.16574640549E+03 -0.17744281642E+02  0.13440787983E+03  0.21413128829E+03  0.00000000000E+00 0.  1.
         13    1    5    5    0    0  0.26810719799E+02  0.19321864752E+03 -0.22333993923E+04  0.22419021178E+04  0.00000000000E+00 0. -1.
        -13    1    5    5    0    0  0.15384840346E+02  0.96323057582E+01 -0.61972864771E+02  0.64576393478E+02  0.00000000000E+00 0.  1.
          4    1    6    6  503    0 -0.24811776015E+03 -0.17383022105E+03 -0.22982887305E+03  0.38026396035E+03  0.00000000000E+00 0. -1.
         -4    1    6    6    0  503  0.18840572689E+01 -0.46406785848E+01 -0.27803309383E+02  0.28250833301E+02  0.00000000000E+00 0.  1.
<mgrwt>
<rscale>  0 0.19670620E+04</rscale>
<asrwt>0</asrwt>
<pdfrwt beam="1">  1        1 0.55583506E-01 0.19670620E+04</pdfrwt>
<pdfrwt beam="2">  1       -2 0.41191104E+00 0.19670620E+04</pdfrwt>
<totfact> 0.34754549E-01</totfact>
</mgrwt>
</event>
<event>
12    5  0.5246737E-008  0.1468592E+04  0.7818608E-02  0.8905612E-01
          1   -1    0    0  501    0  0.00000000000E+00  0.00000000000E+00  0.98358150978E+03  0.98358150978E+03  0.00000000000E+00 0. -1.
         -2   -1    0    0    0  501 -0.00000000000E+00 -0.00000000000E+00 -0.54819105385E+03  0.54819105385E+03  0.00000000000E+00 0.  1.
        -24    2    1    2    0    0 -0.42346905546E+02  0.15761880151E+03 -0.30745682490E+03  0.35700435371E+03  0.79280908134E+02 0.  0.
        254    2    1    2    0    0  0.42346905546E+02 -0.15761880151E+03  0.74284728083E+03  0.11747682099E+04  0.89533307624E+03 0.  0.
         23    2    4    4    0    0 -0.20855640806E+02 -0.59876522388E+02 -0.19501578746E+03  0.22519133920E+03  0.93058187188E+02 0.  0.
         23    2    4    4    0    0  0.63202546352E+02 -0.97742279123E+02  0.93786306829E+03  0.94957687073E+03  0.92525583312E+02 0.  0.
          1    1    3    3  502    0 -0.14484974787E+02  0.42966954050E+01 -0.36209472844E+01  0.15536645237E+02  0.00000000000E+00 0. -1.
         -2    1    3    3    0  502 -0.27861930758E+02  0.15332210611E+03 -0.30383587761E+03  0.34146770848E+03  0.00000000000E+00 0.  1.
         13    1    5    5    0    0 -0.19195251605E+02 -0.37899627658E+02 -0.19839644896E+03  0.20289403742E+03  0.00000000000E+00 0. -1.
        -13    1    5    5    0    0 -0.16603892014E+01 -0.21976894730E+02  0.33806614990E+01  0.22297301775E+02  0.00000000000E+00 0.  1.
          4    1    6    6  503    0  0.66251291575E+02 -0.10711773525E+03  0.68254453021E+03  0.69406806479E+03  0.00000000000E+00 0. -1.
         -4    1    6    6    0  503 -0.30487452228E+01  0.93754561317E+01  0.25531853808E+03  0.25550880593E+03  0.00000000000E+00 0.  1.
<mgrwt>
<rscale>  0 0.14685920E+04</rscale>
<asrwt>0</asrwt>
<pdfrwt beam="1">  1        1 0.15132023E+00 0.14685920E+04</pdfrwt>
<pdfrwt beam="2">  1       -2 0.84337085E-01 0.14685920E+04</pdfrwt>
<totfact> 0.16254789E+01</totfact>
</mgrwt>
</event>
<event>
12    5  0.5246737E-008  0.2051542E+04  0.7818608E-02  0.8582895E-01
          1   -1    0    0  501    0  0.00000000000E+00  0.00000000000E+00  0.11284540354E+04  0.11284540354E+04  0.00000000000E+00 0. -1.
         -2   -1    0    0    0  501 -0.00000000000E+00 -0.00000000000E+00 -0.93243185577E+03  0.93243185577E+03  0.00000000000E+00 0.  1.
        -24    2    1    2    0    0 -0.18669733387E+03  0.65453767123E+03  0.54200699945E+03  0.87369473540E+03  0.79343844546E+02 0.  0.
        254    2    1    2    0    0  0.18669733387E+03 -0.65453767123E+03 -0.34598481983E+03  0.11871911558E+04  0.90908849253E+03 0.  0.
         23    2    4    4    0    0  0.31791826558E+03 -0.34735791039E+03 -0.59153191588E+03  0.76277782401E+03  0.10094780728E+03 0.  0.
         23    2    4    4    0    0 -0.13122093171E+03 -0.30717976085E+03  0.24554709605E+03  0.42441333176E+03  0.90856818153E+02 0.  0.
          1    1    3    3  502    0 -0.13773111959E+03  0.51232138004E+03  0.46117517377E+03  0.70294067933E+03  0.00000000000E+00 0. -1.
         -2    1    3    3    0  502 -0.48966214281E+02  0.14221629119E+03  0.80831825682E+02  0.17075405607E+03  0.00000000000E+00 0.  1.
         13    1    5    5    0    0  0.33646640472E+02 -0.24708991736E+01 -0.30489921140E+02  0.45473476322E+02  0.00000000000E+00 0. -1.
        -13    1    5    5    0    0  0.28427162511E+03 -0.34488701121E+03 -0.56104199474E+03  0.71730434769E+03  0.00000000000E+00 0.  1.
          3    1    6    6  503    0 -0.81659560072E+02 -0.90066641301E+02  0.10832397648E+03  0.16283232943E+03  0.00000000000E+00 0. -1.
         -3    1    6    6    0  503 -0.49561371639E+02 -0.21711311954E+03  0.13722311957E+03  0.26158100233E+03  0.00000000000E+00 0.  1.
<mgrwt>
<rscale>  0 0.20515423E+04</rscale>
<asrwt>0</asrwt>
<pdfrwt beam="1">  1        1 0.17360831E+00 0.20515423E+04</pdfrwt>
<pdfrwt beam="2">  1       -2 0.14345106E+00 0.20515423E+04</pdfrwt>
<totfact> 0.32950497E+00</totfact>
</mgrwt>
</event>
<event>
12    5  0.5246737E-008  0.1322439E+04  0.7818608E-02  0.9011957E-01
         -2   -1    0    0    0  501 -0.00000000000E+00  0.00000000000E+00  0.43567918555E+03  0.43567918555E+03  0.00000000000E+00 0.  1.
          1   -1    0    0  501    0  0.00000000000E+00 -0.00000000000E+00 -0.10035170539E+04  0.10035170539E+04  0.00000000000E+00 0. -1.
        -24    2    1    2    0    0  0.16136628024E+03 -0.18147910510E+03 -0.10298985662E+03  0.27528751242E+03  0.78756345405E+02 0.  0.
        254    2    1    2    0    0 -0.16136628024E+03  0.18147910510E+03 -0.46484801174E+03  0.11639087271E+04  0.10390505805E+04 0.  0.
         23    2    4    4    0    0  0.33020810263E+03  0.11146203330E+02 -0.53059256232E+03  0.63170077820E+03  0.91409939838E+02 0.  0.
         23    2    4    4    0    0 -0.49157438287E+03  0.17033290177E+03  0.65744550576E+02  0.53220794885E+03  0.90908105085E+02 0.  0.
          1    1    3    3  502    0  0.58788046371E+02 -0.21343504604E+02 -0.42919600704E+02  0.75852961112E+02  0.00000000000E+00 0. -1.
         -2    1    3    3    0  502  0.10257823387E+03 -0.16013560049E+03 -0.60070255918E+02  0.19943455131E+03  0.00000000000E+00 0.  1.
         13    1    5    5    0    0  0.28100568582E+03  0.42706191326E+02 -0.44628792590E+03  0.52911334045E+03  0.00000000000E+00 0.  1.
        -13    1    5    5    0    0  0.49202416815E+02 -0.31559987996E+02 -0.84304636420E+02  0.10258743775E+03  0.00000000000E+00 0. -1.
          3    1    6    6  503    0 -0.15133972625E+03  0.45087749932E+02  0.61958637771E+02  0.16963340098E+03  0.00000000000E+00 0. -1.
         -3    1    6    6    0  503 -0.34023465662E+03  0.12524515184E+03  0.37859128049E+01  0.36257454787E+03  0.00000000000E+00 0.  1.
<mgrwt>
<rscale>  0 0.13224394E+04</rscale>
<asrwt>0</asrwt>
<pdfrwt beam="1">  1        1 0.15438724E+00 0.13224394E+04</pdfrwt>
<pdfrwt beam="2">  1       -2 0.67027568E-01 0.13224394E+04</pdfrwt>
<totfact> 0.26416680E+01</totfact>
</mgrwt>
</event>
<event>
12    5  0.5246737E-008  0.1635174E+04  0.7818608E-02  0.8799226E-01
          1   -1    0    0  501    0  0.00000000000E+00  0.00000000000E+00  0.65764489916E+03  0.65764489916E+03  0.00000000000E+00 0. -1.
         -2   -1    0    0    0  501 -0.00000000000E+00 -0.00000000000E+00 -0.10164277463E+04  0.10164277463E+04  0.00000000000E+00 0.  1.
        -24    2    1    2    0    0  0.38694802194E+03  0.14721593393E+03 -0.52419641519E+03  0.67270662994E+03  0.79693320824E+02 0.  0.
        254    2    1    2    0    0 -0.38694802194E+03 -0.14721593393E+03  0.16541356804E+03  0.10013660155E+04  0.89664426930E+03 0.  0.
         23    2    4    4    0    0  0.27025236465E+03  0.57529956956E+02  0.11464317352E+02  0.29127586019E+03  0.91455779521E+02 0.  0.
         23    2    4    4    0    0 -0.65720038659E+03 -0.20474589089E+03  0.15394925069E+03  0.71009015534E+03  0.81819490018E+02 0.  0.
          3    1    3    3  502    0  0.63420016614E+02 -0.55397218303E+01 -0.86131002375E+02  0.10710432576E+03  0.00000000000E+00 0. -1.
         -4    1    3    3    0  502  0.32352800533E+03  0.15275565577E+03 -0.43806541281E+03  0.56560230419E+03  0.00000000000E+00 0.  1.
         13    1    5    5    0    0  0.24588997534E+02  0.36643617125E+02 -0.35347261182E+01  0.44270393769E+02  0.00000000000E+00 0. -1.
        -13    1    5    5    0    0  0.24566336712E+03  0.20886339831E+02  0.14999043470E+02  0.24700546642E+03  0.00000000000E+00 0.  1.
          1    1    6    6  503    0 -0.20381307613E+03 -0.27659133443E+02  0.30450493773E+02  0.20792313540E+03  0.00000000000E+00 0. -1.
         -1    1    6    6    0  503 -0.45338731046E+03 -0.17708675745E+03  0.12349875692E+03  0.50216701993E+03  0.00000000000E+00 0.  1.
<mgrwt>
<rscale>  0 0.16351740E+04</rscale>
<asrwt>0</asrwt>
<pdfrwt beam="1">  1        1 0.10117614E+00 0.16351740E+04</pdfrwt>
<pdfrwt beam="2">  1       -2 0.15637350E+00 0.16351740E+04</pdfrwt>
<totfact> 0.67160134E+00</totfact>
</mgrwt>
</event>
<event>
12    5  0.5246737E-008  0.1899914E+04  0.7818608E-02  0.8654899E-01
          1   -1    0    0  501    0  0.00000000000E+00  0.00000000000E+00  0.50493732206E+03  0.50493732206E+03  0.00000000000E+00 0. -1.
         -2   -1    0    0    0  501 -0.00000000000E+00 -0.00000000000E+00 -0.17871894589E+04  0.17871894589E+04  0.00000000000E+00 0.  1.
        -24    2    1    2    0    0 -0.11225714412E+03 -0.54446854911E+03  0.75794175635E+02  0.56696733492E+03  0.81605970558E+02 0.  0.
        254    2    1    2    0    0  0.11225714412E+03  0.54446854911E+03 -0.13580463125E+04  0.17251594461E+04  0.90710399630E+03 0.  0.
         23    2    4    4    0    0 -0.44646301517E+01  0.42271797945E+03 -0.90077814193E+02  0.44275882284E+03  0.95973639703E+02 0.  0.
         23    2    4    4    0    0  0.11672177427E+03  0.12175056966E+03 -0.12679684983E+04  0.12824006232E+04  0.91433429104E+02 0.  0.
          1    1    3    3  502    0 -0.63160649971E+02 -0.41427539901E+03  0.84712593981E+02  0.42753900116E+03  0.00000000000E+00 0. -1.
         -2    1    3    3    0  502 -0.49096494151E+02 -0.13019315010E+03 -0.89184183468E+01  0.13942833377E+03  0.00000000000E+00 0.  1.
         13    1    5    5    0    0 -0.37027449652E+02  0.36671768589E+03 -0.80567239656E+02  0.37728500272E+03  0.00000000000E+00 0. -1.
        -13    1    5    5    0    0  0.32562819500E+02  0.56000293560E+02 -0.95105745362E+01  0.65473820116E+02  0.00000000000E+00 0.  1.
          1    1    6    6  503    0  0.63657336591E+02  0.89262655693E+02 -0.49816290912E+03  0.51008466182E+03  0.00000000000E+00 0. -1.
         -1    1    6    6    0  503  0.53064437683E+02  0.32487913969E+02 -0.76980558921E+03  0.77231596143E+03  0.00000000000E+00 0.  1.
<mgrwt>
<rscale>  0 0.18999144E+04</rscale>
<asrwt>0</asrwt>
<pdfrwt beam="1">  1        1 0.77682665E-01 0.18999144E+04</pdfrwt>
<pdfrwt beam="2">  1       -2 0.27495222E+00 0.18999144E+04</pdfrwt>
<totfact> 0.16194517E+00</totfact>
</mgrwt>
</event>
<event>
12    5  0.5246737E-008  0.1593174E+04  0.7818608E-02  0.8824752E-01
          1   -1    0    0  501    0  0.00000000000E+00  0.00000000000E+00  0.36123429438E+04  0.36123429438E+04  0.00000000000E+00 0. -1.
         -2   -1    0    0    0  501 -0.00000000000E+00 -0.00000000000E+00 -0.17566189734E+03  0.17566189734E+03  0.00000000000E+00 0.  1.
        -24    2    1    2    0    0  0.47400112990E+03  0.15893197164E+03  0.70328248855E+03  0.86692209506E+03  0.83733012900E+02 0.  0.
        254    2    1    2    0    0 -0.47400112990E+03 -0.15893197164E+03  0.27333985579E+04  0.29210827461E+04  0.90073319596E+03 0.  0.
         23    2    4    4    0    0  0.18276930260E+03  0.94890660107E+02  0.24236322783E+03  0.33087247074E+03  0.91256793397E+02 0.  0.
         23    2    4    4    0    0 -0.65677043250E+03 -0.25382263175E+03  0.24910353301E+04  0.25902102753E+04  0.90326769980E+02 0.  0.
          3    1    3    3  502    0  0.66164918394E+02  0.52300846867E+02  0.13865687863E+03  0.16229265233E+03  0.00000000000E+00 0. -1.
         -4    1    3    3    0  502  0.40783621150E+03  0.10663112478E+03  0.56462560991E+03  0.70462944272E+03  0.00000000000E+00 0.  1.
         13    1    5    5    0    0  0.10455857997E+03  0.88951164193E+02  0.10552474904E+03  0.17314814154E+03  0.00000000000E+00 0.  1.
        -13    1    5    5    0    0  0.78210722632E+02  0.59394959133E+01  0.13683847879E+03  0.15772432921E+03  0.00000000000E+00 0. -1.
          2    1    6    6  503    0 -0.10178562944E+03 -0.43124578856E+02  0.52477281669E+03  0.53628961653E+03  0.00000000000E+00 0.  1.
         -2    1    6    6    0  503 -0.55498480306E+03 -0.21069805289E+03  0.19662625134E+04  0.20539206588E+04  0.00000000000E+00 0. -1.
<mgrwt>
<rscale>  0 0.15931742E+04</rscale>
<asrwt>0</asrwt>
<pdfrwt beam="1">  1        1 0.55574501E+00 0.15931742E+04</pdfrwt>
<pdfrwt beam="2">  1       -2 0.27024910E-01 0.15931742E+04</pdfrwt>
<totfact> 0.21571266E+00</totfact>
</mgrwt>
</event>
<event>
12    5  0.5246737E-008  0.1360888E+04  0.7818608E-02  0.8982627E-01
          1   -1    0    0  501    0  0.00000000000E+00  0.00000000000E+00  0.76478624421E+03  0.76478624421E+03  0.00000000000E+00 0. -1.
         -2   -1    0    0    0  501 -0.00000000000E+00 -0.00000000000E+00 -0.60540317518E+03  0.60540317518E+03  0.00000000000E+00 0.  1.
        -24    2    1    2    0    0  0.31685836206E+01  0.11616383165E+03  0.36882630946E+03  0.39508756702E+03  0.80976931040E+02 0.  0.
        254    2    1    2    0    0 -0.31685836206E+01 -0.11616383165E+03 -0.20944324043E+03  0.97510185237E+03  0.94522646801E+03 0.  0.
         23    2    4    4    0    0 -0.31251617670E+03 -0.38524716611E+03 -0.22956949853E+03  0.55451806665E+03  0.93308048403E+02 0.  0.
         23    2    4    4    0    0  0.30934759308E+03  0.26908333446E+03  0.20126258105E+02  0.42058378571E+03  0.91563531547E+02 0.  0.
          3    1    3    3  502    0 -0.14583058172E+02  0.93471298285E+02  0.34489446158E+03  0.35763352585E+03  0.00000000000E+00 0. -1.
         -4    1    3    3    0  502  0.17751641792E+02  0.22692533362E+02  0.23931847883E+02  0.37454041168E+02  0.00000000000E+00 0.  1.
         13    1    5    5    0    0 -0.17984103773E+03 -0.14789716504E+03 -0.10729504935E+03  0.25637589179E+03  0.00000000000E+00 0. -1.
        -13    1    5    5    0    0 -0.13267513898E+03 -0.23735000107E+03 -0.12227444918E+03  0.29814217486E+03  0.00000000000E+00 0.  1.
          3    1    6    6  503    0  0.16334488812E+03  0.19286137152E+03 -0.10949838445E+02  0.25297620454E+03  0.00000000000E+00 0. -1.
         -3    1    6    6    0  503  0.14600270496E+03  0.76221962936E+02  0.31076096550E+02  0.16760758117E+03  0.00000000000E+00 0.  1.
<mgrwt>
<rscale>  0 0.13608880E+04</rscale>
<asrwt>0</asrwt>
<pdfrwt beam="1">  1        1 0.11765942E+00 0.13608880E+04</pdfrwt>
<pdfrwt beam="2">  1       -2 0.93138951E-01 0.13608880E+04</pdfrwt>
<totfact> 0.19863363E+01</totfact>
</mgrwt>
</event>
<event>
12    5  0.5246737E-008  0.1954049E+04  0.7818608E-02  0.8628411E-01
          1   -1    0    0  501    0  0.00000000000E+00  0.00000000000E+00  0.19196344401E+04  0.19196344401E+04  0.00000000000E+00 0. -1.
         -2   -1    0    0    0  501 -0.00000000000E+00 -0.00000000000E+00 -0.49727002363E+03  0.49727002363E+03  0.00000000000E+00 0.  1.
        -24    2    1    2    0    0  0.74152320002E+03 -0.23016795058E+03  0.46788708634E+03  0.90985034815E+03  0.77944780651E+02 0.  0.
        254    2    1    2    0    0 -0.74152320002E+03  0.23016795058E+03  0.95447733010E+03  0.15070541155E+04  0.87025926704E+03 0.  0.
         23    2    4    4    0    0 -0.69283316045E+03 -0.18625903273E+03  0.48372003469E+03  0.87003637929E+03  0.90928619449E+02 0.  0.
         23    2    4    4    0    0 -0.48690039572E+02  0.41642698330E+03  0.47075729541E+03  0.63701773626E+03  0.91635215684E+02 0.  0.
          3    1    3    3  502    0  0.63014221159E+03 -0.16544058423E+03  0.39189184657E+03  0.76028219310E+03  0.00000000000E+00 0. -1.
         -4    1    3    3    0  502  0.11138098843E+03 -0.64727366351E+02  0.75995239769E+02  0.14956815505E+03  0.00000000000E+00 0.  1.
         13    1    5    5    0    0 -0.11056820149E+03 -0.10058031144E+01  0.95564716642E+02  0.14614702833E+03  0.00000000000E+00 0. -1.
        -13    1    5    5    0    0 -0.58226495896E+03 -0.18525322961E+03  0.38815531805E+03  0.72388935096E+03  0.00000000000E+00 0.  1.
          4    1    6    6  503    0 -0.95140921210E+01  0.29696636413E+02  0.71066675576E+01  0.31983009347E+02  0.00000000000E+00 0. -1.
         -4    1    6    6    0  503 -0.39175947451E+02  0.38673034689E+03  0.46365062785E+03  0.60503472691E+03  0.00000000000E+00 0.  1.
<mgrwt>
<rscale>  0 0.19540488E+04</rscale>
<asrwt>0</asrwt>
<pdfrwt beam="1">  1        1 0.29532837E+00 0.19540488E+04</pdfrwt>
<pdfrwt beam="2">  1       -2 0.76503082E-01 0.19540488E+04</pdfrwt>
<totfact> 0.42217087E+00</totfact>
</mgrwt>
</event>
<event>
12    5  0.5246737E-008  0.2186826E+04  0.7818608E-02  0.8523931E-01
         -2   -1    0    0    0  501 -0.00000000000E+00  0.00000000000E+00  0.49283725839E+03  0.49283725839E+03  0.00000000000E+00 0.  1.
          1   -1    0    0  501    0  0.00000000000E+00 -0.00000000000E+00 -0.24258560301E+04  0.24258560301E+04  0.00000000000E+00 0. -1.
        -24    2    1    2    0    0 -0.45180356397E+03 -0.32349320021E+03 -0.17282063265E+04  0.18171060969E+04  0.80019681262E+02 0.  0.
        254    2    1    2    0    0  0.45180356397E+03  0.32349320021E+03 -0.20481244517E+03  0.11015871916E+04  0.92885515122E+03 0.  0.
         23    2    4    4    0    0  0.43657991540E+03  0.19824739133E+03  0.29962359916E+03  0.57266587523E+03  0.90927733801E+02 0.  0.
         23    2    4    4    0    0  0.15223648563E+02  0.12524580887E+03 -0.50443604433E+03  0.52892131635E+03  0.96869829910E+02 0.  0.
          1    1    3    3  502    0 -0.32511376514E+03 -0.27427440929E+03 -0.13267963293E+04  0.13933104146E+04  0.00000000000E+00 0. -1.
         -2    1    3    3    0  502 -0.12668979882E+03 -0.49218790914E+02 -0.40140999719E+03  0.42379568232E+03  0.00000000000E+00 0.  1.
         13    1    5    5    0    0  0.30411695863E+02  0.30791438417E+02  0.47249607358E+01  0.43535148777E+02  0.00000000000E+00 0.  1.
        -13    1    5    5    0    0  0.40616821954E+03  0.16745595292E+03  0.29489863842E+03  0.52913072645E+03  0.00000000000E+00 0. -1.
          1    1    6    6  503    0  0.20528541382E+02  0.12808436027E+03 -0.50627552130E+03  0.52262981911E+03  0.00000000000E+00 0. -1.
         -1    1    6    6    0  503 -0.53048928189E+01 -0.28385514016E+01  0.18394769696E+01  0.62914972305E+01  0.00000000000E+00 0.  1.
<mgrwt>
<rscale>  0 0.21868262E+04</rscale>
<asrwt>0</asrwt>
<pdfrwt beam="1">  1        1 0.37320861E+00 0.21868262E+04</pdfrwt>
<pdfrwt beam="2">  1       -2 0.75821118E-01 0.21868262E+04</pdfrwt>
<totfact> 0.19061062E+00</totfact>
</mgrwt>
</event>
<event>
12    5  0.5246737E-008  0.1997413E+04  0.7818608E-02  0.8607831E-01
          1   -1    0    0  501    0  0.00000000000E+00  0.00000000000E+00  0.22475750539E+04  0.22475750539E+04  0.00000000000E+00 0. -1.
         -2   -1    0    0    0  501 -0.00000000000E+00 -0.00000000000E+00 -0.44377361520E+03  0.44377361520E+03  0.00000000000E+00 0.  1.
        -24    2    1    2    0    0 -0.56129657347E+03  0.15313180174E+03  0.14460844224E+04  0.15608020270E+04  0.80247234235E+02 0.  0.
        254    2    1    2    0    0  0.56129657347E+03 -0.15313180174E+03  0.35771701624E+03  0.11305466421E+04  0.90092788506E+03 0.  0.
         23    2    4    4    0    0  0.13161324018E+03 -0.16826737930E+01  0.58966594444E+03  0.61118383443E+03  0.92276091432E+02 0.  0.
         23    2    4    4    0    0  0.42968333329E+03 -0.15144912795E+03 -0.23194892820E+03  0.51936280764E+03  0.91503089577E+02 0.  0.
          1    1    3    3  502    0 -0.35748902016E+03  0.99608602070E+02  0.81621122383E+03  0.89661643697E+03  0.00000000000E+00 0. -1.
         -2    1    3    3    0  502 -0.20380755332E+03  0.53523199669E+02  0.62987319859E+03  0.66418559003E+03  0.00000000000E+00 0.  1.
         13    1    5    5    0    0  0.89904266121E+02 -0.14375173976E+01  0.53457689371E+03  0.54208606218E+03  0.00000000000E+00 0.  1.
        -13    1    5    5    0    0  0.41708974063E+02 -0.24515639541E+00  0.55089050733E+02  0.69097772248E+02  0.00000000000E+00 0. -1.
          2    1    6    6  503    0  0.16804211614E+03 -0.10643170698E+03 -0.90241503302E+02  0.21842479247E+03  0.00000000000E+00 0. -1.
         -2    1    6    6    0  503  0.26164121715E+03 -0.45017420967E+02 -0.14170742490E+03  0.30093801517E+03  0.00000000000E+00 0.  1.
<mgrwt>
<rscale>  0 0.19974128E+04</rscale>
<asrwt>0</asrwt>
<pdfrwt beam="1">  1        1 0.34578077E+00 0.19974128E+04</pdfrwt>
<pdfrwt beam="2">  1       -2 0.68272865E-01 0.19974128E+04</pdfrwt>
<totfact> 0.32345545E+00</totfact>
</mgrwt>
</event>
<event>
12    5  0.5246737E-008  0.1504829E+04  0.7818608E-02  0.8881248E-01
          1   -1    0    0  501    0  0.00000000000E+00  0.00000000000E+00  0.10880541133E+04  0.10880541133E+04  0.00000000000E+00 0. -1.
         -2   -1    0    0    0  501 -0.00000000000E+00 -0.00000000000E+00 -0.52031165936E+03  0.52031165936E+03  0.00000000000E+00 0.  1.
        -24    2    1    2    0    0  0.15366134694E+03 -0.32266448314E+03  0.51595042270E+03  0.63249294849E+03  0.78219645748E+02 0.  0.
        254    2    1    2    0    0 -0.15366134694E+03  0.32266448314E+03  0.51792031278E+02  0.97587282421E+03  0.90659868536E+03 0.  0.
         23    2    4    4    0    0  0.12525607987E+03  0.22156626096E+03  0.41721665028E+03  0.49641939765E+03  0.87073483605E+02 0.  0.
         23    2    4    4    0    0 -0.27891742681E+03  0.10109822219E+03 -0.36542461900E+03  0.47945342657E+03  0.91239544970E+02 0.  0.
          3    1    3    3  502    0  0.92918885698E+02 -0.23627524214E+03  0.30709640012E+03  0.39845715998E+03  0.00000000000E+00 0. -1.
         -4    1    3    3    0  502  0.60742461238E+02 -0.86389241001E+02  0.20885402258E+03  0.23403578852E+03  0.00000000000E+00 0.  1.
         13    1    5    5    0    0  0.36451175743E+01  0.68144582407E+02  0.15342762729E+03  0.16791964688E+03  0.00000000000E+00 0. -1.
        -13    1    5    5    0    0  0.12161096230E+03  0.15342167855E+03  0.26378902299E+03  0.32849975076E+03  0.00000000000E+00 0.  1.
          2    1    6    6  503    0 -0.16943462706E+02  0.36529978464E+02 -0.54882296223E+02  0.68070453897E+02  0.00000000000E+00 0. -1.
         -2    1    6    6    0  503 -0.26197396410E+03  0.64568243723E+02 -0.31054232278E+03  0.41138297267E+03  0.00000000000E+00 0.  1.
<mgrwt>
<rscale>  0 0.15048285E+04</rscale>
<asrwt>0</asrwt>
<pdfrwt beam="1">  1        1 0.16739294E+00 0.15048285E+04</pdfrwt>
<pdfrwt beam="2">  1       -2 0.80047948E-01 0.15048285E+04</pdfrwt>
<totfact> 0.15152238E+01</totfact>
</mgrwt>
</event>
<event>
12    5  0.5246737E-008  0.1315865E+04  0.7818608E-02  0.9017078E-01
          1   -1    0    0  501    0  0.00000000000E+00  0.00000000000E+00  0.31968626511E+03  0.31968626511E+03  0.00000000000E+00 0. -1.
         -2   -1    0    0    0  501 -0.00000000000E+00 -0.00000000000E+00 -0.13540631241E+04  0.13540631241E+04  0.00000000000E+00 0.  1.
        -24    2    1    2    0    0 -0.14876355717E+03  0.13332489826E+03 -0.11490261253E+03  0.24421837514E+03  0.80832418949E+02 0.  0.
        254    2    1    2    0    0  0.14876355717E+03 -0.13332489826E+03 -0.91947424645E+03  0.14295310141E+04  0.10762062562E+04 0.  0.
         23    2    4    4    0    0  0.41884395174E+03  0.11862341927E+03 -0.94900185581E+03  0.10480415001E+04  0.91020283697E+02 0.  0.
         23    2    4    4    0    0 -0.27008039457E+03 -0.25194831753E+03  0.29527609359E+02  0.38148951399E+03  0.90779928016E+02 0.  0.
          1    1    3    3  502    0 -0.92834300288E+02  0.89020832645E+02 -0.27740806277E+02  0.13157685316E+03  0.00000000000E+00 0. -1.
         -2    1    3    3    0  502 -0.55929256882E+02  0.44304065617E+02 -0.87161806250E+02  0.11264152198E+03  0.00000000000E+00 0.  1.
         13    1    5    5    0    0  0.53161306468E+02  0.45833514966E+02 -0.11942061559E+03  0.13852118620E+03  0.00000000000E+00 0.  1.
        -13    1    5    5    0    0  0.36568264527E+03  0.72789904302E+02 -0.82958124023E+03  0.90952031388E+03  0.00000000000E+00 0. -1.
          1    1    6    6  503    0 -0.21998817733E+03 -0.20208537991E+03  0.59721941714E+02  0.30463093943E+03  0.00000000000E+00 0. -1.
         -1    1    6    6    0  503 -0.50092217244E+02 -0.49862937620E+02 -0.30194332354E+02  0.76858574556E+02  0.00000000000E+00 0.  1.
<mgrwt>
<rscale>  0 0.13158653E+04</rscale>
<asrwt>0</asrwt>
<pdfrwt beam="1">  1        1 0.49182503E-01 0.13158653E+04</pdfrwt>
<pdfrwt beam="2">  1       -2 0.20831740E+00 0.13158653E+04</pdfrwt>
<totfact> 0.81111243E+00</totfact>
</mgrwt>
</event>
<event>
12    5  0.5246737E-008  0.2035064E+04  0.7818608E-02  0.8590400E-01
         -2   -1    0    0    0  501 -0.00000000000E+00  0.00000000000E+00  0.48988498962E+03  0.48988498962E+03  0.00000000000E+00 0.  1.
          1   -1    0    0  501    0  0.00000000000E+00 -0.00000000000E+00 -0.21134985755E+04  0.21134985755E+04  0.00000000000E+00 0. -1.
        -24    2    1    2    0    0  0.64930371886E+03 -0.88191867109E+02 -0.35099981375E+02  0.66110788897E+03  0.80364839428E+02 0.  0.
        254    2    1    2    0    0 -0.64930371886E+03  0.88191867109E+02 -0.15885136045E+04  0.19422756761E+04  0.90536523331E+03 0.  0.
         23    2    4    4    0    0 -0.67006304111E+03  0.35016318987E+03 -0.14324401405E+04  0.16221998263E+04  0.89715001729E+02 0.  0.
         23    2    4    4    0    0  0.20759322249E+02 -0.26197132276E+03 -0.15607346393E+03  0.32007584984E+03  0.95024734151E+02 0.  0.
          1    1    3    3  502    0  0.26561957891E+03 -0.76038881415E+02 -0.16465568836E+02  0.27677931127E+03  0.00000000000E+00 0. -1.
         -2    1    3    3    0  502  0.38368413994E+03 -0.12152985694E+02 -0.18634412539E+02  0.38432857770E+03  0.00000000000E+00 0.  1.
         13    1    5    5    0    0 -0.10129469936E+03  0.63728367536E+02 -0.29990343527E+03  0.32289935187E+03  0.00000000000E+00 0. -1.
        -13    1    5    5    0    0 -0.56876834174E+03  0.28643482233E+03 -0.11325367053E+04  0.12993004744E+04  0.00000000000E+00 0.  1.
          4    1    6    6  503    0 -0.14869174799E+02 -0.72130133794E+02 -0.31519288092E+01  0.73714199552E+02  0.00000000000E+00 0. -1.
         -4    1    6    6    0  503  0.35628497048E+02 -0.18984118896E+03 -0.15292153513E+03  0.24636165029E+03  0.00000000000E+00 0.  1.
<mgrwt>
<rscale>  0 0.20350639E+04</rscale>
<asrwt>0</asrwt>
<pdfrwt beam="1">  1        1 0.32515363E+00 0.20350639E+04</pdfrwt>
<pdfrwt beam="2">  1       -2 0.75366921E-01 0.20350639E+04</pdfrwt>
<totfact> 0.32016875E+00</totfact>
</mgrwt>
</event>
<event>
12    5  0.5246737E-008  0.1092117E+04  0.7818608E-02  0.9212909E-01
         -4   -1    0    0    0  501 -0.00000000000E+00  0.00000000000E+00  0.26781167784E+03  0.26781167784E+03  0.00000000000E+00 0.  1.
          3   -1    0    0  501    0  0.00000000000E+00 -0.00000000000E+00 -0.11133937451E+04  0.11133937451E+04  0.00000000000E+00 0. -1.
        -24    2    1    2    0    0 -0.14809094877E+03 -0.45822130399E+02 -0.12220439797E+03  0.21349972981E+03  0.81348773824E+02 0.  0.
        254    2    1    2    0    0  0.14809094877E+03  0.45822130399E+02 -0.72337766925E+03  0.11677056931E+04  0.90345488906E+03 0.  0.
         23    2    4    4    0    0 -0.21177353538E+03 -0.22061761057E+02  0.10624145156E+03  0.25537911304E+03  0.92717278632E+02 0.  0.
         23    2    4    4    0    0  0.35986448416E+03  0.67883891455E+02 -0.82961912081E+03  0.91232658005E+03  0.99805978685E+02 0.  0.
          1    1    3    3  502    0 -0.95195230285E+02 -0.19943035261E+02 -0.12014183039E+03  0.15457656981E+03  0.00000000000E+00 0. -1.
         -2    1    3    3    0  502 -0.52895718488E+02 -0.25879095137E+02 -0.20625675815E+01  0.58923160001E+02  0.00000000000E+00 0.  1.
         13    1    5    5    0    0 -0.13812452108E+02 -0.18975525098E+02 -0.10310061781E+02  0.25634971424E+02  0.00000000000E+00 0. -1.
        -13    1    5    5    0    0 -0.19796108327E+03 -0.30862359583E+01  0.11655151334E+03  0.22974414162E+03  0.00000000000E+00 0.  1.
          3    1    6    6  503    0  0.23253182460E+02  0.33891504989E+02 -0.82324113256E+02  0.92014152326E+02  0.00000000000E+00 0. -1.
         -3    1    6    6    0  503  0.33661130170E+03  0.33992386466E+02 -0.74729500756E+03  0.82031242773E+03  0.00000000000E+00 0.  1.
<mgrwt>
<rscale>  0 0.10921169E+04</rscale>
<asrwt>0</asrwt>
<pdfrwt beam="1">  1        3 0.17129134E+00 0.10921169E+04</pdfrwt>
<pdfrwt beam="2">  1       -4 0.41201797E-01 0.10921169E+04</pdfrwt>
<totfact> 0.29728651E+00</totfact>
</mgrwt>
</event>
<event>
12    5  0.5246737E-008  0.1329172E+04  0.7818608E-02  0.9006746E-01
          1   -1    0    0  501    0  0.00000000000E+00  0.00000000000E+00  0.27245794761E+04  0.27245794761E+04  0.00000000000E+00 0. -1.
         -2   -1    0    0    0  501 -0.00000000000E+00 -0.00000000000E+00 -0.16210737941E+03  0.16210737941E+03  0.00000000000E+00 0.  1.
        -24    2    1    2    0    0  0.11025955180E+02 -0.99118323088E+02  0.14486511781E+04  0.14542633273E+04  0.79659121788E+02 0.  0.
        254    2    1    2    0    0 -0.11025955180E+02  0.99118323088E+02  0.11138209186E+04  0.14324235282E+04  0.89515032914E+03 0.  0.
         23    2    4    4    0    0 -0.29361138606E+03  0.33962632945E+03  0.34466289684E+03  0.57346029175E+03  0.92252393331E+02 0.  0.
         23    2    4    4    0    0  0.28258543088E+03 -0.24050800637E+03  0.76915802173E+03  0.85896323643E+03  0.92277582659E+02 0.  0.
          3    1    3    3  502    0  0.43275028767E+02 -0.40562411663E+02  0.79213798952E+03  0.79435548201E+03  0.00000000000E+00 0. -1.
         -4    1    3    3    0  502 -0.32249073587E+02 -0.58555911425E+02  0.65651318856E+03  0.65990784528E+03  0.00000000000E+00 0.  1.
         13    1    5    5    0    0 -0.95210320376E+02  0.12685202557E+03  0.17706445401E+03  0.23771466587E+03  0.00000000000E+00 0.  1.
        -13    1    5    5    0    0 -0.19840106569E+03  0.21277430388E+03  0.16759844283E+03  0.33574562588E+03  0.00000000000E+00 0. -1.
          4    1    6    6  503    0  0.21330872957E+03 -0.21520048403E+03  0.55304410316E+03  0.63061053153E+03  0.00000000000E+00 0. -1.
         -4    1    6    6    0  503  0.69276701317E+02 -0.25307522332E+02  0.21611391857E+03  0.22835270489E+03  0.00000000000E+00 0.  1.
<mgrwt>
<rscale>  0 0.13291718E+04</rscale>
<asrwt>0</asrwt>
<pdfrwt beam="1">  1        1 0.41916604E+00 0.13291718E+04</pdfrwt>
<pdfrwt beam="2">  1       -2 0.24939599E-01 0.13291718E+04</pdfrwt>
<totfact> 0.11769228E+01</totfact>
</mgrwt>
</event>
<event>
12    5  0.5246737E-008  0.1541226E+04  0.7818608E-02  0.8857492E-01
          1   -1    0    0  501    0  0.00000000000E+00  0.00000000000E+00  0.16991324564E+04  0.16991324564E+04  0.00000000000E+00 0. -1.
         -2   -1    0    0    0  501 -0.00000000000E+00 -0.00000000000E+00 -0.34949842330E+03  0.34949842330E+03  0.00000000000E+00 0.  1.
        -24    2    1    2    0    0 -0.22932558288E+03 -0.41636615597E+03  0.69067935197E+03  0.84188138454E+03  0.75995391914E+02 0.  0.
        254    2    1    2    0    0  0.22932558288E+03  0.41636615597E+03  0.65895468109E+03  0.12067494951E+04  0.89222871141E+03 0.  0.
         23    2    4    4    0    0 -0.11354908157E+03  0.39580619447E+03  0.73215121124E+03  0.84418341105E+03  0.83930315596E+02 0.  0.
         23    2    4    4    0    0  0.34287466445E+03  0.20559961495E+02 -0.73196530150E+02  0.36256608407E+03  0.90059345752E+02 0.  0.
          1    1    3    3  502    0 -0.13024396413E+03 -0.20891187878E+03  0.41910601100E+03  0.48606327957E+03  0.00000000000E+00 0. -1.
         -2    1    3    3    0  502 -0.99081618749E+02 -0.20745427719E+03  0.27157334097E+03  0.35581810497E+03  0.00000000000E+00 0.  1.
         13    1    5    5    0    0 -0.10025538140E+03  0.33703212220E+03  0.55450625137E+03  0.65659650906E+03  0.00000000000E+00 0.  1.
        -13    1    5    5    0    0 -0.13293700168E+02  0.58774072268E+02  0.17764495986E+03  0.18758690199E+03  0.00000000000E+00 0. -1.
          1    1    6    6  503    0  0.22455083286E+02  0.20855106561E+02 -0.22823504908E+02  0.38210975011E+02  0.00000000000E+00 0. -1.
         -1    1    6    6    0  503  0.32041958116E+03 -0.29514506552E+00 -0.50373025242E+02  0.32435510906E+03  0.00000000000E+00 0.  1.
<mgrwt>
<rscale>  0 0.15412256E+04</rscale>
<asrwt>0</asrwt>
<pdfrwt beam="1">  1        1 0.26140499E+00 0.15412256E+04</pdfrwt>
<pdfrwt beam="2">  1       -2 0.53768989E-01 0.15412256E+04</pdfrwt>
<totfact> 0.13160913E+01</totfact>
</mgrwt>
</event>
<event>
12    5  0.5246737E-008  0.1746447E+04  0.7818608E-02  0.8735309E-01
         -2   -1    0    0    0  501 -0.00000000000E+00  0.00000000000E+00  0.85330712466E+03  0.85330712466E+03  0.00000000000E+00 0.  1.
          1   -1    0    0  501    0  0.00000000000E+00 -0.00000000000E+00 -0.89360439923E+03  0.89360439923E+03  0.00000000000E+00 0. -1.
        -24    2    1    2    0    0  0.34791177231E+02 -0.62748642493E+03 -0.12300842386E+03  0.64526492617E+03  0.79285011913E+02 0.  0.
        254    2    1    2    0    0 -0.34791177231E+02  0.62748642493E+03  0.82711149283E+02  0.11016465977E+04  0.90101856394E+03 0.  0.
         23    2    4    4    0    0  0.31341729859E+03  0.62277550770E+03  0.18497998339E+03  0.72717539088E+03  0.92123389028E+02 0.  0.
         23    2    4    4    0    0 -0.34820847582E+03  0.47109172363E+01 -0.10226883411E+03  0.37447120684E+03  0.92186956527E+02 0.  0.
          3    1    3    3  502    0  0.77611682310E+01 -0.53352803345E+03 -0.84731929000E+02  0.54027020833E+03  0.00000000000E+00 0. -1.
         -4    1    3    3    0  502  0.27030009000E+02 -0.93958391479E+02 -0.38276494858E+02  0.10499471784E+03  0.00000000000E+00 0.  1.
         13    1    5    5    0    0  0.12481321066E+03  0.33455527706E+03  0.68665053195E+02  0.36362131468E+03  0.00000000000E+00 0. -1.
        -13    1    5    5    0    0  0.18860408793E+03  0.28822023064E+03  0.11631493019E+03  0.36355407620E+03  0.00000000000E+00 0.  1.
          3    1    6    6  503    0 -0.19838736871E+03 -0.41062655429E+02 -0.43907946403E+02  0.20729591770E+03  0.00000000000E+00 0. -1.
         -3    1    6    6    0  503 -0.14982110710E+03  0.45773572666E+02 -0.58360887704E+02  0.16717528915E+03  0.00000000000E+00 0.  1.
<mgrwt>
<rscale>  0 0.17464467E+04</rscale>
<asrwt>0</asrwt>
<pdfrwt beam="1">  1        1 0.13747760E+00 0.17464467E+04</pdfrwt>
<pdfrwt beam="2">  1       -2 0.13127802E+00 0.17464467E+04</pdfrwt>
<totfact> 0.64806743E+00</totfact>
</mgrwt>
</event>
<event>
12    5  0.5246737E-008  0.1137826E+04  0.7818608E-02  0.9169089E-01
         -2   -1    0    0    0  501 -0.00000000000E+00  0.00000000000E+00  0.60647761138E+03  0.60647761138E+03  0.00000000000E+00 0.  1.
          1   -1    0    0  501    0  0.00000000000E+00 -0.00000000000E+00 -0.53367512454E+03  0.53367512454E+03  0.00000000000E+00 0. -1.
        -24    2    1    2    0    0 -0.10287808314E+03  0.13736752383E+03  0.12668211641E+03  0.22843353289E+03  0.81729943950E+02 0.  0.
        254    2    1    2    0    0  0.10287808314E+03 -0.13736752383E+03 -0.53879629567E+02  0.91171920303E+03  0.89379816184E+03 0.  0.
         23    2    4    4    0    0  0.40952398814E+03 -0.28023724137E+03  0.12390872200E+03  0.51969382927E+03  0.92116754612E+02 0.  0.
         23    2    4    4    0    0 -0.30664590500E+03  0.14286971754E+03 -0.17778835156E+03  0.39202537376E+03  0.87359764646E+02 0.  0.
          1    1    3    3  502    0 -0.10473171842E+03  0.14528796000E+03  0.11083945414E+03  0.21062456827E+03  0.00000000000E+00 0. -1.
         -2    1    3    3    0  502  0.18536352814E+01 -0.79204361762E+01  0.15842662273E+02  0.17808964621E+02  0.00000000000E+00 0.  1.
         13    1    5    5    0    0  0.26013976062E+03 -0.22929801134E+03  0.80239894970E+02  0.35593358060E+03  0.00000000000E+00 0. -1.
        -13    1    5    5    0    0  0.14938422752E+03 -0.50939230036E+02  0.43668827029E+02  0.16376024867E+03  0.00000000000E+00 0.  1.
          4    1    6    6  503    0 -0.78738534430E+02  0.45871509546E+01 -0.66441828665E+02  0.10312766532E+03  0.00000000000E+00 0.  1.
         -4    1    6    6    0  503 -0.22790737057E+03  0.13828256659E+03 -0.11134652290E+03  0.28889770844E+03  0.00000000000E+00 0. -1.
<mgrwt>
<rscale>  0 0.11378260E+04</rscale>
<asrwt>0</asrwt>
<pdfrwt beam="1">  1        1 0.82103865E-01 0.11378260E+04</pdfrwt>
<pdfrwt beam="2">  1       -2 0.93304248E-01 0.11378260E+04</pdfrwt>
<totfact> 0.34216436E+01</totfact>
</mgrwt>
</event>
<event>
12    5  0.5246737E-008  0.1576192E+04  0.7818608E-02  0.8835309E-01
          1   -1    0    0  501    0  0.00000000000E+00  0.00000000000E+00  0.66352600621E+03  0.66352600621E+03  0.00000000000E+00 0. -1.
         -2   -1    0    0    0  501 -0.00000000000E+00 -0.00000000000E+00 -0.93605211055E+03  0.93605211055E+03  0.00000000000E+00 0.  1.
        -24    2    1    2    0    0  0.15199877656E+02 -0.52113814429E+03 -0.64819951324E+02  0.53148954572E+03  0.80395953917E+02 0.  0.
        254    2    1    2    0    0 -0.15199877656E+02  0.52113814429E+03 -0.20770615302E+03  0.10680885710E+04  0.90876583775E+03 0.  0.
         23    2    4    4    0    0  0.23917510603E+03  0.51751913499E+03  0.17227148860E+03  0.60207011865E+03  0.88205303458E+02 0.  0.
         23    2    4    4    0    0 -0.25437498369E+03  0.36190093007E+01 -0.37997764162E+03  0.46601845239E+03  0.89835740569E+02 0.  0.
          1    1    3    3  502    0 -0.23093647956E+02 -0.32822045752E+03 -0.19229984008E+02  0.32959335187E+03  0.00000000000E+00 0. -1.
         -2    1    3    3    0  502  0.38293525612E+02 -0.19291768677E+03 -0.45589967316E+02  0.20189619385E+03  0.00000000000E+00 0.  1.
         13    1    5    5    0    0 -0.82834298323E-01  0.63144772027E+02  0.13547431096E+02  0.64581746533E+02  0.00000000000E+00 0. -1.
        -13    1    5    5    0    0  0.23925794033E+03  0.45437436296E+03  0.15872405750E+03  0.53748837211E+03  0.00000000000E+00 0.  1.
          1    1    6    6  503    0 -0.39258874308E+02 -0.11504408889E+02 -0.12791076986E+03  0.13429361743E+03  0.00000000000E+00 0. -1.
         -1    1    6    6    0  503 -0.21511610938E+03  0.15123418190E+02 -0.25206687176E+03  0.33172483496E+03  0.00000000000E+00 0.  1.
<mgrwt>
<rscale>  0 0.15761915E+04</rscale>
<asrwt>0</asrwt>
<pdfrwt beam="1">  1        1 0.10208092E+00 0.15761915E+04</pdfrwt>
<pdfrwt beam="2">  1       -2 0.14400802E+00 0.15761915E+04</pdfrwt>
<totfact> 0.82893641E+00</totfact>
</mgrwt>
</event>
<event>
12    5  0.5246737E-008  0.1415672E+04  0.7818608E-02  0.8942552E-01
         -2   -1    0    0    0  501 -0.00000000000E+00  0.00000000000E+00  0.65112194246E+03  0.65112194246E+03  0.00000000000E+00 0.  1.
          1   -1    0    0  501    0  0.00000000000E+00 -0.00000000000E+00 -0.76948994036E+03  0.76948994036E+03  0.00000000000E+00 0. -1.
        -24    2    1    2    0    0 -0.41748288648E+02 -0.19839065861E+03 -0.40205730807E+03  0.45723571454E+03  0.79452165853E+02 0.  0.
        254    2    1    2    0    0  0.41748288648E+02  0.19839065861E+03  0.28368931017E+03  0.96337616827E+03  0.89806026739E+03 0.  0.
         23    2    4    4    0    0  0.66601556170E+02  0.45947612032E+03  0.43914072598E+03  0.64554470302E+03  0.91265075250E+02 0.  0.
         23    2    4    4    0    0 -0.24853267522E+02 -0.26108546171E+03 -0.15545141581E+03  0.31783146525E+03  0.89824241719E+02 0.  0.
          1    1    3    3  502    0 -0.72954681487E+01 -0.12517475931E+03 -0.31152566502E+03  0.33581272191E+03  0.00000000000E+00 0. -1.
         -2    1    3    3    0  502 -0.34452820499E+02 -0.73215899293E+02 -0.90531643041E+02  0.12142299264E+03  0.00000000000E+00 0.  1.
         13    1    5    5    0    0  0.50080773731E+01  0.32615146211E+03  0.30916673366E+03  0.44942621895E+03  0.00000000000E+00 0. -1.
        -13    1    5    5    0    0  0.61593478797E+02  0.13332465821E+03  0.12997399231E+03  0.19611848407E+03  0.00000000000E+00 0.  1.
          1    1    6    6  503    0  0.25899571800E+02 -0.14882988519E+03 -0.62416584065E+02  0.16345321200E+03  0.00000000000E+00 0. -1.
         -1    1    6    6    0  503 -0.50752839322E+02 -0.11225557652E+03 -0.93034831744E+02  0.15437825325E+03  0.00000000000E+00 0.  1.
<mgrwt>
<rscale>  0 0.14156720E+04</rscale>
<asrwt>0</asrwt>
<pdfrwt beam="1">  1        1 0.11838307E+00 0.14156720E+04</pdfrwt>
<pdfrwt beam="2">  1       -2 0.10017261E+00 0.14156720E+04</pdfrwt>
<totfact> 0.16508588E+01</totfact>
</mgrwt>
</event>
<event>
12    5  0.5246737E-008  0.2640802E+04  0.7818608E-02  0.8354472E-01
          1   -1    0    0  501    0  0.00000000000E+00  0.00000000000E+00  0.19668209291E+04  0.19668209291E+04  0.00000000000E+00 0. -1.
         -4   -1    0    0    0  501 -0.00000000000E+00 -0.00000000000E+00 -0.88643490901E+03  0.88643490901E+03  0.00000000000E+00 0.  1.
        -24    2    1    2    0    0  0.10719413137E+04 -0.28123040173E+03  0.11855178886E+03  0.11174945836E+04  0.81184350420E+02 0.  0.
        254    2    1    2    0    0 -0.10719413137E+04  0.28123040173E+03  0.96183423129E+03  0.17357612546E+04  0.92714255948E+03 0.  0.
         23    2    4    4    0    0 -0.97839870659E+03  0.20497730892E+03  0.11287235390E+04  0.15105156521E+04  0.91438402963E+02 0.  0.
         23    2    4    4    0    0 -0.93542607116E+02  0.76253092818E+02 -0.16688930772E+03  0.22524560248E+03  0.91207383999E+02 0.  0.
          3    1    3    3  502    0  0.25731141281E+03 -0.10312491690E+03  0.22826714073E+02  0.27814559232E+03  0.00000000000E+00 0. -1.
         -4    1    3    3    0  502  0.81462990089E+03 -0.17810548483E+03  0.95725074783E+02  0.83934899124E+03  0.00000000000E+00 0.  1.
         13    1    5    5    0    0 -0.33942947030E+03  0.10968968350E+03  0.43517569203E+03  0.56269181166E+03  0.00000000000E+00 0. -1.
        -13    1    5    5    0    0 -0.63896923629E+03  0.95287625415E+02  0.69354784698E+03  0.94782384045E+03  0.00000000000E+00 0.  1.
          2    1    6    6  503    0 -0.97665747970E+02  0.66941276440E+02 -0.17563676419E+03  0.21182069245E+03  0.00000000000E+00 0.  1.
         -2    1    6    6    0  503  0.41231408547E+01  0.93118163778E+01  0.87474564625E+01  0.13424910030E+02  0.00000000000E+00 0. -1.
<mgrwt>
<rscale>  0 0.26408019E+04</rscale>
<asrwt>0</asrwt>
<pdfrwt beam="1">  1        1 0.30258783E+00 0.26408019E+04</pdfrwt>
<pdfrwt beam="2">  1       -4 0.13637460E+00 0.26408019E+04</pdfrwt>
<totfact> 0.51663726E-01</totfact>
</mgrwt>
</event>
<event>
12    5  0.5246737E-008  0.2175581E+04  0.7818608E-02  0.8528661E-01
          1   -1    0    0  501    0  0.00000000000E+00  0.00000000000E+00  0.93939472629E+03  0.93939472629E+03  0.00000000000E+00 0. -1.
         -2   -1    0    0    0  501 -0.00000000000E+00 -0.00000000000E+00 -0.12596281945E+04  0.12596281945E+04  0.00000000000E+00 0.  1.
        -24    2    1    2    0    0 -0.11036716335E+03 -0.65046745394E+03  0.48487809266E+03  0.82269556339E+03  0.80202281081E+02 0.  0.
        254    2    1    2    0    0  0.11036716335E+03  0.65046745394E+03 -0.80511156083E+03  0.13763273574E+04  0.90043520026E+03 0.  0.
         23    2    4    4    0    0 -0.60901676404E+01 -0.12446345309E+03  0.93352855987E+02  0.18070494309E+03  0.91713027642E+02 0.  0.
         23    2    4    4    0    0  0.11645733099E+03  0.77493090704E+03 -0.89846441682E+03  0.11956224143E+04  0.90523083239E+02 0.  0.
          3    1    3    3  502    0 -0.97261202336E+02 -0.64030779030E+03  0.46810878178E+03  0.79911178153E+03  0.00000000000E+00 0. -1.
         -4    1    3    3    0  502 -0.13105961011E+02 -0.10159663645E+02  0.16769310881E+02  0.23583781860E+02  0.00000000000E+00 0.  1.
         13    1    5    5    0    0  0.31481287123E+02 -0.14921240343E+02  0.40457373967E+02  0.53390204726E+02  0.00000000000E+00 0.  1.
        -13    1    5    5    0    0 -0.37571454764E+02 -0.10954221275E+03  0.52895482020E+02  0.12731473837E+03  0.00000000000E+00 0. -1.
          4    1    6    6  503    0  0.12110326693E+03  0.59453178794E+03 -0.72394769934E+03  0.94458155789E+03  0.00000000000E+00 0. -1.
         -4    1    6    6    0  503 -0.46459359436E+01  0.18039911910E+03 -0.17451671747E+03  0.25104085638E+03  0.00000000000E+00 0.  1.
<mgrwt>
<rscale>  0 0.21755809E+04</rscale>
<asrwt>0</asrwt>
<pdfrwt beam="1">  1        1 0.14452227E+00 0.21755809E+04</pdfrwt>
<pdfrwt beam="2">  1       -2 0.19378895E+00 0.21755809E+04</pdfrwt>
<totfact> 0.19789821E+00</totfact>
</mgrwt>
</event>
<event>
12    5  0.5246737E-008  0.9990747E+03  0.7818608E-02  0.9309560E-01
          1   -1    0    0  501    0  0.00000000000E+00  0.00000000000E+00  0.47400587128E+03  0.47400587128E+03  0.00000000000E+00 0. -1.
         -2   -1    0    0    0  501 -0.00000000000E+00 -0.00000000000E+00 -0.52644400210E+03  0.52644400210E+03  0.00000000000E+00 0.  1.
        -24    2    1    2    0    0  0.11227493863E+01  0.16769429048E+02  0.37325078879E+02  0.89545763140E+02  0.79641747007E+02 0.  0.
        254    2    1    2    0    0 -0.11227493863E+01 -0.16769429048E+02 -0.89763209695E+02  0.91090411024E+03  0.90631473006E+03 0.  0.
         23    2    4    4    0    0 -0.11314743093E+03  0.27867113082E+03 -0.36556158834E+03  0.48216324074E+03  0.91576064383E+02 0.  0.
         23    2    4    4    0    0  0.11202468154E+03 -0.29544055987E+03  0.27579837865E+03  0.42874086951E+03  0.88990639005E+02 0.  0.
          1    1    3    3  502    0 -0.34763383733E+02  0.24863223796E+02  0.29509094697E+02  0.51937071692E+02  0.00000000000E+00 0. -1.
         -2    1    3    3    0  502  0.35886133119E+02 -0.80937947485E+01  0.78159841818E+01  0.37608691448E+02  0.00000000000E+00 0.  1.
         13    1    5    5    0    0 -0.12413360950E+02 -0.22157538687E+01 -0.37150898596E+01  0.13145455030E+02  0.00000000000E+00 0.  1.
        -13    1    5    5    0    0 -0.10073406998E+03  0.28088688469E+03 -0.36184649848E+03  0.46901778571E+03  0.00000000000E+00 0. -1.
          2    1    6    6  503    0  0.12018459752E+03 -0.26486511070E+03  0.26940600175E+03  0.39645612383E+03  0.00000000000E+00 0. -1.
         -2    1    6    6    0  503 -0.81599159835E+01 -0.30575449167E+02  0.63923769011E+01  0.32284745671E+02  0.00000000000E+00 0.  1.
<mgrwt>
<rscale>  0 0.99907467E+03</rscale>
<asrwt>0</asrwt>
<pdfrwt beam="1">  1        1 0.72923980E-01 0.99907467E+03</pdfrwt>
<pdfrwt beam="2">  1       -2 0.80991385E-01 0.99907467E+03</pdfrwt>
<totfact> 0.56261101E+01</totfact>
</mgrwt>
</event>
<event>
12    5  0.5246737E-008  0.1339892E+04  0.7818608E-02  0.8998515E-01
          1   -1    0    0  501    0  0.00000000000E+00  0.00000000000E+00  0.42495791412E+03  0.42495791412E+03  0.00000000000E+00 0. -1.
         -2   -1    0    0    0  501 -0.00000000000E+00 -0.00000000000E+00 -0.10561695306E+04  0.10561695306E+04  0.00000000000E+00 0.  1.
        -24    2    1    2    0    0  0.27152474711E+03  0.13067916504E+03  0.44376901954E+02  0.31623113212E+03  0.85029918413E+02 0.  0.
        254    2    1    2    0    0 -0.27152474711E+03 -0.13067916504E+03 -0.67558851844E+03  0.11648963126E+04  0.89986712374E+03 0.  0.
         23    2    4    4    0    0 -0.25218447814E+03 -0.67687037138E+01  0.16173156886E+03  0.31336075972E+03  0.91624445436E+02 0.  0.
         23    2    4    4    0    0 -0.19340268975E+02 -0.12391046133E+03 -0.83732008730E+03  0.85153555288E+03  0.90994619611E+02 0.  0.
          1    1    3    3  502    0  0.20984883925E+03  0.10537526972E+03  0.69657190816E+02  0.24493388298E+03  0.00000000000E+00 0. -1.
         -2    1    3    3    0  502  0.61675907866E+02  0.25303895326E+02 -0.25280288862E+02  0.71297249139E+02  0.00000000000E+00 0.  1.
         13    1    5    5    0    0 -0.14301431203E+02  0.24447337860E+02  0.13894721986E+02  0.31547845600E+02  0.00000000000E+00 0. -1.
        -13    1    5    5    0    0 -0.23788304693E+03 -0.31216041574E+02  0.14783684687E+03  0.28181291412E+03  0.00000000000E+00 0.  1.
          4    1    6    6  503    0  0.17571663478E+02 -0.13519516076E+02 -0.39735857863E+02  0.45502517209E+02  0.00000000000E+00 0. -1.
         -4    1    6    6    0  503 -0.36911932453E+02 -0.11039094525E+03 -0.79758422943E+03  0.80603303567E+03  0.00000000000E+00 0.  1.
<mgrwt>
<rscale>  0 0.13398919E+04</rscale>
<asrwt>0</asrwt>
<pdfrwt beam="1">  1        1 0.65378142E-01 0.13398919E+04</pdfrwt>
<pdfrwt beam="2">  1       -2 0.16248762E+00 0.13398919E+04</pdfrwt>
<totfact> 0.11425578E+01</totfact>
</mgrwt>
</event>
<event>
12    5  0.5246737E-008  0.1356135E+04  0.7818608E-02  0.8986197E-01
         -2   -1    0    0    0  501 -0.00000000000E+00  0.00000000000E+00  0.52241730016E+03  0.52241730016E+03  0.00000000000E+00 0.  1.
          1   -1    0    0  501    0  0.00000000000E+00 -0.00000000000E+00 -0.88009260968E+03  0.88009260968E+03  0.00000000000E+00 0. -1.
        -24    2    1    2    0    0 -0.36637029910E+03 -0.72541955963E+02 -0.12693963954E+03  0.40257187541E+03  0.80379794377E+02 0.  0.
        254    2    1    2    0    0  0.36637029910E+03  0.72541955963E+02 -0.23073566998E+03  0.99993803443E+03  0.89841393125E+03 0.  0.
         23    2    4    4    0    0  0.16041937585E+03  0.36326637082E+02  0.33877545812E+03  0.38748090281E+03  0.91206569473E+02 0.  0.
         23    2    4    4    0    0  0.20595092325E+03  0.36215318881E+02 -0.56951112809E+03  0.61245713162E+03  0.83865850838E+02 0.  0.
          3    1    3    3  502    0 -0.85809743585E+02 -0.41334571064E+02 -0.59092793735E+01  0.95429442217E+02  0.00000000000E+00 0. -1.
         -4    1    3    3    0  502 -0.28056055551E+03 -0.31207384899E+02 -0.12103036017E+03  0.30714243319E+03  0.00000000000E+00 0.  1.
         13    1    5    5    0    0  0.10598406624E+03  0.58858680031E+02  0.27566832763E+03  0.30114779323E+03  0.00000000000E+00 0.  1.
        -13    1    5    5    0    0  0.54435309608E+02 -0.22532042949E+02  0.63107130488E+02  0.86333109582E+02  0.00000000000E+00 0. -1.
          3    1    6    6  503    0  0.64900977520E+02  0.32691405993E+02 -0.11053161431E+03  0.13228039413E+03  0.00000000000E+00 0. -1.
         -3    1    6    6    0  503  0.14104994573E+03  0.35239128880E+01 -0.45897951378E+03  0.48017673748E+03  0.00000000000E+00 0.  1.
<mgrwt>
<rscale>  0 0.13561351E+04</rscale>
<asrwt>0</asrwt>
<pdfrwt beam="1">  1        1 0.13539886E+00 0.13561351E+04</pdfrwt>
<pdfrwt beam="2">  1       -2 0.80371892E-01 0.13561351E+04</pdfrwt>
<totfact> 0.22168033E+01</totfact>
</mgrwt>
</event>
<event>
12    5  0.5246737E-008  0.1487808E+04  0.7818608E-02  0.8892601E-01
          1   -1    0    0  501    0  0.00000000000E+00  0.00000000000E+00  0.20027673402E+04  0.20027673402E+04  0.00000000000E+00 0. -1.
         -2   -1    0    0    0  501 -0.00000000000E+00 -0.00000000000E+00 -0.27631436087E+03  0.27631436087E+03  0.00000000000E+00 0.  1.
        -24    2    1    2    0    0 -0.85979412115E+02 -0.15200690556E+03  0.12044722562E+04  0.12204155252E+04  0.90344228370E+02 0.  0.
        254    2    1    2    0    0  0.85979412115E+02  0.15200690556E+03  0.52198072317E+03  0.10586661759E+04  0.90432938577E+03 0.  0.
         23    2    4    4    0    0 -0.14418776680E+02  0.38069958571E+03 -0.80801656824E+02  0.40002287460E+03  0.91374595906E+02 0.  0.
         23    2    4    4    0    0  0.10039818879E+03 -0.22869268015E+03  0.60278237999E+03  0.65864330129E+03  0.89912526559E+02 0.  0.
          3    1    3    3  502    0 -0.10469449862E+03 -0.12772674611E+03  0.97197284579E+03  0.98590378469E+03  0.00000000000E+00 0. -1.
         -4    1    3    3    0  502  0.18715086508E+02 -0.24280159453E+02  0.23249941036E+03  0.23451174048E+03  0.00000000000E+00 0.  1.
         13    1    5    5    0    0  0.34565697915E+02  0.16599693867E+03 -0.15188588859E+02  0.17023649536E+03  0.00000000000E+00 0. -1.
        -13    1    5    5    0    0 -0.48984474595E+02  0.21470264704E+03 -0.65613067965E+02  0.22978637924E+03  0.00000000000E+00 0.  1.
          3    1    6    6  503    0  0.22011852755E+02 -0.47047475653E+02  0.52389365696E+02  0.73774197827E+02  0.00000000000E+00 0. -1.
         -3    1    6    6    0  503  0.78386336040E+02 -0.18164520450E+03  0.55039301430E+03  0.58486910346E+03  0.00000000000E+00 0.  1.
<mgrwt>
<rscale>  0 0.14878083E+04</rscale>
<asrwt>0</asrwt>
<pdfrwt beam="1">  1        1 0.30811804E+00 0.14878083E+04</pdfrwt>
<pdfrwt beam="2">  1       -2 0.42509903E-01 0.14878083E+04</pdfrwt>
<totfact> 0.13239749E+01</totfact>
</mgrwt>
</event>
<event>
12    5  0.5246737E-008  0.1952209E+04  0.7818608E-02  0.8629296E-01
         -2   -1    0    0    0  501 -0.00000000000E+00  0.00000000000E+00  0.84061142630E+03  0.84061142630E+03  0.00000000000E+00 0.  1.
          1   -1    0    0  501    0  0.00000000000E+00 -0.00000000000E+00 -0.11334373965E+04  0.11334373965E+04  0.00000000000E+00 0. -1.
        -24    2    1    2    0    0  0.64955744925E+03  0.28886821456E+03  0.17986805603E+03  0.73772442710E+03  0.80716091975E+02 0.  0.
        254    2    1    2    0    0 -0.64955744925E+03 -0.28886821456E+03 -0.47269402624E+03  0.12363243957E+04  0.89425312062E+03 0.  0.
         23    2    4    4    0    0 -0.21382261960E+03 -0.47758866843E+03  0.38988873984E+02  0.53313058891E+03  0.94324141506E+02 0.  0.
         23    2    4    4    0    0 -0.43573482964E+03  0.18872045386E+03 -0.51168290022E+03  0.70319380681E+03  0.84746021031E+02 0.  0.
          3    1    3    3  502    0  0.20226564218E+03  0.93792461459E+02  0.18347504884E+02  0.22370750271E+03  0.00000000000E+00 0. -1.
         -4    1    3    3    0  502  0.44729180707E+03  0.19507575311E+03  0.16152055114E+03  0.51401692439E+03  0.00000000000E+00 0.  1.
         13    1    5    5    0    0 -0.11848575248E+03 -0.20198454475E+03  0.56790038824E+02  0.24096003479E+03  0.00000000000E+00 0. -1.
        -13    1    5    5    0    0 -0.95336867117E+02 -0.27560412368E+03 -0.17801164839E+02  0.29217055411E+03  0.00000000000E+00 0.  1.
          2    1    6    6  503    0 -0.12478212548E+03  0.70199784649E+02 -0.10410841779E+03  0.17702302465E+03  0.00000000000E+00 0.  1.
         -2    1    6    6    0  503 -0.31095270417E+03  0.11852066921E+03 -0.40757448244E+03  0.52617078216E+03  0.00000000000E+00 0. -1.
<mgrwt>
<rscale>  0 0.19522094E+04</rscale>
<asrwt>0</asrwt>
<pdfrwt beam="1">  1        1 0.17437498E+00 0.19522094E+04</pdfrwt>
<pdfrwt beam="2">  1       -2 0.12932484E+00 0.19522094E+04</pdfrwt>
<totfact> 0.43021300E+00</totfact>
</mgrwt>
</event>
<event>
12    5  0.5246737E-008  0.2400365E+04  0.7818608E-02  0.8439367E-01
          1   -1    0    0  501    0  0.00000000000E+00  0.00000000000E+00  0.14503148780E+04  0.14503148780E+04  0.00000000000E+00 0. -1.
         -2   -1    0    0    0  501 -0.00000000000E+00 -0.00000000000E+00 -0.99319023143E+03  0.99319023143E+03  0.00000000000E+00 0.  1.
        -24    2    1    2    0    0  0.21385846545E+03  0.66924494365E+03  0.96054254562E+03  0.11927729002E+04  0.80255664278E+02 0.  0.
        254    2    1    2    0    0 -0.21385846545E+03 -0.66924494365E+03 -0.50341789904E+03  0.12507322092E+04  0.90403387123E+03 0.  0.
         23    2    4    4    0    0 -0.37939185868E+03 -0.13576593976E+03 -0.54396472400E+03  0.68314636892E+03  0.91764740412E+02 0.  0.
         23    2    4    4    0    0  0.16553339323E+03 -0.53347900389E+03  0.40546824954E+02  0.56758584033E+03  0.92241472567E+02 0.  0.
          1    1    3    3  502    0  0.18863861005E+03  0.59184245761E+03  0.88821507267E+03  0.10838763929E+04  0.00000000000E+00 0. -1.
         -2    1    3    3    0  502  0.25219855399E+02  0.77402486034E+02  0.72327472949E+02  0.10889650726E+03  0.00000000000E+00 0.  1.
         13    1    5    5    0    0 -0.12897479304E+00  0.66976637311E+01 -0.31245863632E+01  0.73917774515E+01  0.00000000000E+00 0. -1.
        -13    1    5    5    0    0 -0.37926288389E+03 -0.14246360349E+03 -0.54084013763E+03  0.67575459147E+03  0.00000000000E+00 0.  1.
          3    1    6    6  503    0  0.13776926442E+03 -0.41111802945E+03 -0.63565658532E+01  0.43363442009E+03  0.00000000000E+00 0. -1.
         -3    1    6    6    0  503  0.27764128812E+02 -0.12236097444E+03  0.46903390808E+02  0.13395142024E+03  0.00000000000E+00 0.  1.
<mgrwt>
<rscale>  0 0.24003654E+04</rscale>
<asrwt>0</asrwt>
<pdfrwt beam="1">  1        1 0.22312537E+00 0.24003654E+04</pdfrwt>
<pdfrwt beam="2">  1       -2 0.15279850E+00 0.24003654E+04</pdfrwt>
<totfact> 0.15896442E+00</totfact>
</mgrwt>
</event>
<event>
12    5  0.5246737E-008  0.1628212E+04  0.7818608E-02  0.8803401E-01
          1   -1    0    0  501    0  0.00000000000E+00  0.00000000000E+00  0.12298313100E+04  0.12298313100E+04  0.00000000000E+00 0. -1.
         -2   -1    0    0    0  501 -0.00000000000E+00 -0.00000000000E+00 -0.53891023927E+03  0.53891023927E+03  0.00000000000E+00 0.  1.
        -24    2    1    2    0    0 -0.20569294028E+03  0.29160473602E+03 -0.23375534851E+03  0.43458698999E+03  0.82954090682E+02 0.  0.
        254    2    1    2    0    0  0.20569294028E+03 -0.29160473602E+03  0.92467641923E+03  0.13341545593E+04  0.89308398260E+03 0.  0.
         23    2    4    4    0    0  0.13957631245E+03  0.22941030539E+03  0.70078912471E+03  0.75606532390E+03  0.91753700061E+02 0.  0.
         23    2    4    4    0    0  0.66116627832E+02 -0.52101504142E+03  0.22388729451E+03  0.57808923536E+03  0.90738974768E+02 0.  0.
          3    1    3    3  502    0 -0.35069491915E+01  0.55091493448E+02 -0.36248184882E+02  0.66040156346E+02  0.00000000000E+00 0. -1.
         -4    1    3    3    0  502 -0.20218599109E+03  0.23651324258E+03 -0.19750716363E+03  0.36854683365E+03  0.00000000000E+00 0.  1.
         13    1    5    5    0    0  0.26224535717E+02  0.18180554909E+02  0.17928479481E+03  0.18210243409E+03  0.00000000000E+00 0.  1.
        -13    1    5    5    0    0  0.11335177673E+03  0.21122975048E+03  0.52150432990E+03  0.57396288981E+03  0.00000000000E+00 0. -1.
          4    1    6    6  503    0  0.68737224286E+02 -0.52112054570E+03  0.21343794939E+03  0.56731577396E+03  0.00000000000E+00 0. -1.
         -4    1    6    6    0  503 -0.26205964547E+01  0.10550428138E+00  0.10449345129E+02  0.10773461401E+02  0.00000000000E+00 0.  1.
<mgrwt>
<rscale>  0 0.16282121E+04</rscale>
<asrwt>0</asrwt>
<pdfrwt beam="1">  1        1 0.18920482E+00 0.16282121E+04</pdfrwt>
<pdfrwt beam="2">  1       -2 0.82909268E-01 0.16282121E+04</pdfrwt>
<totfact> 0.10881768E+01</totfact>
</mgrwt>
</event>
<event>
12    5  0.5246737E-008  0.2613262E+04  0.7818608E-02  0.8363710E-01
          1   -1    0    0  501    0  0.00000000000E+00  0.00000000000E+00  0.36031563365E+04  0.36031563365E+04  0.00000000000E+00 0. -1.
         -2   -1    0    0    0  501 -0.00000000000E+00 -0.00000000000E+00 -0.47383035892E+03  0.47383035892E+03  0.00000000000E+00 0.  1.
        -24    2    1    2    0    0 -0.97025930112E+02 -0.67412314095E+03  0.28259612145E+04  0.29082622434E+04  0.89869072571E+02 0.  0.
        254    2    1    2    0    0  0.97025930112E+02  0.67412314095E+03  0.30336476309E+03  0.11687244520E+04  0.90001701375E+03 0.  0.
         23    2    4    4    0    0  0.35162990072E+03  0.55982784669E+03  0.48271932376E+03  0.82446050253E+03  0.98317697749E+02 0.  0.
         23    2    4    4    0    0 -0.25460397060E+03  0.11429529426E+03 -0.17935456067E+03  0.34426394951E+03  0.91994632246E+02 0.  0.
          3    1    3    3  502    0 -0.18726114284E+02 -0.33334624255E+03  0.15260831116E+04  0.15621779823E+04  0.00000000000E+00 0. -1.
         -4    1    3    3    0  502 -0.78299815828E+02 -0.34077689840E+03  0.12998781029E+04  0.13460842611E+04  0.00000000000E+00 0.  1.
         13    1    5    5    0    0  0.45557535022E+02  0.11771587727E+03  0.13106017909E+03  0.18195957601E+03  0.00000000000E+00 0.  1.
        -13    1    5    5    0    0  0.30607236569E+03  0.44211196943E+03  0.35165914467E+03  0.64250092652E+03  0.00000000000E+00 0. -1.
          1    1    6    6  503    0 -0.21275884613E+03  0.64048247672E+02 -0.10658750919E+03  0.24643336168E+03  0.00000000000E+00 0. -1.
         -1    1    6    6    0  503 -0.41845124477E+02  0.50247046589E+02 -0.72767051483E+02  0.97830587829E+02  0.00000000000E+00 0.  1.
<mgrwt>
<rscale>  0 0.26132622E+04</rscale>
<asrwt>0</asrwt>
<pdfrwt beam="1">  1        1 0.55433172E+00 0.26132622E+04</pdfrwt>
<pdfrwt beam="2">  1       -2 0.72896981E-01 0.26132622E+04</pdfrwt>
<totfact> 0.27226952E-01</totfact>
</mgrwt>
</event>
<event>
12    5  0.5246737E-008  0.1321380E+04  0.7818608E-02  0.9012780E-01
          1   -1    0    0  501    0  0.00000000000E+00  0.00000000000E+00  0.10942336375E+04  0.10942336375E+04  0.00000000000E+00 0. -1.
         -2   -1    0    0    0  501 -0.00000000000E+00 -0.00000000000E+00 -0.39891964591E+03  0.39891964591E+03  0.00000000000E+00 0.  1.
        -24    2    1    2    0    0 -0.11755378045E+03  0.32718307044E+03  0.21161291615E+03  0.41738191476E+03  0.92520179429E+02 0.  0.
        254    2    1    2    0    0  0.11755378045E+03 -0.32718307044E+03  0.48370107547E+03  0.10757713687E+04  0.89579554275E+03 0.  0.
         23    2    4    4    0    0 -0.34538279341E+03 -0.21836169050E+03  0.40948147176E+03  0.58609955927E+03  0.94162178234E+02 0.  0.
         23    2    4    4    0    0  0.46293657386E+03 -0.10882137994E+03  0.74219603714E+02  0.48967180942E+03  0.90097542796E+02 0.  0.
          1    1    3    3  502    0 -0.35728894503E+02  0.15549747605E+03  0.14578826107E+03  0.21612550989E+03  0.00000000000E+00 0. -1.
         -2    1    3    3    0  502 -0.81824885949E+02  0.17168559439E+03  0.65824655080E+02  0.20125640486E+03  0.00000000000E+00 0.  1.
         13    1    5    5    0    0 -0.16745480006E+03 -0.86030116420E+02  0.25001976123E+03  0.31297311706E+03  0.00000000000E+00 0. -1.
        -13    1    5    5    0    0 -0.17792799334E+03 -0.13233157408E+03  0.15946171053E+03  0.27312644222E+03  0.00000000000E+00 0.  1.
          4    1    6    6  503    0  0.37102394763E+03 -0.95402086419E+02  0.23437246236E+02  0.38380936977E+03  0.00000000000E+00 0. -1.
         -4    1    6    6    0  503  0.91912626225E+02 -0.13419293525E+02  0.50782357479E+02  0.10586243965E+03  0.00000000000E+00 0.  1.
<mgrwt>
<rscale>  0 0.13213800E+04</rscale>
<asrwt>0</asrwt>
<pdfrwt beam="1">  1        1 0.16834364E+00 0.13213800E+04</pdfrwt>
<pdfrwt beam="2">  1       -2 0.61372254E-01 0.13213800E+04</pdfrwt>
<totfact> 0.27193472E+01</totfact>
</mgrwt>
</event>
<event>
12    5  0.5246737E-008  0.1807302E+04  0.7818608E-02  0.8702426E-01
          1   -1    0    0  501    0  0.00000000000E+00  0.00000000000E+00  0.13267611138E+04  0.13267611138E+04  0.00000000000E+00 0. -1.
         -2   -1    0    0    0  501 -0.00000000000E+00 -0.00000000000E+00 -0.61547240151E+03  0.61547240151E+03  0.00000000000E+00 0.  1.
        -24    2    1    2    0    0  0.43631066022E+03 -0.48256135546E+03  0.46911078978E+03  0.80584609608E+03  0.78041934136E+02 0.  0.
        254    2    1    2    0    0 -0.43631066022E+03  0.48256135546E+03  0.24217792250E+03  0.11363874192E+04  0.89971871516E+03 0.  0.
         23    2    4    4    0    0  0.14460572810E+03  0.41644203159E+03  0.30223629267E+03  0.54156990664E+03  0.87272016680E+02 0.  0.
         23    2    4    4    0    0 -0.58091638832E+03  0.66119323875E+02 -0.60058370177E+02  0.59481751258E+03  0.91461741909E+02 0.  0.
          1    1    3    3  502    0  0.43651544819E+02 -0.55146824091E+02  0.23642334107E+02  0.74199659935E+02  0.00000000000E+00 0. -1.
         -4    1    3    3    0  502  0.39265911540E+03 -0.42741453137E+03  0.44546845567E+03  0.73164643615E+03  0.00000000000E+00 0.  1.
         13    1    5    5    0    0  0.14447371698E+02  0.15735186998E+02  0.39892864549E+02  0.45252218739E+02  0.00000000000E+00 0. -1.
        -13    1    5    5    0    0  0.13015835640E+03  0.40070684459E+03  0.26234342813E+03  0.49631768790E+03  0.00000000000E+00 0.  1.
          2    1    6    6  503    0 -0.29207715470E+03  0.78722476840E+02 -0.23717649677E+02  0.30342844224E+03  0.00000000000E+00 0. -1.
         -2    1    6    6    0  503 -0.28883923362E+03 -0.12603152965E+02 -0.36340720500E+02  0.29138907033E+03  0.00000000000E+00 0.  1.
<mgrwt>
<rscale>  0 0.18073017E+04</rscale>
<asrwt>0</asrwt>
<pdfrwt beam="1">  1        1 0.20411709E+00 0.18073017E+04</pdfrwt>
<pdfrwt beam="2">  1       -2 0.94688062E-01 0.18073017E+04</pdfrwt>
<totfact> 0.67266560E+00</totfact>
</mgrwt>
</event>
<event>
12    5  0.5246737E-008  0.1123350E+04  0.7818608E-02  0.9182728E-01
         -2   -1    0    0    0  501 -0.00000000000E+00  0.00000000000E+00  0.24362473450E+04  0.24362473450E+04  0.00000000000E+00 0.  1.
          1   -1    0    0  501    0  0.00000000000E+00 -0.00000000000E+00 -0.12949369922E+03  0.12949369922E+03  0.00000000000E+00 0. -1.
        -24    2    1    2    0    0  0.89324993704E+02 -0.88289410646E+01  0.30742293155E+02  0.12349955922E+03  0.79057876508E+02 0.  0.
        254    2    1    2    0    0 -0.89324993704E+02  0.88289410646E+01  0.22760113526E+04  0.24422414850E+04  0.88105555392E+03 0.  0.
         23    2    4    4    0    0  0.21251339661E+02  0.86426983158E+02 -0.31141490971E+02  0.12930778796E+03  0.88484285113E+02 0.  0.
         23    2    4    4    0    0 -0.11057633337E+03 -0.77598042093E+02  0.23071528435E+04  0.23129336970E+04  0.91975331409E+02 0.  0.
          3    1    3    3  502    0  0.92860486175E+02  0.14557797297E+02  0.33277658011E+02  0.99711593496E+02  0.00000000000E+00 0. -1.
         -2    1    3    3    0  502 -0.35354924707E+01 -0.23386738362E+02 -0.25353648561E+01  0.23787965721E+02  0.00000000000E+00 0.  1.
         13    1    5    5    0    0 -0.56974979045E+01  0.89370245873E+02 -0.20950055405E+01  0.89576176397E+02  0.00000000000E+00 0.  1.
        -13    1    5    5    0    0  0.26948837565E+02 -0.29432627149E+01 -0.29046485430E+02  0.39731611563E+02  0.00000000000E+00 0. -1.
          1    1    6    6  503    0 -0.10851048973E+03 -0.42907815807E+02  0.13133252512E+04  0.13184987002E+04  0.00000000000E+00 0. -1.
         -1    1    6    6    0  503 -0.20658436310E+01 -0.34690226287E+02  0.99382759239E+03  0.99443499682E+03  0.00000000000E+00 0.  1.
<mgrwt>
<rscale>  0 0.11233498E+04</rscale>
<asrwt>0</asrwt>
<pdfrwt beam="1">  1        1 0.19922109E-01 0.11233498E+04</pdfrwt>
<pdfrwt beam="2">  1       -2 0.37480725E+00 0.11233498E+04</pdfrwt>
<totfact> 0.25207617E+00</totfact>
</mgrwt>
</event>
<event>
12    5  0.5246737E-008  0.1598212E+04  0.7818608E-02  0.8821647E-01
         -2   -1    0    0    0  501 -0.00000000000E+00  0.00000000000E+00  0.26088696565E+03  0.26088696565E+03  0.00000000000E+00 0.  1.
          1   -1    0    0  501    0  0.00000000000E+00 -0.00000000000E+00 -0.24476913649E+04  0.24476913649E+04  0.00000000000E+00 0. -1.
        -24    2    1    2    0    0  0.48802702305E+03  0.23373560690E+03 -0.76427145296E+03  0.93967442206E+03  0.77938799641E+02 0.  0.
        254    2    1    2    0    0 -0.48802702305E+03 -0.23373560690E+03 -0.14225329463E+04  0.17689039085E+04  0.90145346247E+03 0.  0.
         23    2    4    4    0    0 -0.11524593358E+03 -0.51294058080E+02  0.99777735935E+02  0.18798292728E+03  0.97310219198E+02 0.  0.
         23    2    4    4    0    0 -0.37278108947E+03 -0.18244154882E+03 -0.15223106822E+04  0.15809209812E+04  0.98136008671E+02 0.  0.
          1    1    3    3  502    0  0.24750048567E+03  0.15454444619E+03 -0.44572561380E+03  0.53273989812E+03  0.00000000000E+00 0. -1.
         -2    1    3    3    0  502  0.24052653738E+03  0.79191160707E+02 -0.31854583917E+03  0.40693452394E+03  0.00000000000E+00 0.  1.
         13    1    5    5    0    0 -0.59625823260E+02  0.71129769415E+00  0.94388986468E+02  0.11164687864E+03  0.00000000000E+00 0. -1.
        -13    1    5    5    0    0 -0.55620110324E+02 -0.52005355774E+02  0.53887494663E+01  0.76336048643E+02  0.00000000000E+00 0.  1.
          4    1    6    6  503    0 -0.24732068786E+02 -0.12751146622E+02 -0.23484459709E+03  0.23648731837E+03  0.00000000000E+00 0.  1.
         -4    1    6    6    0  503 -0.34804902068E+03 -0.16969040220E+03 -0.12874660851E+04  0.13444336628E+04  0.00000000000E+00 0. -1.
<mgrwt>
<rscale>  0 0.15982125E+04</rscale>
<asrwt>0</asrwt>
<pdfrwt beam="1">  1        1 0.37656792E+00 0.15982125E+04</pdfrwt>
<pdfrwt beam="2">  1       -2 0.40136454E-01 0.15982125E+04</pdfrwt>
<totfact> 0.73040232E+00</totfact>
</mgrwt>
</event>
<event>
12    5  0.5246737E-008  0.1822254E+04  0.7818608E-02  0.8694554E-01
         -4   -1    0    0    0  501 -0.00000000000E+00  0.00000000000E+00  0.92787274779E+03  0.92787274779E+03  0.00000000000E+00 0.  1.
          3   -1    0    0  501    0  0.00000000000E+00 -0.00000000000E+00 -0.89468354429E+03  0.89468354429E+03  0.00000000000E+00 0. -1.
        -24    2    1    2    0    0  0.15194935726E+03 -0.64329938742E+03  0.19619438675E+03  0.69447921429E+03  0.82984532700E+02 0.  0.
        254    2    1    2    0    0 -0.15194935726E+03  0.64329938742E+03 -0.16300518325E+03  0.11280770778E+04  0.89948012465E+03 0.  0.
         23    2    4    4    0    0  0.34917844515E+03  0.42768677921E+03 -0.12436608030E+03  0.57385212448E+03  0.94856582087E+02 0.  0.
         23    2    4    4    0    0 -0.50112780241E+03  0.21561260821E+03 -0.38639102948E+02  0.55422495331E+03  0.89746573359E+02 0.  0.
          1    1    3    3  502    0 -0.64922343103E+01 -0.48815939678E+02  0.28079084535E+02  0.56688447335E+02  0.00000000000E+00 0. -1.
         -2    1    3    3    0  502  0.15844159157E+03 -0.59448344774E+03  0.16811530222E+03  0.63779076696E+03  0.00000000000E+00 0.  1.
         13    1    5    5    0    0  0.16343871193E+03  0.25694629924E+03 -0.99367338139E+02  0.32032402523E+03  0.00000000000E+00 0. -1.
        -13    1    5    5    0    0  0.18573973322E+03  0.17074047997E+03 -0.24998742162E+02  0.25352809924E+03  0.00000000000E+00 0.  1.
          1    1    6    6  503    0 -0.39777343608E+02  0.46977822792E+02 -0.78774616329E+01  0.62058096173E+02  0.00000000000E+00 0. -1.
         -1    1    6    6    0  503 -0.46135045881E+03  0.16863478541E+03 -0.30761641315E+02  0.49216685714E+03  0.00000000000E+00 0.  1.
<mgrwt>
<rscale>  0 0.18222541E+04</rscale>
<asrwt>0</asrwt>
<pdfrwt beam="1">  1        3 0.13764362E+00 0.18222541E+04</pdfrwt>
<pdfrwt beam="2">  1       -4 0.14274965E+00 0.18222541E+04</pdfrwt>
<totfact> 0.29535835E-01</totfact>
</mgrwt>
</event>
<event>
12    5  0.5246737E-008  0.1836025E+04  0.7818608E-02  0.8687373E-01
         -2   -1    0    0    0  501 -0.00000000000E+00  0.00000000000E+00  0.28871379399E+03  0.28871379399E+03  0.00000000000E+00 0.  1.
          1   -1    0    0  501    0  0.00000000000E+00 -0.00000000000E+00 -0.29189691317E+04  0.29189691317E+04  0.00000000000E+00 0. -1.
        -24    2    1    2    0    0 -0.32262080512E+02  0.42523623590E+03 -0.39115954816E+02  0.43287736935E+03  0.63135258084E+02 0.  0.
        254    2    1    2    0    0  0.32262080512E+02 -0.42523623590E+03 -0.25911393829E+04  0.27748055563E+04  0.89647971298E+03 0.  0.
         23    2    4    4    0    0 -0.40343712362E+03 -0.28078828922E+03 -0.16427044028E+04  0.17172032056E+04  0.93303367580E+02 0.  0.
         23    2    4    4    0    0  0.43569920413E+03 -0.14444794668E+03 -0.94843498004E+03  0.10576023507E+04  0.91075874829E+02 0.  0.
          1    1    3    3  502    0  0.15357676293E+02  0.50349931211E+02  0.24667259517E+01  0.52697803854E+02  0.00000000000E+00 0. -1.
         -2    1    3    3    0  502 -0.47619756805E+02  0.37488630469E+03 -0.41582680768E+02  0.38017956549E+03  0.00000000000E+00 0.  1.
         13    1    5    5    0    0 -0.48764087743E+02 -0.51693262224E+02 -0.15087579382E+03  0.16677420297E+03  0.00000000000E+00 0. -1.
        -13    1    5    5    0    0 -0.35467303587E+03 -0.22909502699E+03 -0.14918286090E+04  0.15504290027E+04  0.00000000000E+00 0.  1.
          3    1    6    6  503    0  0.88385178977E+02 -0.22581268358E+02 -0.28055131457E+03  0.29500998907E+03  0.00000000000E+00 0. -1.
         -3    1    6    6    0  503  0.34731402515E+03 -0.12186667832E+03 -0.66788366547E+03  0.76259236159E+03  0.00000000000E+00 0.  1.
<mgrwt>
<rscale>  0 0.18360247E+04</rscale>
<asrwt>0</asrwt>
<pdfrwt beam="1">  1        1 0.44907220E+00 0.18360247E+04</pdfrwt>
<pdfrwt beam="2">  1       -2 0.44417504E-01 0.18360247E+04</pdfrwt>
<totfact> 0.27256935E+00</totfact>
</mgrwt>
</event>
<event>
12    5  0.5246737E-008  0.1273984E+04  0.7818608E-02  0.9050454E-01
          1   -1    0    0  501    0  0.00000000000E+00  0.00000000000E+00  0.16104798235E+04  0.16104798235E+04  0.00000000000E+00 0. -1.
         -2   -1    0    0    0  501 -0.00000000000E+00 -0.00000000000E+00 -0.25194919218E+03  0.25194919218E+03  0.00000000000E+00 0.  1.
        -24    2    1    2    0    0 -0.10680207096E+03  0.32836072070E+02  0.77902004562E+03  0.79085335890E+03  0.78050713072E+02 0.  0.
        254    2    1    2    0    0  0.10680207096E+03 -0.32836072070E+02  0.57951058566E+03  0.10715756567E+04  0.89440314133E+03 0.  0.
         23    2    4    4    0    0 -0.83283617568E+02 -0.35747876240E+03  0.48806744207E+01  0.37830813494E+03  0.91465826693E+02 0.  0.
         23    2    4    4    0    0  0.19008568853E+03  0.32464269033E+03  0.57462991124E+03  0.69326752180E+03  0.94312653038E+02 0.  0.
          1    1    3    3  502    0 -0.11579381366E+03  0.18644773198E+02  0.62408915283E+03  0.63501425617E+03  0.00000000000E+00 0. -1.
         -2    1    3    3    0  502  0.89917427003E+01  0.14191298872E+02  0.15493089279E+03  0.15583910273E+03  0.00000000000E+00 0.  1.
         13    1    5    5    0    0 -0.77720691603E+02 -0.27742185947E+03 -0.32216090744E+02  0.28989872459E+03  0.00000000000E+00 0.  1.
        -13    1    5    5    0    0 -0.55629259640E+01 -0.80056902928E+02  0.37096765165E+02  0.88409410344E+02  0.00000000000E+00 0. -1.
          4    1    6    6  503    0  0.12009391503E+03  0.15127750198E+03  0.36065522208E+03  0.40912054488E+03  0.00000000000E+00 0.  1.
         -4    1    6    6    0  503  0.69991773502E+02  0.17336518836E+03  0.21397468916E+03  0.28414697692E+03  0.00000000000E+00 0. -1.
<mgrwt>
<rscale>  0 0.12739844E+04</rscale>
<asrwt>0</asrwt>
<pdfrwt beam="1">  1        1 0.24776612E+00 0.12739844E+04</pdfrwt>
<pdfrwt beam="2">  1       -2 0.38761415E-01 0.12739844E+04</pdfrwt>
<totfact> 0.29822654E+01</totfact>
</mgrwt>
</event>
<event>
12    5  0.5246737E-008  0.2225726E+04  0.7818608E-02  0.8507796E-01
          1   -1    0    0  501    0  0.00000000000E+00  0.00000000000E+00  0.90452914537E+03  0.90452914537E+03  0.00000000000E+00 0. -1.
         -2   -1    0    0    0  501 -0.00000000000E+00 -0.00000000000E+00 -0.13691807391E+04  0.13691807391E+04  0.00000000000E+00 0.  1.
        -24    2    1    2    0    0 -0.13186823650E+03 -0.42055537368E+03  0.64169754765E+03  0.78315775640E+03  0.85465049107E+02 0.  0.
        254    2    1    2    0    0  0.13186823650E+03  0.42055537368E+03 -0.11063491414E+04  0.14905521281E+04  0.89637111161E+03 0.  0.
         23    2    4    4    0    0 -0.70421859333E+01  0.63438213377E+03 -0.10224479570E+04  0.12069340359E+04  0.93806493270E+02 0.  0.
         23    2    4    4    0    0  0.13891042244E+03 -0.21382676009E+03 -0.83901184407E+02  0.28361809220E+03  0.91552305748E+02 0.  0.
          3    1    3    3  502    0 -0.10123470515E+03 -0.20441687490E+03  0.28619702418E+03  0.36598286971E+03  0.00000000000E+00 0. -1.
         -4    1    3    3    0  502 -0.30633531353E+02 -0.21613849878E+03  0.35550052347E+03  0.41717488669E+03  0.00000000000E+00 0.  1.
         13    1    5    5    0    0 -0.22668627481E+02  0.60778419412E+03 -0.99189059380E+03  0.11635129752E+04  0.00000000000E+00 0. -1.
        -13    1    5    5    0    0  0.15626441547E+02  0.26597939650E+02 -0.30557363202E+02  0.43421060730E+02  0.00000000000E+00 0.  1.
          1    1    6    6  503    0  0.14436913880E+03 -0.16699193299E+03 -0.52302653129E+02  0.22685749150E+03  0.00000000000E+00 0. -1.
         -1    1    6    6    0  503 -0.54587163686E+01 -0.46834827094E+02 -0.31598531278E+02  0.56760600704E+02  0.00000000000E+00 0.  1.
<mgrwt>
<rscale>  0 0.22257258E+04</rscale>
<asrwt>0</asrwt>
<pdfrwt beam="1">  1        1 0.13915833E+00 0.22257258E+04</pdfrwt>
<pdfrwt beam="2">  1       -2 0.21064319E+00 0.22257258E+04</pdfrwt>
<totfact> 0.16314227E+00</totfact>
</mgrwt>
</event>
<event>
12    5  0.5246737E-008  0.1588891E+04  0.7818608E-02  0.8827402E-01
          1   -1    0    0  501    0  0.00000000000E+00  0.00000000000E+00  0.86928875600E+03  0.86928875600E+03  0.00000000000E+00 0. -1.
         -2   -1    0    0    0  501 -0.00000000000E+00 -0.00000000000E+00 -0.72604646559E+03  0.72604646559E+03  0.00000000000E+00 0.  1.
        -24    2    1    2    0    0 -0.90083608764E+02  0.66589149784E+02  0.57384873244E+03  0.59030997244E+03  0.81328496847E+02 0.  0.
        254    2    1    2    0    0  0.90083608764E+02 -0.66589149784E+02 -0.43060644203E+03  0.10050252491E+04  0.90116850371E+03 0.  0.
         23    2    4    4    0    0  0.29313801119E+03 -0.22353050013E+03 -0.58105073834E+03  0.69419535196E+03  0.91604847423E+02 0.  0.
         23    2    4    4    0    0 -0.20305440243E+03  0.15694135035E+03  0.15044429631E+03  0.31082989718E+03  0.90111380500E+02 0.  0.
          1    1    3    3  502    0 -0.91797456920E+02  0.37360739936E+02  0.32585057174E+03  0.34058947883E+03  0.00000000000E+00 0. -1.
         -2    1    3    3    0  502  0.17138481560E+01  0.29228409848E+02  0.24799816070E+03  0.24972049361E+03  0.00000000000E+00 0.  1.
         13    1    5    5    0    0  0.10306200039E+03 -0.84469806285E+02 -0.29475506029E+03  0.32347715478E+03  0.00000000000E+00 0.  1.
        -13    1    5    5    0    0  0.19007601080E+03 -0.13906069385E+03 -0.28629567805E+03  0.37071819719E+03  0.00000000000E+00 0. -1.
          2    1    6    6  503    0 -0.19465697199E+03  0.15444453754E+03  0.16177625870E+03  0.29650634023E+03  0.00000000000E+00 0. -1.
         -2    1    6    6    0  503 -0.83974304337E+01  0.24968128141E+01 -0.11331962388E+02  0.14323556949E+02  0.00000000000E+00 0.  1.
<mgrwt>
<rscale>  0 0.15888915E+04</rscale>
<asrwt>0</asrwt>
<pdfrwt beam="1">  1        1 0.13373673E+00 0.15888915E+04</pdfrwt>
<pdfrwt beam="2">  1       -2 0.11169946E+00 0.15888915E+04</pdfrwt>
<totfact> 0.10277869E+01</totfact>
</mgrwt>
</event>
<event>
12    5  0.5246737E-008  0.1183944E+04  0.7818608E-02  0.9127028E-01
          1   -1    0    0  501    0  0.00000000000E+00  0.00000000000E+00  0.26240666175E+04  0.26240666175E+04  0.00000000000E+00 0. -1.
         -4   -1    0    0    0  501 -0.00000000000E+00 -0.00000000000E+00 -0.13354491185E+03  0.13354491185E+03  0.00000000000E+00 0.  1.
        -24    2    1    2    0    0  0.43743025110E+02  0.35183210577E+02  0.11705700521E+04  0.11746474113E+04  0.80068617158E+02 0.  0.
        254    2    1    2    0    0 -0.43743025110E+02 -0.35183210577E+02  0.13199516536E+04  0.15829641181E+04  0.87198149109E+03 0.  0.
         23    2    4    4    0    0 -0.33873191187E+03  0.20662658848E+03  0.35156347101E+03  0.53783230335E+03  0.90735093518E+02 0.  0.
         23    2    4    4    0    0  0.29498888676E+03 -0.24180979906E+03  0.96838818263E+03  0.10451318148E+04  0.95049543822E+02 0.  0.
          1    1    3    3  502    0  0.13908237013E+02  0.54966503697E+02  0.88977269644E+03  0.89157737013E+03  0.00000000000E+00 0. -1.
         -2    1    3    3    0  502  0.29834788097E+02 -0.19783293120E+02  0.28079735561E+03  0.28307004113E+03  0.00000000000E+00 0.  1.
         13    1    5    5    0    0 -0.10575124361E+03  0.10743826127E+03  0.10004406051E+03  0.18092849293E+03  0.00000000000E+00 0. -1.
        -13    1    5    5    0    0 -0.23298066825E+03  0.99188327211E+02  0.25151941051E+03  0.35690381043E+03  0.00000000000E+00 0.  1.
          2    1    6    6  503    0  0.40394926507E+02 -0.36165308547E+02  0.67123951502E+02  0.86286177891E+02  0.00000000000E+00 0. -1.
         -2    1    6    6    0  503  0.25459396025E+03 -0.20564449051E+03  0.90126423113E+03  0.95884563689E+03  0.00000000000E+00 0.  1.
<mgrwt>
<rscale>  0 0.11839438E+04</rscale>
<asrwt>0</asrwt>
<pdfrwt beam="1">  1        1 0.40370252E+00 0.11839438E+04</pdfrwt>
<pdfrwt beam="2">  1       -4 0.20545373E-01 0.11839438E+04</pdfrwt>
<totfact> 0.12200821E+01</totfact>
</mgrwt>
</event>
<event>
12    5  0.5246737E-008  0.1886690E+04  0.7818608E-02  0.8661510E-01
          1   -1    0    0  501    0  0.00000000000E+00  0.00000000000E+00  0.14193554356E+04  0.14193554356E+04  0.00000000000E+00 0. -1.
         -2   -1    0    0    0  501 -0.00000000000E+00 -0.00000000000E+00 -0.62697449143E+03  0.62697449143E+03  0.00000000000E+00 0.  1.
        -24    2    1    2    0    0  0.66208767203E+03  0.71932712979E+00 -0.54996173804E+01  0.66704026890E+03  0.80943632571E+02 0.  0.
        254    2    1    2    0    0 -0.66208767203E+03 -0.71932712979E+00  0.79788056156E+03  0.13792896581E+04  0.90965156388E+03 0.  0.
         23    2    4    4    0    0 -0.32081545276E+03  0.43808774524E+03  0.49049827978E+03  0.73740255317E+03  0.91271768340E+02 0.  0.
         23    2    4    4    0    0 -0.34127221928E+03 -0.43880707237E+03  0.30738228179E+03  0.64188710498E+03  0.92286586092E+02 0.  0.
          3    1    3    3  502    0  0.19640117052E+03 -0.27042791434E+02 -0.26708129665E+02  0.20004513626E+03  0.00000000000E+00 0. -1.
         -4    1    3    3    0  502  0.46568650151E+03  0.27762118564E+02  0.21208512285E+02  0.46699513264E+03  0.00000000000E+00 0.  1.
         13    1    5    5    0    0 -0.25954351601E+03  0.32082138100E+03  0.32352933549E+03  0.52436669053E+03  0.00000000000E+00 0. -1.
        -13    1    5    5    0    0 -0.61271936743E+02  0.11726636424E+03  0.16696894429E+03  0.21303586264E+03  0.00000000000E+00 0.  1.
          3    1    6    6  503    0 -0.33405002201E+03 -0.43741018912E+03  0.31251624242E+03  0.63291665528E+03  0.00000000000E+00 0. -1.
         -3    1    6    6    0  503 -0.72221972650E+01 -0.13968832522E+01 -0.51339606312E+01  0.89704497054E+01  0.00000000000E+00 0.  1.
<mgrwt>
<rscale>  0 0.18866899E+04</rscale>
<asrwt>0</asrwt>
<pdfrwt beam="1">  1        1 0.21836237E+00 0.18866899E+04</pdfrwt>
<pdfrwt beam="2">  1       -2 0.96457615E-01 0.18866899E+04</pdfrwt>
<totfact> 0.55044462E+00</totfact>
</mgrwt>
</event>
<event>
12    5  0.5246737E-008  0.1252522E+04  0.7818608E-02  0.9068087E-01
          1   -1    0    0  501    0  0.00000000000E+00  0.00000000000E+00  0.34111215561E+03  0.34111215561E+03  0.00000000000E+00 0. -1.
         -4   -1    0    0    0  501 -0.00000000000E+00 -0.00000000000E+00 -0.11497766866E+04  0.11497766866E+04  0.00000000000E+00 0.  1.
        -24    2    1    2    0    0 -0.89240003736E+02 -0.45568820633E+02 -0.51146824670E+03  0.52890454852E+03  0.89999768808E+02 0.  0.
        254    2    1    2    0    0  0.89240003736E+02  0.45568820633E+02 -0.29719628432E+03  0.96198429372E+03  0.90942171421E+03 0.  0.
         23    2    4    4    0    0  0.31741652919E+03  0.12453010827E+03 -0.51458380259E+03  0.62398945601E+03  0.91133695511E+02 0.  0.
         23    2    4    4    0    0 -0.22817652545E+03 -0.78961287635E+02  0.21738751827E+03  0.33799483771E+03  0.93186723893E+02 0.  0.
          3    1    3    3  502    0 -0.83158627977E+02 -0.27695170514E+02 -0.21987990759E+03  0.23670562655E+03  0.00000000000E+00 0. -1.
         -4    1    3    3    0  502 -0.60813757593E+01 -0.17873650118E+02 -0.29158833911E+03  0.29219892198E+03  0.00000000000E+00 0.  1.
         13    1    5    5    0    0  0.20944060448E+03  0.12656438930E+03 -0.34645126234E+03  0.42416080515E+03  0.00000000000E+00 0.  1.
        -13    1    5    5    0    0  0.10797592470E+03 -0.20342810343E+01 -0.16813254025E+03  0.19982865086E+03  0.00000000000E+00 0. -1.
          4    1    6    6  503    0 -0.44806694473E+02 -0.10770150829E+02  0.99319529021E+02  0.10948974775E+03  0.00000000000E+00 0. -1.
         -4    1    6    6    0  503 -0.18336983098E+03 -0.68191136806E+02  0.11806798925E+03  0.22850508996E+03  0.00000000000E+00 0.  1.
<mgrwt>
<rscale>  0 0.12525219E+04</rscale>
<asrwt>0</asrwt>
<pdfrwt beam="1">  1        1 0.52478794E-01 0.12525219E+04</pdfrwt>
<pdfrwt beam="2">  1       -4 0.17688872E+00 0.12525219E+04</pdfrwt>
<totfact> 0.65663398E+00</totfact>
</mgrwt>
</event>
<event>
12    5  0.5246737E-008  0.1855881E+04  0.7818608E-02  0.8677134E-01
         -2   -1    0    0    0  501 -0.00000000000E+00  0.00000000000E+00  0.10035371103E+04  0.10035371103E+04  0.00000000000E+00 0.  1.
          1   -1    0    0  501    0  0.00000000000E+00 -0.00000000000E+00 -0.85803887657E+03  0.85803887657E+03  0.00000000000E+00 0. -1.
        -24    2    1    2    0    0  0.12558883727E+03 -0.48797159000E+03  0.54843449094E+03  0.74892411263E+03  0.78854974058E+02 0.  0.
        254    2    1    2    0    0 -0.12558883727E+03  0.48797159000E+03 -0.40293625721E+03  0.11126518742E+04  0.90650302657E+03 0.  0.
         23    2    4    4    0    0 -0.39967102864E+03 -0.63483687435E+02 -0.15938130460E+03  0.44400414379E+03  0.89275807173E+02 0.  0.
         23    2    4    4    0    0  0.27408219137E+03  0.55145527744E+03 -0.24355495261E+03  0.66864773045E+03  0.92448914864E+02 0.  0.
          1    1    3    3  502    0  0.66104605831E+01 -0.15328493055E+02  0.21652582656E+01  0.16832980479E+02  0.00000000000E+00 0. -1.
         -2    1    3    3    0  502  0.11897837669E+03 -0.47264309695E+03  0.54626923268E+03  0.73209113215E+03  0.00000000000E+00 0.  1.
         13    1    5    5    0    0 -0.20569392716E+03  0.11077956717E+02 -0.67337575188E+02  0.21671885434E+03  0.00000000000E+00 0. -1.
        -13    1    5    5    0    0 -0.19397710148E+03 -0.74561644152E+02 -0.92043729413E+02  0.22728528945E+03  0.00000000000E+00 0.  1.
          3    1    6    6  503    0  0.14575650635E+03  0.19296205753E+03 -0.88248595015E+02  0.25742402629E+03  0.00000000000E+00 0. -1.
         -3    1    6    6    0  503  0.12832568502E+03  0.35849321990E+03 -0.15530635759E+03  0.41122370416E+03  0.00000000000E+00 0.  1.
<mgrwt>
<rscale>  0 0.18558813E+04</rscale>
<asrwt>0</asrwt>
<pdfrwt beam="1">  1        1 0.13200598E+00 0.18558813E+04</pdfrwt>
<pdfrwt beam="2">  1       -2 0.15439032E+00 0.18558813E+04</pdfrwt>
<totfact> 0.45002383E+00</totfact>
</mgrwt>
</event>
<event>
12    5  0.5246737E-008  0.1232946E+04  0.7818608E-02  0.9084498E-01
          1   -1    0    0  501    0  0.00000000000E+00  0.00000000000E+00  0.91388262245E+03  0.91388262245E+03  0.00000000000E+00 0. -1.
         -2   -1    0    0    0  501 -0.00000000000E+00 -0.00000000000E+00 -0.41585091925E+03  0.41585091925E+03  0.00000000000E+00 0.  1.
        -24    2    1    2    0    0  0.27121574328E+03 -0.56901164032E+02  0.82739452512E+02  0.30039966352E+03  0.81230652866E+02 0.  0.
        254    2    1    2    0    0 -0.27121574328E+03  0.56901164032E+02  0.41529225069E+03  0.10293338782E+04  0.90014713099E+03 0.  0.
         23    2    4    4    0    0 -0.15963487091E+03  0.46989016876E+03  0.23425446928E+03  0.55634621367E+03  0.91465241398E+02 0.  0.
         23    2    4    4    0    0 -0.11158087238E+03 -0.41298900473E+03  0.18103778141E+03  0.47298766452E+03  0.89064265447E+02 0.  0.
          1    1    3    3  502    0 -0.33414356691E+01  0.60838711589E+01  0.53900823638E+00  0.69619832295E+01  0.00000000000E+00 0. -1.
         -4    1    3    3    0  502  0.27455717895E+03 -0.62985035191E+02  0.82200444275E+02  0.29343768029E+03  0.00000000000E+00 0.  1.
         13    1    5    5    0    0 -0.38486442768E+02  0.49912140274E+02  0.62103883804E+01  0.63332432036E+02  0.00000000000E+00 0. -1.
        -13    1    5    5    0    0 -0.12114842814E+03  0.41997802848E+03  0.22804408090E+03  0.49301378163E+03  0.00000000000E+00 0.  1.
          1    1    6    6  503    0 -0.41704118313E+02 -0.42681145241E+02  0.32293855739E+02  0.67851357848E+02  0.00000000000E+00 0. -1.
         -1    1    6    6    0  503 -0.69876754063E+02 -0.37030785949E+03  0.14874392567E+03  0.40513630667E+03  0.00000000000E+00 0.  1.
<mgrwt>
<rscale>  0 0.12329459E+04</rscale>
<asrwt>0</asrwt>
<pdfrwt beam="1">  1        1 0.14059733E+00 0.12329459E+04</pdfrwt>
<pdfrwt beam="2">  1       -2 0.63977065E-01 0.12329459E+04</pdfrwt>
<totfact> 0.34657019E+01</totfact>
</mgrwt>
</event>
<event>
12    5  0.5246737E-008  0.2424748E+04  0.7818608E-02  0.8430296E-01
          1   -1    0    0  501    0  0.00000000000E+00  0.00000000000E+00  0.12800326709E+04  0.12800326709E+04  0.00000000000E+00 0. -1.
         -2   -1    0    0    0  501 -0.00000000000E+00 -0.00000000000E+00 -0.11482911023E+04  0.11482911023E+04  0.00000000000E+00 0.  1.
        -24    2    1    2    0    0  0.55690524167E+03  0.82044864405E+03  0.37028928249E+03  0.10617735085E+04  0.83482961697E+02 0.  0.
        254    2    1    2    0    0 -0.55690524167E+03 -0.82044864405E+03 -0.23854771390E+03  0.13665502647E+04  0.90954669389E+03 0.  0.
         23    2    4    4    0    0 -0.33519786749E+03 -0.94056216235E+03 -0.37074267660E+03  0.10690210313E+04  0.91329302153E+02 0.  0.
         23    2    4    4    0    0 -0.22170737418E+03  0.12011351829E+03  0.13219496270E+03  0.29752923342E+03  0.86410181865E+02 0.  0.
          3    1    3    3  502    0  0.39051538785E+03  0.52734135910E+03  0.21355222054E+03  0.69006936467E+03  0.00000000000E+00 0. -1.
         -4    1    3    3    0  502  0.16638985382E+03  0.29310728495E+03  0.15673706196E+03  0.37170414383E+03  0.00000000000E+00 0.  1.
         13    1    5    5    0    0 -0.27391297084E+03 -0.83613681879E+03 -0.34595044145E+03  0.94542837025E+03  0.00000000000E+00 0.  1.
        -13    1    5    5    0    0 -0.61284896646E+02 -0.10442534355E+03 -0.24792235151E+02  0.12359266101E+03  0.00000000000E+00 0. -1.
          3    1    6    6  503    0 -0.10695119012E+03  0.11981857227E+02  0.67895822050E+02  0.12724765075E+03  0.00000000000E+00 0. -1.
         -3    1    6    6    0  503 -0.11475618406E+03  0.10813166107E+03  0.64299140653E+02  0.17028158266E+03  0.00000000000E+00 0.  1.
<mgrwt>
<rscale>  0 0.24247475E+04</rscale>
<asrwt>0</asrwt>
<pdfrwt beam="1">  1        1 0.19692810E+00 0.24247475E+04</pdfrwt>
<pdfrwt beam="2">  1       -2 0.17666017E+00 0.24247475E+04</pdfrwt>
<totfact> 0.14033617E+00</totfact>
</mgrwt>
</event>
<event>
12    5  0.5246737E-008  0.1472417E+04  0.7818608E-02  0.8903005E-01
         -2   -1    0    0    0  501 -0.00000000000E+00  0.00000000000E+00  0.27646347050E+03  0.27646347050E+03  0.00000000000E+00 0.  1.
          1   -1    0    0  501    0  0.00000000000E+00 -0.00000000000E+00 -0.19604861061E+04  0.19604861061E+04  0.00000000000E+00 0. -1.
        -24    2    1    2    0    0 -0.48681647705E+02  0.24991988953E+03 -0.77807706196E+03  0.82331383334E+03  0.87246202250E+02 0.  0.
        254    2    1    2    0    0  0.48681647705E+02 -0.24991988953E+03 -0.90594557359E+03  0.14136357432E+04  0.10548927804E+04 0.  0.
         23    2    4    4    0    0  0.23529202710E+03 -0.41005804452E+03 -0.10198870978E+04  0.11277907119E+04  0.90731799897E+02 0.  0.
         23    2    4    4    0    0 -0.18661037940E+03  0.16013815499E+03  0.11394152425E+03  0.28584503136E+03  0.90868303728E+02 0.  0.
          1    1    3    3  502    0 -0.44697836793E+02  0.19906008652E+03 -0.49034519815E+03  0.53109436827E+03  0.00000000000E+00 0. -1.
         -2    1    3    3    0  502 -0.39838109115E+01  0.50859803011E+02 -0.28773186381E+03  0.29221946507E+03  0.00000000000E+00 0.  1.
         13    1    5    5    0    0  0.25781171790E+02 -0.91531921274E+01 -0.39160024482E+02  0.47769836324E+02  0.00000000000E+00 0. -1.
        -13    1    5    5    0    0  0.20951085531E+03 -0.40090485240E+03 -0.98072707335E+03  0.10800208755E+04  0.00000000000E+00 0.  1.
          1    1    6    6  503    0 -0.11939546798E+03  0.13531442432E+03  0.44063855791E+02  0.18576031489E+03  0.00000000000E+00 0. -1.
         -1    1    6    6    0  503 -0.67214911422E+02  0.24823730678E+02  0.69877668455E+02  0.10008471647E+03  0.00000000000E+00 0.  1.
<mgrwt>
<rscale>  0 0.14724168E+04</rscale>
<asrwt>0</asrwt>
<pdfrwt beam="1">  1        1 0.30161324E+00 0.14724168E+04</pdfrwt>
<pdfrwt beam="2">  1       -2 0.42532842E-01 0.14724168E+04</pdfrwt>
<totfact> 0.14145093E+01</totfact>
</mgrwt>
</event>
<event>
12    5  0.5246737E-008  0.1444258E+04  0.7818608E-02  0.8922391E-01
         -2   -1    0    0    0  501 -0.00000000000E+00  0.00000000000E+00  0.28953484517E+03  0.28953484517E+03  0.00000000000E+00 0.  1.
          1   -1    0    0  501    0  0.00000000000E+00 -0.00000000000E+00 -0.18010634408E+04  0.18010634408E+04  0.00000000000E+00 0. -1.
        -24    2    1    2    0    0 -0.64814379743E+02 -0.70896295952E+02  0.15305019059E+03  0.19801783279E+03  0.80990818389E+02 0.  0.
        254    2    1    2    0    0  0.64814379743E+02  0.70896295952E+02 -0.16645787862E+04  0.18925804532E+04  0.89543902509E+03 0.  0.
         23    2    4    4    0    0  0.19379292889E+03  0.30442507215E+03 -0.15400392338E+04  0.15842094805E+04  0.88139166374E+02 0.  0.
         23    2    4    4    0    0 -0.12897854915E+03 -0.23352877620E+03 -0.12453955238E+03  0.30837097264E+03  0.91713691499E+02 0.  0.
          1    1    3    3  502    0 -0.11132820135E+02 -0.44445587233E+02  0.16103188894E+02  0.48566064295E+02  0.00000000000E+00 0. -1.
         -2    1    3    3    0  502 -0.53681559607E+02 -0.26450708720E+02  0.13694700169E+03  0.14945176850E+03  0.00000000000E+00 0.  1.
         13    1    5    5    0    0  0.18649672198E+03  0.24567885897E+03 -0.13655434045E+04  0.13999456842E+04  0.00000000000E+00 0. -1.
        -13    1    5    5    0    0  0.72962069157E+01  0.58746213177E+02 -0.17449582930E+03  0.18426379634E+03  0.00000000000E+00 0.  1.
          4    1    6    6  503    0  0.12648830292E+02 -0.81019815258E+01 -0.12457455308E+02  0.19514692033E+02  0.00000000000E+00 0.  1.
         -4    1    6    6    0  503 -0.14162737944E+03 -0.22542679467E+03 -0.11208209707E+03  0.28885628061E+03  0.00000000000E+00 0. -1.
<mgrwt>
<rscale>  0 0.14442585E+04</rscale>
<asrwt>0</asrwt>
<pdfrwt beam="1">  1        1 0.27708668E+00 0.14442585E+04</pdfrwt>
<pdfrwt beam="2">  1       -2 0.44543823E-01 0.14442585E+04</pdfrwt>
<totfact> 0.16585015E+01</totfact>
</mgrwt>
</event>
<event>
12    5  0.5246737E-008  0.1230200E+04  0.7818608E-02  0.9086825E-01
          1   -1    0    0  501    0  0.00000000000E+00  0.00000000000E+00  0.31494116167E+03  0.31494116167E+03  0.00000000000E+00 0. -1.
         -2   -1    0    0    0  501 -0.00000000000E+00 -0.00000000000E+00 -0.12013297945E+04  0.12013297945E+04  0.00000000000E+00 0.  1.
        -24    2    1    2    0    0  0.20272469825E+03 -0.69031213293E+02 -0.44339000942E+03  0.49953662307E+03  0.84139917048E+02 0.  0.
        254    2    1    2    0    0 -0.20272469825E+03  0.69031213293E+02 -0.44299862345E+03  0.10167343331E+04  0.88974058699E+03 0.  0.
         23    2    4    4    0    0  0.16083421282E+03 -0.54134592521E+02 -0.57005604048E+03  0.60220621679E+03  0.94288069935E+02 0.  0.
         23    2    4    4    0    0 -0.36355891106E+03  0.12316580581E+03  0.12705741702E+03  0.41452811636E+03  0.91351379283E+02 0.  0.
          3    1    3    3  502    0 -0.81929106308E+01 -0.13084765023E+01 -0.11933814958E+02  0.14534504973E+02  0.00000000000E+00 0. -1.
         -4    1    3    3    0  502  0.21091760888E+03 -0.67722736791E+02 -0.43145619446E+03  0.48500211809E+03  0.00000000000E+00 0.  1.
         13    1    5    5    0    0  0.98832525431E+02 -0.29501142467E+02 -0.18860856209E+03  0.21496831204E+03  0.00000000000E+00 0. -1.
        -13    1    5    5    0    0  0.62001687384E+02 -0.24633450054E+02 -0.38144747839E+03  0.38723790474E+03  0.00000000000E+00 0.  1.
          2    1    6    6  503    0 -0.10133665783E+03  0.22020283391E+02 -0.53661332880E+01  0.10384029317E+03  0.00000000000E+00 0. -1.
         -2    1    6    6    0  503 -0.26222225324E+03  0.10114552242E+03  0.13242355031E+03  0.31068782319E+03  0.00000000000E+00 0.  1.
<mgrwt>
<rscale>  0 0.12302003E+04</rscale>
<asrwt>0</asrwt>
<pdfrwt beam="1">  1        1 0.48452486E-01 0.12302003E+04</pdfrwt>
<pdfrwt beam="2">  1       -2 0.18481997E+00 0.12302003E+04</pdfrwt>
<totfact> 0.11905243E+01</totfact>
</mgrwt>
</event>
<event>
12    5  0.5246737E-008  0.1580458E+04  0.7818608E-02  0.8832644E-01
         -2   -1    0    0    0  501 -0.00000000000E+00  0.00000000000E+00  0.30491279777E+03  0.30491279777E+03  0.00000000000E+00 0.  1.
          1   -1    0    0  501    0  0.00000000000E+00 -0.00000000000E+00 -0.20480015323E+04  0.20480015323E+04  0.00000000000E+00 0. -1.
        -24    2    1    2    0    0  0.48354994254E+03  0.29528840736E+02 -0.28157946124E+03  0.56566244807E+03  0.77424239100E+02 0.  0.
        254    2    1    2    0    0 -0.48354994254E+03 -0.29528840736E+02 -0.14615092733E+04  0.17872518820E+04  0.90750616223E+03 0.  0.
         23    2    4    4    0    0  0.62544779653E+02 -0.69464891384E+02 -0.11358728987E+04  0.11432013146E+04  0.89245632644E+02 0.  0.
         23    2    4    4    0    0 -0.54609472219E+03  0.39936050647E+02 -0.32563637459E+03  0.64405056747E+03  0.94592553938E+02 0.  0.
          1    1    3    3  502    0  0.52549927120E+02 -0.21069857794E+02 -0.34222820511E+02  0.66156142508E+02  0.00000000000E+00 0. -1.
         -2    1    3    3    0  502  0.43100001542E+03  0.50598698531E+02 -0.24735664073E+03  0.49950630557E+03  0.00000000000E+00 0.  1.
         13    1    5    5    0    0  0.39169913003E+02 -0.30053623988E+02 -0.96588197900E+03  0.96714295725E+03  0.00000000000E+00 0. -1.
        -13    1    5    5    0    0  0.23374866650E+02 -0.39411267395E+02 -0.16999091975E+03  0.17605835733E+03  0.00000000000E+00 0.  1.
          1    1    6    6  503    0 -0.51457891541E+03  0.17025056289E+02 -0.31531776890E+03  0.60374382656E+03  0.00000000000E+00 0. -1.
         -1    1    6    6    0  503 -0.31515806787E+02  0.22910994358E+02 -0.10318605684E+02  0.40306740915E+02  0.00000000000E+00 0.  1.
<mgrwt>
<rscale>  0 0.15804580E+04</rscale>
<asrwt>0</asrwt>
<pdfrwt beam="1">  1        1 0.31507716E+00 0.15804580E+04</pdfrwt>
<pdfrwt beam="2">  1       -2 0.46909661E-01 0.15804580E+04</pdfrwt>
<totfact> 0.10054003E+01</totfact>
</mgrwt>
</event>
<event>
12    5  0.5246737E-008  0.1825650E+04  0.7818608E-02  0.8692777E-01
         -2   -1    0    0    0  501 -0.00000000000E+00  0.00000000000E+00  0.61111257120E+03  0.61111257120E+03  0.00000000000E+00 0.  1.
          1   -1    0    0  501    0  0.00000000000E+00 -0.00000000000E+00 -0.13634956089E+04  0.13634956089E+04  0.00000000000E+00 0. -1.
        -24    2    1    2    0    0 -0.26278565086E+03 -0.63533710759E+03 -0.22730623812E+03  0.72844065987E+03  0.79045116787E+02 0.  0.
        254    2    1    2    0    0  0.26278565086E+03  0.63533710759E+03 -0.52507679955E+03  0.12461675202E+04  0.89694944360E+03 0.  0.
         23    2    4    4    0    0  0.50335657401E+03  0.66080368501E+03 -0.52558440267E+03  0.98726049651E+03  0.91733161538E+02 0.  0.
         23    2    4    4    0    0 -0.24057092315E+03 -0.25466577418E+02  0.50760312054E+00  0.25890702368E+03  0.92247892216E+02 0.  0.
          3    1    3    3  502    0 -0.18215435355E+03 -0.41407870752E+03 -0.11099645783E+03  0.46579136766E+03  0.00000000000E+00 0. -1.
         -4    1    3    3    0  502 -0.80631297311E+02 -0.22125840008E+03 -0.11630978029E+03  0.26264929222E+03  0.00000000000E+00 0.  1.
         13    1    5    5    0    0  0.42217340028E+03  0.49761620584E+03 -0.42935134922E+03  0.78114969711E+03  0.00000000000E+00 0. -1.
        -13    1    5    5    0    0  0.81183173732E+02  0.16318747917E+03 -0.96233053443E+02  0.20611079940E+03  0.00000000000E+00 0.  1.
          4    1    6    6  503    0 -0.38414338876E+01 -0.11353684191E+02  0.17430888731E+02  0.21154163679E+02  0.00000000000E+00 0.  1.
         -4    1    6    6    0  503 -0.23672948926E+03 -0.14112893227E+02 -0.16923285610E+02  0.23775286000E+03  0.00000000000E+00 0. -1.
<mgrwt>
<rscale>  0 0.18256498E+04</rscale>
<asrwt>0</asrwt>
<pdfrwt beam="1">  1        1 0.20976856E+00 0.18256498E+04</pdfrwt>
<pdfrwt beam="2">  1       -2 0.94017319E-01 0.18256498E+04</pdfrwt>
<totfact> 0.64311974E+00</totfact>
</mgrwt>
</event>
<event>
12    5  0.5246737E-008  0.1633610E+04  0.7818608E-02  0.8800162E-01
         -2   -1    0    0    0  501 -0.00000000000E+00  0.00000000000E+00  0.18067309087E+04  0.18067309087E+04  0.00000000000E+00 0.  1.
          1   -1    0    0  501    0  0.00000000000E+00 -0.00000000000E+00 -0.36926946761E+03  0.36926946761E+03  0.00000000000E+00 0. -1.
        -24    2    1    2    0    0 -0.13459524694E+02 -0.41334938205E+03  0.10280491959E+04  0.11110129466E+04  0.80160761924E+02 0.  0.
        254    2    1    2    0    0  0.13459524694E+02  0.41334938205E+03  0.40941224521E+03  0.10649874298E+04  0.89193103355E+03 0.  0.
         23    2    4    4    0    0  0.27717438177E+03  0.58330528840E+03  0.23134356715E+03  0.69265007732E+03  0.95778839867E+02 0.  0.
         23    2    4    4    0    0 -0.26371485708E+03 -0.16995590634E+03  0.17806867806E+03  0.37233735246E+03  0.92174367302E+02 0.  0.
          1    1    3    3  502    0 -0.10963027392E+02 -0.22308539264E+03  0.65857697647E+03  0.69542139334E+03  0.00000000000E+00 0. -1.
         -2    1    3    3    0  502 -0.24964973024E+01 -0.19026398941E+03  0.36947221946E+03  0.41559155323E+03  0.00000000000E+00 0.  1.
         13    1    5    5    0    0  0.24023019896E+03  0.41722900900E+03  0.15157901155E+03  0.50474428297E+03  0.00000000000E+00 0. -1.
        -13    1    5    5    0    0  0.36944182814E+02  0.16607627939E+03  0.79764555602E+02  0.18790579435E+03  0.00000000000E+00 0.  1.
          4    1    6    6  503    0 -0.80175832869E+00 -0.91814776551E+01 -0.81212515890E+01  0.12284017084E+02  0.00000000000E+00 0.  1.
         -4    1    6    6    0  503 -0.26291309875E+03 -0.16077442869E+03  0.18618992965E+03  0.36005333538E+03  0.00000000000E+00 0. -1.
<mgrwt>
<rscale>  0 0.16336102E+04</rscale>
<asrwt>0</asrwt>
<pdfrwt beam="1">  1        1 0.56810688E-01 0.16336102E+04</pdfrwt>
<pdfrwt beam="2">  1       -2 0.27795860E+00 0.16336102E+04</pdfrwt>
<totfact> 0.24221585E+00</totfact>
</mgrwt>
</event>
<event>
12    5  0.5246737E-008  0.1800602E+04  0.7818608E-02  0.8705980E-01
          1   -1    0    0  501    0  0.00000000000E+00  0.00000000000E+00  0.15353327135E+04  0.15353327135E+04  0.00000000000E+00 0. -1.
         -2   -1    0    0    0  501 -0.00000000000E+00 -0.00000000000E+00 -0.52792574790E+03  0.52792574790E+03  0.00000000000E+00 0.  1.
        -24    2    1    2    0    0 -0.26321364539E+03 -0.61816247890E+03  0.36834106240E+03  0.77026032195E+03  0.78864135490E+02 0.  0.
        254    2    1    2    0    0  0.26321364539E+03  0.61816247890E+03  0.63906590319E+03  0.12929981394E+04  0.90112856271E+03 0.  0.
         23    2    4    4    0    0 -0.55105299807E+02  0.72414670396E+03  0.25475203029E+03  0.77488552020E+03  0.90132843977E+02 0.  0.
         23    2    4    4    0    0  0.31831894520E+03 -0.10598422506E+03  0.38431387290E+03  0.51811261924E+03  0.90465056638E+02 0.  0.
          1    1    3    3  502    0 -0.24259024284E+02 -0.67512845052E+02  0.68852549952E+02  0.99434190001E+02  0.00000000000E+00 0. -1.
         -2    1    3    3    0  502 -0.23895462111E+03 -0.55064963385E+03  0.29948851245E+03  0.67082613194E+03  0.00000000000E+00 0.  1.
         13    1    5    5    0    0 -0.71511097633E+02  0.65395925953E+03  0.21245806406E+03  0.69131395125E+03  0.00000000000E+00 0. -1.
        -13    1    5    5    0    0  0.16405797827E+02  0.70187444427E+02  0.42293966230E+02  0.83571568951E+02  0.00000000000E+00 0.  1.
          4    1    6    6  503    0  0.27741934157E+03 -0.10967059888E+03  0.36849140300E+03  0.47410446678E+03  0.00000000000E+00 0. -1.
         -4    1    6    6    0  503  0.40899603626E+02  0.36863738190E+01  0.15822469903E+02  0.44008152455E+02  0.00000000000E+00 0.  1.
<mgrwt>
<rscale>  0 0.18006018E+04</rscale>
<asrwt>0</asrwt>
<pdfrwt beam="1">  1        1 0.23620503E+00 0.18006018E+04</pdfrwt>
<pdfrwt beam="2">  1       -2 0.81219347E-01 0.18006018E+04</pdfrwt>
<totfact> 0.68402964E+00</totfact>
</mgrwt>
</event>
<event>
12    5  0.5246737E-008  0.1520221E+04  0.7818608E-02  0.8871116E-01
          1   -1    0    0  501    0  0.00000000000E+00  0.00000000000E+00  0.20039459779E+04  0.20039459779E+04  0.00000000000E+00 0. -1.
         -2   -1    0    0    0  501 -0.00000000000E+00 -0.00000000000E+00 -0.28831517555E+03  0.28831517555E+03  0.00000000000E+00 0.  1.
        -24    2    1    2    0    0 -0.41630953926E+03 -0.16373536281E+03  0.89613246639E+03  0.10047345291E+04  0.79468076423E+02 0.  0.
        254    2    1    2    0    0  0.41630953926E+03  0.16373536281E+03  0.81949833596E+03  0.12875266243E+04  0.88658016231E+03 0.  0.
         23    2    4    4    0    0  0.57772807810E+03  0.38434138246E+03  0.51989503743E+03  0.87219775916E+03  0.94604707277E+02 0.  0.
         23    2    4    4    0    0 -0.16141853884E+03 -0.22060601965E+03  0.29960329853E+03  0.41532886518E+03  0.89515189623E+02 0.  0.
          1    1    3    3  502    0 -0.17227478267E+03 -0.32670792751E+02  0.39421518758E+03  0.43145288916E+03  0.00000000000E+00 0. -1.
         -2    1    3    3    0  502 -0.24403475659E+03 -0.13106457006E+03  0.50191727881E+03  0.57328163996E+03  0.00000000000E+00 0.  1.
         13    1    5    5    0    0  0.83827765642E+02  0.60560211776E+02  0.12278100322E+03  0.16052977386E+03  0.00000000000E+00 0.  1.
        -13    1    5    5    0    0  0.49390031246E+03  0.32378117068E+03  0.39711403421E+03  0.71166798530E+03  0.00000000000E+00 0. -1.
          2    1    6    6  503    0 -0.10187054584E+03 -0.64861481465E+02  0.11967292488E+03  0.17001831912E+03  0.00000000000E+00 0. -1.
         -2    1    6    6    0  503 -0.59547992998E+02 -0.15574453818E+03  0.17993037365E+03  0.24531054605E+03  0.00000000000E+00 0.  1.
<mgrwt>
<rscale>  0 0.15202211E+04</rscale>
<asrwt>0</asrwt>
<pdfrwt beam="1">  1        1 0.30829937E+00 0.15202211E+04</pdfrwt>
<pdfrwt beam="2">  1       -2 0.44356182E-01 0.15202211E+04</pdfrwt>
<totfact> 0.12110746E+01</totfact>
</mgrwt>
</event>
<event>
12    5  0.5246737E-008  0.2388247E+04  0.7818608E-02  0.8443917E-01
          1   -1    0    0  501    0  0.00000000000E+00  0.00000000000E+00  0.33219778760E+04  0.33219778760E+04  0.00000000000E+00 0. -1.
         -2   -1    0    0    0  501 -0.00000000000E+00 -0.00000000000E+00 -0.42924137982E+03  0.42924137982E+03  0.00000000000E+00 0.  1.
        -24    2    1    2    0    0  0.38564860728E+03 -0.16158869684E+03  0.27101631537E+04  0.27433690892E+04  0.79081503663E+02 0.  0.
        254    2    1    2    0    0 -0.38564860728E+03  0.16158869684E+03  0.18257334243E+03  0.10078501667E+04  0.89866188181E+03 0.  0.
         23    2    4    4    0    0 -0.53142419360E+03  0.33060471382E+03  0.34229103494E+03  0.71903642182E+03  0.90216810818E+02 0.  0.
         23    2    4    4    0    0  0.14577558632E+03 -0.16901601699E+03 -0.15971769252E+03  0.28881374484E+03  0.89926093777E+02 0.  0.
          3    1    3    3  502    0  0.32611598963E+03 -0.13588146858E+03  0.24449582000E+04  0.24703513945E+04  0.00000000000E+00 0. -1.
         -4    1    3    3    0  502  0.59532617648E+02 -0.25707228257E+02  0.26520495371E+03  0.27301769471E+03  0.00000000000E+00 0.  1.
         13    1    5    5    0    0 -0.78897575019E+02  0.16647522671E+02  0.57126939236E+02  0.98820314417E+02  0.00000000000E+00 0.  1.
        -13    1    5    5    0    0 -0.45252661858E+03  0.31395719115E+03  0.28516409571E+03  0.62021610740E+03  0.00000000000E+00 0. -1.
          2    1    6    6  503    0  0.12477511434E+03 -0.94062980997E+02 -0.73578745498E+02  0.17271509876E+03  0.00000000000E+00 0. -1.
         -2    1    6    6    0  503  0.21000471979E+02 -0.74953035989E+02 -0.86138947018E+02  0.11609864608E+03  0.00000000000E+00 0.  1.
<mgrwt>
<rscale>  0 0.23882465E+04</rscale>
<asrwt>0</asrwt>
<pdfrwt beam="1">  1        1 0.51107350E+00 0.23882465E+04</pdfrwt>
<pdfrwt beam="2">  1       -2 0.66037138E-01 0.23882465E+04</pdfrwt>
<totfact> 0.57226069E-01</totfact>
</mgrwt>
</event>
<event>
12    5  0.5246737E-008  0.1783759E+04  0.7818608E-02  0.8714984E-01
          1   -1    0    0  501    0  0.00000000000E+00  0.00000000000E+00  0.14280575837E+04  0.14280575837E+04  0.00000000000E+00 0. -1.
         -2   -1    0    0    0  501 -0.00000000000E+00 -0.00000000000E+00 -0.55701460454E+03  0.55701460454E+03  0.00000000000E+00 0.  1.
        -24    2    1    2    0    0 -0.15245167273E+03 -0.38130566525E+03  0.91827609086E+03  0.10116587538E+04  0.10764261326E+03 0.  0.
        254    2    1    2    0    0  0.15245167273E+03  0.38130566525E+03 -0.47233111692E+02  0.97341343447E+03  0.88128725436E+03 0.  0.
         23    2    4    4    0    0  0.22575987851E+02  0.54398425074E+03 -0.30472841296E+03  0.63066877505E+03  0.91951932429E+02 0.  0.
         23    2    4    4    0    0  0.12987568488E+03 -0.16267858549E+03  0.25749530126E+03  0.34274465942E+03  0.88532794445E+02 0.  0.
          1    1    3    3  502    0 -0.79967112917E+02 -0.25850881794E+03  0.70459227753E+03  0.75476607347E+03  0.00000000000E+00 0. -1.
         -2    1    3    3    0  502 -0.72484559811E+02 -0.12279684731E+03  0.21368381333E+03  0.25689268032E+03  0.00000000000E+00 0.  1.
         13    1    5    5    0    0  0.26074054371E+02  0.27490437723E+03 -0.20405127476E+03  0.34334996091E+03  0.00000000000E+00 0. -1.
        -13    1    5    5    0    0 -0.34980665197E+01  0.26907987351E+03 -0.10067713820E+03  0.28731881413E+03  0.00000000000E+00 0.  1.
          1    1    6    6  503    0  0.33093742391E+02 -0.34667414221E+02  0.12753168856E+03  0.13624007113E+03  0.00000000000E+00 0. -1.
         -1    1    6    6    0  503  0.96781942486E+02 -0.12801117127E+03  0.12996361271E+03  0.20650458830E+03  0.00000000000E+00 0.  1.
<mgrwt>
<rscale>  0 0.17837589E+04</rscale>
<asrwt>0</asrwt>
<pdfrwt beam="1">  1        1 0.21970117E+00 0.17837589E+04</pdfrwt>
<pdfrwt beam="2">  1       -2 0.85694555E-01 0.17837589E+04</pdfrwt>
<totfact> 0.72003399E+00</totfact>
</mgrwt>
</event>
<event>
12    5  0.5246737E-008  0.2864149E+04  0.7818608E-02  0.8283625E-01
          1   -1    0    0  501    0  0.00000000000E+00  0.00000000000E+00  0.33503383902E+04  0.33503383902E+04  0.00000000000E+00 0. -1.
         -2   -1    0    0    0  501 -0.00000000000E+00 -0.00000000000E+00 -0.61212833049E+03  0.61212833049E+03  0.00000000000E+00 0.  1.
        -24    2    1    2    0    0  0.16084972695E+02 -0.12077454770E+04  0.60823707710E+03  0.13546862621E+04  0.79464854294E+02 0.  0.
        254    2    1    2    0    0 -0.16084972695E+02  0.12077454770E+04  0.21299729826E+04  0.26077804586E+04  0.89712103416E+03 0.  0.
         23    2    4    4    0    0 -0.22398987131E+03 -0.38269332168E+01  0.57301204047E+03  0.62198164197E+03  0.91281194952E+02 0.  0.
         23    2    4    4    0    0  0.20790489861E+03  0.12115724103E+04  0.15569609421E+04  0.19857988166E+04  0.90207608430E+02 0.  0.
          1    1    3    3  502    0  0.84618850867E+01 -0.36188110032E+03  0.22335172877E+03  0.42534166151E+03  0.00000000000E+00 0. -1.
         -2    1    3    3    0  502  0.76230876081E+01 -0.84586437672E+03  0.38488534833E+03  0.92934460058E+03  0.00000000000E+00 0.  1.
         13    1    5    5    0    0 -0.14142609736E+03 -0.17801316907E+02  0.45831342045E+03  0.47996814401E+03  0.00000000000E+00 0.  1.
        -13    1    5    5    0    0 -0.82563773943E+02  0.13974383690E+02  0.11469862002E+03  0.14201349796E+03  0.00000000000E+00 0. -1.
          2    1    6    6  503    0  0.18395044944E+03  0.94725578379E+03  0.12687140302E+04  0.15939782238E+04  0.00000000000E+00 0. -1.
         -2    1    6    6    0  503  0.23954449169E+02  0.26431662647E+03  0.28824691195E+03  0.39182059276E+03  0.00000000000E+00 0.  1.
<mgrwt>
<rscale>  0 0.28641488E+04</rscale>
<asrwt>0</asrwt>
<pdfrwt beam="1">  1        1 0.51543667E+00 0.28641488E+04</pdfrwt>
<pdfrwt beam="2">  1       -2 0.94173591E-01 0.28641488E+04</pdfrwt>
<totfact> 0.23539551E-01</totfact>
</mgrwt>
</event>
<event>
12    5  0.5246737E-008  0.2012841E+04  0.7818608E-02  0.8600641E-01
         -4   -1    0    0    0  501 -0.00000000000E+00  0.00000000000E+00  0.13724359163E+04  0.13724359163E+04  0.00000000000E+00 0.  1.
          3   -1    0    0  501    0  0.00000000000E+00 -0.00000000000E+00 -0.73801771803E+03  0.73801771803E+03  0.00000000000E+00 0. -1.
        -24    2    1    2    0    0 -0.13628576564E+03 -0.78438954300E+03  0.10623132405E+03  0.80788407426E+03  0.86895443787E+02 0.  0.
        254    2    1    2    0    0  0.13628576564E+03  0.78438954300E+03  0.52818687421E+03  0.13025695601E+04  0.88536168861E+03 0.  0.
         23    2    4    4    0    0  0.48140804031E+03  0.58914154886E+03  0.23773962082E+03  0.80230671055E+03  0.91293288953E+02 0.  0.
         23    2    4    4    0    0 -0.34512227468E+03  0.19524799413E+03  0.29044725339E+03  0.50026284953E+03  0.93124368032E+02 0.  0.
          3    1    3    3  502    0 -0.50995015767E+02 -0.53191073258E+03  0.73811611654E+02  0.53942346360E+03  0.00000000000E+00 0. -1.
         -4    1    3    3    0  502 -0.85290749869E+02 -0.25247881042E+03  0.32419712394E+02  0.26846061066E+03  0.00000000000E+00 0.  1.
         13    1    5    5    0    0  0.40831119920E+03  0.45068625251E+03  0.16806755348E+03  0.63093806045E+03  0.00000000000E+00 0.  1.
        -13    1    5    5    0    0  0.73096841117E+02  0.13845529635E+03  0.69672067336E+02  0.17136865010E+03  0.00000000000E+00 0. -1.
          4    1    6    6  503    0 -0.21117811001E+03  0.89138941384E+02  0.21203240137E+03  0.31224939432E+03  0.00000000000E+00 0. -1.
         -4    1    6    6    0  503 -0.13394416466E+03  0.10610905275E+03  0.78414852026E+02  0.18801345521E+03  0.00000000000E+00 0.  1.
<mgrwt>
<rscale>  0 0.20128408E+04</rscale>
<asrwt>0</asrwt>
<pdfrwt beam="1">  1        3 0.11354119E+00 0.20128408E+04</pdfrwt>
<pdfrwt beam="2">  1       -4 0.21114399E+00 0.20128408E+04</pdfrwt>
<totfact> 0.15268905E-01</totfact>
</mgrwt>
</event>
<event>
12    5  0.5246737E-008  0.3082559E+04  0.7818608E-02  0.8220541E-01
          1   -1    0    0  501    0  0.00000000000E+00  0.00000000000E+00  0.21813697188E+04  0.21813697188E+04  0.00000000000E+00 0. -1.
         -2   -1    0    0    0  501 -0.00000000000E+00 -0.00000000000E+00 -0.10890138259E+04  0.10890138259E+04  0.00000000000E+00 0.  1.
        -24    2    1    2    0    0  0.16383083066E+03  0.10150508764E+04 -0.51648240641E+03  0.11534141200E+04  0.80257295327E+02 0.  0.
        254    2    1    2    0    0 -0.16383083066E+03 -0.10150508764E+04  0.16088382993E+04  0.21169694247E+04  0.91434678822E+03 0.  0.
         23    2    4    4    0    0 -0.30018129971E+03 -0.66886147278E+02  0.79295901425E+03  0.85543148324E+03  0.91632171461E+02 0.  0.
         23    2    4    4    0    0  0.13635046905E+03 -0.94816472909E+03  0.81587928508E+03  0.12615379415E+04  0.90615484704E+02 0.  0.
          1    1    3    3  502    0  0.14229758290E+02  0.71271987024E+02 -0.14829574496E+02  0.74176131168E+02  0.00000000000E+00 0. -1.
         -2    1    3    3    0  502  0.14960107237E+03  0.94377888935E+03 -0.50165283192E+03  0.10792379889E+04  0.00000000000E+00 0.  1.
         13    1    5    5    0    0 -0.19039682067E+03  0.26915511602E+01  0.44731814639E+03  0.48616017716E+03  0.00000000000E+00 0. -1.
        -13    1    5    5    0    0 -0.10978447904E+03 -0.69577698438E+02  0.34564086786E+03  0.36927130608E+03  0.00000000000E+00 0.  1.
          1    1    6    6  503    0  0.74001372112E+02 -0.65120508387E+03  0.60568658904E+03  0.89241274558E+03  0.00000000000E+00 0. -1.
         -1    1    6    6    0  503  0.62349096934E+02 -0.29695964523E+03  0.21019269604E+03  0.36912519590E+03  0.00000000000E+00 0.  1.
<mgrwt>
<rscale>  0 0.30825585E+04</rscale>
<asrwt>0</asrwt>
<pdfrwt beam="1">  1        1 0.33559534E+00 0.30825585E+04</pdfrwt>
<pdfrwt beam="2">  1       -2 0.16754059E+00 0.30825585E+04</pdfrwt>
<totfact> 0.36998917E-01</totfact>
</mgrwt>
</event>
<event>
12    5  0.5246737E-008  0.1845804E+04  0.7818608E-02  0.8682314E-01
          1   -1    0    0  501    0  0.00000000000E+00  0.00000000000E+00  0.27635507209E+04  0.27635507209E+04  0.00000000000E+00 0. -1.
         -2   -1    0    0    0  501 -0.00000000000E+00 -0.00000000000E+00 -0.30820791061E+03  0.30820791061E+03  0.00000000000E+00 0.  1.
        -24    2    1    2    0    0  0.54924609632E+03 -0.97372303198E+02  0.16586027707E+04  0.17517303097E+04  0.80270089305E+02 0.  0.
        254    2    1    2    0    0 -0.54924609632E+03  0.97372303198E+02  0.79674003965E+03  0.13200283219E+04  0.89248385978E+03 0.  0.
         23    2    4    4    0    0 -0.19092055257E+03 -0.37176395356E+03  0.18881369557E+03  0.46767710738E+03  0.91717885783E+02 0.  0.
         23    2    4    4    0    0 -0.35832554375E+03  0.46913625676E+03  0.60792634408E+03  0.85235121447E+03  0.91881065895E+02 0.  0.
          1    1    3    3  502    0  0.50158311200E+03 -0.99794403564E+02  0.14440876242E+04  0.15319704983E+04  0.00000000000E+00 0. -1.
         -2    1    3    3    0  502  0.47662984326E+02  0.24221003664E+01  0.21451514646E+03  0.21975981140E+03  0.00000000000E+00 0.  1.
         13    1    5    5    0    0  0.10035121259E+02 -0.11477564958E+02  0.84632339484E+01  0.17437444908E+02  0.00000000000E+00 0. -1.
        -13    1    5    5    0    0 -0.20095567383E+03 -0.36028638861E+03  0.18035046162E+03  0.45023966248E+03  0.00000000000E+00 0.  1.
          1    1    6    6  503    0 -0.12668058644E+03  0.99923508549E+02  0.15397798416E+03  0.22302891774E+03  0.00000000000E+00 0. -1.
         -1    1    6    6    0  503 -0.23164495732E+03  0.36921274821E+03  0.45394835992E+03  0.62932229674E+03  0.00000000000E+00 0.  1.
<mgrwt>
<rscale>  0 0.18458041E+04</rscale>
<asrwt>0</asrwt>
<pdfrwt beam="1">  1        1 0.42516163E+00 0.18458041E+04</pdfrwt>
<pdfrwt beam="2">  1       -2 0.47416603E-01 0.18458041E+04</pdfrwt>
<totfact> 0.30843453E+00</totfact>
</mgrwt>
</event>
<event>
12    5  0.5246737E-008  0.5543931E+04  0.7818608E-02  0.7749673E-01
          3   -1    0    0  501    0  0.00000000000E+00  0.00000000000E+00  0.34070710349E+04  0.34070710349E+04  0.00000000000E+00 0. -1.
         -4   -1    0    0    0  501 -0.00000000000E+00 -0.00000000000E+00 -0.22552486958E+04  0.22552486958E+04  0.00000000000E+00 0.  1.
        -24    2    1    2    0    0 -0.13783661319E+04 -0.21532520403E+04  0.14401215069E+04  0.29355663539E+04  0.84925385137E+02 0.  0.
        254    2    1    2    0    0  0.13783661319E+04  0.21532520403E+04 -0.28829916780E+03  0.27267533768E+04  0.90315005681E+03 0.  0.
         23    2    4    4    0    0  0.12444560474E+04  0.13581028406E+04 -0.45370813917E+03  0.18992032314E+04  0.89485525487E+02 0.  0.
         23    2    4    4    0    0  0.13391008452E+03  0.79514919966E+03  0.16540897137E+03  0.82755014533E+03  0.85351946481E+02 0.  0.
          1    1    3    3  502    0 -0.97010712778E+03 -0.15405266535E+04  0.98379257303E+03  0.20693424164E+04  0.00000000000E+00 0. -1.
         -2    1    3    3    0  502 -0.40825900411E+03 -0.61272538676E+03  0.45632893387E+03  0.86622393750E+03  0.00000000000E+00 0.  1.
         13    1    5    5    0    0  0.10307635197E+04  0.10787438576E+04 -0.35038745872E+03  0.15326229527E+04  0.00000000000E+00 0. -1.
        -13    1    5    5    0    0  0.21369252767E+03  0.27935898300E+03 -0.10332068046E+03  0.36658027876E+03  0.00000000000E+00 0.  1.
          1    1    6    6  503    0  0.14234157061E+03  0.78028860562E+03  0.16641261744E+03  0.81043481541E+03  0.00000000000E+00 0. -1.
         -1    1    6    6    0  503 -0.84314860855E+01  0.14860594039E+02 -0.10036460715E+01  0.17115329919E+02  0.00000000000E+00 0.  1.
<mgrwt>
<rscale>  0 0.55439309E+04</rscale>
<asrwt>0</asrwt>
<pdfrwt beam="1">  1        3 0.52416478E+00 0.55439309E+04</pdfrwt>
<pdfrwt beam="2">  1       -4 0.34696134E+00 0.55439309E+04</pdfrwt>
<totfact> 0.63102447E-05</totfact>
</mgrwt>
</event>
<event>
12    5  0.5246737E-008  0.2044718E+04  0.7818608E-02  0.8585994E-01
          1   -1    0    0  501    0  0.00000000000E+00  0.00000000000E+00  0.26450331908E+04  0.26450331908E+04  0.00000000000E+00 0. -1.
         -2   -1    0    0    0  501 -0.00000000000E+00 -0.00000000000E+00 -0.39516239903E+03  0.39516239903E+03  0.00000000000E+00 0.  1.
        -24    2    1    2    0    0  0.86847496098E+02 -0.35883049787E+03 -0.16311796292E+03  0.41127316728E+03  0.78970466097E+02 0.  0.
        254    2    1    2    0    0 -0.86847496098E+02  0.35883049787E+03  0.24129887547E+04  0.26289224226E+04  0.97591831611E+03 0.  0.
         23    2    4    4    0    0 -0.15686173506E+03  0.57906040871E+03  0.22526372831E+04  0.23333004227E+04  0.99997861617E+02 0.  0.
         23    2    4    4    0    0  0.70014238959E+02 -0.22022991084E+03  0.16035147156E+03  0.29562199985E+03  0.90975629060E+02 0.  0.
          1    1    3    3  502    0  0.62546436752E+02 -0.13907903802E+03 -0.37702354971E+02  0.15708756519E+03  0.00000000000E+00 0. -1.
         -2    1    3    3    0  502  0.24301059346E+02 -0.21975145985E+03 -0.12541560795E+03  0.25418560209E+03  0.00000000000E+00 0.  1.
         13    1    5    5    0    0 -0.98604486434E+01  0.95316844202E+02  0.24745568421E+03  0.26536172460E+03  0.00000000000E+00 0. -1.
        -13    1    5    5    0    0 -0.14700128641E+03  0.48374356450E+03  0.20051815989E+04  0.20679386981E+04  0.00000000000E+00 0.  1.
          1    1    6    6  503    0  0.33786910182E+02 -0.12453306365E+02  0.35299149236E+02  0.50424895397E+02  0.00000000000E+00 0. -1.
         -1    1    6    6    0  503  0.36227328777E+02 -0.20777660447E+03  0.12505232232E+03  0.24519710446E+03  0.00000000000E+00 0.  1.
<mgrwt>
<rscale>  0 0.20447177E+04</rscale>
<asrwt>0</asrwt>
<pdfrwt beam="1">  1        1 0.40692817E+00 0.20447177E+04</pdfrwt>
<pdfrwt beam="2">  1       -2 0.60794217E-01 0.20447177E+04</pdfrwt>
<totfact> 0.21954262E+00</totfact>
</mgrwt>
</event>
<event>
12    5  0.5246737E-008  0.2485502E+04  0.7818608E-02  0.8408169E-01
          1   -1    0    0  501    0  0.00000000000E+00  0.00000000000E+00  0.11240235700E+04  0.11240235700E+04  0.00000000000E+00 0. -1.
         -2   -1    0    0    0  501 -0.00000000000E+00 -0.00000000000E+00 -0.13740187925E+04  0.13740187925E+04  0.00000000000E+00 0.  1.
        -24    2    1    2    0    0 -0.35200147554E+03 -0.93364074520E+03  0.31063802709E+03  0.10474761749E+04  0.71556085051E+02 0.  0.
        254    2    1    2    0    0  0.35200147554E+03  0.93364074520E+03 -0.56063324957E+03  0.14505661876E+04  0.89120286370E+03 0.  0.
         23    2    4    4    0    0  0.63118231297E+03  0.72303911227E+03 -0.50292265050E+03  0.10873833904E+04  0.91075657245E+02 0.  0.
         23    2    4    4    0    0 -0.27918083743E+03  0.21060163293E+03 -0.57710599074E+02  0.36318279718E+03  0.79222743823E+02 0.  0.
          3    1    3    3  502    0 -0.27642789672E+03 -0.71263004817E+03  0.20670147890E+03  0.79182035148E+03  0.00000000000E+00 0. -1.
         -4    1    3    3    0  502 -0.75573578816E+02 -0.22101069703E+03  0.10393654820E+03  0.25565582346E+03  0.00000000000E+00 0.  1.
         13    1    5    5    0    0  0.53391160336E+03  0.58002575042E+03 -0.37971430601E+03  0.87502824272E+03  0.00000000000E+00 0. -1.
        -13    1    5    5    0    0  0.97270709606E+02  0.14301336185E+03 -0.12320834448E+03  0.21235514772E+03  0.00000000000E+00 0.  1.
          1    1    6    6  503    0 -0.23416672950E+03  0.20597465120E+03 -0.61141391576E+02  0.31780164238E+03  0.00000000000E+00 0. -1.
         -1    1    6    6    0  503 -0.45014107937E+02  0.46269817332E+01  0.34307925015E+01  0.45381154795E+02  0.00000000000E+00 0.  1.
<mgrwt>
<rscale>  0 0.24855016E+04</rscale>
<asrwt>0</asrwt>
<pdfrwt beam="1">  1        1 0.17292670E+00 0.24855016E+04</pdfrwt>
<pdfrwt beam="2">  1       -2 0.21138750E+00 0.24855016E+04</pdfrwt>
<totfact> 0.10646381E+00</totfact>
</mgrwt>
</event>
<event>
12    5  0.5246737E-008  0.2025448E+04  0.7818608E-02  0.8594815E-01
         -2   -1    0    0    0  501 -0.00000000000E+00  0.00000000000E+00  0.36395423463E+03  0.36395423463E+03  0.00000000000E+00 0.  1.
          1   -1    0    0  501    0  0.00000000000E+00 -0.00000000000E+00 -0.28179630519E+04  0.28179630519E+04  0.00000000000E+00 0. -1.
        -24    2    1    2    0    0 -0.50246678206E+03  0.60580844144E+03 -0.12085778599E+04  0.14444975204E+04  0.80224113632E+02 0.  0.
        254    2    1    2    0    0  0.50246678206E+03 -0.60580844144E+03 -0.12454309573E+04  0.17374197660E+04  0.92089762684E+03 0.  0.
         23    2    4    4    0    0  0.29167076194E+02 -0.69789941545E+03 -0.59242993618E+03  0.92044948842E+03  0.91322062167E+02 0.  0.
         23    2    4    4    0    0  0.47329970586E+03  0.92090974008E+02 -0.65300102117E+03  0.81697027762E+03  0.92394490089E+02 0.  0.
          3    1    3    3  502    0 -0.10220240052E+03  0.82296799029E+02 -0.22775460143E+03  0.26285024686E+03  0.00000000000E+00 0. -1.
         -4    1    3    3    0  502 -0.40026438154E+03  0.52351164241E+03 -0.98082325844E+03  0.11816472736E+04  0.00000000000E+00 0.  1.
         13    1    5    5    0    0 -0.30284181721E+02 -0.13441535339E+03 -0.12054435081E+03  0.18307255229E+03  0.00000000000E+00 0. -1.
        -13    1    5    5    0    0  0.59451257915E+02 -0.56348406206E+03 -0.47188558537E+03  0.73737693613E+03  0.00000000000E+00 0.  1.
          2    1    6    6  503    0  0.11292482394E+03  0.17971396696E+02 -0.22634552763E+03  0.25358881055E+03  0.00000000000E+00 0. -1.
         -2    1    6    6    0  503  0.36037488192E+03  0.74119577312E+02 -0.42665549354E+03  0.56338146706E+03  0.00000000000E+00 0.  1.
<mgrwt>
<rscale>  0 0.20254477E+04</rscale>
<asrwt>0</asrwt>
<pdfrwt beam="1">  1        1 0.43353279E+00 0.20254477E+04</pdfrwt>
<pdfrwt beam="2">  1       -2 0.55992957E-01 0.20254477E+04</pdfrwt>
<totfact> 0.19731061E+00</totfact>
</mgrwt>
</event>
<event>
12    5  0.5246737E-008  0.1322243E+04  0.7818608E-02  0.9012110E-01
         -2   -1    0    0    0  501 -0.00000000000E+00  0.00000000000E+00  0.39649659652E+03  0.39649659652E+03  0.00000000000E+00 0.  1.
          1   -1    0    0  501    0  0.00000000000E+00 -0.00000000000E+00 -0.11023592186E+04  0.11023592186E+04  0.00000000000E+00 0. -1.
        -24    2    1    2    0    0 -0.66854693153E+02  0.21303698393E+03 -0.49753239230E+03  0.55168638312E+03  0.83457039382E+02 0.  0.
        254    2    1    2    0    0  0.66854693153E+02 -0.21303698393E+03 -0.20833022978E+03  0.94716943199E+03  0.89659028644E+03 0.  0.
         23    2    4    4    0    0 -0.11075763632E+03 -0.52792739896E+03 -0.16616800615E+03  0.57176788897E+03  0.91280447035E+02 0.  0.
         23    2    4    4    0    0  0.17761232947E+03  0.31489041504E+03 -0.42162223626E+02  0.37540154302E+03  0.91905126823E+02 0.  0.
          3    1    3    3  502    0 -0.23572642708E+02  0.16745724245E+03 -0.41352652910E+03  0.44676815889E+03  0.00000000000E+00 0. -1.
         -4    1    3    3    0  502 -0.43282050446E+02  0.45579741480E+02 -0.84005863200E+02  0.10491822423E+03  0.00000000000E+00 0.  1.
         13    1    5    5    0    0 -0.20021933544E+02 -0.23593274108E+03 -0.36230359633E+02  0.23953658404E+03  0.00000000000E+00 0. -1.
        -13    1    5    5    0    0 -0.90735702775E+02 -0.29199465788E+03 -0.12993764652E+03  0.33223130493E+03  0.00000000000E+00 0.  1.
          2    1    6    6  503    0  0.14853964949E+03  0.24206028997E+03 -0.69450874223E+02  0.29237071567E+03  0.00000000000E+00 0.  1.
         -2    1    6    6    0  503  0.29072679980E+02  0.72830125068E+02  0.27288650597E+02  0.83030827347E+02  0.00000000000E+00 0. -1.
<mgrwt>
<rscale>  0 0.13222431E+04</rscale>
<asrwt>0</asrwt>
<pdfrwt beam="1">  1        1 0.16959372E+00 0.13222431E+04</pdfrwt>
<pdfrwt beam="2">  1       -2 0.60999477E-01 0.13222431E+04</pdfrwt>
<totfact> 0.27160319E+01</totfact>
</mgrwt>
</event>
<event>
12    5  0.5246737E-008  0.2272407E+04  0.7818608E-02  0.8488881E-01
          1   -1    0    0  501    0  0.00000000000E+00  0.00000000000E+00  0.14925339063E+04  0.14925339063E+04  0.00000000000E+00 0. -1.
         -2   -1    0    0    0  501 -0.00000000000E+00 -0.00000000000E+00 -0.86494401165E+03  0.86494401165E+03  0.00000000000E+00 0.  1.
        -24    2    1    2    0    0 -0.92651042082E+02 -0.67516976590E+03  0.96672443127E+03  0.11854256816E+04  0.78990456019E+02 0.  0.
        254    2    1    2    0    0  0.92651042082E+02  0.67516976590E+03 -0.33913453661E+03  0.11720522364E+04  0.89121029084E+03 0.  0.
         23    2    4    4    0    0  0.35258797576E+03  0.15208369191E+03 -0.42067543742E+03  0.57522175164E+03  0.80402176097E+02 0.  0.
         23    2    4    4    0    0 -0.25993693368E+03  0.52308607398E+03  0.81540900812E+02  0.59683048474E+03  0.91495675970E+02 0.  0.
          1    1    3    3  502    0 -0.77532998806E+02 -0.34719482941E+03  0.54770251782E+03  0.65309544747E+03  0.00000000000E+00 0. -1.
         -2    1    3    3    0  502 -0.15118043276E+02 -0.32797493649E+03  0.41902191345E+03  0.53233023411E+03  0.00000000000E+00 0.  1.
         13    1    5    5    0    0 -0.39385230527E+01 -0.12509899939E+01 -0.33071076273E+01  0.52928159481E+01  0.00000000000E+00 0.  1.
        -13    1    5    5    0    0  0.35652649881E+03  0.15333468191E+03 -0.41736832979E+03  0.56992893570E+03  0.00000000000E+00 0. -1.
          4    1    6    6  503    0 -0.24190257275E+03  0.49648554076E+03  0.54746311946E+02  0.55498820308E+03  0.00000000000E+00 0. -1.
         -4    1    6    6    0  503 -0.18034360928E+02  0.26600533228E+02  0.26794588866E+02  0.41842281661E+02  0.00000000000E+00 0.  1.
<mgrwt>
<rscale>  0 0.22724069E+04</rscale>
<asrwt>0</asrwt>
<pdfrwt beam="1">  1        1 0.22962060E+00 0.22724069E+04</pdfrwt>
<pdfrwt beam="2">  1       -2 0.13306831E+00 0.22724069E+04</pdfrwt>
<totfact> 0.21554311E+00</totfact>
</mgrwt>
</event>
<event>
12    5  0.5246737E-008  0.1811004E+04  0.7818608E-02  0.8700470E-01
          1   -1    0    0  501    0  0.00000000000E+00  0.00000000000E+00  0.98360939675E+03  0.98360939675E+03  0.00000000000E+00 0. -1.
         -2   -1    0    0    0  501 -0.00000000000E+00 -0.00000000000E+00 -0.83359659244E+03  0.83359659244E+03  0.00000000000E+00 0.  1.
        -24    2    1    2    0    0 -0.51927266733E+03 -0.40454828868E+03  0.21558262630E+03  0.69720016333E+03  0.79427816755E+02 0.  0.
        254    2    1    2    0    0  0.51927266733E+03  0.40454828868E+03 -0.65569821978E+02  0.11200058259E+04  0.90377554044E+03 0.  0.
         23    2    4    4    0    0  0.20056608422E+03  0.22029322483E+03  0.40809636196E+03  0.51326088187E+03  0.90212156403E+02 0.  0.
         23    2    4    4    0    0  0.31870658312E+03  0.18425506384E+03 -0.47366618394E+03  0.60674494399E+03  0.90862305585E+02 0.  0.
          3    1    3    3  502    0 -0.33442623540E+03 -0.23548108017E+03  0.16823484340E+03  0.44226147082E+03  0.00000000000E+00 0. -1.
         -2    1    3    3    0  502 -0.18484643193E+03 -0.16906720851E+03  0.47347782898E+02  0.25493869250E+03  0.00000000000E+00 0.  1.
         13    1    5    5    0    0  0.65619202241E+02  0.78066940906E+02  0.21558264496E+03  0.23848732414E+03  0.00000000000E+00 0. -1.
        -13    1    5    5    0    0  0.13494688197E+03  0.14222628393E+03  0.19251371700E+03  0.27477355773E+03  0.00000000000E+00 0.  1.
          3    1    6    6  503    0  0.16821119389E+03  0.93355622955E+02 -0.17445267215E+03  0.25969985157E+03  0.00000000000E+00 0. -1.
         -3    1    6    6    0  503  0.15049538922E+03  0.90899440887E+02 -0.29921351179E+03  0.34704509242E+03  0.00000000000E+00 0.  1.
<mgrwt>
<rscale>  0 0.18110035E+04</rscale>
<asrwt>0</asrwt>
<pdfrwt beam="1">  1        1 0.15132452E+00 0.18110035E+04</pdfrwt>
<pdfrwt beam="2">  1       -2 0.12824563E+00 0.18110035E+04</pdfrwt>
<totfact> 0.57892334E+00</totfact>
</mgrwt>
</event>
<event>
12    5  0.5246737E-008  0.2062585E+04  0.7818608E-02  0.8577907E-01
         -2   -1    0    0    0  501 -0.00000000000E+00  0.00000000000E+00  0.72899341689E+03  0.72899341689E+03  0.00000000000E+00 0.  1.
          1   -1    0    0  501    0  0.00000000000E+00 -0.00000000000E+00 -0.14589487275E+04  0.14589487275E+04  0.00000000000E+00 0. -1.
        -24    2    1    2    0    0 -0.62289477502E+03  0.23730823513E+02 -0.88352055056E+03  0.10842343010E+04  0.79965013682E+02 0.  0.
        254    2    1    2    0    0  0.62289477502E+03 -0.23730823513E+02  0.15356523991E+03  0.11037078435E+04  0.89779043662E+03 0.  0.
         23    2    4    4    0    0  0.23017381060E+03  0.10043350346E+03 -0.35411908298E+03  0.44362568938E+03  0.91304740497E+02 0.  0.
         23    2    4    4    0    0  0.39272096442E+03 -0.12416432698E+03  0.50768432289E+03  0.66008215409E+03  0.91206043941E+02 0.  0.
          3    1    3    3  502    0 -0.52438852439E+03 -0.95458655205E+01 -0.73584652064E+03  0.90362854647E+03  0.00000000000E+00 0. -1.
         -4    1    3    3    0  502 -0.98506250627E+02  0.33276689033E+02 -0.14767402993E+03  0.18060575450E+03  0.00000000000E+00 0.  1.
         13    1    5    5    0    0 -0.78496342310E+01  0.67326850736E+00 -0.19576179777E+02  0.21102058258E+02  0.00000000000E+00 0. -1.
        -13    1    5    5    0    0  0.23802344483E+03  0.99760234955E+02 -0.33454290321E+03  0.42252363112E+03  0.00000000000E+00 0.  1.
          1    1    6    6  503    0  0.24592969499E+03 -0.51092595631E+02  0.24813942603E+03  0.35307937204E+03  0.00000000000E+00 0. -1.
         -1    1    6    6    0  503  0.14679126943E+03 -0.73071731344E+02  0.25954489686E+03  0.30700278205E+03  0.00000000000E+00 0.  1.
<mgrwt>
<rscale>  0 0.20625848E+04</rscale>
<asrwt>0</asrwt>
<pdfrwt beam="1">  1        1 0.22445365E+00 0.20625848E+04</pdfrwt>
<pdfrwt beam="2">  1       -2 0.11215284E+00 0.20625848E+04</pdfrwt>
<totfact> 0.35464124E+00</totfact>
</mgrwt>
</event>
<event>
12    5  0.5246737E-008  0.3551205E+04  0.7818608E-02  0.8101761E-01
          1   -1    0    0  501    0  0.00000000000E+00  0.00000000000E+00  0.77775776421E+03  0.77775776421E+03  0.00000000000E+00 0. -1.
         -2   -1    0    0    0  501 -0.00000000000E+00 -0.00000000000E+00 -0.40536573059E+04  0.40536573059E+04  0.00000000000E+00 0.  1.
        -24    2    1    2    0    0 -0.56796321394E+03  0.88239554268E+03 -0.32847015774E+04  0.34491910349E+04  0.80313364506E+02 0.  0.
        254    2    1    2    0    0  0.56796321394E+03 -0.88239554268E+03  0.88020356726E+01  0.13822240352E+04  0.89958974074E+03 0.  0.
         23    2    4    4    0    0  0.80059560078E+03 -0.60224128477E+03 -0.19700993383E+02  0.10063652247E+04  0.93460982835E+02 0.  0.
         23    2    4    4    0    0 -0.23263238684E+03 -0.28015425790E+03  0.28503029055E+02  0.37585881052E+03  0.88618210065E+02 0.  0.
          3    1    3    3  502    0 -0.79078152996E+02  0.13097344245E+03 -0.57749599927E+03  0.59741863554E+03  0.00000000000E+00 0. -1.
         -4    1    3    3    0  502 -0.48888506094E+03  0.75142210023E+03 -0.27072055781E+04  0.28517723994E+04  0.00000000000E+00 0.  1.
         13    1    5    5    0    0  0.46723244290E+01 -0.16624005101E+02 -0.54646047673E+01  0.18112152451E+02  0.00000000000E+00 0.  1.
        -13    1    5    5    0    0  0.79592327635E+03 -0.58561727967E+03 -0.14236388615E+02  0.98825307227E+03  0.00000000000E+00 0. -1.
          3    1    6    6  503    0 -0.21479181272E+03 -0.22501121396E+03  0.47908279934E+02  0.31473921349E+03  0.00000000000E+00 0. -1.
         -3    1    6    6    0  503 -0.17840574114E+02 -0.55143043942E+02 -0.19405250878E+02  0.61119597034E+02  0.00000000000E+00 0.  1.
<mgrwt>
<rscale>  0 0.35512046E+04</rscale>
<asrwt>0</asrwt>
<pdfrwt beam="1">  1        1 0.11965504E+00 0.35512046E+04</pdfrwt>
<pdfrwt beam="2">  1       -2 0.62363960E+00 0.35512046E+04</pdfrwt>
<totfact> 0.67791179E-03</totfact>
</mgrwt>
</event>
<event>
12    5  0.5246737E-008  0.1492369E+04  0.7818608E-02  0.8889543E-01
         -2   -1    0    0    0  501 -0.00000000000E+00  0.00000000000E+00  0.35227548001E+03  0.35227548001E+03  0.00000000000E+00 0.  1.
          1   -1    0    0  501    0  0.00000000000E+00 -0.00000000000E+00 -0.15805574579E+04  0.15805574579E+04  0.00000000000E+00 0. -1.
        -24    2    1    2    0    0 -0.22123375612E+03  0.33003705779E+03 -0.66277650939E+02  0.41079478295E+03  0.80565453663E+02 0.  0.
        254    2    1    2    0    0  0.22123375612E+03 -0.33003705779E+03 -0.11620043269E+04  0.15220381550E+04  0.89915363258E+03 0.  0.
         23    2    4    4    0    0  0.11543819139E+03  0.10889708780E+03  0.78761004032E+02  0.19851133888E+03  0.89548334124E+02 0.  0.
         23    2    4    4    0    0  0.10579556473E+03 -0.43893414558E+03 -0.12407653310E+04  0.13235268161E+04  0.91480821366E+02 0.  0.
          1    1    3    3  502    0 -0.10654069899E+03  0.15629858074E+03 -0.72359985623E+02  0.20252440446E+03  0.00000000000E+00 0. -1.
         -4    1    3    3    0  502 -0.11469305713E+03  0.17373847704E+03  0.60823346849E+01  0.20827037848E+03  0.00000000000E+00 0.  1.
         13    1    5    5    0    0  0.95812273484E+01 -0.30707704377E+01 -0.15058269345E+02  0.18110246389E+02  0.00000000000E+00 0. -1.
        -13    1    5    5    0    0  0.10585696404E+03  0.11196785824E+03  0.93819273377E+02  0.18040109249E+03  0.00000000000E+00 0.  1.
          3    1    6    6  503    0  0.10279355384E+02 -0.93101581161E+02 -0.16789612375E+03  0.19225680204E+03  0.00000000000E+00 0. -1.
         -3    1    6    6    0  503  0.95516209342E+02 -0.34583256442E+03 -0.10728692072E+04  0.11312700140E+04  0.00000000000E+00 0.  1.
<mgrwt>
<rscale>  0 0.14923694E+04</rscale>
<asrwt>0</asrwt>
<pdfrwt beam="1">  1        1 0.24316269E+00 0.14923694E+04</pdfrwt>
<pdfrwt beam="2">  1       -2 0.54196228E-01 0.14923694E+04</pdfrwt>
<totfact> 0.15669474E+01</totfact>
</mgrwt>
</event>
<event>
12    5  0.5246737E-008  0.1365660E+04  0.7818608E-02  0.8979058E-01
         -2   -1    0    0    0  501 -0.00000000000E+00  0.00000000000E+00  0.46143797834E+03  0.46143797834E+03  0.00000000000E+00 0.  1.
          1   -1    0    0  501    0  0.00000000000E+00 -0.00000000000E+00 -0.10104427466E+04  0.10104427466E+04  0.00000000000E+00 0. -1.
        -24    2    1    2    0    0 -0.14085551949E+03 -0.11091751982E+03  0.16601230947E+03  0.25730055248E+03  0.80625764114E+02 0.  0.
        254    2    1    2    0    0  0.14085551949E+03  0.11091751982E+03 -0.71501707772E+03  0.12145801724E+04  0.96530440810E+03 0.  0.
         23    2    4    4    0    0 -0.40102032380E+03  0.33063285981E+02 -0.19961972064E+03  0.45714062830E+03  0.84964935105E+02 0.  0.
         23    2    4    4    0    0  0.54187584329E+03  0.77854233835E+02 -0.51539735708E+03  0.75743954414E+03  0.91594301503E+02 0.  0.
          1    1    3    3  502    0 -0.12331986286E+03 -0.71159167776E+02  0.86236085597E+02  0.16645743659E+03  0.00000000000E+00 0. -1.
         -2    1    3    3    0  502 -0.17535656626E+02 -0.39758352039E+02  0.79776223876E+02  0.90843115898E+02  0.00000000000E+00 0.  1.
         13    1    5    5    0    0 -0.23842333539E+03  0.60644364829E+02 -0.11065416201E+03  0.26975501740E+03  0.00000000000E+00 0. -1.
        -13    1    5    5    0    0 -0.16259698841E+03 -0.27581078848E+02 -0.88965558627E+02  0.18738561090E+03  0.00000000000E+00 0.  1.
          4    1    6    6  503    0  0.23844625101E+03  0.11786215249E+02 -0.27873294038E+03  0.36699806749E+03  0.00000000000E+00 0. -1.
         -4    1    6    6    0  503  0.30342959228E+03  0.66068018586E+02 -0.23666441670E+03  0.39044147664E+03  0.00000000000E+00 0.  1.
<mgrwt>
<rscale>  0 0.13656598E+04</rscale>
<asrwt>0</asrwt>
<pdfrwt beam="1">  1        1 0.15545273E+00 0.13656598E+04</pdfrwt>
<pdfrwt beam="2">  1       -2 0.70990458E-01 0.13656598E+04</pdfrwt>
<totfact> 0.22944087E+01</totfact>
</mgrwt>
</event>
<event>
12    5  0.5246737E-008  0.1317611E+04  0.7818608E-02  0.9015715E-01
          1   -1    0    0  501    0  0.00000000000E+00  0.00000000000E+00  0.55987775346E+03  0.55987775346E+03  0.00000000000E+00 0. -1.
         -2   -1    0    0    0  501 -0.00000000000E+00 -0.00000000000E+00 -0.77521348032E+03  0.77521348032E+03  0.00000000000E+00 0.  1.
        -24    2    1    2    0    0  0.30921777157E+03  0.69739909040E+02  0.41495239115E+02  0.32796395682E+03  0.73206672765E+02 0.  0.
        254    2    1    2    0    0 -0.30921777157E+03 -0.69739909040E+02 -0.25683096598E+03  0.10071272770E+04  0.92079526593E+03 0.  0.
         23    2    4    4    0    0 -0.60651022634E+03 -0.15927634715E+03 -0.83272940025E+02  0.63901526792E+03  0.90457286466E+02 0.  0.
         23    2    4    4    0    0  0.29729245478E+03  0.89536438113E+02 -0.17355802595E+03  0.36811200904E+03  0.94786525465E+02 0.  0.
          3    1    3    3  502    0  0.24997825178E+03  0.44109988096E+02  0.59965773531E+02  0.26082697600E+03  0.00000000000E+00 0. -1.
         -4    1    3    3    0  502  0.59239519787E+02  0.25629920944E+02 -0.18470534416E+02  0.67136980821E+02  0.00000000000E+00 0.  1.
         13    1    5    5    0    0 -0.20424642352E+03 -0.55839983727E+02  0.14751624079E+02  0.21225530787E+03  0.00000000000E+00 0.  1.
        -13    1    5    5    0    0 -0.40226380282E+03 -0.10343636343E+03 -0.98024564104E+02  0.42675996005E+03  0.00000000000E+00 0. -1.
          3    1    6    6  503    0  0.98002999711E+02  0.45135914189E+02 -0.13624219240E+02  0.10875411740E+03  0.00000000000E+00 0. -1.
         -3    1    6    6    0  503  0.19928945507E+03  0.44400523924E+02 -0.15993380671E+03  0.25935789164E+03  0.00000000000E+00 0.  1.
<mgrwt>
<rscale>  0 0.13176111E+04</rscale>
<asrwt>0</asrwt>
<pdfrwt beam="1">  1        1 0.86135040E-01 0.13176111E+04</pdfrwt>
<pdfrwt beam="2">  1       -2 0.11926361E+00 0.13176111E+04</pdfrwt>
<totfact> 0.17502562E+01</totfact>
</mgrwt>
</event>
<event>
12    5  0.5246737E-008  0.1973453E+04  0.7818608E-02  0.8619134E-01
         -2   -1    0    0    0  501 -0.00000000000E+00  0.00000000000E+00  0.37007892288E+03  0.37007892288E+03  0.00000000000E+00 0.  1.
          1   -1    0    0  501    0  0.00000000000E+00 -0.00000000000E+00 -0.26308699065E+04  0.26308699065E+04  0.00000000000E+00 0. -1.
        -24    2    1    2    0    0  0.15003576123E+03  0.13161867624E+03 -0.20378342879E+04  0.20492140296E+04  0.81702804618E+02 0.  0.
        254    2    1    2    0    0 -0.15003576123E+03 -0.13161867624E+03 -0.22295669567E+03  0.95173479981E+03  0.90346844740E+03 0.  0.
         23    2    4    4    0    0 -0.23087564652E+03  0.34819997242E+03 -0.12375206000E+03  0.44593503787E+03  0.94850939327E+02 0.  0.
         23    2    4    4    0    0  0.80839885287E+02 -0.47981864866E+03 -0.99204635669E+02  0.50579976194E+03  0.96077139777E+02 0.  0.
          3    1    3    3  502    0  0.13477719707E+03  0.69436585655E+02 -0.14194779212E+04  0.14275517157E+04  0.00000000000E+00 0. -1.
         -4    1    3    3    0  502  0.15258564160E+02  0.62182090584E+02 -0.61835636674E+03  0.62166231385E+03  0.00000000000E+00 0.  1.
         13    1    5    5    0    0 -0.11762292952E+03  0.16907685323E+03 -0.11016403377E+03  0.23357707547E+03  0.00000000000E+00 0. -1.
        -13    1    5    5    0    0 -0.11325271700E+03  0.17912311919E+03 -0.13588026228E+02  0.21235796240E+03  0.00000000000E+00 0.  1.
          4    1    6    6  503    0 -0.75396720938E+01 -0.16799805689E+01  0.40460353936E+01  0.87200569035E+01  0.00000000000E+00 0. -1.
         -4    1    6    6    0  503  0.88379557381E+02 -0.47813866809E+03 -0.10325067106E+03  0.49707970504E+03  0.00000000000E+00 0.  1.
<mgrwt>
<rscale>  0 0.19734533E+04</rscale>
<asrwt>0</asrwt>
<pdfrwt beam="1">  1        1 0.40474922E+00 0.19734533E+04</pdfrwt>
<pdfrwt beam="2">  1       -2 0.56935219E-01 0.19734533E+04</pdfrwt>
<totfact> 0.25955657E+00</totfact>
</mgrwt>
</event>
<event>
12    5  0.5246737E-008  0.1671259E+04  0.7818608E-02  0.8777928E-01
         -2   -1    0    0    0  501 -0.00000000000E+00  0.00000000000E+00  0.59995476139E+03  0.59995476139E+03  0.00000000000E+00 0.  1.
          1   -1    0    0  501    0  0.00000000000E+00 -0.00000000000E+00 -0.11638819890E+04  0.11638819890E+04  0.00000000000E+00 0. -1.
        -24    2    1    2    0    0  0.32244394155E+03 -0.19782116720E+03  0.27651363701E+03  0.47533727367E+03  0.79890066055E+02 0.  0.
        254    2    1    2    0    0 -0.32244394155E+03  0.19782116720E+03 -0.84044086464E+03  0.12884994767E+04  0.90043697446E+03 0.  0.
         23    2    4    4    0    0 -0.60452269488E+03  0.27030562652E+03 -0.61895904827E+03  0.91121574017E+03  0.93225540185E+02 0.  0.
         23    2    4    4    0    0  0.28207875333E+03 -0.72484459324E+02 -0.22148181637E+03  0.37728373657E+03  0.92013058720E+02 0.  0.
          3    1    3    3  502    0  0.27908150454E+02 -0.58720713815E+01  0.75722082664E+00  0.28529273868E+02  0.00000000000E+00 0. -1.
         -4    1    3    3    0  502  0.29453579110E+03 -0.19194909582E+03  0.27575641618E+03  0.44680799980E+03  0.00000000000E+00 0.  1.
         13    1    5    5    0    0 -0.42623695325E+03  0.16285825459E+03 -0.47137881760E+03  0.65604781920E+03  0.00000000000E+00 0.  1.
        -13    1    5    5    0    0 -0.17828574163E+03  0.10744737194E+03 -0.14758023067E+03  0.25516792097E+03  0.00000000000E+00 0. -1.
          2    1    6    6  503    0  0.71387390323E+02 -0.45764746682E+02 -0.10531523467E+03  0.13521046627E+03  0.00000000000E+00 0. -1.
         -2    1    6    6    0  503  0.21069136301E+03 -0.26719712642E+02 -0.11616658170E+03  0.24207327030E+03  0.00000000000E+00 0.  1.
<mgrwt>
<rscale>  0 0.16712589E+04</rscale>
<asrwt>0</asrwt>
<pdfrwt beam="1">  1        1 0.17905876E+00 0.16712589E+04</pdfrwt>
<pdfrwt beam="2">  1       -2 0.92300734E-01 0.16712589E+04</pdfrwt>
<totfact> 0.94733664E+00</totfact>
</mgrwt>
</event>
<event>
12    5  0.5246737E-008  0.1177057E+04  0.7818608E-02  0.9133179E-01
          1   -1    0    0  501    0  0.00000000000E+00  0.00000000000E+00  0.54842242934E+03  0.54842242934E+03  0.00000000000E+00 0. -1.
         -2   -1    0    0    0  501 -0.00000000000E+00 -0.00000000000E+00 -0.63156728361E+03  0.63156728361E+03  0.00000000000E+00 0.  1.
        -24    2    1    2    0    0  0.12148021168E+03 -0.17154470020E+03  0.72422903963E+02  0.24370376510E+03  0.99806924157E+02 0.  0.
        254    2    1    2    0    0 -0.12148021168E+03  0.17154470020E+03 -0.15556775823E+03  0.93628594786E+03  0.89902448396E+03 0.  0.
         23    2    4    4    0    0  0.14581015286E+02  0.20939817970E+03 -0.50146582964E+03  0.55135233634E+03  0.91984872771E+02 0.  0.
         23    2    4    4    0    0 -0.13606122697E+03 -0.37853479500E+02  0.34589807141E+03  0.38493361152E+03  0.92643758997E+02 0.  0.
          3    1    3    3  502    0  0.88782484794E+02 -0.14478479465E+03  0.96230754322E+02  0.19520585146E+03  0.00000000000E+00 0. -1.
         -4    1    3    3    0  502  0.32697726886E+02 -0.26759905549E+02 -0.23807850359E+02  0.48497913638E+02  0.00000000000E+00 0.  1.
         13    1    5    5    0    0  0.29043893277E+02  0.19134515712E+03 -0.48705595289E+03  0.52409924455E+03  0.00000000000E+00 0.  1.
        -13    1    5    5    0    0 -0.14462877992E+02  0.18053022576E+02 -0.14409876747E+02  0.27253091784E+02  0.00000000000E+00 0. -1.
          1    1    6    6  503    0 -0.18073204123E+02 -0.45532831035E+02  0.12742380193E+03  0.13651631664E+03  0.00000000000E+00 0. -1.
         -1    1    6    6    0  503 -0.11798802284E+03  0.76793515343E+01  0.21847426947E+03  0.24841729488E+03  0.00000000000E+00 0.  1.
<mgrwt>
<rscale>  0 0.11770568E+04</rscale>
<asrwt>0</asrwt>
<pdfrwt beam="1">  1        1 0.84372681E-01 0.11770568E+04</pdfrwt>
<pdfrwt beam="2">  1       -2 0.97164198E-01 0.11770568E+04</pdfrwt>
<totfact> 0.29866550E+01</totfact>
</mgrwt>
</event>
<event>
12    5  0.5246737E-008  0.1310077E+04  0.7818608E-02  0.9021612E-01
          1   -1    0    0  501    0  0.00000000000E+00  0.00000000000E+00  0.54179111485E+03  0.54179111485E+03  0.00000000000E+00 0. -1.
         -2   -1    0    0    0  501 -0.00000000000E+00 -0.00000000000E+00 -0.79195719599E+03  0.79195719599E+03  0.00000000000E+00 0.  1.
        -24    2    1    2    0    0 -0.15047953259E+03 -0.25319007843E+03  0.89882350014E+02  0.31849514168E+03  0.81308135446E+02 0.  0.
        254    2    1    2    0    0  0.15047953259E+03  0.25319007843E+03 -0.34004843115E+03  0.10152531692E+04  0.91014106402E+03 0.  0.
         23    2    4    4    0    0  0.41372921854E+02 -0.10753699921E+02  0.29545279358E+03  0.31213074809E+03  0.91136655329E+02 0.  0.
         23    2    4    4    0    0  0.10910661074E+03  0.26394377835E+03 -0.63550122474E+03  0.70312242107E+03  0.94597894960E+02 0.  0.
          3    1    3    3  502    0 -0.11853496849E+03 -0.16099570715E+03  0.93818468069E+02  0.22084397530E+03  0.00000000000E+00 0. -1.
         -4    1    3    3    0  502 -0.31944564098E+02 -0.92194371276E+02 -0.39361180551E+01  0.97651166382E+02  0.00000000000E+00 0.  1.
         13    1    5    5    0    0 -0.80207712635E+01  0.27234427904E+02  0.16660081362E+03  0.16900259742E+03  0.00000000000E+00 0. -1.
        -13    1    5    5    0    0  0.49393693117E+02 -0.37988127825E+02  0.12885197996E+03  0.14312815067E+03  0.00000000000E+00 0.  1.
          3    1    6    6  503    0  0.90634417712E+02  0.97148497256E+02 -0.29316281883E+03  0.32186467115E+03  0.00000000000E+00 0. -1.
         -3    1    6    6    0  503  0.18472193023E+02  0.16679528109E+03 -0.34233840591E+03  0.38125774992E+03  0.00000000000E+00 0.  1.
<mgrwt>
<rscale>  0 0.13100769E+04</rscale>
<asrwt>0</asrwt>
<pdfrwt beam="1">  1        1 0.83352479E-01 0.13100769E+04</pdfrwt>
<pdfrwt beam="2">  1       -2 0.12183957E+00 0.13100769E+04</pdfrwt>
<totfact> 0.17391676E+01</totfact>
</mgrwt>
</event>
<event>
12    5  0.5246737E-008  0.3279363E+04  0.7818608E-02  0.8168166E-01
         -2   -1    0    0    0  501 -0.00000000000E+00  0.00000000000E+00  0.10695131168E+04  0.10695131168E+04  0.00000000000E+00 0.  1.
          1   -1    0    0  501    0  0.00000000000E+00 -0.00000000000E+00 -0.25138125334E+04  0.25138125334E+04  0.00000000000E+00 0. -1.
        -24    2    1    2    0    0  0.11385405320E+04 -0.81246084052E+03 -0.13012266611E+04  0.19120048751E+04  0.78769653512E+02 0.  0.
        254    2    1    2    0    0 -0.11385405320E+04  0.81246084052E+03 -0.14307275550E+03  0.16713207751E+04  0.90359070354E+03 0.  0.
         23    2    4    4    0    0 -0.10702437550E+04  0.28250181515E+03 -0.19075953842E+03  0.11266745712E+04  0.88189666906E+02 0.  0.
         23    2    4    4    0    0 -0.68296777072E+02  0.52995902537E+03  0.47686782919E+02  0.54464620390E+03  0.94044881994E+02 0.  0.
          3    1    3    3  502    0  0.10286941860E+04 -0.74868850221E+03 -0.12082215402E+04  0.17545784370E+04  0.00000000000E+00 0. -1.
         -4    1    3    3    0  502  0.10984634605E+03 -0.63772338311E+02 -0.93005120959E+02  0.15742643805E+03  0.00000000000E+00 0.  1.
         13    1    5    5    0    0 -0.10480783158E+04  0.26374823746E+03 -0.19170016402E+03  0.10976248183E+04  0.00000000000E+00 0. -1.
        -13    1    5    5    0    0 -0.22165439137E+02  0.18753577695E+02  0.94062559965E+00  0.29049752925E+02  0.00000000000E+00 0.  1.
          1    1    6    6  503    0  0.17772165202E+02  0.99860168814E+02 -0.11360280665E+02  0.10206350547E+03  0.00000000000E+00 0.  1.
         -1    1    6    6    0  503 -0.86068942273E+02  0.43009885655E+03  0.59047063584E+02  0.44258269843E+03  0.00000000000E+00 0. -1.
<mgrwt>
<rscale>  0 0.32793630E+04</rscale>
<asrwt>0</asrwt>
<pdfrwt beam="1">  1        1 0.38674039E+00 0.32793630E+04</pdfrwt>
<pdfrwt beam="2">  1       -2 0.16454048E+00 0.32793630E+04</pdfrwt>
<totfact> 0.22602286E-01</totfact>
</mgrwt>
</event>
<event>
12    5  0.5246737E-008  0.1291163E+04  0.7818608E-02  0.9036602E-01
          1   -1    0    0  501    0  0.00000000000E+00  0.00000000000E+00  0.13132050755E+04  0.13132050755E+04  0.00000000000E+00 0. -1.
         -2   -1    0    0    0  501 -0.00000000000E+00 -0.00000000000E+00 -0.31737281578E+03  0.31737281578E+03  0.00000000000E+00 0.  1.
        -24    2    1    2    0    0 -0.15241982820E+03  0.12994658269E+03  0.58656941609E+03  0.62499226961E+03  0.80210590330E+02 0.  0.
        254    2    1    2    0    0  0.15241982820E+03 -0.12994658269E+03  0.40926284364E+03  0.10055856217E+04  0.89643095048E+03 0.  0.
         23    2    4    4    0    0 -0.11634399077E+03  0.30920935041E+03  0.22189306512E+01  0.34280572819E+03  0.91457624384E+02 0.  0.
         23    2    4    4    0    0  0.26876381897E+03 -0.43915593310E+03  0.40704391299E+03  0.66277989350E+03  0.92198243804E+02 0.  0.
          3    1    3    3  502    0 -0.16192929993E+03  0.12332501374E+03  0.56432323545E+03  0.59990905250E+03  0.00000000000E+00 0. -1.
         -2    1    3    3    0  502  0.95094717367E+01  0.66215689461E+01  0.22246180636E+02  0.25083217117E+02  0.00000000000E+00 0.  1.
         13    1    5    5    0    0 -0.52169083526E+02  0.71197030611E+02 -0.32090941407E+02  0.93917298535E+02  0.00000000000E+00 0.  1.
        -13    1    5    5    0    0 -0.64174907245E+02  0.23801231980E+03  0.34309872058E+02  0.24888842965E+03  0.00000000000E+00 0. -1.
          1    1    6    6  503    0  0.23403838920E+03 -0.39233231257E+03  0.39347352435E+03  0.60292621892E+03  0.00000000000E+00 0. -1.
         -1    1    6    6    0  503  0.34725429768E+02 -0.46823620530E+02  0.13570388646E+02  0.59853674575E+02  0.00000000000E+00 0.  1.
<mgrwt>
<rscale>  0 0.12911632E+04</rscale>
<asrwt>0</asrwt>
<pdfrwt beam="1">  1        1 0.20203155E+00 0.12911632E+04</pdfrwt>
<pdfrwt beam="2">  1       -2 0.48826588E-01 0.12911632E+04</pdfrwt>
<totfact> 0.30317046E+01</totfact>
</mgrwt>
</event>
<event>
12    5  0.5246737E-008  0.1059040E+04  0.7818608E-02  0.9246060E-01
         -2   -1    0    0    0  501 -0.00000000000E+00  0.00000000000E+00  0.11714664062E+03  0.11714664062E+03  0.00000000000E+00 0.  1.
          1   -1    0    0  501    0  0.00000000000E+00 -0.00000000000E+00 -0.23935086799E+04  0.23935086799E+04  0.00000000000E+00 0. -1.
        -24    2    1    2    0    0  0.63506607838E+02  0.94201933265E+02 -0.51178133522E+03  0.53045736644E+03  0.80980177010E+02 0.  0.
        254    2    1    2    0    0 -0.63506607838E+02 -0.94201933265E+02 -0.17645807040E+04  0.19801979541E+04  0.89136512313E+03 0.  0.
         23    2    4    4    0    0 -0.40318973080E+03 -0.25999774164E+03 -0.11856615667E+04  0.12827105473E+04  0.96913429125E+02 0.  0.
         23    2    4    4    0    0  0.33968312296E+03  0.16579580838E+03 -0.57891913738E+03  0.69748740679E+03  0.92024132187E+02 0.  0.
          3    1    3    3  502    0  0.48854956670E+02  0.73631902834E+02 -0.21288729808E+03  0.23049829846E+03  0.00000000000E+00 0. -1.
         -4    1    3    3    0  502  0.14651651168E+02  0.20570030430E+02 -0.29889403713E+03  0.29995906799E+03  0.00000000000E+00 0.  1.
         13    1    5    5    0    0 -0.31879055883E+03 -0.23465691179E+03 -0.88697599252E+03  0.97129691545E+03  0.00000000000E+00 0.  1.
        -13    1    5    5    0    0 -0.84399171975E+02 -0.25340829852E+02 -0.29868557414E+03  0.31141363183E+03  0.00000000000E+00 0. -1.
          2    1    6    6  503    0  0.76036649247E+02  0.11457622660E+02 -0.70382482681E+02  0.10424271204E+03  0.00000000000E+00 0.  1.
         -2    1    6    6    0  503  0.26364647372E+03  0.15433818572E+03 -0.50853665470E+03  0.59324469475E+03  0.00000000000E+00 0. -1.
<mgrwt>
<rscale>  0 0.10590401E+04</rscale>
<asrwt>0</asrwt>
<pdfrwt beam="1">  1        1 0.36823208E+00 0.10590401E+04</pdfrwt>
<pdfrwt beam="2">  1       -2 0.18022561E-01 0.10590401E+04</pdfrwt>
<totfact> 0.36403458E+01</totfact>
</mgrwt>
</event>
<event>
12    5  0.5246737E-008  0.1161908E+04  0.7818608E-02  0.9146868E-01
         -4   -1    0    0    0  501 -0.00000000000E+00  0.00000000000E+00  0.11517477759E+04  0.11517477759E+04  0.00000000000E+00 0.  1.
          1   -1    0    0  501    0  0.00000000000E+00 -0.00000000000E+00 -0.29303923693E+03  0.29303923693E+03  0.00000000000E+00 0. -1.
        -24    2    1    2    0    0 -0.13435949664E+03  0.63457529614E+02 -0.14510424228E+02  0.17055002869E+03  0.82446512789E+02 0.  0.
        254    2    1    2    0    0  0.13435949664E+03 -0.63457529614E+02  0.87321896317E+03  0.12742369841E+04  0.91601812300E+03 0.  0.
         23    2    4    4    0    0  0.19393340186E+03 -0.50005655649E+02  0.10484231333E+04  0.10715437795E+04  0.94362465104E+02 0.  0.
         23    2    4    4    0    0 -0.59573905213E+02 -0.13451873966E+02 -0.17520417017E+03  0.20269320467E+03  0.81596757768E+02 0.  0.
          1    1    3    3  502    0 -0.11395650502E+03  0.24444384418E+02 -0.35418105835E+02  0.12181155604E+03  0.00000000000E+00 0. -1.
         -2    1    3    3    0  502 -0.20402991627E+02  0.39013145196E+02  0.20907681607E+02  0.48738472643E+02  0.00000000000E+00 0.  1.
         13    1    5    5    0    0  0.55117170037E+02  0.21750839525E+02  0.41080329268E+03  0.41505463102E+03  0.00000000000E+00 0. -1.
        -13    1    5    5    0    0  0.13881623182E+03 -0.71756495174E+02  0.63761984066E+03  0.65648914844E+03  0.00000000000E+00 0.  1.
          3    1    6    6  503    0 -0.19429580687E+02 -0.45159158585E+02 -0.68007347816E+02  0.83915776626E+02  0.00000000000E+00 0. -1.
         -3    1    6    6    0  503 -0.40144324526E+02  0.31707284619E+02 -0.10719682235E+03  0.11877742804E+03  0.00000000000E+00 0.  1.
<mgrwt>
<rscale>  0 0.11619076E+04</rscale>
<asrwt>0</asrwt>
<pdfrwt beam="1">  1        1 0.45082960E-01 0.11619076E+04</pdfrwt>
<pdfrwt beam="2">  1       -4 0.17719196E+00 0.11619076E+04</pdfrwt>
<totfact> 0.80051049E+00</totfact>
</mgrwt>
</event>
<event>
12    5  0.5246737E-008  0.2581286E+04  0.7818608E-02  0.8374586E-01
         -2   -1    0    0    0  501 -0.00000000000E+00  0.00000000000E+00  0.17172312940E+04  0.17172312940E+04  0.00000000000E+00 0.  1.
          1   -1    0    0  501    0  0.00000000000E+00 -0.00000000000E+00 -0.97002620161E+03  0.97002620161E+03  0.00000000000E+00 0. -1.
        -24    2    1    2    0    0  0.10090975465E+04  0.14350148044E+03 -0.19920682272E+03  0.10414942812E+04  0.78463025458E+02 0.  0.
        254    2    1    2    0    0 -0.10090975465E+04 -0.14350148044E+03  0.94641191512E+03  0.16457632144E+04  0.87975593877E+03 0.  0.
         23    2    4    4    0    0 -0.31075789691E+03 -0.21260062200E+03 -0.83281256727E+02  0.39610244695E+03  0.90509037041E+02 0.  0.
         23    2    4    4    0    0 -0.69833964954E+03  0.69099141561E+02  0.10296931718E+04  0.12496607675E+04  0.94504223130E+02 0.  0.
          1    1    3    3  502    0  0.37353328168E+03  0.15450173492E+02 -0.66691880659E+02  0.37975469362E+03  0.00000000000E+00 0. -1.
         -2    1    3    3    0  502  0.63556426477E+03  0.12805130695E+03 -0.13251494206E+03  0.66173958755E+03  0.00000000000E+00 0.  1.
         13    1    5    5    0    0 -0.14486030517E+03 -0.91953938120E+02  0.75867755038E+01  0.17174863584E+03  0.00000000000E+00 0.  1.
        -13    1    5    5    0    0 -0.16589759175E+03 -0.12064668388E+03 -0.90868032230E+02  0.22435381111E+03  0.00000000000E+00 0. -1.
          1    1    6    6  503    0 -0.67793653892E+03  0.76595979997E+02  0.10165135710E+04  0.12242404727E+04  0.00000000000E+00 0. -1.
         -1    1    6    6    0  503 -0.20403110613E+02 -0.74968384369E+01  0.13179600849E+02  0.25420294801E+02  0.00000000000E+00 0.  1.
<mgrwt>
<rscale>  0 0.25812860E+04</rscale>
<asrwt>0</asrwt>
<pdfrwt beam="1">  1        1 0.14923480E+00 0.25812860E+04</pdfrwt>
<pdfrwt beam="2">  1       -2 0.26418943E+00 0.25812860E+04</pdfrwt>
<totfact> 0.65017763E-01</totfact>
</mgrwt>
</event>
<event>
12    5  0.5246737E-008  0.1300642E+04  0.7818608E-02  0.9029056E-01
          1   -1    0    0  501    0  0.00000000000E+00  0.00000000000E+00  0.64846858308E+03  0.64846858308E+03  0.00000000000E+00 0. -1.
         -2   -1    0    0    0  501 -0.00000000000E+00 -0.00000000000E+00 -0.65217912134E+03  0.65217912134E+03  0.00000000000E+00 0.  1.
        -24    2    1    2    0    0  0.40247820185E+02  0.38750316278E+02  0.33200328543E+03  0.35019969281E+03  0.96395898595E+02 0.  0.
        254    2    1    2    0    0 -0.40247820185E+02 -0.38750316278E+02 -0.33571382369E+03  0.95044801161E+03  0.88742671658E+03 0.  0.
         23    2    4    4    0    0 -0.41003335517E+03 -0.13599058433E+03 -0.12116298652E+02  0.44135963863E+03  0.89614365680E+02 0.  0.
         23    2    4    4    0    0  0.36978553499E+03  0.97240268051E+02 -0.32359752504E+03  0.50908837298E+03  0.90876848923E+02 0.  0.
          3    1    3    3  502    0 -0.25147849057E+01 -0.63254612439E+01  0.23439515235E+03  0.23449397231E+03  0.00000000000E+00 0. -1.
         -4    1    3    3    0  502  0.42762605091E+02  0.45075777522E+02  0.97608133075E+02  0.11570572050E+03  0.00000000000E+00 0.  1.
         13    1    5    5    0    0 -0.26744084698E+03 -0.11847045040E+03 -0.39335061029E+02  0.29513912190E+03  0.00000000000E+00 0.  1.
        -13    1    5    5    0    0 -0.14259250820E+03 -0.17520133925E+02  0.27218762377E+02  0.14622051673E+03  0.00000000000E+00 0. -1.
          1    1    6    6  503    0  0.23999817339E+03  0.18173683518E+02 -0.20872875591E+03  0.31858609440E+03  0.00000000000E+00 0. -1.
         -1    1    6    6    0  503  0.12978736160E+03  0.79066584533E+02 -0.11486876913E+03  0.19050227858E+03  0.00000000000E+00 0.  1.
<mgrwt>
<rscale>  0 0.13006424E+04</rscale>
<asrwt>0</asrwt>
<pdfrwt beam="1">  1        1 0.99764397E-01 0.13006424E+04</pdfrwt>
<pdfrwt beam="2">  1       -2 0.10033525E+00 0.13006424E+04</pdfrwt>
<totfact> 0.21542454E+01</totfact>
</mgrwt>
</event>
<event>
12    5  0.5246737E-008  0.1390650E+04  0.7818608E-02  0.8960614E-01
         -2   -1    0    0    0  501 -0.00000000000E+00  0.00000000000E+00  0.66324736315E+03  0.66324736315E+03  0.00000000000E+00 0.  1.
          1   -1    0    0  501    0  0.00000000000E+00 -0.00000000000E+00 -0.72895442877E+03  0.72895442877E+03  0.00000000000E+00 0. -1.
        -24    2    1    2    0    0  0.27474920402E+03 -0.35935440255E+02 -0.30786491078E+03  0.42155412801E+03  0.78413000018E+02 0.  0.
        254    2    1    2    0    0 -0.27474920402E+03  0.35935440255E+02  0.24215784515E+03  0.97064766392E+03  0.89818594095E+03 0.  0.
         23    2    4    4    0    0 -0.49123950863E+03  0.18370288834E+03 -0.88605369974E+02  0.54007720952E+03  0.93645473104E+02 0.  0.
         23    2    4    4    0    0  0.21649030461E+03 -0.14776744808E+03  0.33076321512E+03  0.43057045439E+03  0.85342492426E+02 0.  0.
          3    1    3    3  502    0  0.27138944093E+02 -0.66179024671E+01 -0.76370232724E+02  0.81318702436E+02  0.00000000000E+00 0. -1.
         -4    1    3    3    0  502  0.24761025993E+03 -0.29317537788E+02 -0.23149467805E+03  0.34023542557E+03  0.00000000000E+00 0.  1.
         13    1    5    5    0    0 -0.45914148880E+03  0.18647024395E+03 -0.64292224011E+02  0.49971546772E+03  0.00000000000E+00 0. -1.
        -13    1    5    5    0    0 -0.32098019835E+02 -0.27673556130E+01 -0.24313145964E+02  0.40361741799E+02  0.00000000000E+00 0.  1.
          1    1    6    6  503    0  0.20196722363E+03 -0.15394569931E+03  0.32755291983E+03  0.41446465838E+03  0.00000000000E+00 0. -1.
         -1    1    6    6    0  503  0.14523080975E+02  0.61782512322E+01  0.32102952997E+01  0.16105796013E+02  0.00000000000E+00 0.  1.
<mgrwt>
<rscale>  0 0.13906504E+04</rscale>
<asrwt>0</asrwt>
<pdfrwt beam="1">  1        1 0.11214683E+00 0.13906504E+04</pdfrwt>
<pdfrwt beam="2">  1       -2 0.10203806E+00 0.13906504E+04</pdfrwt>
<totfact> 0.17222942E+01</totfact>
</mgrwt>
</event>
<event>
12    5  0.5246737E-008  0.1496353E+04  0.7818608E-02  0.8886882E-01
          1   -1    0    0  501    0  0.00000000000E+00  0.00000000000E+00  0.82338501048E+03  0.82338501048E+03  0.00000000000E+00 0. -1.
         -2   -1    0    0    0  501 -0.00000000000E+00 -0.00000000000E+00 -0.67983761230E+03  0.67983761230E+03  0.00000000000E+00 0.  1.
        -24    2    1    2    0    0 -0.16525556918E+03 -0.20106458350E+03 -0.34982585275E+03  0.44334573071E+03  0.80255465886E+02 0.  0.
        254    2    1    2    0    0  0.16525556918E+03  0.20106458350E+03  0.49337325093E+03  0.10598768921E+04  0.90121334418E+03 0.  0.
         23    2    4    4    0    0  0.11095244641E+02  0.39113153655E+03 -0.97512202432E+02  0.41366634047E+03  0.92218372765E+02 0.  0.
         23    2    4    4    0    0  0.15416032454E+03 -0.19006695305E+03  0.59088545336E+03  0.64621055160E+03  0.92474892258E+02 0.  0.
          3    1    3    3  502    0  0.66406056626E+01 -0.65750291792E+01 -0.30124280241E+02  0.31540464681E+02  0.00000000000E+00 0. -1.
         -4    1    3    3    0  502 -0.17189617484E+03 -0.19448955432E+03 -0.31970157251E+03  0.41180526603E+03  0.00000000000E+00 0.  1.
         13    1    5    5    0    0  0.44967380641E+02  0.16046537917E+03 -0.19318257700E+02  0.16776292294E+03  0.00000000000E+00 0. -1.
        -13    1    5    5    0    0 -0.33872136000E+02  0.23066615738E+03 -0.78193944732E+02  0.24590341752E+03  0.00000000000E+00 0.  1.
          1    1    6    6  503    0  0.11073095236E+03 -0.67052243787E+02  0.25744265075E+03  0.28815632152E+03  0.00000000000E+00 0. -1.
         -1    1    6    6    0  503  0.43429372184E+02 -0.12301470926E+03  0.33344280261E+03  0.35805423008E+03  0.00000000000E+00 0.  1.
<mgrwt>
<rscale>  0 0.14963530E+04</rscale>
<asrwt>0</asrwt>
<pdfrwt beam="1">  1        1 0.12667462E+00 0.14963530E+04</pdfrwt>
<pdfrwt beam="2">  1       -2 0.10459040E+00 0.14963530E+04</pdfrwt>
<totfact> 0.13273971E+01</totfact>
</mgrwt>
</event>
<event>
12    5  0.5246737E-008  0.1787258E+04  0.7818608E-02  0.8713105E-01
          1   -1    0    0  501    0  0.00000000000E+00  0.00000000000E+00  0.62813590876E+03  0.62813590876E+03  0.00000000000E+00 0. -1.
         -2   -1    0    0    0  501 -0.00000000000E+00 -0.00000000000E+00 -0.12713375887E+04  0.12713375887E+04  0.00000000000E+00 0.  1.
        -24    2    1    2    0    0 -0.13701289315E+03 -0.58866017278E+03 -0.45266204573E+03  0.75939023933E+03  0.80481526107E+02 0.  0.
        254    2    1    2    0    0  0.13701289315E+03  0.58866017278E+03 -0.19053963422E+03  0.11400832581E+04  0.94772947162E+03 0.  0.
         23    2    4    4    0    0  0.38265584551E+02  0.16653668924E+03  0.37470403662E+03  0.42174961504E+03  0.90944482511E+02 0.  0.
         23    2    4    4    0    0  0.98747308595E+02  0.42212348354E+03 -0.56524367084E+03  0.71833364310E+03  0.92539446053E+02 0.  0.
          1    1    3    3  502    0 -0.34920475625E+02 -0.27769070213E+03 -0.17419852180E+03  0.32966147889E+03  0.00000000000E+00 0. -1.
         -2    1    3    3    0  502 -0.10209241752E+03 -0.31096947065E+03 -0.27846352393E+03  0.42972876044E+03  0.00000000000E+00 0.  1.
         13    1    5    5    0    0 -0.26066550123E+02  0.54435584445E+02  0.82345569312E+02  0.10209549782E+03  0.00000000000E+00 0.  1.
        -13    1    5    5    0    0  0.64332134674E+02  0.11210110479E+03  0.29235846731E+03  0.31965411722E+03  0.00000000000E+00 0. -1.
          1    1    6    6  503    0  0.25853107645E+02  0.26040513780E+03 -0.28735484845E+03  0.38865412373E+03  0.00000000000E+00 0. -1.
         -1    1    6    6    0  503  0.72894200950E+02  0.16171834574E+03 -0.27788882240E+03  0.32967951937E+03  0.00000000000E+00 0.  1.
<mgrwt>
<rscale>  0 0.17872580E+04</rscale>
<asrwt>0</asrwt>
<pdfrwt beam="1">  1        1 0.96636296E-01 0.17872580E+04</pdfrwt>
<pdfrwt beam="2">  1       -2 0.19559039E+00 0.17872580E+04</pdfrwt>
<totfact> 0.37650869E+00</totfact>
</mgrwt>
</event>
<event>
12    5  0.5246737E-008  0.2553132E+04  0.7818608E-02  0.8384298E-01
         -2   -1    0    0    0  501 -0.00000000000E+00  0.00000000000E+00  0.17940816353E+04  0.17940816353E+04  0.00000000000E+00 0.  1.
          1   -1    0    0  501    0  0.00000000000E+00 -0.00000000000E+00 -0.90833146667E+03  0.90833146667E+03  0.00000000000E+00 0. -1.
        -24    2    1    2    0    0 -0.77386844375E+03 -0.38323870273E+03  0.11545295376E+04  0.14439704833E+04  0.79799949460E+02 0.  0.
        254    2    1    2    0    0  0.77386844375E+03  0.38323870273E+03 -0.26877936892E+03  0.12584426187E+04  0.87503783000E+03 0.  0.
         23    2    4    4    0    0 -0.11598421161E+03  0.29600438282E+03 -0.59013290600E+02  0.33554160199E+03  0.89636299604E+02 0.  0.
         23    2    4    4    0    0  0.88985265536E+03  0.87234319905E+02 -0.20976607832E+03  0.92290101672E+03  0.91087344004E+02 0.  0.
          1    1    3    3  502    0 -0.56618666622E+03 -0.26052083694E+03  0.77900351018E+03  0.99763967260E+03  0.00000000000E+00 0. -1.
         -2    1    3    3    0  502 -0.20768177754E+03 -0.12271786579E+03  0.37552602738E+03  0.44633081066E+03  0.00000000000E+00 0.  1.
         13    1    5    5    0    0 -0.89064524074E+02  0.26760375774E+03 -0.24038897495E+02  0.28305852610E+03  0.00000000000E+00 0. -1.
        -13    1    5    5    0    0 -0.26919687532E+02  0.28400625085E+02 -0.34974393105E+02  0.52483075892E+02  0.00000000000E+00 0.  1.
          3    1    6    6  503    0  0.72889513809E+03  0.86131421328E+02 -0.20420323811E+03  0.76184362340E+03  0.00000000000E+00 0. -1.
         -3    1    6    6    0  503  0.16095751727E+03  0.11028985777E+01 -0.55628402073E+01  0.16105739332E+03  0.00000000000E+00 0.  1.
<mgrwt>
<rscale>  0 0.25531320E+04</rscale>
<asrwt>0</asrwt>
<pdfrwt beam="1">  1        1 0.13974330E+00 0.25531320E+04</pdfrwt>
<pdfrwt beam="2">  1       -2 0.27601256E+00 0.25531320E+04</pdfrwt>
<totfact> 0.61873750E-01</totfact>
</mgrwt>
</event>
<event>
12    5  0.5246737E-008  0.3536474E+04  0.7818608E-02  0.8105200E-01
          1   -1    0    0  501    0  0.00000000000E+00  0.00000000000E+00  0.27581893591E+04  0.27581893591E+04  0.00000000000E+00 0. -1.
         -2   -1    0    0    0  501 -0.00000000000E+00 -0.00000000000E+00 -0.11335921109E+04  0.11335921109E+04  0.00000000000E+00 0.  1.
        -24    2    1    2    0    0  0.68969193280E+03 -0.13807400504E+04  0.13961830014E+04  0.20826939268E+04  0.78542792977E+02 0.  0.
        254    2    1    2    0    0 -0.68969193280E+03  0.13807400504E+04  0.22841424679E+03  0.18090875432E+04  0.91570007197E+03 0.  0.
         23    2    4    4    0    0 -0.23097135648E+03  0.11711344913E+04  0.40962482675E+03  0.12654001074E+04  0.92418444376E+02 0.  0.
         23    2    4    4    0    0 -0.45872057632E+03  0.20960555917E+03 -0.18121057996E+03  0.54368743585E+03  0.91649855656E+02 0.  0.
          3    1    3    3  502    0  0.25588235474E+03 -0.50609446202E+03  0.46257955004E+03  0.73183824994E+03  0.00000000000E+00 0. -1.
         -4    1    3    3    0  502  0.43380957806E+03 -0.87464558843E+03  0.93360345138E+03  0.13508556769E+04  0.00000000000E+00 0.  1.
         13    1    5    5    0    0 -0.36394165869E+02  0.31532379042E+03  0.75292478593E+02  0.32622474684E+03  0.00000000000E+00 0. -1.
        -13    1    5    5    0    0 -0.19457719062E+03  0.85581070085E+03  0.33433234816E+03  0.93917536053E+03  0.00000000000E+00 0.  1.
          2    1    6    6  503    0 -0.13669147675E+02 -0.19361980360E+01 -0.21747961719E+02  0.25759819486E+02  0.00000000000E+00 0.  1.
         -2    1    6    6    0  503 -0.44505142864E+03  0.21154175721E+03 -0.15946261824E+03  0.51792761637E+03  0.00000000000E+00 0. -1.
<mgrwt>
<rscale>  0 0.35364738E+04</rscale>
<asrwt>0</asrwt>
<pdfrwt beam="1">  1        1 0.42433682E+00 0.35364738E+04</pdfrwt>
<pdfrwt beam="2">  1       -2 0.17439879E+00 0.35364738E+04</pdfrwt>
<totfact> 0.12673559E-01</totfact>
</mgrwt>
</event>
<event>
12    5  0.5246737E-008  0.1247446E+04  0.7818608E-02  0.9072312E-01
         -2   -1    0    0    0  501 -0.00000000000E+00  0.00000000000E+00  0.22397284114E+03  0.22397284114E+03  0.00000000000E+00 0.  1.
          1   -1    0    0  501    0  0.00000000000E+00 -0.00000000000E+00 -0.17369536968E+04  0.17369536968E+04  0.00000000000E+00 0. -1.
        -24    2    1    2    0    0  0.29124085501E+02  0.28803898789E+03 -0.30305311018E+03  0.42657302682E+03  0.79427254266E+02 0.  0.
        254    2    1    2    0    0 -0.29124085501E+02 -0.28803898789E+03 -0.12099277454E+04  0.15343535111E+04  0.89805393874E+03 0.  0.
         23    2    4    4    0    0  0.16171339446E+03  0.27034103123E+03 -0.58820737656E+03  0.67247660424E+03  0.83674191348E+02 0.  0.
         23    2    4    4    0    0 -0.19083747996E+03 -0.55838001912E+03 -0.62172036888E+03  0.86187690684E+03  0.89935510011E+02 0.  0.
          1    1    3    3  502    0  0.15330223987E+02  0.23543769769E+03 -0.28338626693E+03  0.36874612072E+03  0.00000000000E+00 0. -1.
         -2    1    3    3    0  502  0.13793861514E+02  0.52601290197E+02 -0.19666843255E+02  0.57826906104E+02  0.00000000000E+00 0.  1.
         13    1    5    5    0    0  0.91627115892E+02  0.14667031474E+03 -0.23530508046E+03  0.29202087337E+03  0.00000000000E+00 0.  1.
        -13    1    5    5    0    0  0.70086278565E+02  0.12367071649E+03 -0.35290229611E+03  0.38045573088E+03  0.00000000000E+00 0. -1.
          1    1    6    6  503    0 -0.85261866180E+02 -0.36455210267E+03 -0.35834277494E+03  0.51824450381E+03  0.00000000000E+00 0. -1.
         -1    1    6    6    0  503 -0.10557561378E+03 -0.19382791645E+03 -0.26337759394E+03  0.34363240303E+03  0.00000000000E+00 0.  1.
<mgrwt>
<rscale>  0 0.12474461E+04</rscale>
<asrwt>0</asrwt>
<pdfrwt beam="1">  1        1 0.26722364E+00 0.12474461E+04</pdfrwt>
<pdfrwt beam="2">  1       -2 0.34457361E-01 0.12474461E+04</pdfrwt>
<totfact> 0.30743364E+01</totfact>
</mgrwt>
</event>
<event>
12    5  0.5246737E-008  0.2898061E+04  0.7818608E-02  0.8273455E-01
         -2   -1    0    0    0  501 -0.00000000000E+00  0.00000000000E+00  0.12856970483E+04  0.12856970483E+04  0.00000000000E+00 0.  1.
          1   -1    0    0  501    0  0.00000000000E+00 -0.00000000000E+00 -0.16331137219E+04  0.16331137219E+04  0.00000000000E+00 0. -1.
        -24    2    1    2    0    0  0.10024411140E+04  0.57434189388E+03 -0.77356857601E+03  0.13927189066E+04  0.80627618955E+02 0.  0.
        254    2    1    2    0    0 -0.10024411140E+04 -0.57434189388E+03  0.42615190249E+03  0.15260918636E+04  0.90144003343E+03 0.  0.
         23    2    4    4    0    0 -0.61082325865E+03  0.11095786509E+03  0.37237196025E+03  0.72970695282E+03  0.91622372158E+02 0.  0.
         23    2    4    4    0    0 -0.39161785540E+03 -0.68529975897E+03  0.53779942236E+02  0.79638491076E+03  0.91303557352E+02 0.  0.
          1    1    3    3  502    0  0.76522451936E+03  0.46708310861E+03 -0.57171459395E+03  0.10632933614E+04  0.00000000000E+00 0. -1.
         -2    1    3    3    0  502  0.23721659468E+03  0.10725878527E+03 -0.20185398206E+03  0.32942554528E+03  0.00000000000E+00 0.  1.
         13    1    5    5    0    0 -0.98468820917E+02  0.46432516782E+02  0.42109549080E+02  0.11672746648E+03  0.00000000000E+00 0.  1.
        -13    1    5    5    0    0 -0.51235443773E+03  0.64525348303E+02  0.33026241117E+03  0.61297948633E+03  0.00000000000E+00 0. -1.
          2    1    6    6  503    0 -0.29202562852E+03 -0.51134900162E+03  0.31689932155E-01  0.58886056939E+03  0.00000000000E+00 0. -1.
         -2    1    6    6    0  503 -0.99592226883E+02 -0.17395075734E+03  0.53748252304E+02  0.20752434137E+03  0.00000000000E+00 0.  1.
<mgrwt>
<rscale>  0 0.28980611E+04</rscale>
<asrwt>0</asrwt>
<pdfrwt beam="1">  1        1 0.25124826E+00 0.28980611E+04</pdfrwt>
<pdfrwt beam="2">  1       -2 0.19779955E+00 0.28980611E+04</pdfrwt>
<totfact> 0.54924374E-01</totfact>
</mgrwt>
</event>
<event>
12    5  0.5246737E-008  0.1212139E+04  0.7818608E-02  0.9102297E-01
         -2   -1    0    0    0  501 -0.00000000000E+00  0.00000000000E+00  0.22513294263E+04  0.22513294263E+04  0.00000000000E+00 0.  1.
          1   -1    0    0  501    0  0.00000000000E+00 -0.00000000000E+00 -0.16315696778E+03  0.16315696778E+03  0.00000000000E+00 0. -1.
        -24    2    1    2    0    0 -0.77680560830E+02  0.21241496226E+03  0.46634505366E+03  0.52520365727E+03  0.84892795970E+02 0.  0.
        254    2    1    2    0    0  0.77680560830E+02 -0.21241496226E+03  0.16218274048E+04  0.18892827368E+04  0.94229015846E+03 0.  0.
         23    2    4    4    0    0  0.20707519178E+03 -0.27295806372E+03  0.16745220185E+04  0.17116232258E+04  0.90795578963E+02 0.  0.
         23    2    4    4    0    0 -0.12939463095E+03  0.60543101455E+02 -0.52694613645E+02  0.17765951098E+03  0.91530005371E+02 0.  0.
          3    1    3    3  502    0 -0.63486715881E+02  0.17319486644E+03  0.28772708406E+03  0.34178048475E+03  0.00000000000E+00 0. -1.
         -4    1    3    3    0  502 -0.14193844949E+02  0.39220095820E+02  0.17861796961E+03  0.18342317252E+03  0.00000000000E+00 0.  1.
         13    1    5    5    0    0  0.19337051602E+03 -0.25077030053E+03  0.16258818345E+04  0.16564328057E+04  0.00000000000E+00 0.  1.
        -13    1    5    5    0    0  0.13704675758E+02 -0.22187763191E+02  0.48640184017E+02  0.55190420131E+02  0.00000000000E+00 0. -1.
          1    1    6    6  503    0 -0.83417423230E+02  0.82396718063E+02 -0.25682983968E+02  0.12003041828E+03  0.00000000000E+00 0. -1.
         -1    1    6    6    0  503 -0.45977207716E+02 -0.21853616608E+02 -0.27011629676E+02  0.57629092705E+02  0.00000000000E+00 0.  1.
<mgrwt>
<rscale>  0 0.12121387E+04</rscale>
<asrwt>0</asrwt>
<pdfrwt beam="1">  1        1 0.25101073E-01 0.12121387E+04</pdfrwt>
<pdfrwt beam="2">  1       -2 0.34635835E+00 0.12121387E+04</pdfrwt>
<totfact> 0.27826835E+00</totfact>
</mgrwt>
</event>
<event>
12    5  0.5246737E-008  0.3216951E+04  0.7818608E-02  0.8184355E-01
          1   -1    0    0  501    0  0.00000000000E+00  0.00000000000E+00  0.17069717301E+04  0.17069717301E+04  0.00000000000E+00 0. -1.
         -2   -1    0    0    0  501 -0.00000000000E+00 -0.00000000000E+00 -0.15156625219E+04  0.15156625219E+04  0.00000000000E+00 0.  1.
        -24    2    1    2    0    0  0.24183156843E+03  0.55521733742E+03 -0.12699912244E+04  0.14093063039E+04  0.80732576492E+02 0.  0.
        254    2    1    2    0    0 -0.24183156843E+03 -0.55521733742E+03  0.14613004326E+04  0.18133279480E+04  0.88657232845E+03 0.  0.
         23    2    4    4    0    0 -0.39125046417E+03 -0.71673849650E+03  0.12420668986E+04  0.14892089311E+04  0.90675585633E+02 0.  0.
         23    2    4    4    0    0  0.14941889574E+03  0.16152115908E+03  0.21923353399E+03  0.32411901692E+03  0.92599694747E+02 0.  0.
          3    1    3    3  502    0  0.23372489448E+02  0.23827388331E+02 -0.42769029194E+02  0.54251336904E+02  0.00000000000E+00 0. -1.
         -4    1    3    3    0  502  0.21845907898E+03  0.53138994909E+03 -0.12272221952E+04  0.13550549670E+04  0.00000000000E+00 0.  1.
         13    1    5    5    0    0 -0.31197645066E+03 -0.61102250997E+03  0.98806709572E+03  0.12028941762E+04  0.00000000000E+00 0.  1.
        -13    1    5    5    0    0 -0.79274013512E+02 -0.10571598653E+03  0.25399980288E+03  0.28631475493E+03  0.00000000000E+00 0. -1.
          4    1    6    6  503    0  0.14191643535E+03  0.10905220180E+03  0.13333226877E+03  0.22318187928E+03  0.00000000000E+00 0.  1.
         -4    1    6    6    0  503  0.75024603907E+01  0.52468957282E+02  0.85901265213E+02  0.10093713764E+03  0.00000000000E+00 0. -1.
<mgrwt>
<rscale>  0 0.32169508E+04</rscale>
<asrwt>0</asrwt>
<pdfrwt beam="1">  1        1 0.26261104E+00 0.32169508E+04</pdfrwt>
<pdfrwt beam="2">  1       -2 0.23317885E+00 0.32169508E+04</pdfrwt>
<totfact> 0.28265594E-01</totfact>
</mgrwt>
</event>
<event>
12    5  0.5246737E-008  0.1836797E+04  0.7818608E-02  0.8686972E-01
          1   -1    0    0  501    0  0.00000000000E+00  0.00000000000E+00  0.23154825853E+04  0.23154825853E+04  0.00000000000E+00 0. -1.
         -2   -1    0    0    0  501 -0.00000000000E+00 -0.00000000000E+00 -0.36426798659E+03  0.36426798659E+03  0.00000000000E+00 0.  1.
        -24    2    1    2    0    0  0.30614943072E+03 -0.11002212960E+02 -0.16794432210E+03  0.35786703304E+03  0.77556401363E+02 0.  0.
        254    2    1    2    0    0 -0.30614943072E+03  0.11002212960E+02  0.21191589208E+04  0.23218835388E+04  0.89803124315E+03 0.  0.
         23    2    4    4    0    0 -0.32959550755E+03 -0.10509691337E+03  0.21411948799E+04  0.21710737181E+04  0.95744534846E+02 0.  0.
         23    2    4    4    0    0  0.23446076831E+02  0.11609912633E+03 -0.22035959082E+02  0.15080982074E+03  0.90715450098E+02 0.  0.
          1    1    3    3  502    0  0.52092945403E+02 -0.18573647041E+02 -0.40826355971E+01  0.55455597000E+02  0.00000000000E+00 0. -1.
         -2    1    3    3    0  502  0.25405648532E+03  0.75714340815E+01 -0.16386168650E+03  0.30241143604E+03  0.00000000000E+00 0.  1.
         13    1    5    5    0    0 -0.24480370142E+03 -0.70508337460E+02  0.17943102092E+04  0.18123049977E+04  0.00000000000E+00 0.  1.
        -13    1    5    5    0    0 -0.84791806132E+02 -0.34588575911E+02  0.34688467069E+03  0.35876872039E+03  0.00000000000E+00 0. -1.
          1    1    6    6  503    0  0.47072562434E+02  0.24062134953E+02 -0.17474778432E+02  0.55679263231E+02  0.00000000000E+00 0. -1.
         -1    1    6    6    0  503 -0.23626485604E+02  0.92036991378E+02 -0.45611806491E+01  0.95130557513E+02  0.00000000000E+00 0.  1.
<mgrwt>
<rscale>  0 0.18367974E+04</rscale>
<asrwt>0</asrwt>
<pdfrwt beam="1">  1        1 0.35622808E+00 0.18367974E+04</pdfrwt>
<pdfrwt beam="2">  1       -2 0.56041230E-01 0.18367974E+04</pdfrwt>
<totfact> 0.44881514E+00</totfact>
</mgrwt>
</event>
<event>
12    5  0.5246737E-008  0.1551156E+04  0.7818608E-02  0.8851129E-01
          1   -1    0    0  501    0  0.00000000000E+00  0.00000000000E+00  0.34363409169E+03  0.34363409169E+03  0.00000000000E+00 0. -1.
         -2   -1    0    0    0  501 -0.00000000000E+00 -0.00000000000E+00 -0.17504712680E+04  0.17504712680E+04  0.00000000000E+00 0.  1.
        -24    2    1    2    0    0 -0.28795171144E+03 -0.38539976892E+03 -0.23804672258E+03  0.54272547166E+03  0.80221726789E+02 0.  0.
        254    2    1    2    0    0  0.28795171144E+03  0.38539976892E+03 -0.11687904537E+04  0.15513798880E+04  0.89958838490E+03 0.  0.
         23    2    4    4    0    0  0.29268012416E+03  0.32864266924E+02  0.18947270814E+02  0.30897478358E+03  0.91458748599E+02 0.  0.
         23    2    4    4    0    0 -0.47284127267E+01  0.35253550200E+03 -0.11877377245E+04  0.12424051045E+04  0.92444054474E+02 0.  0.
          3    1    3    3  502    0 -0.19653454898E+03 -0.30979186709E+03 -0.15702767567E+03  0.39906706302E+03  0.00000000000E+00 0. -1.
         -4    1    3    3    0  502 -0.91417162453E+02 -0.75607901833E+02 -0.81019046910E+02  0.14365840864E+03  0.00000000000E+00 0.  1.
         13    1    5    5    0    0  0.16017601175E+03  0.19351119830E+02 -0.35304573537E+02  0.16515820746E+03  0.00000000000E+00 0.  1.
        -13    1    5    5    0    0  0.13250411241E+03  0.13513147094E+02  0.54251844351E+02  0.14381657612E+03  0.00000000000E+00 0. -1.
          3    1    6    6  503    0  0.18833079008E+02  0.30812026010E+03 -0.10844505959E+04  0.11275308752E+04  0.00000000000E+00 0. -1.
         -3    1    6    6    0  503 -0.23561491734E+02  0.44415241903E+02 -0.10328712862E+03  0.11487422925E+03  0.00000000000E+00 0.  1.
<mgrwt>
<rscale>  0 0.15511565E+04</rscale>
<asrwt>0</asrwt>
<pdfrwt beam="1">  1        1 0.52866783E-01 0.15511565E+04</pdfrwt>
<pdfrwt beam="2">  1       -2 0.26930327E+00 0.15511565E+04</pdfrwt>
<totfact> 0.30271585E+00</totfact>
</mgrwt>
</event>
<event>
12    5  0.5246737E-008  0.2225645E+04  0.7818608E-02  0.8507829E-01
          1   -1    0    0  501    0  0.00000000000E+00  0.00000000000E+00  0.18013628655E+04  0.18013628655E+04  0.00000000000E+00 0. -1.
         -2   -1    0    0    0  501 -0.00000000000E+00 -0.00000000000E+00 -0.68746500782E+03  0.68746500782E+03  0.00000000000E+00 0.  1.
        -24    2    1    2    0    0  0.78613732962E+03  0.42976931003E+03  0.19114584838E+03  0.91917098659E+03  0.75000042490E+02 0.  0.
        254    2    1    2    0    0 -0.78613732962E+03 -0.42976931003E+03  0.92275200932E+03  0.15696568867E+04  0.89979881669E+03 0.  0.
         23    2    4    4    0    0 -0.17331269350E+03 -0.43525635038E+03  0.80861228923E+03  0.93892958966E+03  0.90827087194E+02 0.  0.
         23    2    4    4    0    0 -0.61282463612E+03  0.54870403487E+01  0.11413972009E+03  0.63072729707E+03  0.95942197858E+02 0.  0.
          3    1    3    3  502    0  0.59975331359E+02  0.13612880695E+02  0.45727583186E+01  0.61670584650E+02  0.00000000000E+00 0. -1.
         -4    1    3    3    0  502  0.72616199826E+03  0.41615642934E+03  0.18657309006E+03  0.85750040194E+03  0.00000000000E+00 0.  1.
         13    1    5    5    0    0 -0.15019052358E+03 -0.36839438167E+03  0.74114178686E+03  0.84116749941E+03  0.00000000000E+00 0.  1.
        -13    1    5    5    0    0 -0.23122169923E+02 -0.66861968705E+02  0.67470502371E+02  0.97762090256E+02  0.00000000000E+00 0. -1.
          1    1    6    6  503    0 -0.31441236532E+03 -0.31694928833E+02  0.92328185292E+02  0.32921755388E+03  0.00000000000E+00 0. -1.
         -1    1    6    6    0  503 -0.29841227079E+03  0.37181969182E+02  0.21811534794E+02  0.30150974320E+03  0.00000000000E+00 0.  1.
<mgrwt>
<rscale>  0 0.22256450E+04</rscale>
<asrwt>0</asrwt>
<pdfrwt beam="1">  1        1 0.27713275E+00 0.22256450E+04</pdfrwt>
<pdfrwt beam="2">  1       -2 0.10576385E+00 0.22256450E+04</pdfrwt>
<totfact> 0.23463006E+00</totfact>
</mgrwt>
</event>
<event>
12    5  0.5246737E-008  0.1451854E+04  0.7818608E-02  0.8917116E-01
          1   -1    0    0  501    0  0.00000000000E+00  0.00000000000E+00  0.18896979474E+04  0.18896979474E+04  0.00000000000E+00 0. -1.
         -2   -1    0    0    0  501 -0.00000000000E+00 -0.00000000000E+00 -0.27886470943E+03  0.27886470943E+03  0.00000000000E+00 0.  1.
        -24    2    1    2    0    0  0.17911158877E+03  0.25789907623E+03  0.33096143950E+02  0.32528597706E+03  0.78247794708E+02 0.  0.
        254    2    1    2    0    0 -0.17911158877E+03 -0.25789907623E+03  0.15777370940E+04  0.18432766798E+04  0.89990093098E+03 0.  0.
         23    2    4    4    0    0 -0.46077676977E+03 -0.40476758309E+03  0.10751569398E+04  0.12412419892E+04  0.92559184765E+02 0.  0.
         23    2    4    4    0    0  0.28166518100E+03  0.14686850685E+03  0.50258015421E+03  0.60203469056E+03  0.94622009780E+02 0.  0.
          1    1    3    3  502    0 -0.69548874472E+00  0.70184727355E-01  0.10085974209E+02  0.10110168458E+02  0.00000000000E+00 0. -1.
         -2    1    3    3    0  502  0.17980707751E+03  0.25782889151E+03  0.23010169741E+02  0.31517580861E+03  0.00000000000E+00 0.  1.
         13    1    5    5    0    0 -0.20302260719E+03 -0.11973779164E+03  0.42646728480E+03  0.48726754743E+03  0.00000000000E+00 0.  1.
        -13    1    5    5    0    0 -0.25775416258E+03 -0.28502979144E+03  0.64868965500E+03  0.75397444177E+03  0.00000000000E+00 0. -1.
          4    1    6    6  503    0  0.12168038590E+03  0.87552111598E+02  0.15962376082E+03  0.21897770109E+03  0.00000000000E+00 0. -1.
         -4    1    6    6    0  503  0.15998479510E+03  0.59316395255E+02  0.34295639339E+03  0.38305698947E+03  0.00000000000E+00 0.  1.
<mgrwt>
<rscale>  0 0.14518541E+04</rscale>
<asrwt>0</asrwt>
<pdfrwt beam="1">  1        1 0.29072275E+00 0.14518541E+04</pdfrwt>
<pdfrwt beam="2">  1       -2 0.42902264E-01 0.14518541E+04</pdfrwt>
<totfact> 0.15553716E+01</totfact>
</mgrwt>
</event>
<event>
12    5  0.5246737E-008  0.2985600E+04  0.7818608E-02  0.8247855E-01
          1   -1    0    0  501    0  0.00000000000E+00  0.00000000000E+00  0.18755891441E+04  0.18755891441E+04  0.00000000000E+00 0. -1.
         -2   -1    0    0    0  501 -0.00000000000E+00 -0.00000000000E+00 -0.11881345151E+04  0.11881345151E+04  0.00000000000E+00 0.  1.
        -24    2    1    2    0    0  0.17290283911E+02  0.11233538653E+04 -0.48655810807E+03  0.12268752837E+04  0.79128432260E+02 0.  0.
        254    2    1    2    0    0 -0.17290283911E+02 -0.11233538653E+04  0.11740127371E+04  0.18368483755E+04  0.85643632986E+03 0.  0.
         23    2    4    4    0    0 -0.44676733937E+02 -0.12510636561E+04  0.10016360764E+04  0.16057913564E+04  0.90192951324E+02 0.  0.
         23    2    4    4    0    0  0.27386450027E+02  0.12770979088E+03  0.17237666076E+03  0.23105701912E+03  0.81325423950E+02 0.  0.
          1    1    3    3  502    0  0.40732580011E+02  0.40439072525E+03 -0.19306156378E+03  0.44995974170E+03  0.00000000000E+00 0. -1.
         -2    1    3    3    0  502 -0.23442296101E+02  0.71896314000E+03 -0.29349654429E+03  0.77691554202E+03  0.00000000000E+00 0.  1.
         13    1    5    5    0    0 -0.10578083413E+02 -0.40620660055E+03  0.27220052768E+03  0.48908979283E+03  0.00000000000E+00 0.  1.
        -13    1    5    5    0    0 -0.34098650524E+02 -0.84485705558E+03  0.72943554868E+03  0.11167015635E+04  0.00000000000E+00 0. -1.
          1    1    6    6  503    0  0.45133052702E+01  0.55189490421E+02  0.16759145507E+02  0.57854288826E+02  0.00000000000E+00 0. -1.
         -1    1    6    6    0  503  0.22873144756E+02  0.72520300455E+02  0.15561751525E+03  0.17320273029E+03  0.00000000000E+00 0.  1.
<mgrwt>
<rscale>  0 0.29856002E+04</rscale>
<asrwt>0</asrwt>
<pdfrwt beam="1">  1        1 0.28855218E+00 0.29856002E+04</pdfrwt>
<pdfrwt beam="2">  1       -2 0.18278992E+00 0.29856002E+04</pdfrwt>
<totfact> 0.47031450E-01</totfact>
</mgrwt>
</event>
<event>
12    5  0.5246737E-008  0.1416628E+04  0.7818608E-02  0.8941870E-01
         -2   -1    0    0    0  501 -0.00000000000E+00  0.00000000000E+00  0.10407795911E+04  0.10407795911E+04  0.00000000000E+00 0.  1.
          1   -1    0    0  501    0  0.00000000000E+00 -0.00000000000E+00 -0.48205067645E+03  0.48205067645E+03  0.00000000000E+00 0. -1.
        -24    2    1    2    0    0 -0.33222327881E+03 -0.50272230075E+02  0.41336782007E+03  0.53903636268E+03  0.82387144162E+02 0.  0.
        254    2    1    2    0    0  0.33222327881E+03  0.50272230075E+02  0.14536109458E+03  0.98379390487E+03  0.91313799359E+03 0.  0.
         23    2    4    4    0    0 -0.27208099886E+03  0.73114959642E+02 -0.11838203093E+03  0.31831056383E+03  0.89069874470E+02 0.  0.
         23    2    4    4    0    0  0.60430427766E+03 -0.22842729566E+02  0.26374312550E+03  0.66548334104E+03  0.87190542243E+02 0.  0.
          3    1    3    3  502    0 -0.36916629270E+02  0.19435517598E+02  0.38607021731E+02  0.56842580764E+02  0.00000000000E+00 0. -1.
         -4    1    3    3    0  502 -0.29530664954E+03 -0.69707747673E+02  0.37476079833E+03  0.48219378191E+03  0.00000000000E+00 0.  1.
         13    1    5    5    0    0  0.14832669142E+01 -0.55410129623E+01 -0.13997039066E+02  0.15126797678E+02  0.00000000000E+00 0.  1.
        -13    1    5    5    0    0 -0.27356426577E+03  0.78655972604E+02 -0.10438499186E+03  0.30318376615E+03  0.00000000000E+00 0. -1.
          1    1    6    6  503    0  0.24368981103E+03 -0.37935598502E+02  0.72732771399E+02  0.25712621350E+03  0.00000000000E+00 0. -1.
         -1    1    6    6    0  503  0.36061446663E+03  0.15092868936E+02  0.19101035411E+03  0.40835712754E+03  0.00000000000E+00 0.  1.
<mgrwt>
<rscale>  0 0.14166277E+04</rscale>
<asrwt>0</asrwt>
<pdfrwt beam="1">  1        1 0.74161643E-01 0.14166277E+04</pdfrwt>
<pdfrwt beam="2">  1       -2 0.16011994E+00 0.14166277E+04</pdfrwt>
<totfact> 0.99679006E+00</totfact>
</mgrwt>
</event>
<event>
12    5  0.5246737E-008  0.1657264E+04  0.7818608E-02  0.8786121E-01
          1   -1    0    0  501    0  0.00000000000E+00  0.00000000000E+00  0.32122819003E+04  0.32122819003E+04  0.00000000000E+00 0. -1.
         -2   -1    0    0    0  501 -0.00000000000E+00 -0.00000000000E+00 -0.21375176032E+03  0.21375176032E+03  0.00000000000E+00 0.  1.
        -24    2    1    2    0    0  0.29895838168E+01  0.81451875800E+02 -0.13248494926E+03  0.17526083108E+03  0.80751169940E+02 0.  0.
        254    2    1    2    0    0 -0.29895838168E+01 -0.81451875800E+02  0.31310150893E+04  0.32507728296E+04  0.87041665574E+03 0.  0.
         23    2    4    4    0    0 -0.32615229581E+03  0.22360402606E+03  0.17750853698E+04  0.18209832675E+04  0.93155299368E+02 0.  0.
         23    2    4    4    0    0  0.32316271200E+03 -0.30505590186E+03  0.13559297195E+04  0.14297895621E+04  0.90882044873E+02 0.  0.
          1    1    3    3  502    0  0.23222073522E+02  0.33259145708E+02 -0.95455753475E+01  0.41671974763E+02  0.00000000000E+00 0. -1.
         -2    1    3    3    0  502 -0.20232489705E+02  0.48192730092E+02 -0.12293937392E+03  0.13358885632E+03  0.00000000000E+00 0.  1.
         13    1    5    5    0    0 -0.25489097575E+03  0.17244090057E+03  0.11801279800E+04  0.12195930972E+04  0.00000000000E+00 0. -1.
        -13    1    5    5    0    0 -0.71261320060E+02  0.51163125484E+02  0.59495738982E+03  0.60139017023E+03  0.00000000000E+00 0.  1.
          3    1    6    6  503    0  0.28597462896E+03 -0.24188874407E+03  0.12073097452E+04  0.12640761345E+04  0.00000000000E+00 0. -1.
         -3    1    6    6    0  503  0.37188083040E+02 -0.63167157784E+02  0.14861997430E+03  0.16571342765E+03  0.00000000000E+00 0.  1.
<mgrwt>
<rscale>  0 0.16572639E+04</rscale>
<asrwt>0</asrwt>
<pdfrwt beam="1">  1        1 0.49419718E+00 0.16572639E+04</pdfrwt>
<pdfrwt beam="2">  1       -2 0.32884889E-01 0.16572639E+04</pdfrwt>
<totfact> 0.30293783E+00</totfact>
</mgrwt>
</event>
<event>
12    5  0.5246737E-008  0.2254515E+04  0.7818608E-02  0.8496074E-01
          1   -1    0    0  501    0  0.00000000000E+00  0.00000000000E+00  0.29251153927E+04  0.29251153927E+04  0.00000000000E+00 0. -1.
         -2   -1    0    0    0  501 -0.00000000000E+00 -0.00000000000E+00 -0.43441332408E+03  0.43441332408E+03  0.00000000000E+00 0.  1.
        -24    2    1    2    0    0 -0.86584327902E+03 -0.21003026952E+03  0.57043111888E+03  0.10610989512E+04  0.82109834623E+02 0.  0.
        254    2    1    2    0    0  0.86584327902E+03  0.21003026952E+03  0.19202709497E+04  0.22984297656E+04  0.89528853947E+03 0.  0.
         23    2    4    4    0    0  0.11126055431E+03 -0.19439696678E+03  0.10340369971E+04  0.10622803734E+04  0.95068336991E+02 0.  0.
         23    2    4    4    0    0  0.75458272470E+03  0.40442723630E+03  0.88623395260E+03  0.12361493921E+04  0.98479556501E+02 0.  0.
          1    1    3    3  502    0 -0.81415383433E+03 -0.19867472239E+03  0.55774835836E+03  0.10066783709E+04  0.00000000000E+00 0. -1.
         -2    1    3    3    0  502 -0.51689444683E+02 -0.11355547131E+02  0.12682760527E+02  0.54420580270E+02  0.00000000000E+00 0.  1.
         13    1    5    5    0    0  0.83254833106E+02 -0.18151876973E+03  0.73458527323E+03  0.76124631667E+03  0.00000000000E+00 0.  1.
        -13    1    5    5    0    0  0.28005721208E+02 -0.12878197040E+02  0.29945172391E+03  0.30103405677E+03  0.00000000000E+00 0. -1.
          1    1    6    6  503    0  0.40182736789E+03  0.17544197327E+03  0.40290394027E+03  0.59546343688E+03  0.00000000000E+00 0. -1.
         -1    1    6    6    0  503  0.35275535681E+03  0.22898526302E+03  0.48333001233E+03  0.64068595526E+03  0.00000000000E+00 0.  1.
<mgrwt>
<rscale>  0 0.22545147E+04</rscale>
<asrwt>0</asrwt>
<pdfrwt beam="1">  1        1 0.45001774E+00 0.22545147E+04</pdfrwt>
<pdfrwt beam="2">  1       -2 0.66832821E-01 0.22545147E+04</pdfrwt>
<totfact> 0.11116394E+00</totfact>
</mgrwt>
</event>
<event>
12    5  0.5246737E-008  0.1383979E+04  0.7818608E-02  0.8965498E-01
         -2   -1    0    0    0  501 -0.00000000000E+00  0.00000000000E+00  0.11587078621E+04  0.11587078621E+04  0.00000000000E+00 0.  1.
          1   -1    0    0  501    0  0.00000000000E+00 -0.00000000000E+00 -0.41326161296E+03  0.41326161296E+03  0.00000000000E+00 0. -1.
        -24    2    1    2    0    0  0.11352084283E+03  0.18954586648E+03 -0.15103238520E+03  0.27913388857E+03  0.79311595093E+02 0.  0.
        254    2    1    2    0    0 -0.11352084283E+03 -0.18954586648E+03  0.89647863431E+03  0.12928355865E+04  0.90495043763E+03 0.  0.
         23    2    4    4    0    0 -0.12861505313E+03  0.34064673392E+03  0.25607472993E+03  0.45623295723E+03  0.99961066092E+02 0.  0.
         23    2    4    4    0    0  0.15094210301E+02 -0.53019260040E+03  0.64040390438E+03  0.83660262922E+03  0.91949822004E+02 0.  0.
          3    1    3    3  502    0  0.53493059902E+02  0.15708603578E+03 -0.98126757336E+02  0.19278586722E+03  0.00000000000E+00 0. -1.
         -4    1    3    3    0  502  0.60027782927E+02  0.32459830698E+02 -0.52905627865E+02  0.86348021354E+02  0.00000000000E+00 0.  1.
         13    1    5    5    0    0 -0.73193178263E+02  0.15032356836E+03  0.60608799604E+02  0.17784218605E+03  0.00000000000E+00 0. -1.
        -13    1    5    5    0    0 -0.55421874867E+02  0.19032316556E+03  0.19546593033E+03  0.27839077118E+03  0.00000000000E+00 0.  1.
          4    1    6    6  503    0  0.50816867709E+02 -0.27162818800E+03  0.35422362473E+03  0.44926451327E+03  0.00000000000E+00 0. -1.
         -4    1    6    6    0  503 -0.35722657408E+02 -0.25856441240E+03  0.28618027965E+03  0.38733811595E+03  0.00000000000E+00 0.  1.
<mgrwt>
<rscale>  0 0.13839790E+04</rscale>
<asrwt>0</asrwt>
<pdfrwt beam="1">  1        1 0.63578710E-01 0.13839790E+04</pdfrwt>
<pdfrwt beam="2">  1       -2 0.17826275E+00 0.13839790E+04</pdfrwt>
<totfact> 0.91256214E+00</totfact>
</mgrwt>
</event>
<event>
12    5  0.5246737E-008  0.2224310E+04  0.7818608E-02  0.8508377E-01
          1   -1    0    0  501    0  0.00000000000E+00  0.00000000000E+00  0.18335336813E+04  0.18335336813E+04  0.00000000000E+00 0. -1.
         -2   -1    0    0    0  501 -0.00000000000E+00 -0.00000000000E+00 -0.67459295783E+03  0.67459295783E+03  0.00000000000E+00 0.  1.
        -24    2    1    2    0    0 -0.74708362476E+03  0.40737579797E+03  0.68377273464E+02  0.85749829182E+03  0.80863377325E+02 0.  0.
        254    2    1    2    0    0  0.74708362476E+03 -0.40737579797E+03  0.10905634500E+04  0.16506283473E+04  0.90064217052E+03 0.  0.
         23    2    4    4    0    0  0.75956864663E+03 -0.62241102556E+03  0.75650090514E+03  0.12429856977E+04  0.91541310967E+02 0.  0.
         23    2    4    4    0    0 -0.12485021870E+02  0.21503522759E+03  0.33406254490E+03  0.40764264960E+03  0.90436281414E+02 0.  0.
          3    1    3    3  502    0 -0.18787699278E+03  0.70501237612E+02  0.35886749293E+02  0.20385300512E+03  0.00000000000E+00 0. -1.
         -4    1    3    3    0  502 -0.55920663197E+03  0.33687456036E+03  0.32490524170E+02  0.65364528670E+03  0.00000000000E+00 0.  1.
         13    1    5    5    0    0  0.67776125706E+03 -0.58532429551E+03  0.67149102824E+03  0.11193145463E+04  0.00000000000E+00 0.  1.
        -13    1    5    5    0    0  0.81807389569E+02 -0.37086730052E+02  0.85009876900E+02  0.12367115146E+03  0.00000000000E+00 0. -1.
          2    1    6    6  503    0 -0.43852686700E+02  0.70483936884E+02  0.15075681349E+03  0.17210072721E+03  0.00000000000E+00 0. -1.
         -2    1    6    6    0  503  0.31367664830E+02  0.14455129070E+03  0.18330573140E+03  0.23554192239E+03  0.00000000000E+00 0.  1.
<mgrwt>
<rscale>  0 0.22243101E+04</rscale>
<asrwt>0</asrwt>
<pdfrwt beam="1">  1        1 0.28208210E+00 0.22243101E+04</pdfrwt>
<pdfrwt beam="2">  1       -2 0.10378353E+00 0.22243101E+04</pdfrwt>
<totfact> 0.23350236E+00</totfact>
</mgrwt>
</event>
<event>
12    5  0.5246737E-008  0.2851622E+04  0.7818608E-02  0.8287418E-01
          1   -1    0    0  501    0  0.00000000000E+00  0.00000000000E+00  0.25308276470E+04  0.25308276470E+04  0.00000000000E+00 0. -1.
         -2   -1    0    0    0  501 -0.00000000000E+00 -0.00000000000E+00 -0.80326991866E+03  0.80326991866E+03  0.00000000000E+00 0.  1.
        -24    2    1    2    0    0 -0.10974976168E+04  0.43692370185E+03  0.13665109140E+04  0.18080751954E+04  0.79877995091E+02 0.  0.
        254    2    1    2    0    0  0.10974976168E+04 -0.43692370185E+03  0.36104681437E+03  0.15260223703E+04  0.89609493487E+03 0.  0.
         23    2    4    4    0    0  0.27268177789E+03 -0.53808384866E+03  0.32106643749E+03  0.68897923654E+03  0.87858698589E+02 0.  0.
         23    2    4    4    0    0  0.82481583889E+03  0.10116014681E+03  0.39980376883E+02  0.83704313372E+03  0.92131611256E+02 0.  0.
          3    1    3    3  502    0 -0.10946766608E+04  0.43398690105E+03  0.13666585634E+04  0.18040003467E+04  0.00000000000E+00 0. -1.
         -4    1    3    3    0  502 -0.28209560108E+01  0.29368008020E+01 -0.14764940717E+00  0.40748487227E+01  0.00000000000E+00 0.  1.
         13    1    5    5    0    0  0.15288330693E+03 -0.28946927413E+03  0.12484936173E+03  0.35036142672E+03  0.00000000000E+00 0. -1.
        -13    1    5    5    0    0  0.11979847096E+03 -0.24861457453E+03  0.19621707575E+03  0.33861780982E+03  0.00000000000E+00 0.  1.
          1    1    6    6  503    0  0.62562359627E+03  0.11150720477E+03  0.49074505827E+02  0.63737512349E+03  0.00000000000E+00 0. -1.
         -1    1    6    6    0  503  0.19919224262E+03 -0.10347057960E+02 -0.90941289437E+01  0.19966801023E+03  0.00000000000E+00 0.  1.
<mgrwt>
<rscale>  0 0.28516225E+04</rscale>
<asrwt>0</asrwt>
<pdfrwt beam="1">  1        1 0.38935810E+00 0.28516225E+04</pdfrwt>
<pdfrwt beam="2">  1       -2 0.12357999E+00 0.28516225E+04</pdfrwt>
<totfact> 0.48222901E-01</totfact>
</mgrwt>
</event>
<event>
12    5  0.5246737E-008  0.1286249E+04  0.7818608E-02  0.9040541E-01
         -2   -1    0    0    0  501 -0.00000000000E+00  0.00000000000E+00  0.93273074764E+03  0.93273074764E+03  0.00000000000E+00 0.  1.
          1   -1    0    0  501    0  0.00000000000E+00 -0.00000000000E+00 -0.44343890442E+03  0.44343890442E+03  0.00000000000E+00 0. -1.
        -24    2    1    2    0    0 -0.25805087473E+03 -0.34725304654E+02 -0.82948477502E+02  0.28481384177E+03  0.80264399400E+02 0.  0.
        254    2    1    2    0    0  0.25805087473E+03  0.34725304654E+02  0.57224032072E+03  0.10913558103E+04  0.89207758591E+03 0.  0.
         23    2    4    4    0    0 -0.18121196317E+03  0.63428371562E+02  0.60493882380E+03  0.64088744580E+03  0.89021366675E+02 0.  0.
         23    2    4    4    0    0  0.43926283790E+03 -0.28703066909E+02 -0.32698503081E+02  0.45046836450E+03  0.89871288535E+02 0.  0.
          1    1    3    3  502    0 -0.19394992397E+03 -0.55818262698E+02 -0.42862898329E+02  0.20632372503E+03  0.00000000000E+00 0. -1.
         -2    1    3    3    0  502 -0.64100950759E+02  0.21092958045E+02 -0.40085579174E+02  0.78490116735E+02  0.00000000000E+00 0.  1.
         13    1    5    5    0    0 -0.44748204454E+02  0.18406924930E+02  0.29890208508E+03  0.30279311940E+03  0.00000000000E+00 0. -1.
        -13    1    5    5    0    0 -0.13646375871E+03  0.45021446632E+02  0.30603673872E+03  0.33809432640E+03  0.00000000000E+00 0.  1.
          3    1    6    6  503    0  0.20046148265E+03  0.24014815866E+02 -0.39951365045E+02  0.20580969116E+03  0.00000000000E+00 0. -1.
         -3    1    6    6    0  503  0.23880135525E+03 -0.52717882775E+02  0.72528619639E+01  0.24465867334E+03  0.00000000000E+00 0.  1.
<mgrwt>
<rscale>  0 0.12862490E+04</rscale>
<asrwt>0</asrwt>
<pdfrwt beam="1">  1        1 0.68221370E-01 0.12862490E+04</pdfrwt>
<pdfrwt beam="2">  1       -2 0.14349704E+00 0.12862490E+04</pdfrwt>
<totfact> 0.15109175E+01</totfact>
</mgrwt>
</event>
<event>
12    5  0.5246737E-008  0.3056086E+04  0.7818608E-02  0.8227894E-01
         -2   -1    0    0    0  501 -0.00000000000E+00  0.00000000000E+00  0.79365101156E+03  0.79365101156E+03  0.00000000000E+00 0.  1.
          1   -1    0    0  501    0  0.00000000000E+00 -0.00000000000E+00 -0.29419924105E+04  0.29419924105E+04  0.00000000000E+00 0. -1.
        -24    2    1    2    0    0 -0.43344140023E+03  0.13249284001E+04 -0.10670382127E+04  0.17573499218E+04  0.80009296545E+02 0.  0.
        254    2    1    2    0    0  0.43344140023E+03 -0.13249284001E+04 -0.10813031862E+04  0.19782935003E+04  0.89505412120E+03 0.  0.
         23    2    4    4    0    0 -0.92051859769E+02 -0.49865527178E+03 -0.80673631462E+03  0.95724046926E+03  0.91406836268E+02 0.  0.
         23    2    4    4    0    0  0.52549326000E+03 -0.82627312829E+03 -0.27456687161E+03  0.10210530310E+04  0.91059740121E+02 0.  0.
          1    1    3    3  502    0 -0.18370300792E+03  0.63713747316E+03 -0.54798658001E+03  0.86022104525E+03  0.00000000000E+00 0. -1.
         -2    1    3    3    0  502 -0.24973839231E+03  0.68779092691E+03 -0.51905163269E+03  0.89712887655E+03  0.00000000000E+00 0.  1.
         13    1    5    5    0    0 -0.64148467900E+02 -0.27863621306E+03 -0.37186632975E+03  0.46908179709E+03  0.00000000000E+00 0.  1.
        -13    1    5    5    0    0 -0.27903391869E+02 -0.22001905871E+03 -0.43486998487E+03  0.48815867217E+03  0.00000000000E+00 0. -1.
          1    1    6    6  503    0  0.31847157167E+03 -0.56712226784E+03 -0.20684026205E+03  0.68252084412E+03  0.00000000000E+00 0. -1.
         -1    1    6    6    0  503  0.20702168833E+03 -0.25915086045E+03 -0.67726609556E+02  0.33853218688E+03  0.00000000000E+00 0.  1.
<mgrwt>
<rscale>  0 0.30560859E+04</rscale>
<asrwt>0</asrwt>
<pdfrwt beam="1">  1        1 0.45261420E+00 0.30560859E+04</pdfrwt>
<pdfrwt beam="2">  1       -2 0.12210016E+00 0.30560859E+04</pdfrwt>
<totfact> 0.24955753E-01</totfact>
</mgrwt>
</event>
<event>
12    5  0.5246737E-008  0.1489099E+04  0.7818608E-02  0.8891735E-01
          1   -1    0    0  501    0  0.00000000000E+00  0.00000000000E+00  0.17835173644E+04  0.17835173644E+04  0.00000000000E+00 0. -1.
         -2   -1    0    0    0  501 -0.00000000000E+00 -0.00000000000E+00 -0.31082056971E+03  0.31082056971E+03  0.00000000000E+00 0.  1.
        -24    2    1    2    0    0  0.69017912972E+02 -0.88017081056E+02 -0.16958133480E+03  0.22066853686E+03  0.86175954752E+02 0.  0.
        254    2    1    2    0    0 -0.69017912972E+02  0.88017081056E+02  0.16422781295E+04  0.18736693973E+04  0.89501345058E+03 0.  0.
         23    2    4    4    0    0  0.35326114612E+03  0.13124136522E+03  0.11626994816E+04  0.12256738657E+04  0.91589339644E+02 0.  0.
         23    2    4    4    0    0 -0.42227905909E+03 -0.43224284160E+02  0.47957864792E+03  0.64799553162E+03  0.98562604323E+02 0.  0.
          3    1    3    3  502    0 -0.25574655219E+01  0.16586242055E+01  0.83848205682E+01  0.89217083628E+01  0.00000000000E+00 0. -1.
         -4    1    3    3    0  502  0.71575378494E+02 -0.89675705262E+02 -0.17796615537E+03  0.21174682850E+03  0.00000000000E+00 0.  1.
         13    1    5    5    0    0  0.19444634796E+03  0.24288260394E+02  0.56044357934E+03  0.59371399465E+03  0.00000000000E+00 0.  1.
        -13    1    5    5    0    0  0.15881479816E+03  0.10695310482E+03  0.60225590227E+03  0.63195987101E+03  0.00000000000E+00 0. -1.
          4    1    6    6  503    0 -0.48434797913E+01 -0.14118772441E+02  0.61449280066E+01  0.16141845369E+02  0.00000000000E+00 0. -1.
         -4    1    6    6    0  503 -0.41743557930E+03 -0.29105511719E+02  0.47343371992E+03  0.63185368625E+03  0.00000000000E+00 0.  1.
<mgrwt>
<rscale>  0 0.14890989E+04</rscale>
<asrwt>0</asrwt>
<pdfrwt beam="1">  1        1 0.27438728E+00 0.14890989E+04</pdfrwt>
<pdfrwt beam="2">  1       -2 0.47818550E-01 0.14890989E+04</pdfrwt>
<totfact> 0.14725028E+01</totfact>
</mgrwt>
</event>
<event>
12    5  0.5246737E-008  0.1103123E+04  0.7818608E-02  0.9202154E-01
         -2   -1    0    0    0  501 -0.00000000000E+00  0.00000000000E+00  0.14294878621E+03  0.14294878621E+03  0.00000000000E+00 0.  1.
          1   -1    0    0  501    0  0.00000000000E+00 -0.00000000000E+00 -0.21281738393E+04  0.21281738393E+04  0.00000000000E+00 0. -1.
        -24    2    1    2    0    0 -0.10725834549E+03 -0.68131534362E+02 -0.11172797205E+03  0.18988083368E+03  0.86170369667E+02 0.  0.
        254    2    1    2    0    0  0.10725834549E+03  0.68131534362E+02 -0.18734970811E+04  0.20812417918E+04  0.89745742225E+03 0.  0.
         23    2    4    4    0    0  0.34932353664E+02 -0.98808205903E+02 -0.18723952549E+04  0.18775490866E+04  0.91341397926E+02 0.  0.
         23    2    4    4    0    0  0.72325991823E+02  0.16693974026E+03 -0.11018261504E+01  0.20369270528E+03  0.91594640629E+02 0.  0.
          3    1    3    3  502    0 -0.15533562634E+02 -0.15912656388E+02  0.13570997393E+02  0.26051414005E+02  0.00000000000E+00 0. -1.
         -4    1    3    3    0  502 -0.91724782854E+02 -0.52218877974E+02 -0.12529896945E+03  0.16382941968E+03  0.00000000000E+00 0.  1.
         13    1    5    5    0    0  0.53155435057E+02 -0.25873474017E+02 -0.10727811661E+04  0.10744088455E+04  0.00000000000E+00 0.  1.
        -13    1    5    5    0    0 -0.18223081392E+02 -0.72934731886E+02 -0.79961408882E+03  0.80314024108E+03  0.00000000000E+00 0. -1.
          4    1    6    6  503    0  0.72439846032E+02  0.11139190207E+03 -0.36534744454E+02  0.13780593127E+03  0.00000000000E+00 0. -1.
         -4    1    6    6    0  503 -0.11385420865E+00  0.55547838190E+02  0.35432918303E+02  0.65886774013E+02  0.00000000000E+00 0.  1.
<mgrwt>
<rscale>  0 0.11031226E+04</rscale>
<asrwt>0</asrwt>
<pdfrwt beam="1">  1        1 0.32741133E+00 0.11031226E+04</pdfrwt>
<pdfrwt beam="2">  1       -2 0.21992123E-01 0.11031226E+04</pdfrwt>
<totfact> 0.38690759E+01</totfact>
</mgrwt>
</event>
<event>
12    5  0.5246737E-008  0.2088895E+04  0.7818608E-02  0.8566151E-01
          1   -1    0    0  501    0  0.00000000000E+00  0.00000000000E+00  0.19648793244E+04  0.19648793244E+04  0.00000000000E+00 0. -1.
         -4   -1    0    0    0  501 -0.00000000000E+00 -0.00000000000E+00 -0.55518454064E+03  0.55518454064E+03  0.00000000000E+00 0.  1.
        -24    2    1    2    0    0 -0.15460859769E+03 -0.17457952651E+03  0.15612103236E+04  0.15804757737E+04  0.78384738801E+02 0.  0.
        254    2    1    2    0    0  0.15460859769E+03  0.17457952651E+03 -0.15151553986E+03  0.93958809129E+03  0.89748927175E+03 0.  0.
         23    2    4    4    0    0 -0.35287809987E+03  0.34597252580E+02  0.45441829016E+02  0.36935098951E+03  0.92926155486E+02 0.  0.
         23    2    4    4    0    0  0.50748669756E+03  0.13998227393E+03 -0.19695736887E+03  0.57023710178E+03  0.96126801040E+02 0.  0.
          1    1    3    3  502    0 -0.13261372473E+03 -0.16188505559E+03  0.11794131613E+04  0.11978349537E+04  0.00000000000E+00 0. -1.
         -2    1    3    3    0  502 -0.21994872962E+02 -0.12694470922E+02  0.38179716231E+03  0.38264082006E+03  0.00000000000E+00 0.  1.
         13    1    5    5    0    0 -0.61033290543E+02 -0.23337639882E+02  0.28620816554E+02  0.71336239949E+02  0.00000000000E+00 0.  1.
        -13    1    5    5    0    0 -0.29184480932E+03  0.57934892462E+02  0.16821012462E+02  0.29801474956E+03  0.00000000000E+00 0. -1.
          3    1    6    6  503    0  0.17927913380E+03  0.12617797195E+02 -0.36734700486E+02  0.18343842248E+03  0.00000000000E+00 0. -1.
         -3    1    6    6    0  503  0.32820756376E+03  0.12736447673E+03 -0.16022266839E+03  0.38679867930E+03  0.00000000000E+00 0.  1.
<mgrwt>
<rscale>  0 0.20888950E+04</rscale>
<asrwt>0</asrwt>
<pdfrwt beam="1">  1        1 0.30228912E+00 0.20888950E+04</pdfrwt>
<pdfrwt beam="2">  1       -4 0.85413007E-01 0.20888950E+04</pdfrwt>
<totfact> 0.17038572E+00</totfact>
</mgrwt>
</event>
<event>
12    5  0.5246737E-008  0.1156914E+04  0.7818608E-02  0.9151429E-01
         -2   -1    0    0    0  501 -0.00000000000E+00  0.00000000000E+00  0.16254124374E+03  0.16254124374E+03  0.00000000000E+00 0.  1.
          1   -1    0    0  501    0  0.00000000000E+00 -0.00000000000E+00 -0.20586301200E+04  0.20586301200E+04  0.00000000000E+00 0. -1.
        -24    2    1    2    0    0 -0.12645689789E+03  0.18905147404E+03 -0.42904445091E+03  0.49164640652E+03  0.76845568023E+02 0.  0.
        254    2    1    2    0    0  0.12645689789E+03 -0.18905147404E+03 -0.14670444254E+04  0.17295249573E+04  0.88730233002E+03 0.  0.
         23    2    4    4    0    0  0.24126554527E+03 -0.12495757854E+03 -0.15326913952E+04  0.15592968889E+04  0.91871730855E+02 0.  0.
         23    2    4    4    0    0 -0.11480864738E+03 -0.64093895499E+02  0.65646969809E+02  0.17022806840E+03  0.85901208788E+02 0.  0.
          3    1    3    3  502    0 -0.29899357709E+02  0.69193016663E+02 -0.78649218683E+02  0.10893734321E+03  0.00000000000E+00 0. -1.
         -4    1    3    3    0  502 -0.96557540178E+02  0.11985845738E+03 -0.35039523222E+03  0.38270906331E+03  0.00000000000E+00 0.  1.
         13    1    5    5    0    0  0.10809438391E+03 -0.75621963149E+02 -0.50971235000E+03  0.52650712900E+03  0.00000000000E+00 0. -1.
        -13    1    5    5    0    0  0.13317116135E+03 -0.49335615396E+02 -0.10229790452E+04  0.10327897599E+04  0.00000000000E+00 0.  1.
          4    1    6    6  503    0 -0.86994440794E+01  0.19280913393E+02  0.15669976264E+02  0.26324553266E+02  0.00000000000E+00 0. -1.
         -4    1    6    6    0  503 -0.10610920330E+03 -0.83374808892E+02  0.49976993545E+02  0.14390351513E+03  0.00000000000E+00 0.  1.
<mgrwt>
<rscale>  0 0.11569137E+04</rscale>
<asrwt>0</asrwt>
<pdfrwt beam="1">  1        1 0.31671230E+00 0.11569137E+04</pdfrwt>
<pdfrwt beam="2">  1       -2 0.25006347E-01 0.11569137E+04</pdfrwt>
<totfact> 0.34069639E+01</totfact>
</mgrwt>
</event>
<event>
12    5  0.5246737E-008  0.2667424E+04  0.7818608E-02  0.8345653E-01
         -2   -1    0    0    0  501 -0.00000000000E+00  0.00000000000E+00  0.94794024664E+03  0.94794024664E+03  0.00000000000E+00 0.  1.
          1   -1    0    0  501    0  0.00000000000E+00 -0.00000000000E+00 -0.18764768811E+04  0.18764768811E+04  0.00000000000E+00 0. -1.
        -24    2    1    2    0    0  0.78938606703E+03  0.78534903735E+03  0.37661639171E+01  0.11167715553E+04  0.85211791588E+02 0.  0.
        254    2    1    2    0    0 -0.78938606703E+03 -0.78534903735E+03 -0.93230279836E+03  0.17076455724E+04  0.89831031386E+03 0.  0.
         23    2    4    4    0    0 -0.54710983732E+03 -0.99600179825E+02 -0.57430155894E+02  0.56635374210E+03  0.90603357968E+02 0.  0.
         23    2    4    4    0    0 -0.24227622971E+03 -0.68574885752E+03 -0.87487264247E+03  0.11412918303E+04  0.90529743161E+02 0.  0.
          3    1    3    3  502    0  0.25453148139E+02  0.41169538248E+02 -0.13123002867E+02  0.50149843808E+02  0.00000000000E+00 0. -1.
         -4    1    3    3    0  502  0.76393291889E+03  0.74417949910E+03  0.16889166784E+02  0.10666217115E+04  0.00000000000E+00 0.  1.
         13    1    5    5    0    0 -0.49705056705E+03 -0.10879176809E+03 -0.32967840923E+02  0.50988409815E+03  0.00000000000E+00 0.  1.
        -13    1    5    5    0    0 -0.50059270265E+02  0.91915882623E+01 -0.24462314971E+02  0.56469643952E+02  0.00000000000E+00 0. -1.
          1    1    6    6  503    0 -0.74852842523E+02 -0.13057764657E+03 -0.14370644026E+03  0.20809856028E+03  0.00000000000E+00 0. -1.
         -1    1    6    6    0  503 -0.16742338719E+03 -0.55517121095E+03 -0.73116620221E+03  0.93319327006E+03  0.00000000000E+00 0.  1.
<mgrwt>
<rscale>  0 0.26674242E+04</rscale>
<asrwt>0</asrwt>
<pdfrwt beam="1">  1        1 0.28868875E+00 0.26674242E+04</pdfrwt>
<pdfrwt beam="2">  1       -2 0.14583696E+00 0.26674242E+04</pdfrwt>
<totfact> 0.89768428E-01</totfact>
</mgrwt>
</event>
<event>
12    5  0.5246737E-008  0.1253550E+04  0.7818608E-02  0.9067233E-01
          1   -1    0    0  501    0  0.00000000000E+00  0.00000000000E+00  0.31115792512E+04  0.31115792512E+04  0.00000000000E+00 0. -1.
         -2   -1    0    0    0  501 -0.00000000000E+00 -0.00000000000E+00 -0.12625329563E+03  0.12625329563E+03  0.00000000000E+00 0.  1.
        -24    2    1    2    0    0  0.29425660423E+03  0.70479589514E+01  0.79308557507E+03  0.84906098990E+03  0.72685709344E+02 0.  0.
        254    2    1    2    0    0 -0.29425660423E+03 -0.70479589514E+01  0.21922403805E+04  0.23887715569E+04  0.90203937962E+03 0.  0.
         23    2    4    4    0    0 -0.21865948760E+03  0.40925388680E+03  0.14937678364E+04  0.15668656076E+04  0.91786533738E+02 0.  0.
         23    2    4    4    0    0 -0.75597116629E+02 -0.41630184575E+03  0.69847254409E+03  0.82190594933E+03  0.92969585759E+02 0.  0.
          1    1    3    3  502    0  0.29722239324E+03  0.98649587296E+01  0.78938745183E+03  0.84354668962E+03  0.00000000000E+00 0. -1.
         -2    1    3    3    0  502 -0.29657890117E+01 -0.28169997782E+01  0.36981232352E+01  0.55143002888E+01  0.00000000000E+00 0.  1.
         13    1    5    5    0    0 -0.13689943204E+03  0.16264901473E+03  0.63326515191E+03  0.66799768645E+03  0.00000000000E+00 0. -1.
        -13    1    5    5    0    0 -0.81760055561E+02  0.24660487207E+03  0.86050268449E+03  0.89886792113E+03  0.00000000000E+00 0.  1.
          4    1    6    6  503    0 -0.16919560790E+01 -0.11808483133E+02  0.69065274764E+02  0.70087910281E+02  0.00000000000E+00 0. -1.
         -4    1    6    6    0  503 -0.73905160550E+02 -0.40449336262E+03  0.62940726933E+03  0.75181803905E+03  0.00000000000E+00 0.  1.
<mgrwt>
<rscale>  0 0.12535504E+04</rscale>
<asrwt>0</asrwt>
<pdfrwt beam="1">  1        1 0.47870445E+00 0.12535504E+04</pdfrwt>
<pdfrwt beam="2">  1       -2 0.19423586E-01 0.12535504E+04</pdfrwt>
<totfact> 0.97639012E+00</totfact>
</mgrwt>
</event>
<event>
12    5  0.5246737E-008  0.1525785E+04  0.7818608E-02  0.8867485E-01
          1   -1    0    0  501    0  0.00000000000E+00  0.00000000000E+00  0.23502297462E+04  0.23502297462E+04  0.00000000000E+00 0. -1.
         -4   -1    0    0    0  501 -0.00000000000E+00 -0.00000000000E+00 -0.24763749117E+03  0.24763749117E+03  0.00000000000E+00 0.  1.
        -24    2    1    2    0    0  0.32258348690E+03  0.97017697369E+02  0.23053285453E+03  0.41601717016E+03  0.80326516341E+02 0.  0.
        254    2    1    2    0    0 -0.32258348690E+03 -0.97017697369E+02  0.18720594005E+04  0.21818500673E+04  0.10688268228E+04 0.  0.
         23    2    4    4    0    0 -0.52018437115E+03 -0.34226928089E+03  0.60584810994E+03  0.87357862699E+03  0.91365445284E+02 0.  0.
         23    2    4    4    0    0  0.19760088425E+03  0.24525158353E+03  0.12662112906E+04  0.13082714403E+04  0.95334570188E+02 0.  0.
          3    1    3    3  502    0  0.68582912644E+02  0.12384260361E+02  0.89434959024E+02  0.11338252823E+03  0.00000000000E+00 0. -1.
         -4    1    3    3    0  502  0.25400057426E+03  0.84633437008E+02  0.14109789550E+03  0.30263464193E+03  0.00000000000E+00 0.  1.
         13    1    5    5    0    0 -0.23107708279E+03 -0.20354853538E+03  0.27554034179E+03  0.41322040656E+03  0.00000000000E+00 0. -1.
        -13    1    5    5    0    0 -0.28910728836E+03 -0.13872074551E+03  0.33030776815E+03  0.46035822043E+03  0.00000000000E+00 0.  1.
          3    1    6    6  503    0  0.18014956791E+02  0.48150271599E+02  0.10594234380E+03  0.11775723983E+03  0.00000000000E+00 0. -1.
         -3    1    6    6    0  503  0.17958592746E+03  0.19710131193E+03  0.11602689468E+04  0.11905142004E+04  0.00000000000E+00 0.  1.
<mgrwt>
<rscale>  0 0.15257850E+04</rscale>
<asrwt>0</asrwt>
<pdfrwt beam="1">  1        1 0.36157379E+00 0.15257850E+04</pdfrwt>
<pdfrwt beam="2">  1       -4 0.38098077E-01 0.15257850E+04</pdfrwt>
<totfact> 0.55529840E+00</totfact>
</mgrwt>
</event>
<event>
12    5  0.5246737E-008  0.1701907E+04  0.7818608E-02  0.8760277E-01
         -2   -1    0    0    0  501 -0.00000000000E+00  0.00000000000E+00  0.46162726741E+03  0.46162726741E+03  0.00000000000E+00 0.  1.
          1   -1    0    0  501    0  0.00000000000E+00 -0.00000000000E+00 -0.15686290274E+04  0.15686290274E+04  0.00000000000E+00 0. -1.
        -24    2    1    2    0    0  0.28814846678E+03  0.42375315033E+03  0.34210131550E+02  0.51986766246E+03  0.80596414591E+02 0.  0.
        254    2    1    2    0    0 -0.28814846678E+03 -0.42375315033E+03 -0.11412118916E+04  0.15103886324E+04  0.84635274445E+03 0.  0.
         23    2    4    4    0    0 -0.11418743153E+03 -0.41416816289E+03 -0.12235984752E+04  0.13005212472E+04  0.97919606295E+02 0.  0.
         23    2    4    4    0    0 -0.17396103525E+03 -0.95849874329E+01  0.82386583598E+02  0.20986738519E+03  0.83081023340E+02 0.  0.
          3    1    3    3  502    0  0.15783585544E+02  0.30107524202E+01  0.80706737494E+01  0.17981156179E+02  0.00000000000E+00 0. -1.
         -4    1    3    3    0  502  0.27236488124E+03  0.42074239791E+03  0.26139457801E+02  0.50188650628E+03  0.00000000000E+00 0.  1.
         13    1    5    5    0    0 -0.72677251397E+00 -0.48649232822E+01  0.38817759207E+00  0.49342029419E+01  0.00000000000E+00 0.  1.
        -13    1    5    5    0    0 -0.11346065902E+03 -0.40930323961E+03 -0.12239866527E+04  0.12955870442E+04  0.00000000000E+00 0. -1.
          1    1    6    6  503    0 -0.16148734720E+03  0.16918618252E+02  0.78390540754E+02  0.18030385417E+03  0.00000000000E+00 0. -1.
         -1    1    6    6    0  503 -0.12473688054E+02 -0.26503605685E+02  0.39960428440E+01  0.29563531020E+02  0.00000000000E+00 0.  1.
<mgrwt>
<rscale>  0 0.17019071E+04</rscale>
<asrwt>0</asrwt>
<pdfrwt beam="1">  1        1 0.24132755E+00 0.17019071E+04</pdfrwt>
<pdfrwt beam="2">  1       -2 0.71019579E-01 0.17019071E+04</pdfrwt>
<totfact> 0.88190953E+00</totfact>
</mgrwt>
</event>
<event>
12    5  0.5246737E-008  0.1694460E+04  0.7818608E-02  0.8764530E-01
          1   -1    0    0  501    0  0.00000000000E+00  0.00000000000E+00  0.21849162382E+04  0.21849162382E+04  0.00000000000E+00 0. -1.
         -2   -1    0    0    0  501 -0.00000000000E+00 -0.00000000000E+00 -0.32852457257E+03  0.32852457257E+03  0.00000000000E+00 0.  1.
        -24    2    1    2    0    0  0.49235498169E+03 -0.47019722336E+02  0.11658712171E+04  0.12690250419E+04  0.80898576414E+02 0.  0.
        254    2    1    2    0    0 -0.49235498169E+03  0.47019722336E+02  0.69052044849E+03  0.12444157689E+04  0.90946568588E+03 0.  0.
         23    2    4    4    0    0  0.12894077602E+03 -0.25068669165E+03  0.53217240675E+02  0.30123072528E+03  0.91860405286E+02 0.  0.
         23    2    4    4    0    0 -0.62129575771E+03  0.29770641399E+03  0.63730320781E+03  0.94318504361E+03  0.93835602648E+02 0.  0.
          3    1    3    3  502    0  0.34929301384E+03 -0.91383006954E+01  0.74439748568E+03  0.82232398405E+03  0.00000000000E+00 0. -1.
         -4    1    3    3    0  502  0.14306196785E+03 -0.37881421640E+02  0.42147373147E+03  0.44670105783E+03  0.00000000000E+00 0.  1.
         13    1    5    5    0    0  0.12809172128E+03 -0.16927074990E+03  0.19715075895E+02  0.21318714794E+03  0.00000000000E+00 0.  1.
        -13    1    5    5    0    0  0.84905473514E+00 -0.81415941753E+02  0.33502164780E+02  0.88043577338E+02  0.00000000000E+00 0. -1.
          1    1    6    6  503    0 -0.13693400022E+02  0.28453007539E+01 -0.84993111864E+00  0.14011685246E+02  0.00000000000E+00 0. -1.
         -1    1    6    6    0  503 -0.60760235769E+03  0.29486111323E+03  0.63815313893E+03  0.92917335836E+03  0.00000000000E+00 0.  1.
<mgrwt>
<rscale>  0 0.16944600E+04</rscale>
<asrwt>0</asrwt>
<pdfrwt beam="1">  1        1 0.33614095E+00 0.16944600E+04</pdfrwt>
<pdfrwt beam="2">  1       -2 0.50542243E-01 0.16944600E+04</pdfrwt>
<totfact> 0.69074941E+00</totfact>
</mgrwt>
</event>
<event>
12    5  0.5246737E-008  0.1569564E+04  0.7818608E-02  0.8839467E-01
         -2   -1    0    0    0  501 -0.00000000000E+00  0.00000000000E+00  0.18696106830E+04  0.18696106830E+04  0.00000000000E+00 0.  1.
          1   -1    0    0  501    0  0.00000000000E+00 -0.00000000000E+00 -0.32941754499E+03  0.32941754499E+03  0.00000000000E+00 0. -1.
        -24    2    1    2    0    0 -0.31862376836E+03 -0.38125498649E+03  0.29433175128E+03  0.58260364235E+03  0.76937336734E+02 0.  0.
        254    2    1    2    0    0  0.31862376836E+03  0.38125498649E+03  0.12458613867E+04  0.16164245856E+04  0.90209831816E+03 0.  0.
         23    2    4    4    0    0 -0.99554323381E+02  0.13098720020E+03  0.10761357172E+04  0.10923970248E+04  0.90523300972E+02 0.  0.
         23    2    4    4    0    0  0.41817809174E+03  0.25026778628E+03  0.16972566953E+03  0.52402756085E+03  0.91056028741E+02 0.  0.
          3    1    3    3  502    0 -0.26947875316E+03 -0.29307250425E+03  0.20504833919E+03  0.44783380015E+03  0.00000000000E+00 0. -1.
         -4    1    3    3    0  502 -0.49145015198E+02 -0.88182482239E+02  0.89283412088E+02  0.13476984220E+03  0.00000000000E+00 0.  1.
         13    1    5    5    0    0 -0.26819232209E+02 -0.81440727538E+01  0.24177758710E+03  0.24339679283E+03  0.00000000000E+00 0.  1.
        -13    1    5    5    0    0 -0.72735091172E+02  0.13913127296E+03  0.83435813010E+03  0.84900023196E+03  0.00000000000E+00 0. -1.
          2    1    6    6  503    0  0.13366916861E+03  0.48015664520E+02  0.17134676439E+02  0.14306134283E+03  0.00000000000E+00 0. -1.
         -2    1    6    6    0  503  0.28450892313E+03  0.20225212176E+03  0.15259099309E+03  0.38096621802E+03  0.00000000000E+00 0.  1.
<mgrwt>
<rscale>  0 0.15695637E+04</rscale>
<asrwt>0</asrwt>
<pdfrwt beam="1">  1        1 0.50679623E-01 0.15695637E+04</pdfrwt>
<pdfrwt beam="2">  1       -2 0.28763241E+00 0.15695637E+04</pdfrwt>
<totfact> 0.24717934E+00</totfact>
</mgrwt>
</event>
<event>
12    5  0.5246737E-008  0.1764832E+04  0.7818608E-02  0.8725228E-01
          1   -1    0    0  501    0  0.00000000000E+00  0.00000000000E+00  0.28893344156E+03  0.28893344156E+03  0.00000000000E+00 0. -1.
         -2   -1    0    0    0  501 -0.00000000000E+00 -0.00000000000E+00 -0.26949375457E+04  0.26949375457E+04  0.00000000000E+00 0.  1.
        -24    2    1    2    0    0 -0.57292451215E+03  0.16535350710E+03 -0.13746942107E+04  0.15005171571E+04  0.78633878395E+02 0.  0.
        254    2    1    2    0    0  0.57292451215E+03 -0.16535350710E+03 -0.10313098934E+04  0.14833538301E+04  0.88382928794E+03 0.  0.
         23    2    4    4    0    0  0.54179693477E+03 -0.43798503383E-01 -0.11379450661E+04  0.12641993644E+04  0.98676942982E+02 0.  0.
         23    2    4    4    0    0  0.31127577382E+02 -0.16530970860E+03  0.10663517269E+03  0.21915446573E+03  0.91440658153E+02 0.  0.
          3    1    3    3  502    0 -0.13567522801E+03  0.37258757221E+02 -0.41397534894E+03  0.43723171433E+03  0.00000000000E+00 0. -1.
         -4    1    3    3    0  502 -0.43724928415E+03  0.12809474988E+03 -0.96071886179E+03  0.10632854428E+04  0.00000000000E+00 0.  1.
         13    1    5    5    0    0  0.13388315517E+02 -0.75027065816E+01 -0.92600732511E+01  0.17924468055E+02  0.00000000000E+00 0. -1.
        -13    1    5    5    0    0  0.52840861925E+03  0.74589080782E+01 -0.11286849928E+04  0.12462748963E+04  0.00000000000E+00 0.  1.
          2    1    6    6  503    0 -0.24696715734E+02 -0.77090641895E+02  0.19733409810E+02  0.83320479467E+02  0.00000000000E+00 0. -1.
         -2    1    6    6    0  503  0.55824293116E+02 -0.88219066703E+02  0.86901762882E+02  0.13583398626E+03  0.00000000000E+00 0.  1.
<mgrwt>
<rscale>  0 0.17648315E+04</rscale>
<asrwt>0</asrwt>
<pdfrwt beam="1">  1        1 0.44451298E-01 0.17648315E+04</pdfrwt>
<pdfrwt beam="2">  1       -2 0.41460578E+00 0.17648315E+04</pdfrwt>
<totfact> 0.45557036E-01</totfact>
</mgrwt>
</event>
<event>
12    5  0.5246737E-008  0.1210985E+04  0.7818608E-02  0.9103295E-01
          1   -1    0    0  501    0  0.00000000000E+00  0.00000000000E+00  0.30322406520E+04  0.30322406520E+04  0.00000000000E+00 0. -1.
         -2   -1    0    0    0  501 -0.00000000000E+00 -0.00000000000E+00 -0.12090767736E+03  0.12090767736E+03  0.00000000000E+00 0.  1.
        -24    2    1    2    0    0  0.20831574944E+03 -0.93258857598E+02  0.30943728110E+03  0.39259627253E+03  0.79295247528E+02 0.  0.
        254    2    1    2    0    0 -0.20831574944E+03  0.93258857598E+02  0.26018956936E+04  0.27605520569E+04  0.89369670048E+03 0.  0.
         23    2    4    4    0    0  0.23591316487E+02  0.87525409631E+02  0.24800905377E+04  0.24834340620E+04  0.91533697797E+02 0.  0.
         23    2    4    4    0    0 -0.23190706593E+03  0.57334479666E+01  0.12180515588E+03  0.27711799482E+03  0.90244819252E+02 0.  0.
          3    1    3    3  502    0  0.32874522721E+02  0.89032623940E+01  0.21479324211E+02  0.40266160655E+02  0.00000000000E+00 0. -1.
         -4    1    3    3    0  502  0.17544122672E+03 -0.10216211999E+03  0.28795795689E+03  0.35233011187E+03  0.00000000000E+00 0.  1.
         13    1    5    5    0    0 -0.86784152483E+01  0.10148387290E+02  0.45967224038E+02  0.47867424639E+02  0.00000000000E+00 0.  1.
        -13    1    5    5    0    0  0.32269731735E+02  0.77377022342E+02  0.24341233137E+04  0.24355666374E+04  0.00000000000E+00 0. -1.
          1    1    6    6  503    0 -0.21162749123E+03  0.27206886019E+02  0.84394721589E+02  0.22945343476E+03  0.00000000000E+00 0. -1.
         -1    1    6    6    0  503 -0.20279574693E+02 -0.21473438053E+02  0.37410434290E+02  0.47664560056E+02  0.00000000000E+00 0.  1.
<mgrwt>
<rscale>  0 0.12109850E+04</rscale>
<asrwt>0</asrwt>
<pdfrwt beam="1">  1        1 0.46649850E+00 0.12109850E+04</pdfrwt>
<pdfrwt beam="2">  1       -2 0.18601183E-01 0.12109850E+04</pdfrwt>
<totfact> 0.12088595E+01</totfact>
</mgrwt>
</event>
<event>
12    5  0.5246737E-008  0.1766415E+04  0.7818608E-02  0.8724367E-01
          1   -1    0    0  501    0  0.00000000000E+00  0.00000000000E+00  0.46996958712E+03  0.46996958712E+03  0.00000000000E+00 0. -1.
         -2   -1    0    0    0  501 -0.00000000000E+00 -0.00000000000E+00 -0.16597990241E+04  0.16597990241E+04  0.00000000000E+00 0.  1.
        -24    2    1    2    0    0 -0.13294405424E+03 -0.63937572435E+03 -0.41139228258E+03  0.77587897055E+03  0.79177827269E+02 0.  0.
        254    2    1    2    0    0  0.13294405424E+03  0.63937572435E+03 -0.77843715442E+03  0.13538896407E+04  0.89474986301E+03 0.  0.
         23    2    4    4    0    0 -0.68051351732E+02  0.23167884791E+03  0.16297339327E+03  0.30450940522E+03  0.88654249263E+02 0.  0.
         23    2    4    4    0    0  0.20099540597E+03  0.40769687644E+03 -0.94141054769E+03  0.10493802355E+04  0.91264248278E+02 0.  0.
          3    1    3    3  502    0 -0.29198667514E+02 -0.27754204966E+03 -0.14299068943E+03  0.31357373738E+03  0.00000000000E+00 0. -1.
         -4    1    3    3    0  502 -0.10374538672E+03 -0.36183367469E+03 -0.26840159315E+03  0.46230523316E+03  0.00000000000E+00 0.  1.
         13    1    5    5    0    0  0.20043173424E+02  0.56256071107E+02  0.25940482181E+02  0.65110544101E+02  0.00000000000E+00 0. -1.
        -13    1    5    5    0    0 -0.88094525156E+02  0.17542277680E+03  0.13703291109E+03  0.23939886112E+03  0.00000000000E+00 0.  1.
          1    1    6    6  503    0  0.26370072691E+02  0.79044883926E+02 -0.25912230266E+03  0.27219081936E+03  0.00000000000E+00 0. -1.
         -1    1    6    6    0  503  0.17462533328E+03  0.32865199252E+03 -0.68228824503E+03  0.77718941611E+03  0.00000000000E+00 0.  1.
<mgrwt>
<rscale>  0 0.17664145E+04</rscale>
<asrwt>0</asrwt>
<pdfrwt beam="1">  1        1 0.72303014E-01 0.17664145E+04</pdfrwt>
<pdfrwt beam="2">  1       -2 0.25535370E+00 0.17664145E+04</pdfrwt>
<totfact> 0.23807295E+00</totfact>
</mgrwt>
</event>
<event>
12    5  0.5246737E-008  0.1179512E+04  0.7818608E-02  0.9130981E-01
         -2   -1    0    0    0  501 -0.00000000000E+00  0.00000000000E+00  0.13972469322E+03  0.13972469322E+03  0.00000000000E+00 0.  1.
          1   -1    0    0  501    0  0.00000000000E+00 -0.00000000000E+00 -0.24892683676E+04  0.24892683676E+04  0.00000000000E+00 0. -1.
        -24    2    1    2    0    0  0.15848145257E+03  0.54899848350E+02 -0.61693411627E+03  0.64444884308E+03  0.81094040312E+02 0.  0.
        254    2    1    2    0    0 -0.15848145257E+03 -0.54899848350E+02 -0.17326095581E+04  0.19845442177E+04  0.95307371548E+03 0.  0.
         23    2    4    4    0    0  0.47891568102E+02 -0.27086451611E+03 -0.16302164582E+04  0.16559766572E+04  0.94825102697E+02 0.  0.
         23    2    4    4    0    0 -0.20637302067E+03  0.21596466776E+03 -0.10239309989E+03  0.32856756055E+03  0.90783993956E+02 0.  0.
          1    1    3    3  502    0  0.11502772031E+03  0.61273587679E+02 -0.54328578324E+03  0.55869962525E+03  0.00000000000E+00 0. -1.
         -2    1    3    3    0  502  0.43453732258E+02 -0.63737393291E+01 -0.73648333031E+02  0.85749217829E+02  0.00000000000E+00 0.  1.
         13    1    5    5    0    0  0.58490563294E+02 -0.98827416325E+02 -0.52614559145E+03  0.53853243878E+03  0.00000000000E+00 0. -1.
        -13    1    5    5    0    0 -0.10598995191E+02 -0.17203709979E+03 -0.11040708667E+04  0.11174442184E+04  0.00000000000E+00 0.  1.
          4    1    6    6  503    0 -0.59156659600E+02  0.77015627554E+02 -0.78217424311E+02  0.12469515920E+03  0.00000000000E+00 0. -1.
         -4    1    6    6    0  503 -0.14721636107E+03  0.13894904021E+03 -0.24175675577E+02  0.20387240135E+03  0.00000000000E+00 0.  1.
<mgrwt>
<rscale>  0 0.11795122E+04</rscale>
<asrwt>0</asrwt>
<pdfrwt beam="1">  1        1 0.38296432E+00 0.11795122E+04</pdfrwt>
<pdfrwt beam="2">  1       -2 0.21496109E-01 0.11795122E+04</pdfrwt>
<totfact> 0.22715627E+01</totfact>
</mgrwt>
</event>
<event>
12    5  0.5246737E-008  0.1458167E+04  0.7818608E-02  0.8912758E-01
          1   -1    0    0  501    0  0.00000000000E+00  0.00000000000E+00  0.64556090102E+03  0.64556090102E+03  0.00000000000E+00 0. -1.
         -2   -1    0    0    0  501 -0.00000000000E+00 -0.00000000000E+00 -0.82341202259E+03  0.82341202259E+03  0.00000000000E+00 0.  1.
        -24    2    1    2    0    0 -0.19950350421E+03  0.34773713626E+03  0.14352533890E+03  0.43323652472E+03  0.79822298367E+02 0.  0.
        254    2    1    2    0    0  0.19950350421E+03 -0.34773713626E+03 -0.32137646047E+03  0.10357363989E+04  0.89930211526E+03 0.  0.
         23    2    4    4    0    0  0.30409097111E+03  0.15355162355E+03 -0.37207115818E+03  0.51241408598E+03  0.89898993060E+02 0.  0.
         23    2    4    4    0    0 -0.10458746690E+03 -0.50128875981E+03  0.50694697708E+02  0.52332231291E+03  0.95222538661E+02 0.  0.
          3    1    3    3  502    0 -0.14735543073E+03  0.30546072424E+03  0.13705904309E+03  0.36579373738E+03  0.00000000000E+00 0. -1.
         -4    1    3    3    0  502 -0.52148073489E+02  0.42276412017E+02  0.64662958113E+01  0.67442787333E+02  0.00000000000E+00 0.  1.
         13    1    5    5    0    0  0.46761736141E+02  0.54140234511E+00 -0.88272207385E+02  0.99894622879E+02  0.00000000000E+00 0.  1.
        -13    1    5    5    0    0  0.25732923497E+03  0.15301022121E+03 -0.28379895079E+03  0.41251946310E+03  0.00000000000E+00 0. -1.
          3    1    6    6  503    0 -0.10531050561E+03 -0.39189951805E+03  0.79622224438E+01  0.40588044031E+03  0.00000000000E+00 0. -1.
         -3    1    6    6    0  503  0.72303870725E+00 -0.10938924176E+03  0.42732475264E+02  0.11744187260E+03  0.00000000000E+00 0.  1.
<mgrwt>
<rscale>  0 0.14581668E+04</rscale>
<asrwt>0</asrwt>
<pdfrwt beam="1">  1        1 0.99317062E-01 0.14581668E+04</pdfrwt>
<pdfrwt beam="2">  1       -2 0.12667877E+00 0.14581668E+04</pdfrwt>
<totfact> 0.12116005E+01</totfact>
</mgrwt>
</event>
<event>
12    5  0.5246737E-008  0.1121783E+04  0.7818608E-02  0.9184217E-01
         -2   -1    0    0    0  501 -0.00000000000E+00  0.00000000000E+00  0.10513466411E+04  0.10513466411E+04  0.00000000000E+00 0.  1.
          1   -1    0    0  501    0  0.00000000000E+00 -0.00000000000E+00 -0.29923435074E+03  0.29923435074E+03  0.00000000000E+00 0. -1.
        -24    2    1    2    0    0 -0.10975332876E+03  0.11009962415E+03  0.28604802286E+03  0.33686836853E+03  0.86539620538E+02 0.  0.
        254    2    1    2    0    0  0.10975332876E+03 -0.11009962415E+03  0.46606426752E+03  0.10137126233E+04  0.88669592354E+03 0.  0.
         23    2    4    4    0    0  0.10955493412E+03  0.23689574702E+03 -0.13915213282E+03  0.31001542514E+03  0.92867481963E+02 0.  0.
         23    2    4    4    0    0  0.19839464189E+00 -0.34699537118E+03  0.60521640034E+03  0.70369719819E+03  0.92179328056E+02 0.  0.
          1    1    3    3  502    0  0.69971526656E+01  0.15961100969E+02  0.47110268582E+01  0.18052995973E+02  0.00000000000E+00 0. -1.
         -2    1    3    3    0  502 -0.11675048143E+03  0.94138523182E+02  0.28133699600E+03  0.31881537256E+03  0.00000000000E+00 0.  1.
         13    1    5    5    0    0  0.11899126955E+03  0.18735642423E+03 -0.89715519917E+02  0.23939554391E+03  0.00000000000E+00 0. -1.
        -13    1    5    5    0    0 -0.94363354300E+01  0.49539322795E+02 -0.49436612905E+02  0.70619881229E+02  0.00000000000E+00 0.  1.
          3    1    6    6  503    0 -0.69452245611E+01 -0.24512411082E+03  0.50095637752E+03  0.55775564365E+03  0.00000000000E+00 0. -1.
         -3    1    6    6    0  503  0.71436192030E+01 -0.10187126036E+03  0.10426002282E+03  0.14594155454E+03  0.00000000000E+00 0.  1.
<mgrwt>
<rscale>  0 0.11217826E+04</rscale>
<asrwt>0</asrwt>
<pdfrwt beam="1">  1        1 0.46036055E-01 0.11217826E+04</pdfrwt>
<pdfrwt beam="2">  1       -2 0.16174563E+00 0.11217826E+04</pdfrwt>
<totfact> 0.18657295E+01</totfact>
</mgrwt>
</event>
<event>
12    5  0.5246737E-008  0.1333790E+04  0.7818608E-02  0.9003190E-01
         -2   -1    0    0    0  501 -0.00000000000E+00  0.00000000000E+00  0.60064272679E+03  0.60064272679E+03  0.00000000000E+00 0.  1.
          1   -1    0    0  501    0  0.00000000000E+00 -0.00000000000E+00 -0.74045496540E+03  0.74045496540E+03  0.00000000000E+00 0. -1.
        -24    2    1    2    0    0  0.33077781306E+02 -0.48566547188E+02 -0.38942778126E+03  0.40162237182E+03  0.78699959404E+02 0.  0.
        254    2    1    2    0    0 -0.33077781306E+02  0.48566547188E+02  0.24961554265E+03  0.93947532036E+03  0.90379926384E+03 0.  0.
         23    2    4    4    0    0 -0.10254795107E+03 -0.22809639659E+03  0.48964643828E+03  0.55557639966E+03  0.79796321580E+02 0.  0.
         23    2    4    4    0    0  0.69470169759E+02  0.27666294378E+03 -0.24003089562E+03  0.38389892070E+03  0.91624568283E+02 0.  0.
          1    1    3    3  502    0  0.86815125948E+01  0.10700286355E+02 -0.22073488201E+03  0.22116453812E+03  0.00000000000E+00 0. -1.
         -2    1    3    3    0  502  0.24396268712E+02 -0.59266833542E+02 -0.16869289925E+03  0.18045783370E+03  0.00000000000E+00 0.  1.
         13    1    5    5    0    0  0.10740146591E+02 -0.34586904442E+02  0.95100167915E+02  0.10176269771E+03  0.00000000000E+00 0. -1.
        -13    1    5    5    0    0 -0.11328809766E+03 -0.19350949215E+03  0.39454627036E+03  0.45381370195E+03  0.00000000000E+00 0.  1.
          1    1    6    6  503    0 -0.10214194169E+02  0.46781929747E+02 -0.96812442964E+01  0.48852893512E+02  0.00000000000E+00 0. -1.
         -1    1    6    6    0  503  0.79684363928E+02  0.22988101404E+03 -0.23034965133E+03  0.33504602719E+03  0.00000000000E+00 0.  1.
<mgrwt>
<rscale>  0 0.13337899E+04</rscale>
<asrwt>0</asrwt>
<pdfrwt beam="1">  1        1 0.11391615E+00 0.13337899E+04</pdfrwt>
<pdfrwt beam="2">  1       -2 0.92406574E-01 0.13337899E+04</pdfrwt>
<totfact> 0.21324386E+01</totfact>
</mgrwt>
</event>
<event>
12    5  0.5246737E-008  0.1480705E+04  0.7818608E-02  0.8897386E-01
         -2   -1    0    0    0  501 -0.00000000000E+00  0.00000000000E+00  0.46079677043E+03  0.46079677043E+03  0.00000000000E+00 0.  1.
          1   -1    0    0  501    0  0.00000000000E+00 -0.00000000000E+00 -0.11895084854E+04  0.11895084854E+04  0.00000000000E+00 0. -1.
        -24    2    1    2    0    0  0.40584379461E+03 -0.34916257406E+02  0.30201028536E+01  0.41926498566E+03  0.99225382458E+02 0.  0.
        254    2    1    2    0    0 -0.40584379461E+03  0.34916257406E+02 -0.73173181788E+03  0.12310402702E+04  0.90227510380E+03 0.  0.
         23    2    4    4    0    0 -0.43033788755E+03 -0.28119397229E+03 -0.11898823775E+03  0.53573434716E+03  0.92694889248E+02 0.  0.
         23    2    4    4    0    0  0.24494092933E+02  0.31611022969E+03 -0.61274358013E+03  0.69530592305E+03  0.86429125536E+02 0.  0.
          1    1    3    3  502    0  0.35415629820E+03 -0.24619338515E+02  0.36412834805E+02  0.35687349288E+03  0.00000000000E+00 0. -1.
         -2    1    3    3    0  502  0.51687496414E+02 -0.10296918891E+02 -0.33392731952E+02  0.62391492780E+02  0.00000000000E+00 0.  1.
         13    1    5    5    0    0 -0.17829848506E+03 -0.64095548769E+02 -0.50917544937E+02  0.19619170606E+03  0.00000000000E+00 0. -1.
        -13    1    5    5    0    0 -0.25203940249E+03 -0.21709842352E+03 -0.68070692813E+02  0.33954264110E+03  0.00000000000E+00 0.  1.
          1    1    6    6  503    0  0.37555217206E+02  0.54306701552E+02 -0.13873311601E+03  0.15364403552E+03  0.00000000000E+00 0. -1.
         -1    1    6    6    0  503 -0.13061124273E+02  0.26180352814E+03 -0.47401046412E+03  0.54166188753E+03  0.00000000000E+00 0.  1.
<mgrwt>
<rscale>  0 0.14807048E+04</rscale>
<asrwt>0</asrwt>
<pdfrwt beam="1">  1        1 0.18300130E+00 0.14807048E+04</pdfrwt>
<pdfrwt beam="2">  1       -2 0.70891812E-01 0.14807048E+04</pdfrwt>
<totfact> 0.16710875E+01</totfact>
</mgrwt>
</event>
<event>
12    5  0.5246737E-008  0.1431515E+04  0.7818608E-02  0.8931317E-01
         -2   -1    0    0    0  501 -0.00000000000E+00  0.00000000000E+00  0.59817239603E+03  0.59817239603E+03  0.00000000000E+00 0.  1.
          1   -1    0    0  501    0  0.00000000000E+00 -0.00000000000E+00 -0.85645629029E+03  0.85645629029E+03  0.00000000000E+00 0. -1.
        -24    2    1    2    0    0  0.14061906130E+03 -0.14457274233E+03  0.31820812549E+03  0.38512365057E+03  0.79930074884E+02 0.  0.
        254    2    1    2    0    0 -0.14061906130E+03  0.14457274233E+03 -0.57649201976E+03  0.10695050358E+04  0.87796524671E+03 0.  0.
         23    2    4    4    0    0 -0.18723874896E+03  0.15911226950E+03  0.17071851739E+03  0.31522644080E+03  0.99236250367E+02 0.  0.
         23    2    4    4    0    0  0.46619687659E+02 -0.14539527169E+02 -0.74721053714E+03  0.75427859495E+03  0.90707325263E+02 0.  0.
          3    1    3    3  502    0  0.42438144640E+02 -0.61623380681E+01  0.36796647978E+02  0.56506316756E+02  0.00000000000E+00 0. -1.
         -4    1    3    3    0  502  0.98180916661E+02 -0.13841040426E+03  0.28141147752E+03  0.32861733381E+03  0.00000000000E+00 0.  1.
         13    1    5    5    0    0 -0.10241808646E+02 -0.92694202946E+01 -0.45699332381E+01  0.14549951434E+02  0.00000000000E+00 0.  1.
        -13    1    5    5    0    0 -0.17699694031E+03  0.16838168979E+03  0.17528845062E+03  0.30067648937E+03  0.00000000000E+00 0. -1.
          1    1    6    6  503    0  0.70564791406E+02 -0.14073213771E+02 -0.65752525288E+03  0.66145060535E+03  0.00000000000E+00 0. -1.
         -1    1    6    6    0  503 -0.23945103746E+02 -0.46631339838E+00 -0.89685284259E+02  0.92827989606E+02  0.00000000000E+00 0.  1.
<mgrwt>
<rscale>  0 0.14315146E+04</rscale>
<asrwt>0</asrwt>
<pdfrwt beam="1">  1        1 0.13176251E+00 0.14315146E+04</pdfrwt>
<pdfrwt beam="2">  1       -2 0.92026522E-01 0.14315146E+04</pdfrwt>
<totfact> 0.16920357E+01</totfact>
</mgrwt>
</event>
<event>
12    5  0.5246737E-008  0.1563593E+04  0.7818608E-02  0.8843231E-01
          1   -1    0    0  501    0  0.00000000000E+00  0.00000000000E+00  0.31597966709E+03  0.31597966709E+03  0.00000000000E+00 0. -1.
         -2   -1    0    0    0  501 -0.00000000000E+00 -0.00000000000E+00 -0.19343208656E+04  0.19343208656E+04  0.00000000000E+00 0.  1.
        -24    2    1    2    0    0  0.45115382578E+03 -0.22072008195E+03 -0.35828317572E+03  0.62211004624E+03  0.79980913564E+02 0.  0.
        254    2    1    2    0    0 -0.45115382578E+03  0.22072008195E+03 -0.12600580228E+04  0.16281904864E+04  0.90055588960E+03 0.  0.
         23    2    4    4    0    0 -0.40270920571E+03 -0.52536303726E+02 -0.95339723923E+02  0.42744596661E+03  0.93196694368E+02 0.  0.
         23    2    4    4    0    0 -0.48444620073E+02  0.27325638568E+03 -0.11647182989E+04  0.12007445198E+04  0.90569049310E+02 0.  0.
          1    1    3    3  502    0  0.33278825793E+03 -0.13722036611E+03 -0.22015199056E+03  0.42195302160E+03  0.00000000000E+00 0. -1.
         -2    1    3    3    0  502  0.11836556786E+03 -0.83499715845E+02 -0.13813118516E+03  0.20015702464E+03  0.00000000000E+00 0.  1.
         13    1    5    5    0    0 -0.75456558694E+02 -0.26461112380E+02  0.14505016027E+02  0.81266710332E+02  0.00000000000E+00 0.  1.
        -13    1    5    5    0    0 -0.32725264702E+03 -0.26075191347E+02 -0.10984473995E+03  0.34617925628E+03  0.00000000000E+00 0. -1.
          2    1    6    6  503    0 -0.74579492251E+02  0.17825629612E+03 -0.79020734166E+03  0.81348942869E+03  0.00000000000E+00 0. -1.
         -2    1    6    6    0  503  0.26134872178E+02  0.95000089558E+02 -0.37451095719E+03  0.38725509115E+03  0.00000000000E+00 0.  1.
<mgrwt>
<rscale>  0 0.15635934E+04</rscale>
<asrwt>0</asrwt>
<pdfrwt beam="1">  1        1 0.48612256E-01 0.15635934E+04</pdfrwt>
<pdfrwt beam="2">  1       -2 0.29758783E+00 0.15635934E+04</pdfrwt>
<totfact> 0.22714945E+00</totfact>
</mgrwt>
</event>
<event>
12    5  0.5246737E-008  0.3606806E+04  0.7818608E-02  0.8088935E-01
         -2   -1    0    0    0  501 -0.00000000000E+00  0.00000000000E+00  0.12120579160E+04  0.12120579160E+04  0.00000000000E+00 0.  1.
          1   -1    0    0  501    0  0.00000000000E+00 -0.00000000000E+00 -0.26832563216E+04  0.26832563216E+04  0.00000000000E+00 0. -1.
        -24    2    1    2    0    0  0.79910473228E+03  0.81336179160E+03 -0.20374927956E+04  0.23362497958E+04  0.80996536481E+02 0.  0.
        254    2    1    2    0    0 -0.79910473228E+03 -0.81336179160E+03  0.56629439007E+03  0.15590644419E+04  0.89992600832E+03 0.  0.
         23    2    4    4    0    0  0.12825793894E+03 -0.23055995494E+03 -0.72272876493E+02  0.28796755894E+03  0.89966408181E+02 0.  0.
         23    2    4    4    0    0 -0.92736267122E+03 -0.58280183666E+03  0.63856726656E+03  0.12710968829E+04  0.90882490394E+02 0.  0.
          1    1    3    3  502    0  0.66015979453E+03  0.64259663653E+03 -0.15926544685E+04  0.18399156632E+04  0.00000000000E+00 0. -1.
         -2    1    3    3    0  502  0.13894493775E+03  0.17076515508E+03 -0.44483832711E+03  0.49633413259E+03  0.00000000000E+00 0.  1.
         13    1    5    5    0    0  0.43987222582E+02 -0.42385221650E+02  0.16821412950E+02  0.63358840729E+02  0.00000000000E+00 0.  1.
        -13    1    5    5    0    0  0.84270716354E+02 -0.18817473329E+03 -0.89094289443E+02  0.22460871821E+03  0.00000000000E+00 0. -1.
          1    1    6    6  503    0 -0.72688705768E+03 -0.44073856900E+03  0.53529843129E+03  0.10045694059E+04  0.00000000000E+00 0. -1.
         -1    1    6    6    0  503 -0.20047561353E+03 -0.14206326767E+03  0.10326883527E+03  0.26652747697E+03  0.00000000000E+00 0.  1.
<mgrwt>
<rscale>  0 0.36068058E+04</rscale>
<asrwt>0</asrwt>
<pdfrwt beam="1">  1        1 0.41280866E+00 0.36068058E+04</pdfrwt>
<pdfrwt beam="2">  1       -2 0.18647045E+00 0.36068058E+04</pdfrwt>
<totfact> 0.11749056E-01</totfact>
</mgrwt>
</event>
<event>
12    5  0.5246737E-008  0.1743087E+04  0.7818608E-02  0.8737165E-01
          1   -1    0    0  501    0  0.00000000000E+00  0.00000000000E+00  0.76376408171E+03  0.76376408171E+03  0.00000000000E+00 0. -1.
         -2   -1    0    0    0  501 -0.00000000000E+00 -0.00000000000E+00 -0.99453203030E+03  0.99453203030E+03  0.00000000000E+00 0.  1.
        -24    2    1    2    0    0 -0.44960267392E+03  0.44634319056E+03 -0.25931255986E+02  0.63914060527E+03  0.80395740612E+02 0.  0.
        254    2    1    2    0    0  0.44960267392E+03 -0.44634319056E+03 -0.20483669260E+03  0.11191555067E+04  0.89954775831E+03 0.  0.
         23    2    4    4    0    0  0.57983854450E+03 -0.61910556664E+03 -0.89903800798E+02  0.85790351139E+03  0.91713145871E+02 0.  0.
         23    2    4    4    0    0 -0.13023587058E+03  0.17276237608E+03 -0.11493289180E+03  0.26125199535E+03  0.90745880785E+02 0.  0.
          3    1    3    3  502    0 -0.40228864883E+03  0.42915455754E+03 -0.26016454252E+02  0.58880102507E+03  0.00000000000E+00 0. -1.
         -4    1    3    3    0  502 -0.47314025093E+02  0.17188633020E+02  0.85198265687E-01  0.50339580196E+02  0.00000000000E+00 0.  1.
         13    1    5    5    0    0  0.38003666863E+03 -0.38341370811E+03 -0.98695633292E+02  0.54879392225E+03  0.00000000000E+00 0. -1.
        -13    1    5    5    0    0  0.19980187587E+03 -0.23569185853E+03  0.87918324936E+01  0.30910958914E+03  0.00000000000E+00 0.  1.
          1    1    6    6  503    0 -0.12806508935E+03  0.10183998802E+03 -0.82241089295E+02  0.18312740658E+03  0.00000000000E+00 0. -1.
         -1    1    6    6    0  503 -0.21707812279E+01  0.70922388062E+02 -0.32691802507E+02  0.78124588772E+02  0.00000000000E+00 0.  1.
<mgrwt>
<rscale>  0 0.17430867E+04</rscale>
<asrwt>0</asrwt>
<pdfrwt beam="1">  1        1 0.11750217E+00 0.17430867E+04</pdfrwt>
<pdfrwt beam="2">  1       -2 0.15300493E+00 0.17430867E+04</pdfrwt>
<totfact> 0.56158404E+00</totfact>
</mgrwt>
</event>
<event>
12    5  0.5246737E-008  0.1683188E+04  0.7818608E-02  0.8771011E-01
         -2   -1    0    0    0  501 -0.00000000000E+00  0.00000000000E+00  0.63451206018E+03  0.63451206018E+03  0.00000000000E+00 0.  1.
          1   -1    0    0  501    0  0.00000000000E+00 -0.00000000000E+00 -0.11162598973E+04  0.11162598973E+04  0.00000000000E+00 0. -1.
        -24    2    1    2    0    0 -0.30328213169E+03  0.34702456038E+03  0.22501564042E+03  0.51868522068E+03  0.77435281390E+02 0.  0.
        254    2    1    2    0    0  0.30328213169E+03 -0.34702456038E+03 -0.70676347755E+03  0.12320867368E+04  0.89784019564E+03 0.  0.
         23    2    4    4    0    0  0.26791185625E+03  0.17268549684E+03 -0.61063404614E+03  0.69460618792E+03  0.89480581420E+02 0.  0.
         23    2    4    4    0    0  0.35370275439E+02 -0.51971005722E+03 -0.96129431418E+02  0.53748054889E+03  0.91076192797E+02 0.  0.
          3    1    3    3  502    0 -0.17111449203E+02  0.53666653493E+02  0.15542066846E+02  0.58433442760E+02  0.00000000000E+00 0. -1.
         -4    1    3    3    0  502 -0.28617068249E+03  0.29335790689E+03  0.20947357358E+03  0.46025177792E+03  0.00000000000E+00 0.  1.
         13    1    5    5    0    0  0.15416984496E+03  0.47692962175E+02 -0.32068043605E+03  0.35899707771E+03  0.00000000000E+00 0. -1.
        -13    1    5    5    0    0  0.11374201130E+03  0.12499253466E+03 -0.28995361008E+03  0.33560911021E+03  0.00000000000E+00 0.  1.
          3    1    6    6  503    0  0.17985225441E+02 -0.89177364254E+02  0.15709294681E+02  0.92319296839E+02  0.00000000000E+00 0. -1.
         -3    1    6    6    0  503  0.17385049998E+02 -0.43053269296E+03 -0.11183872610E+03  0.44516125205E+03  0.00000000000E+00 0.  1.
<mgrwt>
<rscale>  0 0.16831879E+04</rscale>
<asrwt>0</asrwt>
<pdfrwt beam="1">  1        1 0.17173229E+00 0.16831879E+04</pdfrwt>
<pdfrwt beam="2">  1       -2 0.97617241E-01 0.16831879E+04</pdfrwt>
<totfact> 0.90076175E+00</totfact>
</mgrwt>
</event>
<event>
12    5  0.5246737E-008  0.2961464E+04  0.7818608E-02  0.8254821E-01
         -2   -1    0    0    0  501 -0.00000000000E+00  0.00000000000E+00  0.16648292735E+04  0.16648292735E+04  0.00000000000E+00 0.  1.
          1   -1    0    0  501    0  0.00000000000E+00 -0.00000000000E+00 -0.13169926647E+04  0.13169926647E+04  0.00000000000E+00 0. -1.
        -24    2    1    2    0    0  0.69890333525E+02  0.26094720949E+03 -0.11662780363E+04  0.11998516870E+04  0.80383505100E+02 0.  0.
        254    2    1    2    0    0 -0.69890333525E+02 -0.26094720949E+03  0.15141146451E+04  0.17819702512E+04  0.89994261649E+03 0.  0.
         23    2    4    4    0    0  0.65194388376E+02 -0.87851743672E+02 -0.84526166143E+02  0.16579260005E+03  0.91511072150E+02 0.  0.
         23    2    4    4    0    0 -0.13508472190E+03 -0.17309546581E+03  0.15986408112E+04  0.16161776512E+04  0.90376072641E+02 0.  0.
          3    1    3    3  502    0  0.82841395500E+02  0.20062221211E+03 -0.82701534339E+03  0.85502417919E+03  0.00000000000E+00 0. -1.
         -4    1    3    3    0  502 -0.12951061975E+02  0.60324997382E+02 -0.33926269294E+03  0.34482750780E+03  0.00000000000E+00 0.  1.
         13    1    5    5    0    0  0.30664018945E+02  0.14118948069E+02 -0.11334065489E+02  0.35610220344E+02  0.00000000000E+00 0. -1.
        -13    1    5    5    0    0  0.34530369430E+02 -0.10197069174E+03 -0.73192100655E+02  0.13018237970E+03  0.00000000000E+00 0.  1.
          3    1    6    6  503    0 -0.27218038572E+02 -0.10757436267E+03  0.70971505424E+03  0.71833733256E+03  0.00000000000E+00 0. -1.
         -3    1    6    6    0  503 -0.10786668333E+03 -0.65521103144E+02  0.88892575699E+03  0.89784031863E+03  0.00000000000E+00 0.  1.
<mgrwt>
<rscale>  0 0.29614645E+04</rscale>
<asrwt>0</asrwt>
<pdfrwt beam="1">  1        1 0.20261425E+00 0.29614645E+04</pdfrwt>
<pdfrwt beam="2">  1       -2 0.25612758E+00 0.29614645E+04</pdfrwt>
<totfact> 0.38854953E-01</totfact>
</mgrwt>
</event>
<event>
12    5  0.5246737E-008  0.1632563E+04  0.7818608E-02  0.8800790E-01
          1   -1    0    0  501    0  0.00000000000E+00  0.00000000000E+00  0.36290120108E+03  0.36290120108E+03  0.00000000000E+00 0. -1.
         -2   -1    0    0    0  501 -0.00000000000E+00 -0.00000000000E+00 -0.18360784653E+04  0.18360784653E+04  0.00000000000E+00 0.  1.
        -24    2    1    2    0    0  0.21992291937E+03  0.24710003187E+03 -0.11305994469E+04  0.11806339458E+04  0.78847248535E+02 0.  0.
        254    2    1    2    0    0 -0.21992291937E+03 -0.24710003187E+03 -0.34257781740E+03  0.10183457206E+04  0.90013550615E+03 0.  0.
         23    2    4    4    0    0  0.70927500608E+02  0.12203059163E+03 -0.48883174508E+03  0.51730741897E+03  0.93425452018E+02 0.  0.
         23    2    4    4    0    0 -0.29085041998E+03 -0.36913062350E+03  0.14625392768E+03  0.50103830161E+03  0.93796504782E+02 0.  0.
          1    1    3    3  502    0  0.52872415067E+02  0.99171475354E+02 -0.29274284169E+03  0.31357430564E+03  0.00000000000E+00 0. -1.
         -2    1    3    3    0  502  0.16705050431E+03  0.14792855651E+03 -0.83785660517E+03  0.86705964019E+03  0.00000000000E+00 0.  1.
         13    1    5    5    0    0 -0.45143472524E+01  0.83361901768E+02 -0.21440787468E+03  0.23008764139E+03  0.00000000000E+00 0.  1.
        -13    1    5    5    0    0  0.75441847860E+02  0.38668689867E+02 -0.27442387041E+03  0.28721977758E+03  0.00000000000E+00 0. -1.
          3    1    6    6  503    0 -0.62164595527E+02 -0.10287655095E+03  0.78538027193E+02  0.14358357632E+03  0.00000000000E+00 0.  1.
         -3    1    6    6    0  503 -0.22868582446E+03 -0.26625407255E+03  0.67715900486E+02  0.35745472529E+03  0.00000000000E+00 0. -1.
<mgrwt>
<rscale>  0 0.16325625E+04</rscale>
<asrwt>0</asrwt>
<pdfrwt beam="1">  1        1 0.55830956E-01 0.16325625E+04</pdfrwt>
<pdfrwt beam="2">  1       -2 0.28247360E+00 0.16325625E+04</pdfrwt>
<totfact> 0.23268956E+00</totfact>
</mgrwt>
</event>
<event>
12    5  0.5246737E-008  0.2307589E+04  0.7818608E-02  0.8474935E-01
          1   -1    0    0  501    0  0.00000000000E+00  0.00000000000E+00  0.20233160180E+04  0.20233160180E+04  0.00000000000E+00 0. -1.
         -2   -1    0    0    0  501 -0.00000000000E+00 -0.00000000000E+00 -0.65795034433E+03  0.65795034433E+03  0.00000000000E+00 0.  1.
        -24    2    1    2    0    0 -0.88989040818E+03  0.36419733583E+03  0.38494034072E+03  0.10387553297E+04  0.79302781109E+02 0.  0.
        254    2    1    2    0    0  0.88989040818E+03 -0.36419733583E+03  0.98042533292E+03  0.16425110326E+04  0.90114594865E+03 0.  0.
         23    2    4    4    0    0  0.48511410268E+03 -0.63430849385E+03  0.73967585810E+03  0.10922375876E+04  0.90441221827E+02 0.  0.
         23    2    4    4    0    0  0.40477630550E+03  0.27011115802E+03  0.24074947482E+03  0.55027344505E+03  0.89647417774E+02 0.  0.
          3    1    3    3  502    0 -0.60218230428E+03  0.23840697760E+03  0.21956923642E+03  0.68386553074E+03  0.00000000000E+00 0. -1.
         -4    1    3    3    0  502 -0.28770810390E+03  0.12579035823E+03  0.16537110431E+03  0.35488979897E+03  0.00000000000E+00 0.  1.
         13    1    5    5    0    0  0.47101719926E+03 -0.63299795638E+03  0.73123433034E+03  0.10757542752E+04  0.00000000000E+00 0.  1.
        -13    1    5    5    0    0  0.14096903419E+02 -0.13105374730E+01  0.84415277566E+01  0.16483312329E+02  0.00000000000E+00 0. -1.
          3    1    6    6  503    0  0.58263726469E+02  0.58121056293E+02  0.94884772913E+01  0.82841717800E+02  0.00000000000E+00 0. -1.
         -3    1    6    6    0  503  0.34651257903E+03  0.21199010173E+03  0.23126099753E+03  0.46743172725E+03  0.00000000000E+00 0.  1.
<mgrwt>
<rscale>  0 0.23075888E+04</rscale>
<asrwt>0</asrwt>
<pdfrwt beam="1">  1        1 0.31127939E+00 0.23075888E+04</pdfrwt>
<pdfrwt beam="2">  1       -2 0.10122313E+00 0.23075888E+04</pdfrwt>
<totfact> 0.18297105E+00</totfact>
</mgrwt>
</event>
<event>
12    5  0.5246737E-008  0.1677326E+04  0.7818608E-02  0.8774403E-01
          1   -1    0    0  501    0  0.00000000000E+00  0.00000000000E+00  0.30813748372E+04  0.30813748372E+04  0.00000000000E+00 0. -1.
         -2   -1    0    0    0  501 -0.00000000000E+00 -0.00000000000E+00 -0.22826043668E+03  0.22826043668E+03  0.00000000000E+00 0.  1.
        -24    2    1    2    0    0  0.21649251844E+03  0.12748113204E+03 -0.41428449322E+02  0.26673602291E+03  0.79443942102E+02 0.  0.
        254    2    1    2    0    0 -0.21649251844E+03 -0.12748113204E+03  0.28945428498E+04  0.30428992510E+04  0.90428816892E+03 0.  0.
         23    2    4    4    0    0 -0.42501543005E+03  0.18932203138E+03  0.97601309356E+03  0.10850918396E+04  0.91333423777E+02 0.  0.
         23    2    4    4    0    0  0.20852291161E+03 -0.31680316342E+03  0.19185297563E+04  0.19578074113E+04  0.91691794268E+02 0.  0.
          3    1    3    3  502    0  0.10200350980E+03  0.72391993951E+02  0.18178379406E+02  0.12639529373E+03  0.00000000000E+00 0. -1.
         -4    1    3    3    0  502  0.11448900864E+03  0.55089138093E+02 -0.59606828728E+02  0.14034072918E+03  0.00000000000E+00 0.  1.
         13    1    5    5    0    0 -0.31506058258E+03  0.94855901578E+02  0.66428288982E+03  0.74130464080E+03  0.00000000000E+00 0. -1.
        -13    1    5    5    0    0 -0.10995484747E+03  0.94466129803E+02  0.31173020374E+03  0.34378719884E+03  0.00000000000E+00 0.  1.
          2    1    6    6  503    0  0.17436533812E+03 -0.20799002466E+03  0.14806058805E+04  0.15052763517E+04  0.00000000000E+00 0. -1.
         -2    1    6    6    0  503  0.34157573485E+02 -0.10881313877E+03  0.43792387576E+03  0.45253105966E+03  0.00000000000E+00 0.  1.
<mgrwt>
<rscale>  0 0.16773264E+04</rscale>
<asrwt>0</asrwt>
<pdfrwt beam="1">  1        1 0.47405764E+00 0.16773264E+04</pdfrwt>
<pdfrwt beam="2">  1       -2 0.35116992E-01 0.16773264E+04</pdfrwt>
<totfact> 0.33361843E+00</totfact>
</mgrwt>
</event>
<event>
12    5  0.5246737E-008  0.1413949E+04  0.7818608E-02  0.8943783E-01
         -2   -1    0    0    0  501 -0.00000000000E+00  0.00000000000E+00  0.22606833099E+03  0.22606833099E+03  0.00000000000E+00 0.  1.
          1   -1    0    0  501    0  0.00000000000E+00 -0.00000000000E+00 -0.22108947760E+04  0.22108947760E+04  0.00000000000E+00 0. -1.
        -24    2    1    2    0    0 -0.26004406012E+03 -0.10593085725E+02 -0.11575135333E+04  0.11891417979E+04  0.80532658396E+02 0.  0.
        254    2    1    2    0    0  0.26004406012E+03  0.10593085725E+02 -0.82731291164E+03  0.12478213090E+04  0.89714895018E+03 0.  0.
         23    2    4    4    0    0  0.45800705757E+03  0.29409241835E+03 -0.35660048889E+03  0.65696468914E+03  0.90431624874E+02 0.  0.
         23    2    4    4    0    0 -0.19796299745E+03 -0.28349933263E+03 -0.47071242275E+03  0.59085661988E+03  0.89331631403E+02 0.  0.
          1    1    3    3  502    0 -0.19357311977E+03 -0.27041077961E+02 -0.97050606028E+03  0.98999181089E+03  0.00000000000E+00 0. -1.
         -2    1    3    3    0  502 -0.66470940352E+02  0.16447992236E+02 -0.18700747306E+03  0.19914998705E+03  0.00000000000E+00 0.  1.
         13    1    5    5    0    0  0.36027432868E+03  0.21079460365E+03 -0.31161417635E+03  0.52089860024E+03  0.00000000000E+00 0.  1.
        -13    1    5    5    0    0  0.97732728892E+02  0.83297814701E+02 -0.44986312544E+02  0.13606608889E+03  0.00000000000E+00 0. -1.
          1    1    6    6  503    0 -0.39681935540E+02 -0.29903216267E+02 -0.12090204205E+03  0.13071404716E+03  0.00000000000E+00 0. -1.
         -1    1    6    6    0  503 -0.15828106191E+03 -0.25359611636E+03 -0.34981038070E+03  0.46014257273E+03  0.00000000000E+00 0.  1.
<mgrwt>
<rscale>  0 0.14139495E+04</rscale>
<asrwt>0</asrwt>
<pdfrwt beam="1">  1        1 0.34013767E+00 0.14139495E+04</pdfrwt>
<pdfrwt beam="2">  1       -2 0.34779742E-01 0.14139495E+04</pdfrwt>
<totfact> 0.14224591E+01</totfact>
</mgrwt>
</event>
<event>
12    5  0.5246737E-008  0.1347709E+04  0.7818608E-02  0.8992564E-01
          1   -1    0    0  501    0  0.00000000000E+00  0.00000000000E+00  0.14455113637E+04  0.14455113637E+04  0.00000000000E+00 0. -1.
         -4   -1    0    0    0  501 -0.00000000000E+00 -0.00000000000E+00 -0.31413084183E+03  0.31413084183E+03  0.00000000000E+00 0.  1.
        -24    2    1    2    0    0 -0.23424568890E+03  0.29581786630E+03  0.31792255180E+03  0.50035011799E+03  0.83043595990E+02 0.  0.
        254    2    1    2    0    0  0.23424568890E+03 -0.29581786630E+03  0.81345797007E+03  0.12592920875E+04  0.88415125396E+03 0.  0.
         23    2    4    4    0    0 -0.17303541300E+02  0.26641407167E+03  0.46921645271E+03  0.54763141932E+03  0.91979464073E+02 0.  0.
         23    2    4    4    0    0  0.25154923020E+03 -0.56223193796E+03  0.34424151737E+03  0.71166066822E+03  0.92611646871E+02 0.  0.
          3    1    3    3  502    0 -0.93021122142E+02  0.16347535079E+03  0.19576997599E+03  0.27148296996E+03  0.00000000000E+00 0. -1.
         -4    1    3    3    0  502 -0.14122456676E+03  0.13234251551E+03  0.12215257581E+03  0.22886714803E+03  0.00000000000E+00 0.  1.
         13    1    5    5    0    0  0.10602697493E+02  0.21855945717E+03  0.31315688887E+03  0.38203126909E+03  0.00000000000E+00 0. -1.
        -13    1    5    5    0    0 -0.27906238793E+02  0.47854614494E+02  0.15605956383E+03  0.16560015023E+03  0.00000000000E+00 0.  1.
          3    1    6    6  503    0  0.95158176303E+02 -0.23657899384E+03  0.19399337937E+03  0.32040307440E+03  0.00000000000E+00 0. -1.
         -3    1    6    6    0  503  0.15639105390E+03 -0.32565294412E+03  0.15024813800E+03  0.39125759383E+03  0.00000000000E+00 0.  1.
<mgrwt>
<rscale>  0 0.13477087E+04</rscale>
<asrwt>0</asrwt>
<pdfrwt beam="1">  1        1 0.22238636E+00 0.13477087E+04</pdfrwt>
<pdfrwt beam="2">  1       -4 0.48327823E-01 0.13477087E+04</pdfrwt>
<totfact> 0.14223792E+01</totfact>
</mgrwt>
</event>
<event>
12    5  0.5246737E-008  0.1349439E+04  0.7818608E-02  0.8991253E-01
         -2   -1    0    0    0  501 -0.00000000000E+00  0.00000000000E+00  0.23215693918E+03  0.23215693918E+03  0.00000000000E+00 0.  1.
          1   -1    0    0  501    0  0.00000000000E+00 -0.00000000000E+00 -0.19609437102E+04  0.19609437102E+04  0.00000000000E+00 0. -1.
        -24    2    1    2    0    0  0.24636354339E+03 -0.67627545103E+02 -0.59639698488E+02  0.27613139441E+03  0.86157837563E+02 0.  0.
        254    2    1    2    0    0 -0.24636354339E+03  0.67627545103E+02 -0.16691470725E+04  0.19169692549E+04  0.90744184078E+03 0.  0.
         23    2    4    4    0    0 -0.17141304320E+03 -0.29188132795E+03 -0.14215835369E+04  0.14640629373E+04  0.89461674773E+02 0.  0.
         23    2    4    4    0    0 -0.74950500190E+02  0.35950887305E+03 -0.24756353564E+03  0.45290631760E+03  0.94721808796E+02 0.  0.
          3    1    3    3  502    0  0.77309447777E+01  0.93005291735E+01 -0.18426450548E+02  0.22040903562E+02  0.00000000000E+00 0. -1.
         -4    1    3    3    0  502  0.23863259861E+03 -0.76928074277E+02 -0.41213247940E+02  0.25409049084E+03  0.00000000000E+00 0.  1.
         13    1    5    5    0    0 -0.74307245344E+02 -0.17136020930E+03 -0.93441838130E+03  0.95290272292E+03  0.00000000000E+00 0.  1.
        -13    1    5    5    0    0 -0.97105797853E+02 -0.12052111865E+03 -0.48716515556E+03  0.51116021443E+03  0.00000000000E+00 0. -1.
          3    1    6    6  503    0  0.18799650900E+02  0.30187904197E+02 -0.34940369938E+02  0.49855449905E+02  0.00000000000E+00 0. -1.
         -3    1    6    6    0  503 -0.93750151091E+02  0.32932096885E+03 -0.21262316570E+03  0.40305086769E+03  0.00000000000E+00 0.  1.
<mgrwt>
<rscale>  0 0.13494394E+04</rscale>
<asrwt>0</asrwt>
<pdfrwt beam="1">  1        1 0.30168365E+00 0.13494394E+04</pdfrwt>
<pdfrwt beam="2">  1       -2 0.35716452E-01 0.13494394E+04</pdfrwt>
<totfact> 0.20075397E+01</totfact>
</mgrwt>
</event>
<event>
12    5  0.5246737E-008  0.3120415E+04  0.7818608E-02  0.8210157E-01
         -2   -1    0    0    0  501 -0.00000000000E+00  0.00000000000E+00  0.19876978923E+04  0.19876978923E+04  0.00000000000E+00 0.  1.
          1   -1    0    0  501    0  0.00000000000E+00 -0.00000000000E+00 -0.12246566402E+04  0.12246566402E+04  0.00000000000E+00 0. -1.
        -24    2    1    2    0    0 -0.10170416517E+04  0.48348627250E+03  0.12548142754E+04  0.16879110778E+04  0.79700964865E+02 0.  0.
        254    2    1    2    0    0  0.10170416517E+04 -0.48348627250E+03 -0.49177302328E+03  0.15244434547E+04  0.90219423810E+03 0.  0.
         23    2    4    4    0    0  0.75288994995E+03 -0.70211630686E+03 -0.53998428785E+03  0.11661484135E+04  0.92241564159E+02 0.  0.
         23    2    4    4    0    0  0.26415170176E+03  0.21863003436E+03  0.48211264569E+02  0.35829504121E+03  0.92064092090E+02 0.  0.
          1    1    3    3  502    0 -0.16942183679E+03  0.56977223581E+02  0.17021542234E+03  0.24682676676E+03  0.00000000000E+00 0. -1.
         -2    1    3    3    0  502 -0.84761981492E+03  0.42650904892E+03  0.10845988530E+04  0.14410843110E+04  0.00000000000E+00 0.  1.
         13    1    5    5    0    0 -0.88781403609E+00 -0.33076149836E+01  0.21772659200E+01  0.40582037318E+01  0.00000000000E+00 0. -1.
        -13    1    5    5    0    0  0.75377776399E+03 -0.69880869188E+03 -0.54216155377E+03  0.11620902098E+04  0.00000000000E+00 0.  1.
          2    1    6    6  503    0  0.53683536639E+02  0.19591083022E+02 -0.20265393639E+02  0.60633479361E+02  0.00000000000E+00 0. -1.
         -2    1    6    6    0  503  0.21046816512E+03  0.19903895134E+03  0.68476658208E+02  0.29766156185E+03  0.00000000000E+00 0.  1.
<mgrwt>
<rscale>  0 0.31204150E+04</rscale>
<asrwt>0</asrwt>
<pdfrwt beam="1">  1        1 0.18840871E+00 0.31204150E+04</pdfrwt>
<pdfrwt beam="2">  1       -2 0.30579968E+00 0.31204150E+04</pdfrwt>
<totfact> 0.22197434E-01</totfact>
</mgrwt>
</event>
<event>
12    5  0.5246737E-008  0.1296613E+04  0.7818608E-02  0.9032256E-01
          1   -1    0    0  501    0  0.00000000000E+00  0.00000000000E+00  0.15594223900E+04  0.15594223900E+04  0.00000000000E+00 0. -1.
         -2   -1    0    0    0  501 -0.00000000000E+00 -0.00000000000E+00 -0.26952356425E+03  0.26952356425E+03  0.00000000000E+00 0.  1.
        -24    2    1    2    0    0 -0.54855565165E+01 -0.31875587260E+03  0.22466759338E+03  0.40000512600E+03  0.88843546004E+02 0.  0.
        254    2    1    2    0    0  0.54855565165E+01  0.31875587260E+03  0.10652312323E+04  0.14289408282E+04  0.89750705541E+03 0.  0.
         23    2    4    4    0    0 -0.32879987298E+02  0.20593342466E+03  0.12038910629E+04  0.12252266925E+04  0.91307654117E+02 0.  0.
         23    2    4    4    0    0  0.38365543814E+02  0.11282244794E+03 -0.13865983056E+03  0.20371413572E+03  0.89844759267E+02 0.  0.
          1    1    3    3  502    0 -0.15064401585E+02 -0.24797973329E+03  0.12701863633E+03  0.27902440448E+03  0.00000000000E+00 0. -1.
         -4    1    3    3    0  502  0.95788450680E+01 -0.70776139307E+02  0.97648957047E+02  0.12098072152E+03  0.00000000000E+00 0.  1.
         13    1    5    5    0    0 -0.40042161990E+02  0.51382585044E+02  0.51933380531E+03  0.52340342579E+03  0.00000000000E+00 0. -1.
        -13    1    5    5    0    0  0.71621746918E+01  0.15455083961E+03  0.68455725758E+03  0.70182326670E+03  0.00000000000E+00 0.  1.
          4    1    6    6  503    0  0.94768856485E+01  0.71342160457E+01  0.12362880998E+02  0.17133278342E+02  0.00000000000E+00 0. -1.
         -4    1    6    6    0  503  0.28888658166E+02  0.10568823190E+03 -0.15102271156E+03  0.18658085738E+03  0.00000000000E+00 0.  1.
<mgrwt>
<rscale>  0 0.12966126E+04</rscale>
<asrwt>0</asrwt>
<pdfrwt beam="1">  1        1 0.23991113E+00 0.12966126E+04</pdfrwt>
<pdfrwt beam="2">  1       -2 0.41465165E-01 0.12966126E+04</pdfrwt>
<totfact> 0.28278893E+01</totfact>
</mgrwt>
</event>
<event>
12    5  0.5246737E-008  0.1265824E+04  0.7818608E-02  0.9057115E-01
         -2   -1    0    0    0  501 -0.00000000000E+00  0.00000000000E+00  0.14708476265E+03  0.14708476265E+03  0.00000000000E+00 0.  1.
          1   -1    0    0  501    0  0.00000000000E+00 -0.00000000000E+00 -0.27234482183E+04  0.27234482183E+04  0.00000000000E+00 0. -1.
        -24    2    1    2    0    0 -0.12665774933E+03  0.93005069273E+02 -0.12324958616E+04  0.12452802833E+04  0.83575156646E+02 0.  0.
        254    2    1    2    0    0  0.12665774933E+03 -0.93005069273E+02 -0.13438675941E+04  0.16252526977E+04  0.90042994865E+03 0.  0.
         23    2    4    4    0    0 -0.86973681986E+02 -0.45470709365E+03 -0.83486184659E+03  0.95869335258E+03  0.88179810701E+02 0.  0.
         23    2    4    4    0    0  0.21363143132E+03  0.36170202437E+03 -0.50900574750E+03  0.66655934508E+03  0.93529496108E+02 0.  0.
          1    1    3    3  502    0 -0.11414379638E+03  0.46037139201E+02 -0.71590303594E+03  0.72640579658E+03  0.00000000000E+00 0. -1.
         -2    1    3    3    0  502 -0.12513952948E+02  0.46967930072E+02 -0.51659282564E+03  0.51887448673E+03  0.00000000000E+00 0.  1.
         13    1    5    5    0    0 -0.34402550418E+02 -0.32284386240E+03 -0.63956166432E+03  0.71725226903E+03  0.00000000000E+00 0. -1.
        -13    1    5    5    0    0 -0.52571131567E+02 -0.13186323125E+03 -0.19530018227E+03  0.24144108355E+03  0.00000000000E+00 0.  1.
          1    1    6    6  503    0  0.40585762588E+02  0.15582013814E+03 -0.20464764638E+03  0.26039926794E+03  0.00000000000E+00 0. -1.
         -1    1    6    6    0  503  0.17304566873E+03  0.20588188624E+03 -0.30435810112E+03  0.40616007714E+03  0.00000000000E+00 0.  1.
<mgrwt>
<rscale>  0 0.12658242E+04</rscale>
<asrwt>0</asrwt>
<pdfrwt beam="1">  1        1 0.41899201E+00 0.12658242E+04</pdfrwt>
<pdfrwt beam="2">  1       -2 0.22628426E-01 0.12658242E+04</pdfrwt>
<totfact> 0.14131890E+01</totfact>
</mgrwt>
</event>
<event>
12    5  0.5246737E-008  0.1164262E+04  0.7818608E-02  0.9144726E-01
          1   -1    0    0  501    0  0.00000000000E+00  0.00000000000E+00  0.15087820875E+04  0.15087820875E+04  0.00000000000E+00 0. -1.
         -2   -1    0    0    0  501 -0.00000000000E+00 -0.00000000000E+00 -0.22460279402E+03  0.22460279402E+03  0.00000000000E+00 0.  1.
        -24    2    1    2    0    0 -0.17188034998E+02  0.89056710952E+02  0.56587273844E+03  0.57861435835E+03  0.79725110686E+02 0.  0.
        254    2    1    2    0    0  0.17188034998E+02 -0.89056710952E+02  0.71830655507E+03  0.11547705232E+04  0.89961332130E+03 0.  0.
         23    2    4    4    0    0 -0.12933569807E+03  0.36520080462E+03  0.20703170996E+03  0.44909930330E+03  0.93427537743E+02 0.  0.
         23    2    4    4    0    0  0.14652373307E+03 -0.45425751557E+03  0.51127484511E+03  0.70567121989E+03  0.93545756353E+02 0.  0.
          3    1    3    3  502    0  0.20937739076E+02  0.52097128636E+02  0.41263247928E+03  0.41643494412E+03  0.00000000000E+00 0. -1.
         -4    1    3    3    0  502 -0.38125774074E+02  0.36959582316E+02  0.15324025916E+03  0.16217941423E+03  0.00000000000E+00 0.  1.
         13    1    5    5    0    0 -0.92616407333E+02  0.32459941406E+03  0.20370241023E+03  0.39425531125E+03  0.00000000000E+00 0. -1.
        -13    1    5    5    0    0 -0.36719290735E+02  0.40601390555E+02  0.33292997277E+01  0.54843992048E+02  0.00000000000E+00 0.  1.
          4    1    6    6  503    0  0.85338244264E+02 -0.23553990139E+03  0.20118193159E+03  0.32130333126E+03  0.00000000000E+00 0.  1.
         -4    1    6    6    0  503  0.61185488802E+02 -0.21871761418E+03  0.31009291352E+03  0.38436788863E+03  0.00000000000E+00 0. -1.
<mgrwt>
<rscale>  0 0.11642623E+04</rscale>
<asrwt>0</asrwt>
<pdfrwt beam="1">  1        1 0.23212032E+00 0.11642623E+04</pdfrwt>
<pdfrwt beam="2">  1       -2 0.34554277E-01 0.11642623E+04</pdfrwt>
<totfact> 0.44087826E+01</totfact>
</mgrwt>
</event>
<event>
12    5  0.5246737E-008  0.2328439E+04  0.7818608E-02  0.8466792E-01
         -2   -1    0    0    0  501 -0.00000000000E+00  0.00000000000E+00  0.79752681448E+03  0.79752681448E+03  0.00000000000E+00 0.  1.
          1   -1    0    0  501    0  0.00000000000E+00 -0.00000000000E+00 -0.16995135355E+04  0.16995135355E+04  0.00000000000E+00 0. -1.
        -24    2    1    2    0    0 -0.71430961657E+03 -0.18403136767E+03  0.31456936777E+03  0.80589159382E+03  0.80010007121E+02 0.  0.
        254    2    1    2    0    0  0.71430961657E+03  0.18403136767E+03 -0.12165560888E+04  0.16911487561E+04  0.91425905827E+03 0.  0.
         23    2    4    4    0    0  0.37919989708E+03  0.44965310728E+03 -0.10781833649E+04  0.12324645234E+04  0.10251319043E+03 0.  0.
         23    2    4    4    0    0  0.33510971949E+03 -0.26562173961E+03 -0.13837272381E+03  0.45868423270E+03  0.91601211720E+02 0.  0.
          1    1    3    3  502    0 -0.32824875173E+03 -0.82438210326E+02  0.10123097975E+03  0.35325771441E+03  0.00000000000E+00 0. -1.
         -2    1    3    3    0  502 -0.38606086484E+03 -0.10159315734E+03  0.21333838802E+03  0.45263387940E+03  0.00000000000E+00 0.  1.
         13    1    5    5    0    0  0.16376088362E+03  0.26057487225E+03 -0.61617019471E+03  0.68875438286E+03  0.00000000000E+00 0. -1.
        -13    1    5    5    0    0  0.21543901346E+03  0.18907823502E+03 -0.46201317023E+03  0.54371014056E+03  0.00000000000E+00 0.  1.
          2    1    6    6  503    0  0.31200583829E+03 -0.22369316672E+03 -0.98404176129E+02  0.39632014564E+03  0.00000000000E+00 0. -1.
         -2    1    6    6    0  503  0.23103881197E+02 -0.41928572890E+02 -0.39968547681E+02  0.62364087059E+02  0.00000000000E+00 0.  1.
<mgrwt>
<rscale>  0 0.23284395E+04</rscale>
<asrwt>0</asrwt>
<pdfrwt beam="1">  1        1 0.26146362E+00 0.23284395E+04</pdfrwt>
<pdfrwt beam="2">  1       -2 0.12269643E+00 0.23284395E+04</pdfrwt>
<totfact> 0.18975309E+00</totfact>
</mgrwt>
</event>
<event>
12    5  0.5246737E-008  0.1611057E+04  0.7818608E-02  0.8813784E-01
          1   -1    0    0  501    0  0.00000000000E+00  0.00000000000E+00  0.12295566661E+04  0.12295566661E+04  0.00000000000E+00 0. -1.
         -2   -1    0    0    0  501 -0.00000000000E+00 -0.00000000000E+00 -0.52773188126E+03  0.52773188126E+03  0.00000000000E+00 0.  1.
        -24    2    1    2    0    0  0.20986761546E+03  0.41984274219E+03  0.55069103461E+03  0.72801554444E+03  0.80210181213E+02 0.  0.
        254    2    1    2    0    0 -0.20986761546E+03 -0.41984274219E+03  0.15113375024E+03  0.10292730029E+04  0.90346508504E+03 0.  0.
         23    2    4    4    0    0  0.28466748519E+03 -0.84677898751E+01 -0.12359886258E+03  0.32383811527E+03  0.92125813329E+02 0.  0.
         23    2    4    4    0    0 -0.49453510066E+03 -0.41137495231E+03  0.27473261281E+03  0.70543488765E+03  0.91466141246E+02 0.  0.
          3    1    3    3  502    0  0.21641093148E+03  0.39475435854E+03  0.52342459292E+03  0.69038974450E+03  0.00000000000E+00 0. -1.
         -4    1    3    3    0  502 -0.65433160171E+01  0.25088383651E+02  0.27266441689E+02  0.37625799940E+02  0.00000000000E+00 0.  1.
         13    1    5    5    0    0  0.19874393275E+02  0.24245768360E+02 -0.22194027327E+02  0.38411243672E+02  0.00000000000E+00 0. -1.
        -13    1    5    5    0    0  0.26479309192E+03 -0.32713558235E+02 -0.10140483525E+03  0.28542687160E+03  0.00000000000E+00 0.  1.
          2    1    6    6  503    0 -0.23846500157E+03 -0.18003785150E+03  0.80561410827E+02  0.30946619502E+03  0.00000000000E+00 0. -1.
         -2    1    6    6    0  503 -0.25607009908E+03 -0.23133710081E+03  0.19417120199E+03  0.39596869262E+03  0.00000000000E+00 0.  1.
<mgrwt>
<rscale>  0 0.16110571E+04</rscale>
<asrwt>0</asrwt>
<pdfrwt beam="1">  1        1 0.18916256E+00 0.16110571E+04</pdfrwt>
<pdfrwt beam="2">  1       -2 0.81189520E-01 0.16110571E+04</pdfrwt>
<totfact> 0.11431852E+01</totfact>
</mgrwt>
</event>
<event>
12    5  0.5246737E-008  0.1363667E+04  0.7818608E-02  0.8980546E-01
         -2   -1    0    0    0  501 -0.00000000000E+00  0.00000000000E+00  0.27424371919E+03  0.27424371919E+03  0.00000000000E+00 0.  1.
          1   -1    0    0  501    0  0.00000000000E+00 -0.00000000000E+00 -0.16951970339E+04  0.16951970339E+04  0.00000000000E+00 0. -1.
        -24    2    1    2    0    0 -0.24110244491E+03  0.18449568025E+03 -0.69803547903E+03  0.76537152167E+03  0.79818489288E+02 0.  0.
        254    2    1    2    0    0  0.24110244491E+03 -0.18449568025E+03 -0.72291783572E+03  0.12040692314E+04  0.91378524389E+03 0.  0.
         23    2    4    4    0    0  0.50965779292E+03 -0.16831872990E+03 -0.15039401123E+03  0.56494488604E+03  0.91989700168E+02 0.  0.
         23    2    4    4    0    0 -0.26855534801E+03 -0.16176950350E+02 -0.57252382450E+03  0.63912434541E+03  0.91174177314E+02 0.  0.
          3    1    3    3  502    0 -0.14641613648E+03  0.12691036205E+03 -0.52779183436E+03  0.56223495572E+03  0.00000000000E+00 0. -1.
         -4    1    3    3    0  502 -0.94686308430E+02  0.57585318208E+02 -0.17024364467E+03  0.20313656595E+03  0.00000000000E+00 0.  1.
         13    1    5    5    0    0  0.14030671179E+03 -0.90901975474E+02 -0.46816814651E+02  0.17361151071E+03  0.00000000000E+00 0. -1.
        -13    1    5    5    0    0  0.36935108113E+03 -0.77416754430E+02 -0.10357719658E+03  0.39133337533E+03  0.00000000000E+00 0.  1.
          1    1    6    6  503    0 -0.11473536346E+03  0.10501046436E+02 -0.34053454068E+03  0.35949721696E+03  0.00000000000E+00 0. -1.
         -1    1    6    6    0  503 -0.15381998454E+03 -0.26677996786E+02 -0.23198928382E+03  0.27962712845E+03  0.00000000000E+00 0.  1.
<mgrwt>
<rscale>  0 0.13636673E+04</rscale>
<asrwt>0</asrwt>
<pdfrwt beam="1">  1        1 0.26079955E+00 0.13636673E+04</pdfrwt>
<pdfrwt beam="2">  1       -2 0.42191341E-01 0.13636673E+04</pdfrwt>
<totfact> 0.21946200E+01</totfact>
</mgrwt>
</event>
<event>
12    5  0.5246737E-008  0.1798131E+04  0.7818608E-02  0.8707294E-01
          1   -1    0    0  501    0  0.00000000000E+00  0.00000000000E+00  0.11176605899E+04  0.11176605899E+04  0.00000000000E+00 0. -1.
         -2   -1    0    0    0  501 -0.00000000000E+00 -0.00000000000E+00 -0.72322413142E+03  0.72322413142E+03  0.00000000000E+00 0.  1.
        -24    2    1    2    0    0 -0.26847086287E+02  0.24075619364E+02  0.82058983400E+03  0.82514794351E+03  0.78746755664E+02 0.  0.
        254    2    1    2    0    0  0.26847086287E+02 -0.24075619364E+02 -0.42615337555E+03  0.10157367778E+04  0.92131107708E+03 0.  0.
         23    2    4    4    0    0 -0.23058504988E+02 -0.13224008382E+03  0.26341563414E+03  0.30938199154E+03  0.91160769849E+02 0.  0.
         23    2    4    4    0    0  0.49905591275E+02  0.10816446445E+03 -0.68956900969E+03  0.70635478624E+03  0.96132957450E+02 0.  0.
          1    1    3    3  502    0 -0.43910465615E+02 -0.10658482867E+02  0.54246839681E+03  0.54434703433E+03  0.00000000000E+00 0. -1.
         -2    1    3    3    0  502  0.17063379329E+02  0.34734102231E+02  0.27812143719E+03  0.28080090918E+03  0.00000000000E+00 0.  1.
         13    1    5    5    0    0  0.74953773393E+01 -0.33683344740E+02  0.10251880732E+02  0.35997909007E+02  0.00000000000E+00 0. -1.
        -13    1    5    5    0    0 -0.30553882327E+02 -0.98556739079E+02  0.25316375341E+03  0.27338408254E+03  0.00000000000E+00 0.  1.
          4    1    6    6  503    0  0.30253179925E+02  0.86454431848E+02 -0.65353352353E+03  0.65992097258E+03  0.00000000000E+00 0.  1.
         -4    1    6    6    0  503  0.19652411350E+02  0.21710032606E+02 -0.36035486160E+02  0.46433813654E+02  0.00000000000E+00 0. -1.
<mgrwt>
<rscale>  0 0.17981314E+04</rscale>
<asrwt>0</asrwt>
<pdfrwt beam="1">  1        1 0.17194778E+00 0.17981314E+04</pdfrwt>
<pdfrwt beam="2">  1       -2 0.11126525E+00 0.17981314E+04</pdfrwt>
<totfact> 0.65037426E+00</totfact>
</mgrwt>
</event>
<event>
12    5  0.5246737E-008  0.1174320E+04  0.7818608E-02  0.9135636E-01
          1   -1    0    0  501    0  0.00000000000E+00  0.00000000000E+00  0.37548158446E+03  0.37548158446E+03  0.00000000000E+00 0. -1.
         -2   -1    0    0    0  501 -0.00000000000E+00 -0.00000000000E+00 -0.91817296458E+03  0.91817296458E+03  0.00000000000E+00 0.  1.
        -24    2    1    2    0    0  0.71535113131E+02 -0.20865035947E+03 -0.76273745577E+02  0.24640911752E+03  0.79041280441E+02 0.  0.
        254    2    1    2    0    0 -0.71535113131E+02  0.20865035947E+03 -0.46641763455E+03  0.10472454315E+04  0.91133162959E+03 0.  0.
         23    2    4    4    0    0 -0.11109525847E+03 -0.89154388779E+02  0.22852063137E+03  0.28464869089E+03  0.92263409717E+02 0.  0.
         23    2    4    4    0    0  0.39560145343E+02  0.29780474825E+03 -0.69493826592E+03  0.76259674062E+03  0.91443546482E+02 0.  0.
          1    1    3    3  502    0  0.58752494918E+02 -0.20990025424E+03 -0.60778490316E+02  0.22628300262E+03  0.00000000000E+00 0. -1.
         -2    1    3    3    0  502  0.12782618213E+02  0.12498947700E+01 -0.15495255260E+02  0.20126114898E+02  0.00000000000E+00 0.  1.
         13    1    5    5    0    0 -0.55078536479E+02 -0.63679487053E+02  0.19964730421E+03  0.21667433704E+03  0.00000000000E+00 0.  1.
        -13    1    5    5    0    0 -0.56016721995E+02 -0.25474901725E+02  0.28873327157E+02  0.67974353855E+02  0.00000000000E+00 0. -1.
          4    1    6    6  503    0  0.61191329251E+02  0.14171889566E+03 -0.30005624731E+03  0.33743499480E+03  0.00000000000E+00 0. -1.
         -4    1    6    6    0  503 -0.21631183908E+02  0.15608585259E+03 -0.39488201861E+03  0.42516174583E+03  0.00000000000E+00 0.  1.
<mgrwt>
<rscale>  0 0.11743203E+04</rscale>
<asrwt>0</asrwt>
<pdfrwt beam="1">  1        1 0.57766397E-01 0.11743203E+04</pdfrwt>
<pdfrwt beam="2">  1       -2 0.14125738E+00 0.11743203E+04</pdfrwt>
<totfact> 0.19814611E+01</totfact>
</mgrwt>
</event>
<event>
12    5  0.5246737E-008  0.1720313E+04  0.7818608E-02  0.8749863E-01
         -2   -1    0    0    0  501 -0.00000000000E+00  0.00000000000E+00  0.61168149885E+03  0.61168149885E+03  0.00000000000E+00 0.  1.
          1   -1    0    0  501    0  0.00000000000E+00 -0.00000000000E+00 -0.12095659224E+04  0.12095659224E+04  0.00000000000E+00 0. -1.
        -24    2    1    2    0    0  0.52030373284E+03  0.12385436171E+03  0.92556580621E+02  0.54887264263E+03  0.81477480894E+02 0.  0.
        254    2    1    2    0    0 -0.52030373284E+03 -0.12385436171E+03 -0.69044100414E+03  0.12723747786E+04  0.92529612540E+03 0.  0.
         23    2    4    4    0    0 -0.12838678153E+03 -0.24619457571E+03  0.15304220630E+03  0.32995338310E+03  0.91391374485E+02 0.  0.
         23    2    4    4    0    0 -0.39191695131E+03  0.12234021400E+03 -0.84348321044E+03  0.94242139549E+03  0.90156173913E+02 0.  0.
          1    1    3    3  502    0  0.43214874631E+02 -0.59115978701E+01  0.23813808623E+02  0.49694766927E+02  0.00000000000E+00 0. -1.
         -2    1    3    3    0  502  0.47708885821E+03  0.12976595958E+03  0.68742771998E+02  0.49917787571E+03  0.00000000000E+00 0.  1.
         13    1    5    5    0    0 -0.10429137770E+03 -0.24341901252E+03  0.15271141552E+03  0.30569639113E+03  0.00000000000E+00 0.  1.
        -13    1    5    5    0    0 -0.24095403839E+02 -0.27755631853E+01  0.33079078548E+00  0.24256991975E+02  0.00000000000E+00 0. -1.
          2    1    6    6  503    0 -0.12331136928E+03 -0.42223387225E+01 -0.24193797281E+03  0.27158332906E+03  0.00000000000E+00 0. -1.
         -2    1    6    6    0  503 -0.26860558203E+03  0.12656255272E+03 -0.60154523763E+03  0.67083806643E+03  0.00000000000E+00 0.  1.
<mgrwt>
<rscale>  0 0.17203129E+04</rscale>
<asrwt>0</asrwt>
<pdfrwt beam="1">  1        1 0.18608706E+00 0.17203129E+04</pdfrwt>
<pdfrwt beam="2">  1       -2 0.94104848E-01 0.17203129E+04</pdfrwt>
<totfact> 0.83487194E+00</totfact>
</mgrwt>
</event>
<event>
12    5  0.5246737E-008  0.1867899E+04  0.7818608E-02  0.8671002E-01
          1   -1    0    0  501    0  0.00000000000E+00  0.00000000000E+00  0.15579359031E+04  0.15579359031E+04  0.00000000000E+00 0. -1.
         -2   -1    0    0    0  501 -0.00000000000E+00 -0.00000000000E+00 -0.55988311582E+03  0.55988311582E+03  0.00000000000E+00 0.  1.
        -24    2    1    2    0    0 -0.46180632379E+03  0.39555630588E+03 -0.44840829332E+02  0.61490196883E+03  0.79773802010E+02 0.  0.
        254    2    1    2    0    0  0.46180632379E+03 -0.39555630588E+03  0.10428936166E+04  0.15029170501E+04  0.89521097628E+03 0.  0.
         23    2    4    4    0    0 -0.93880347533E+02 -0.30884394040E+03  0.82800847960E+03  0.89317667911E+03  0.89266111351E+02 0.  0.
         23    2    4    4    0    0  0.55568667132E+03 -0.86712365482E+02  0.21488513701E+03  0.60974037098E+03  0.96441624223E+02 0.  0.
          3    1    3    3  502    0 -0.59173985539E+02  0.23886165615E+02 -0.17953756109E+02  0.66290624003E+02  0.00000000000E+00 0. -1.
         -4    1    3    3    0  502 -0.40263233825E+03  0.37167014027E+03 -0.26887073223E+02  0.54861134483E+03  0.00000000000E+00 0.  1.
         13    1    5    5    0    0 -0.54770789657E+02 -0.24991800576E+03  0.55461458453E+03  0.61078325646E+03  0.00000000000E+00 0.  1.
        -13    1    5    5    0    0 -0.39109557877E+02 -0.58925934640E+02  0.27339389507E+03  0.28239342264E+03  0.00000000000E+00 0. -1.
          1    1    6    6  503    0  0.31053910489E+03 -0.43060027872E+01  0.13863437470E+03  0.34010669969E+03  0.00000000000E+00 0. -1.
         -1    1    6    6    0  503  0.24514756642E+03 -0.82406362695E+02  0.76250762306E+02  0.26963367128E+03  0.00000000000E+00 0.  1.
<mgrwt>
<rscale>  0 0.18678994E+04</rscale>
<asrwt>0</asrwt>
<pdfrwt beam="1">  1        1 0.23968244E+00 0.18678994E+04</pdfrwt>
<pdfrwt beam="2">  1       -2 0.86135865E-01 0.18678994E+04</pdfrwt>
<totfact> 0.57414173E+00</totfact>
</mgrwt>
</event>
<event>
12    5  0.5246737E-008  0.2032921E+04  0.7818608E-02  0.8591382E-01
          1   -1    0    0  501    0  0.00000000000E+00  0.00000000000E+00  0.62814144460E+03  0.62814144460E+03  0.00000000000E+00 0. -1.
         -2   -1    0    0    0  501 -0.00000000000E+00 -0.00000000000E+00 -0.16448401259E+04  0.16448401259E+04  0.00000000000E+00 0.  1.
        -24    2    1    2    0    0  0.34328156878E+02  0.42230054204E+03 -0.11901930570E+04  0.12658927389E+04  0.80054627856E+02 0.  0.
        254    2    1    2    0    0 -0.34328156878E+02 -0.42230054204E+03  0.17349437570E+03  0.10070888315E+04  0.89700136347E+03 0.  0.
         23    2    4    4    0    0  0.31656085774E+03 -0.43321718598E+03  0.30058486170E+03  0.62172479081E+03  0.91118327161E+02 0.  0.
         23    2    4    4    0    0 -0.35088901462E+03  0.10916643937E+02 -0.12709048600E+03  0.38536404073E+03  0.95452493756E+02 0.  0.
          3    1    3    3  502    0 -0.15754728493E+02  0.11055941739E+03 -0.24230865016E+03  0.26680531889E+03  0.00000000000E+00 0. -1.
         -4    1    3    3    0  502  0.50082885371E+02  0.31174112465E+03 -0.94788440683E+03  0.99908742006E+03  0.00000000000E+00 0.  1.
         13    1    5    5    0    0  0.99635540957E+02 -0.12020651718E+03  0.42940361472E+02  0.16192813974E+03  0.00000000000E+00 0. -1.
        -13    1    5    5    0    0  0.21692531678E+03 -0.31301066879E+03  0.25764450023E+03  0.45979665107E+03  0.00000000000E+00 0.  1.
          1    1    6    6  503    0 -0.10616780187E+03  0.14929371288E+02  0.48310099525E+01  0.10732113929E+03  0.00000000000E+00 0. -1.
         -1    1    6    6    0  503 -0.24472121275E+03 -0.40127273516E+01 -0.13192149595E+03  0.27804290145E+03  0.00000000000E+00 0.  1.
<mgrwt>
<rscale>  0 0.20329213E+04</rscale>
<asrwt>0</asrwt>
<pdfrwt beam="1">  1        1 0.96637146E-01 0.20329213E+04</pdfrwt>
<pdfrwt beam="2">  1       -2 0.25305232E+00 0.20329213E+04</pdfrwt>
<totfact> 0.15969802E+00</totfact>
</mgrwt>
</event>
<event>
12    5  0.5246737E-008  0.1577594E+04  0.7818608E-02  0.8834432E-01
          1   -1    0    0  501    0  0.00000000000E+00  0.00000000000E+00  0.17541500746E+04  0.17541500746E+04  0.00000000000E+00 0. -1.
         -2   -1    0    0    0  501 -0.00000000000E+00 -0.00000000000E+00 -0.35470217532E+03  0.35470217532E+03  0.00000000000E+00 0.  1.
        -24    2    1    2    0    0 -0.14705522084E+03  0.34644900395E+03 -0.20387054969E+02  0.38771582047E+03  0.90861296049E+02 0.  0.
        254    2    1    2    0    0  0.14705522084E+03 -0.34644900395E+03  0.14198349543E+04  0.17211364295E+04  0.89706586224E+03 0.  0.
         23    2    4    4    0    0 -0.11222773592E+03 -0.17019196940E+03 -0.34117668209E+02  0.23098582111E+03  0.10310219741E+03 0.  0.
         23    2    4    4    0    0  0.25928295676E+03 -0.17625703454E+03  0.14539526225E+04  0.14901506084E+04  0.90974794899E+02 0.  0.
          3    1    3    3  502    0 -0.66708229306E+02  0.16093001551E+03  0.35872900074E+02  0.17786321348E+03  0.00000000000E+00 0. -1.
         -4    1    3    3    0  502 -0.80346991535E+02  0.18551898844E+03 -0.56259955043E+02  0.20985260699E+03  0.00000000000E+00 0.  1.
         13    1    5    5    0    0 -0.85903948975E+02 -0.16231289256E+03 -0.60041195328E+02  0.19320949427E+03  0.00000000000E+00 0. -1.
        -13    1    5    5    0    0 -0.26323786949E+02 -0.78790768475E+01  0.25923527119E+02  0.37776326840E+02  0.00000000000E+00 0.  1.
          3    1    6    6  503    0  0.24705079812E+03 -0.16232316268E+03  0.14278780004E+04  0.14581558524E+04  0.00000000000E+00 0. -1.
         -3    1    6    6    0  503  0.12232158644E+02 -0.13933871859E+02  0.26074622099E+02  0.31994755940E+02  0.00000000000E+00 0.  1.
<mgrwt>
<rscale>  0 0.15775942E+04</rscale>
<asrwt>0</asrwt>
<pdfrwt beam="1">  1        1 0.26986924E+00 0.15775942E+04</pdfrwt>
<pdfrwt beam="2">  1       -2 0.54569567E-01 0.15775942E+04</pdfrwt>
<totfact> 0.11673718E+01</totfact>
</mgrwt>
</event>
<event>
12    5  0.5246737E-008  0.2271618E+04  0.7818608E-02  0.8489197E-01
          1   -1    0    0  501    0  0.00000000000E+00  0.00000000000E+00  0.82301093822E+03  0.82301093822E+03  0.00000000000E+00 0. -1.
         -2   -1    0    0    0  501 -0.00000000000E+00 -0.00000000000E+00 -0.15674906171E+04  0.15674906171E+04  0.00000000000E+00 0.  1.
        -24    2    1    2    0    0  0.16766960385E+03 -0.75227559928E+03  0.27499077593E+03  0.82258990904E+03  0.83681289861E+02 0.  0.
        254    2    1    2    0    0 -0.16766960385E+03  0.75227559928E+03 -0.10194704548E+04  0.15679116462E+04  0.90829249085E+03 0.  0.
         23    2    4    4    0    0  0.10814472740E+03 -0.12042403923E+03 -0.44863488048E+03  0.48545321691E+03  0.90522585777E+02 0.  0.
         23    2    4    4    0    0 -0.27581433124E+03  0.87269963851E+03 -0.57083557428E+03  0.10824584293E+04  0.90469851228E+02 0.  0.
          1    1    3    3  502    0  0.13624269607E+03 -0.42090139864E+03  0.15726720656E+03  0.46952426335E+03  0.00000000000E+00 0. -1.
         -2    1    3    3    0  502  0.31426907779E+02 -0.33137420064E+03  0.11772356937E+03  0.35306564569E+03  0.00000000000E+00 0.  1.
         13    1    5    5    0    0 -0.70501484790E+01 -0.28408583598E+02 -0.14490032348E+03  0.14782711511E+03  0.00000000000E+00 0.  1.
        -13    1    5    5    0    0  0.11519487588E+03 -0.92015455629E+02 -0.30373455700E+03  0.33762610180E+03  0.00000000000E+00 0. -1.
          2    1    6    6  503    0 -0.20864248485E+03  0.76355773291E+03 -0.49196046109E+03  0.93197488874E+03  0.00000000000E+00 0. -1.
         -2    1    6    6    0  503 -0.67171846394E+02  0.10914190560E+03 -0.78875113188E+02  0.15048354059E+03  0.00000000000E+00 0.  1.
<mgrwt>
<rscale>  0 0.22716179E+04</rscale>
<asrwt>0</asrwt>
<pdfrwt beam="1">  1        1 0.12661707E+00 0.22716179E+04</pdfrwt>
<pdfrwt beam="2">  1       -2 0.24115240E+00 0.22716179E+04</pdfrwt>
<totfact> 0.12218907E+00</totfact>
</mgrwt>
</event>
<event>
12    5  0.5246737E-008  0.1983778E+04  0.7818608E-02  0.8614243E-01
         -2   -1    0    0    0  501 -0.00000000000E+00  0.00000000000E+00  0.32647864558E+03  0.32647864558E+03  0.00000000000E+00 0.  1.
          1   -1    0    0  501    0  0.00000000000E+00 -0.00000000000E+00 -0.30135015339E+04  0.30135015339E+04  0.00000000000E+00 0. -1.
        -24    2    1    2    0    0 -0.13892364539E+03  0.76222664729E+03 -0.12767040888E+04  0.14955227748E+04  0.79534888517E+02 0.  0.
        254    2    1    2    0    0  0.13892364539E+03 -0.76222664729E+03 -0.14103187995E+04  0.18444574046E+04  0.90151803104E+03 0.  0.
         23    2    4    4    0    0  0.15746969140E+03 -0.75491877276E+03 -0.15163242994E+04  0.17035557768E+04  0.90354007382E+02 0.  0.
         23    2    4    4    0    0 -0.18546046005E+02 -0.73078745283E+01  0.10600549990E+03  0.14090162783E+03  0.90657276940E+02 0.  0.
          3    1    3    3  502    0 -0.60667118539E+02  0.41086438093E+03 -0.61223318814E+03  0.73981045914E+03  0.00000000000E+00 0. -1.
         -4    1    3    3    0  502 -0.78256526851E+02  0.35136226636E+03 -0.66447090065E+03  0.75571231565E+03  0.00000000000E+00 0.  1.
         13    1    5    5    0    0  0.14811219160E+03 -0.50778692909E+03 -0.10505074531E+04  0.11761592986E+04  0.00000000000E+00 0. -1.
        -13    1    5    5    0    0  0.93574997977E+01 -0.24713184366E+03 -0.46581684628E+03  0.52739647821E+03  0.00000000000E+00 0.  1.
          1    1    6    6  503    0 -0.25863343681E+02 -0.60196779516E+01 -0.71516502584E+01  0.27500821268E+02  0.00000000000E+00 0. -1.
         -1    1    6    6    0  503  0.73172976752E+01 -0.12881965767E+01  0.11315715016E+03  0.11340080656E+03  0.00000000000E+00 0.  1.
<mgrwt>
<rscale>  0 0.19837781E+04</rscale>
<asrwt>0</asrwt>
<pdfrwt beam="1">  1        1 0.46361561E+00 0.19837781E+04</pdfrwt>
<pdfrwt beam="2">  1       -2 0.50227485E-01 0.19837781E+04</pdfrwt>
<totfact> 0.17915806E+00</totfact>
</mgrwt>
</event>
<event>
12    5  0.5246737E-008  0.2204353E+04  0.7818608E-02  0.8516618E-01
         -2   -1    0    0    0  501 -0.00000000000E+00  0.00000000000E+00  0.51532546481E+03  0.51532546481E+03  0.00000000000E+00 0.  1.
          1   -1    0    0  501    0  0.00000000000E+00 -0.00000000000E+00 -0.23573322000E+04  0.23573322000E+04  0.00000000000E+00 0. -1.
        -24    2    1    2    0    0  0.27350207354E+03 -0.41094571638E+03  0.22965888292E+03  0.55029659488E+03  0.80021083440E+02 0.  0.
        254    2    1    2    0    0 -0.27350207354E+03  0.41094571638E+03 -0.20716656181E+04  0.23223610699E+04  0.92621959587E+03 0.  0.
         23    2    4    4    0    0 -0.10591867242E+02  0.65107438329E+03 -0.10715992548E+04  0.12574328259E+04  0.93820619763E+02 0.  0.
         23    2    4    4    0    0 -0.26291020630E+03 -0.24012866691E+03 -0.10000663633E+04  0.10649282440E+04  0.84592437565E+02 0.  0.
          3    1    3    3  502    0 -0.51460160204E+01 -0.28065302482E+01  0.33879322628E+01  0.67702420882E+01  0.00000000000E+00 0. -1.
         -4    1    3    3    0  502  0.27864808956E+03 -0.40813918613E+03  0.22627095066E+03  0.54352635279E+03  0.00000000000E+00 0.  1.
         13    1    5    5    0    0 -0.19829980565E+02  0.61955601933E+03 -0.97463365055E+03  0.11550556878E+04  0.00000000000E+00 0.  1.
        -13    1    5    5    0    0  0.92381133228E+01  0.31518363961E+02 -0.96965604203E+02  0.10237713809E+03  0.00000000000E+00 0. -1.
          3    1    6    6  503    0 -0.24477497491E+03 -0.18735010289E+03 -0.80363131758E+03  0.86071955014E+03  0.00000000000E+00 0.  1.
         -3    1    6    6    0  503 -0.18135231385E+02 -0.52778564019E+02 -0.19643504574E+03  0.20420869382E+03  0.00000000000E+00 0. -1.
<mgrwt>
<rscale>  0 0.22043532E+04</rscale>
<asrwt>0</asrwt>
<pdfrwt beam="1">  1        1 0.36266649E+00 0.22043532E+04</pdfrwt>
<pdfrwt beam="2">  1       -2 0.79280841E-01 0.22043532E+04</pdfrwt>
<totfact> 0.19202254E+00</totfact>
</mgrwt>
</event>
<event>
12    5  0.5246737E-008  0.1434032E+04  0.7818608E-02  0.8929547E-01
          1   -1    0    0  501    0  0.00000000000E+00  0.00000000000E+00  0.15046314237E+04  0.15046314237E+04  0.00000000000E+00 0. -1.
         -2   -1    0    0    0  501 -0.00000000000E+00 -0.00000000000E+00 -0.34168608113E+03  0.34168608113E+03  0.00000000000E+00 0.  1.
        -24    2    1    2    0    0  0.70051661244E+02  0.34018694106E+03  0.70281994624E+03  0.78801435402E+03  0.79852083259E+02 0.  0.
        254    2    1    2    0    0 -0.70051661244E+02 -0.34018694106E+03  0.46012539628E+03  0.10583031508E+04  0.88749974000E+03 0.  0.
         23    2    4    4    0    0 -0.36861740121E+03  0.11302478101E+03  0.25632794164E+03  0.47121006133E+03  0.87644273247E+02 0.  0.
         23    2    4    4    0    0  0.29856573997E+03 -0.45321172207E+03  0.20379745464E+03  0.58709308943E+03  0.92749808812E+02 0.  0.
          3    1    3    3  502    0  0.61597826338E+02  0.29762372349E+03  0.66201071504E+03  0.72844516596E+03  0.00000000000E+00 0. -1.
         -4    1    3    3    0  502  0.84538349057E+01  0.42563217570E+02  0.40809231208E+02  0.59569188062E+02  0.00000000000E+00 0.  1.
         13    1    5    5    0    0 -0.22270521923E+03  0.23422164491E+02  0.15321351364E+03  0.27133115049E+03  0.00000000000E+00 0. -1.
        -13    1    5    5    0    0 -0.14591218198E+03  0.89602616521E+02  0.10311442800E+03  0.19987891084E+03  0.00000000000E+00 0.  1.
          2    1    6    6  503    0  0.27982907108E+03 -0.37557389465E+03  0.15424987651E+03  0.49310555033E+03  0.00000000000E+00 0. -1.
         -2    1    6    6    0  503  0.18736668891E+02 -0.77637827416E+02  0.49547578130E+02  0.93987539097E+02  0.00000000000E+00 0.  1.
<mgrwt>
<rscale>  0 0.14340315E+04</rscale>
<asrwt>0</asrwt>
<pdfrwt beam="1">  1        1 0.23148175E+00 0.14340315E+04</pdfrwt>
<pdfrwt beam="2">  1       -2 0.52567090E-01 0.14340315E+04</pdfrwt>
<totfact> 0.18919284E+01</totfact>
</mgrwt>
</event>
<event>
12    5  0.5246737E-008  0.1041028E+04  0.7818608E-02  0.9264656E-01
          3   -1    0    0  501    0  0.00000000000E+00  0.00000000000E+00  0.80306232567E+03  0.80306232567E+03  0.00000000000E+00 0. -1.
         -2   -1    0    0    0  501 -0.00000000000E+00 -0.00000000000E+00 -0.33737726849E+03  0.33737726849E+03  0.00000000000E+00 0.  1.
        -24    2    1    2    0    0 -0.59214454815E+02  0.45755980087E+02  0.13783136239E+03  0.18752766517E+03  0.10280651424E+03 0.  0.
        254    2    1    2    0    0  0.59214454815E+02 -0.45755980087E+02  0.32785369478E+03  0.95291192900E+03  0.89160144564E+03 0.  0.
         23    2    4    4    0    0  0.32056500638E+03 -0.10073594222E+01  0.51698138896E+03  0.61502592522E+03  0.90687342378E+02 0.  0.
         23    2    4    4    0    0 -0.26135055157E+03 -0.44748620665E+02 -0.18912769418E+03  0.33788600378E+03  0.89950636388E+02 0.  0.
          1    1    3    3  502    0  0.25402384223E+02  0.10627723626E+02  0.80931182601E+01  0.28700665443E+02  0.00000000000E+00 0. -1.
         -2    1    3    3    0  502 -0.84616839038E+02  0.35128256460E+02  0.12973824413E+03  0.15882699972E+03  0.00000000000E+00 0.  1.
         13    1    5    5    0    0  0.88724401159E+02  0.20433546580E+02  0.21673112566E+03  0.23507856137E+03  0.00000000000E+00 0.  1.
        -13    1    5    5    0    0  0.23184060523E+03 -0.21440906002E+02  0.30025026330E+03  0.37994736385E+03  0.00000000000E+00 0. -1.
          1    1    6    6  503    0 -0.18564680003E+03 -0.65738305703E+02 -0.16122349459E+03  0.25451772906E+03  0.00000000000E+00 0. -1.
         -1    1    6    6    0  503 -0.75703751536E+02  0.20989685039E+02 -0.27904199596E+02  0.83368274719E+02  0.00000000000E+00 0.  1.
<mgrwt>
<rscale>  0 0.10410283E+04</rscale>
<asrwt>0</asrwt>
<pdfrwt beam="1">  1        3 0.12354805E+00 0.10410283E+04</pdfrwt>
<pdfrwt beam="2">  1       -2 0.51904195E-01 0.10410283E+04</pdfrwt>
<totfact> 0.75954372E+00</totfact>
</mgrwt>
</event>
<event>
12    5  0.5246737E-008  0.2292462E+04  0.7818608E-02  0.8480899E-01
         -2   -1    0    0    0  501 -0.00000000000E+00  0.00000000000E+00  0.47861342636E+03  0.47861342636E+03  0.00000000000E+00 0.  1.
          1   -1    0    0  501    0  0.00000000000E+00 -0.00000000000E+00 -0.27451079567E+04  0.27451079567E+04  0.00000000000E+00 0. -1.
        -24    2    1    2    0    0  0.25612843156E+03  0.15534736773E+03 -0.22516409034E+04  0.22728437395E+04  0.78723109493E+02 0.  0.
        254    2    1    2    0    0 -0.25612843156E+03 -0.15534736773E+03 -0.14853626916E+02  0.95087764358E+03  0.90233756695E+03 0.  0.
         23    2    4    4    0    0 -0.45689444937E+03 -0.34638916414E+03  0.17060988569E+03  0.60513404304E+03  0.91331736293E+02 0.  0.
         23    2    4    4    0    0  0.20076601781E+03  0.19104179641E+03 -0.18546351261E+03  0.34574360054E+03  0.91312435754E+02 0.  0.
          1    1    3    3  502    0  0.12029680695E+03  0.71224605161E+02 -0.13436454171E+04  0.13508986909E+04  0.00000000000E+00 0. -1.
         -2    1    3    3    0  502  0.13583162461E+03  0.84122762569E+02 -0.90799548630E+03  0.92194504856E+03  0.00000000000E+00 0.  1.
         13    1    5    5    0    0 -0.91927323717E+02 -0.27607192563E+02  0.29922007452E+02  0.10053912898E+03  0.00000000000E+00 0.  1.
        -13    1    5    5    0    0 -0.36496712566E+03 -0.31878197157E+03  0.14068787824E+03  0.50459491406E+03  0.00000000000E+00 0. -1.
          4    1    6    6  503    0  0.19496118264E+03  0.20071421083E+03 -0.17320040394E+03  0.32908120136E+03  0.00000000000E+00 0. -1.
         -4    1    6    6    0  503  0.58048351775E+01 -0.96724144235E+01 -0.12263108672E+02  0.16662399183E+02  0.00000000000E+00 0.  1.
<mgrwt>
<rscale>  0 0.22924620E+04</rscale>
<asrwt>0</asrwt>
<pdfrwt beam="1">  1        1 0.42232430E+00 0.22924620E+04</pdfrwt>
<pdfrwt beam="2">  1       -2 0.73632834E-01 0.22924620E+04</pdfrwt>
<totfact> 0.12058067E+00</totfact>
</mgrwt>
</event>
<event>
12    5  0.5246737E-008  0.1407374E+04  0.7818608E-02  0.8948498E-01
         -2   -1    0    0    0  501 -0.00000000000E+00  0.00000000000E+00  0.46523250077E+03  0.46523250077E+03  0.00000000000E+00 0.  1.
          1   -1    0    0  501    0  0.00000000000E+00 -0.00000000000E+00 -0.10643604315E+04  0.10643604315E+04  0.00000000000E+00 0. -1.
        -24    2    1    2    0    0 -0.23739551913E+03  0.79544913726E+02  0.17458672954E+03  0.31530933236E+03  0.79091233002E+02 0.  0.
        254    2    1    2    0    0  0.23739551913E+03 -0.79544913726E+02 -0.77371466026E+03  0.12142835999E+04  0.90175731751E+03 0.  0.
         23    2    4    4    0    0  0.18503600145E+03 -0.17277689787E+02  0.16691690638E+03  0.26580164597E+03  0.90842836650E+02 0.  0.
         23    2    4    4    0    0  0.52359517682E+02 -0.62267223939E+02 -0.94063156664E+03  0.94848195393E+03  0.90617583834E+02 0.  0.
          1    1    3    3  502    0 -0.62492040774E+02  0.51110170382E+02  0.28365000441E+02  0.85569141205E+02  0.00000000000E+00 0. -1.
         -2    1    3    3    0  502 -0.17490347836E+03  0.28434743344E+02  0.14622172910E+03  0.22974019116E+03  0.00000000000E+00 0.  1.
         13    1    5    5    0    0  0.17966957732E+03 -0.39131047141E+02  0.14280954136E+03  0.23282388402E+03  0.00000000000E+00 0. -1.
        -13    1    5    5    0    0  0.53664241279E+01  0.21853357354E+02  0.24107365016E+02  0.32977761955E+02  0.00000000000E+00 0.  1.
          1    1    6    6  503    0  0.58008599661E+01 -0.22778788787E+02 -0.69430809443E+03  0.69470587531E+03  0.00000000000E+00 0. -1.
         -1    1    6    6    0  503  0.46558657716E+02 -0.39488435152E+02 -0.24632347221E+03  0.25377607862E+03  0.00000000000E+00 0.  1.
<mgrwt>
<rscale>  0 0.14073735E+04</rscale>
<asrwt>0</asrwt>
<pdfrwt beam="1">  1        1 0.16374776E+00 0.14073735E+04</pdfrwt>
<pdfrwt beam="2">  1       -2 0.71574231E-01 0.14073735E+04</pdfrwt>
<totfact> 0.20413306E+01</totfact>
</mgrwt>
</event>
<event>
12    5  0.5246737E-008  0.2892150E+04  0.7818608E-02  0.8275217E-01
         -2   -1    0    0    0  501 -0.00000000000E+00  0.00000000000E+00  0.14887583870E+04  0.14887583870E+04  0.00000000000E+00 0.  1.
          1   -1    0    0  501    0  0.00000000000E+00 -0.00000000000E+00 -0.14046156063E+04  0.14046156063E+04  0.00000000000E+00 0. -1.
        -24    2    1    2    0    0  0.35307910781E+03  0.14161159143E+03 -0.12130526201E+04  0.12737482164E+04  0.78861653851E+02 0.  0.
        254    2    1    2    0    0 -0.35307910781E+03 -0.14161159143E+03  0.12971954008E+04  0.16196257769E+04  0.89204991458E+03 0.  0.
         23    2    4    4    0    0  0.14067896362E+03 -0.37141350914E+03  0.67256311854E+03  0.78594155802E+03  0.87317917026E+02 0.  0.
         23    2    4    4    0    0 -0.49375807142E+03  0.22980191771E+03  0.62463228225E+03  0.83368421886E+03  0.90873176792E+02 0.  0.
          3    1    3    3  502    0  0.16330820849E+03  0.96775917357E+02 -0.51106526633E+03  0.54518148867E+03  0.00000000000E+00 0. -1.
         -4    1    3    3    0  502  0.18977089931E+03  0.44835674070E+02 -0.70198735377E+03  0.72856672773E+03  0.00000000000E+00 0.  1.
         13    1    5    5    0    0  0.96800000204E+02 -0.13995422486E+03  0.30806737460E+03  0.35194166049E+03  0.00000000000E+00 0.  1.
        -13    1    5    5    0    0  0.43878963412E+02 -0.23145928428E+03  0.36449574394E+03  0.43399989753E+03  0.00000000000E+00 0. -1.
          1    1    6    6  503    0 -0.10946875943E+03  0.93960769594E+02  0.15158776477E+03  0.20926271990E+03  0.00000000000E+00 0. -1.
         -1    1    6    6    0  503 -0.38428931200E+03  0.13584114812E+03  0.47304451748E+03  0.62442149895E+03  0.00000000000E+00 0.  1.
<mgrwt>
<rscale>  0 0.28921502E+04</rscale>
<asrwt>0</asrwt>
<pdfrwt beam="1">  1        1 0.21609471E+00 0.28921502E+04</pdfrwt>
<pdfrwt beam="2">  1       -2 0.22903975E+00 0.28921502E+04</pdfrwt>
<totfact> 0.49859600E-01</totfact>
</mgrwt>
</event>
<event>
12    5  0.5246737E-008  0.1348800E+04  0.7818608E-02  0.8991737E-01
         -2   -1    0    0    0  501 -0.00000000000E+00  0.00000000000E+00  0.43141242585E+03  0.43141242585E+03  0.00000000000E+00 0.  1.
          1   -1    0    0  501    0  0.00000000000E+00 -0.00000000000E+00 -0.10542480089E+04  0.10542480089E+04  0.00000000000E+00 0. -1.
        -24    2    1    2    0    0 -0.19311453747E+03  0.30106634654E+03 -0.19759544082E+03  0.41642336856E+03  0.80189114306E+02 0.  0.
        254    2    1    2    0    0  0.19311453747E+03 -0.30106634654E+03 -0.42524014225E+03  0.10692370662E+04  0.91351220877E+03 0.  0.
         23    2    4    4    0    0  0.44158123988E+03  0.35861261210E+02 -0.45073040971E+03  0.64009610242E+03  0.10141546542E+03 0.  0.
         23    2    4    4    0    0 -0.24846670241E+03 -0.33692760775E+03  0.25490267460E+02  0.42914096378E+03  0.90864173306E+02 0.  0.
          1    1    3    3  502    0  0.28618502174E+01 -0.31367334714E+01 -0.47816988856E+01  0.63948360237E+01  0.00000000000E+00 0. -1.
         -2    1    3    3    0  502 -0.19597638769E+03  0.30420308001E+03 -0.19281374193E+03  0.41002853254E+03  0.00000000000E+00 0.  1.
         13    1    5    5    0    0  0.11721466875E+03 -0.36586911467E+01 -0.63300114742E+02  0.13326503337E+03  0.00000000000E+00 0. -1.
        -13    1    5    5    0    0  0.32436657113E+03  0.39519952357E+02 -0.38743029497E+03  0.50683106906E+03  0.00000000000E+00 0.  1.
          3    1    6    6  503    0 -0.12364776490E+02  0.81779294794E+00 -0.94369047987E+01  0.15575996120E+02  0.00000000000E+00 0. -1.
         -3    1    6    6    0  503 -0.23610192592E+03 -0.33774540070E+03  0.34927172259E+02  0.41356496766E+03  0.00000000000E+00 0.  1.
<mgrwt>
<rscale>  0 0.13488005E+04</rscale>
<asrwt>0</asrwt>
<pdfrwt beam="1">  1        1 0.16219200E+00 0.13488005E+04</pdfrwt>
<pdfrwt beam="2">  1       -2 0.66371143E-01 0.13488005E+04</pdfrwt>
<totfact> 0.24605908E+01</totfact>
</mgrwt>
</event>
<event>
12    5  0.5246737E-008  0.2261570E+04  0.7818608E-02  0.8493229E-01
          1   -1    0    0  501    0  0.00000000000E+00  0.00000000000E+00  0.10829151433E+04  0.10829151433E+04  0.00000000000E+00 0. -1.
         -2   -1    0    0    0  501 -0.00000000000E+00 -0.00000000000E+00 -0.11807709818E+04  0.11807709818E+04  0.00000000000E+00 0.  1.
        -24    2    1    2    0    0 -0.62230019474E+03  0.71677640386E+03 -0.44857982304E+02  0.95382054174E+03  0.82069737177E+02 0.  0.
        254    2    1    2    0    0  0.62230019474E+03 -0.71677640386E+03 -0.52997856239E+02  0.13098655834E+04  0.90106222217E+03 0.  0.
         23    2    4    4    0    0  0.74360211052E+03 -0.40039872571E+03  0.20526542680E+03  0.87388997540E+03  0.91030518688E+02 0.  0.
         23    2    4    4    0    0 -0.12130191578E+03 -0.31637767815E+03 -0.25826328304E+03  0.43597560797E+03  0.92551701103E+02 0.  0.
          3    1    3    3  502    0 -0.49887549887E+03  0.56019581179E+03 -0.67502730192E+02  0.75316182159E+03  0.00000000000E+00 0. -1.
         -4    1    3    3    0  502 -0.12342469587E+03  0.15658059208E+03  0.22644747888E+02  0.20065872015E+03  0.00000000000E+00 0.  1.
         13    1    5    5    0    0  0.30360191273E+03 -0.11365747731E+03  0.72694949907E+02  0.33222988924E+03  0.00000000000E+00 0.  1.
        -13    1    5    5    0    0  0.44000019779E+03 -0.28674124840E+03  0.13257047689E+03  0.54166008615E+03  0.00000000000E+00 0. -1.
          1    1    6    6  503    0 -0.43254935195E+02 -0.51118408519E+02 -0.90424984756E+02  0.11252003811E+03  0.00000000000E+00 0. -1.
         -1    1    6    6    0  503 -0.78046980586E+02 -0.26525926963E+03 -0.16783829828E+03  0.32345556986E+03  0.00000000000E+00 0.  1.
<mgrwt>
<rscale>  0 0.22615701E+04</rscale>
<asrwt>0</asrwt>
<pdfrwt beam="1">  1        1 0.16660233E+00 0.22615701E+04</pdfrwt>
<pdfrwt beam="2">  1       -2 0.18165707E+00 0.22615701E+04</pdfrwt>
<totfact> 0.18346907E+00</totfact>
</mgrwt>
</event>
<event>
12    5  0.5246737E-008  0.2409872E+04  0.7818608E-02  0.8435817E-01
         -2   -1    0    0    0  501 -0.00000000000E+00  0.00000000000E+00  0.57102145501E+03  0.57102145501E+03  0.00000000000E+00 0.  1.
          1   -1    0    0  501    0  0.00000000000E+00 -0.00000000000E+00 -0.25425851557E+04  0.25425851557E+04  0.00000000000E+00 0. -1.
        -24    2    1    2    0    0 -0.46412218100E+02  0.37462322781E+03 -0.21008217768E+04  0.21359124444E+04  0.78569557812E+02 0.  0.
        254    2    1    2    0    0  0.46412218100E+02 -0.37462322781E+03  0.12925807614E+03  0.97769416628E+03  0.89257020773E+03 0.  0.
         23    2    4    4    0    0 -0.21703799891E+03  0.21345060062E+03  0.55958201321E+02  0.32262943481E+03  0.91059211678E+02 0.  0.
         23    2    4    4    0    0  0.26345021701E+03 -0.58807382844E+03  0.73299874823E+02  0.65506473147E+03  0.92195912209E+02 0.  0.
          1    1    3    3  502    0 -0.38619458191E+02  0.34665656611E+03 -0.20230440909E+04  0.20528929907E+04  0.00000000000E+00 0. -1.
         -2    1    3    3    0  502 -0.77927599086E+01  0.27966661705E+02 -0.77777685947E+02  0.83019453775E+02  0.00000000000E+00 0.  1.
         13    1    5    5    0    0 -0.18790702930E+03  0.14257675734E+03  0.67010688891E+02  0.24520933061E+03  0.00000000000E+00 0.  1.
        -13    1    5    5    0    0 -0.29130969613E+02  0.70873843282E+02 -0.11052487570E+02  0.77420104196E+02  0.00000000000E+00 0. -1.
          2    1    6    6  503    0  0.42489224912E+01 -0.57220976904E+01 -0.99295766260E+01  0.12222611680E+02  0.00000000000E+00 0. -1.
         -2    1    6    6    0  503  0.25920129452E+03 -0.58235173075E+03  0.83229451449E+02  0.64284211979E+03  0.00000000000E+00 0.  1.
<mgrwt>
<rscale>  0 0.24098719E+04</rscale>
<asrwt>0</asrwt>
<pdfrwt beam="1">  1        1 0.39116695E+00 0.24098719E+04</pdfrwt>
<pdfrwt beam="2">  1       -2 0.87849454E-01 0.24098719E+04</pdfrwt>
<totfact> 0.11126653E+00</totfact>
</mgrwt>
</event>
<event>
12    5  0.5246737E-008  0.1641587E+04  0.7818608E-02  0.8795399E-01
         -2   -1    0    0    0  501 -0.00000000000E+00  0.00000000000E+00  0.56242869752E+03  0.56242869752E+03  0.00000000000E+00 0.  1.
          1   -1    0    0  501    0  0.00000000000E+00 -0.00000000000E+00 -0.11978443327E+04  0.11978443327E+04  0.00000000000E+00 0. -1.
        -24    2    1    2    0    0  0.34295822327E+03  0.15728741634E+03 -0.66595828966E+03  0.76955805849E+03  0.79746395424E+02 0.  0.
        254    2    1    2    0    0 -0.34295822327E+03 -0.15728741634E+03  0.30542654494E+02  0.99071497172E+03  0.91554553529E+03 0.  0.
         23    2    4    4    0    0 -0.55002722891E+03  0.15046361883E+03  0.13869986528E+03  0.59369379334E+03  0.89807652680E+02 0.  0.
         23    2    4    4    0    0  0.20706900565E+03 -0.30775103517E+03 -0.10815721079E+03  0.39702117838E+03  0.91321197378E+02 0.  0.
          3    1    3    3  502    0  0.26069128619E+03  0.80216088408E+02 -0.48113099397E+03  0.55306563887E+03  0.00000000000E+00 0. -1.
         -4    1    3    3    0  502  0.82266937073E+02  0.77071327930E+02 -0.18482729568E+03  0.21649241962E+03  0.00000000000E+00 0.  1.
         13    1    5    5    0    0 -0.27733563328E+03  0.58764072060E+02  0.11180120505E+03  0.30474215183E+03  0.00000000000E+00 0.  1.
        -13    1    5    5    0    0 -0.27269159563E+03  0.91699546771E+02  0.26898660234E+02  0.28895164150E+03  0.00000000000E+00 0. -1.
          4    1    6    6  503    0  0.14240716760E+03 -0.26859376597E+03 -0.68401449318E+02  0.31161060760E+03  0.00000000000E+00 0. -1.
         -4    1    6    6    0  503  0.64661838050E+02 -0.39157269203E+02 -0.39755761471E+02  0.85410570784E+02  0.00000000000E+00 0.  1.
<mgrwt>
<rscale>  0 0.16415871E+04</rscale>
<asrwt>0</asrwt>
<pdfrwt beam="1">  1        1 0.18428374E+00 0.16415871E+04</pdfrwt>
<pdfrwt beam="2">  1       -2 0.86527493E-01 0.16415871E+04</pdfrwt>
<totfact> 0.10405997E+01</totfact>
</mgrwt>
</event>
<event>
12    5  0.5246737E-008  0.3022565E+04  0.7818608E-02  0.8237316E-01
          1   -1    0    0  501    0  0.00000000000E+00  0.00000000000E+00  0.12266524960E+04  0.12266524960E+04  0.00000000000E+00 0. -1.
         -2   -1    0    0    0  501 -0.00000000000E+00 -0.00000000000E+00 -0.18619578007E+04  0.18619578007E+04  0.00000000000E+00 0.  1.
        -24    2    1    2    0    0  0.34259931081E+03 -0.12294845661E+03 -0.16399390678E+04  0.16817568637E+04  0.80096140135E+02 0.  0.
        254    2    1    2    0    0 -0.34259931081E+03  0.12294845661E+03  0.10046337631E+04  0.14068534329E+04  0.91512675247E+03 0.  0.
         23    2    4    4    0    0 -0.44320566230E+03  0.41174503569E+03  0.42356434501E+03  0.74422218703E+03  0.92166565500E+02 0.  0.
         23    2    4    4    0    0  0.10060635149E+03 -0.28879657908E+03  0.58106941809E+03  0.66263124591E+03  0.88957278367E+02 0.  0.
          1    1    3    3  502    0  0.17185228088E+03 -0.10405127372E+03 -0.87681185360E+03  0.89953260120E+03  0.00000000000E+00 0. -1.
         -2    1    3    3    0  502  0.17074702992E+03 -0.18897182892E+02 -0.76312721423E+03  0.78222426250E+03  0.00000000000E+00 0.  1.
         13    1    5    5    0    0 -0.18655430449E+03  0.13338051406E+03  0.20151503023E+03  0.30528867890E+03  0.00000000000E+00 0.  1.
        -13    1    5    5    0    0 -0.25665135781E+03  0.27836452163E+03  0.22204931478E+03  0.43893350814E+03  0.00000000000E+00 0. -1.
          2    1    6    6  503    0  0.91873064976E+02 -0.27842109691E+03  0.49353159335E+03  0.57404912761E+03  0.00000000000E+00 0. -1.
         -2    1    6    6    0  503  0.87332865178E+01 -0.10375482169E+02  0.87537824735E+02  0.88582118303E+02  0.00000000000E+00 0.  1.
<mgrwt>
<rscale>  0 0.30225653E+04</rscale>
<asrwt>0</asrwt>
<pdfrwt beam="1">  1        1 0.18871577E+00 0.30225653E+04</pdfrwt>
<pdfrwt beam="2">  1       -2 0.28645504E+00 0.30225653E+04</pdfrwt>
<totfact> 0.29299730E-01</totfact>
</mgrwt>
</event>
<event>
12    5  0.5246737E-008  0.2606568E+04  0.7818608E-02  0.8365974E-01
          3   -1    0    0  501    0  0.00000000000E+00  0.00000000000E+00  0.12257691479E+04  0.12257691479E+04  0.00000000000E+00 0. -1.
         -4   -1    0    0    0  501 -0.00000000000E+00 -0.00000000000E+00 -0.13857008132E+04  0.13857008132E+04  0.00000000000E+00 0.  1.
        -24    2    1    2    0    0 -0.24728527994E+03 -0.74492675162E+03  0.72568609321E+03  0.10719805377E+04  0.80349812125E+02 0.  0.
        254    2    1    2    0    0  0.24728527994E+03  0.74492675162E+03 -0.88561775849E+03  0.15394894234E+04  0.98470452208E+03 0.  0.
         23    2    4    4    0    0  0.25532770525E+03  0.74563798356E+03 -0.16154787978E+03  0.80960586015E+03  0.90530059772E+02 0.  0.
         23    2    4    4    0    0 -0.80424253105E+01 -0.71123194507E+00 -0.72406987872E+03  0.72988356330E+03  0.91584061149E+02 0.  0.
          3    1    3    3  502    0 -0.17818911811E+03 -0.43456339245E+03  0.40160510278E+03  0.61796712085E+03  0.00000000000E+00 0. -1.
         -4    1    3    3    0  502 -0.69096161826E+02 -0.31036335917E+03  0.32408099043E+03  0.45401341682E+03  0.00000000000E+00 0.  1.
         13    1    5    5    0    0  0.21279888850E+03  0.54343598326E+03 -0.87633790303E+02  0.59015736549E+03  0.00000000000E+00 0. -1.
        -13    1    5    5    0    0  0.42528816750E+02  0.20220200031E+03 -0.73914089472E+02  0.21944849465E+03  0.00000000000E+00 0.  1.
          2    1    6    6  503    0  0.16188156068E+02  0.40710276843E+02 -0.32547473998E+03  0.32841009333E+03  0.00000000000E+00 0. -1.
         -2    1    6    6    0  503 -0.24230581378E+02 -0.41421508788E+02 -0.39859513874E+03  0.40147346997E+03  0.00000000000E+00 0.  1.
<mgrwt>
<rscale>  0 0.26065681E+04</rscale>
<asrwt>0</asrwt>
<pdfrwt beam="1">  1        3 0.18857987E+00 0.26065681E+04</pdfrwt>
<pdfrwt beam="2">  1       -4 0.21318474E+00 0.26065681E+04</pdfrwt>
<totfact> 0.37873017E-02</totfact>
</mgrwt>
</event>
<event>
12    5  0.5246737E-008  0.2127899E+04  0.7818608E-02  0.8549052E-01
         -2   -1    0    0    0  501 -0.00000000000E+00  0.00000000000E+00  0.87901844310E+03  0.87901844310E+03  0.00000000000E+00 0.  1.
          1   -1    0    0  501    0  0.00000000000E+00 -0.00000000000E+00 -0.12877873686E+04  0.12877873686E+04  0.00000000000E+00 0. -1.
        -24    2    1    2    0    0  0.41081423566E+03 -0.72606780277E+03 -0.42487431901E+03  0.93954990182E+03  0.79328687248E+02 0.  0.
        254    2    1    2    0    0 -0.41081423566E+03  0.72606780277E+03  0.16105393468E+02  0.12272559099E+04  0.89997494093E+03 0.  0.
         23    2    4    4    0    0 -0.23427475898E+03  0.54137996591E+03 -0.40822994747E+03  0.72321943917E+03  0.91748226159E+02 0.  0.
         23    2    4    4    0    0 -0.17653947668E+03  0.18468783686E+03  0.42433534093E+03  0.50403647075E+03  0.93362189202E+02 0.  0.
          1    1    3    3  502    0  0.36938986431E+03 -0.64636144610E+03 -0.40518669223E+03  0.84758966866E+03  0.00000000000E+00 0. -1.
         -2    1    3    3    0  502  0.41424371354E+02 -0.79706356662E+02 -0.19687626784E+02  0.91960233160E+02  0.00000000000E+00 0.  1.
         13    1    5    5    0    0 -0.19859102460E+03  0.49429201412E+03 -0.39366062178E+03  0.66236823250E+03  0.00000000000E+00 0. -1.
        -13    1    5    5    0    0 -0.35683734383E+02  0.47087951784E+02 -0.14569325681E+02  0.60851206673E+02  0.00000000000E+00 0.  1.
          2    1    6    6  503    0 -0.74441645871E+02  0.24415264431E+02  0.88741191884E+02  0.11837509415E+03  0.00000000000E+00 0.  1.
         -2    1    6    6    0  503 -0.10209783081E+03  0.16027257243E+03  0.33559414905E+03  0.38566137661E+03  0.00000000000E+00 0. -1.
<mgrwt>
<rscale>  0 0.21278993E+04</rscale>
<asrwt>0</asrwt>
<pdfrwt beam="1">  1        1 0.19812113E+00 0.21278993E+04</pdfrwt>
<pdfrwt beam="2">  1       -2 0.13523361E+00 0.21278993E+04</pdfrwt>
<totfact> 0.29184347E+00</totfact>
</mgrwt>
</event>
<event>
12    5  0.5246737E-008  0.1586315E+04  0.7818608E-02  0.8829000E-01
         -2   -1    0    0    0  501 -0.00000000000E+00  0.00000000000E+00  0.26193132113E+03  0.26193132113E+03  0.00000000000E+00 0.  1.
          1   -1    0    0  501    0  0.00000000000E+00 -0.00000000000E+00 -0.24017697386E+04  0.24017697386E+04  0.00000000000E+00 0. -1.
        -24    2    1    2    0    0 -0.40650588663E+03  0.25776435791E+03 -0.11129461962E+04  0.12153013030E+04  0.81354295715E+02 0.  0.
        254    2    1    2    0    0  0.40650588663E+03 -0.25776435791E+03 -0.10268922213E+04  0.14483997567E+04  0.90092437034E+03 0.  0.
         23    2    4    4    0    0  0.31392706032E+03 -0.58256449793E+03 -0.69961778754E+03  0.96731666553E+03  0.91131165505E+02 0.  0.
         23    2    4    4    0    0  0.92578826312E+02  0.32480014002E+03 -0.32727443375E+03  0.48108309119E+03  0.10132332214E+03 0.  0.
          3    1    3    3  502    0 -0.14229214539E+03  0.10957383822E+03 -0.50661813187E+03  0.53750852291E+03  0.00000000000E+00 0. -1.
         -4    1    3    3    0  502 -0.26421374124E+03  0.14819051969E+03 -0.60632806435E+03  0.67779278013E+03  0.00000000000E+00 0.  1.
         13    1    5    5    0    0  0.62243379251E+02 -0.54034166297E+02 -0.94040706016E+02  0.12505032497E+03  0.00000000000E+00 0. -1.
        -13    1    5    5    0    0  0.25168368107E+03 -0.52853033163E+03 -0.60557708152E+03  0.84226634056E+03  0.00000000000E+00 0.  1.
          4    1    6    6  503    0  0.23956736577E+02  0.16817154847E+02 -0.63109356972E+02  0.69566751125E+02  0.00000000000E+00 0. -1.
         -4    1    6    6    0  503  0.68622089735E+02  0.30798298517E+03 -0.26416507678E+03  0.41151634007E+03  0.00000000000E+00 0.  1.
<mgrwt>
<rscale>  0 0.15863149E+04</rscale>
<asrwt>0</asrwt>
<pdfrwt beam="1">  1        1 0.36950303E+00 0.15863149E+04</pdfrwt>
<pdfrwt beam="2">  1       -2 0.40297128E-01 0.15863149E+04</pdfrwt>
<totfact> 0.78023807E+00</totfact>
</mgrwt>
</event>
<event>
12    5  0.5505254E-008  0.1842677E+04  0.7818608E-02  0.8683928E-01
          1   -1    0    0  501    0  0.00000000000E+00  0.00000000000E+00  0.94066699540E+03  0.94066699540E+03  0.00000000000E+00 0. -1.
         -2   -1    0    0    0  501 -0.00000000000E+00 -0.00000000000E+00 -0.90240671336E+03  0.90240671336E+03  0.00000000000E+00 0.  1.
        -24    2    1    2    0    0 -0.15744626326E+03  0.38575108239E+03  0.57439910319E+03  0.71408177946E+03  0.79907663192E+02 0.  0.
        254    2    1    2    0    0  0.15744626326E+03 -0.38575108239E+03 -0.53613882114E+03  0.11289919293E+04  0.90198931119E+03 0.  0.
         23    2    4    4    0    0  0.51052674992E+03 -0.12863448997E+03 -0.38131611344E+03  0.65639221066E+03  0.90908533426E+02 0.  0.
         23    2    4    4    0    0 -0.35308048666E+03 -0.25711659242E+03 -0.15482270770E+03  0.47259971863E+03  0.92766648495E+02 0.  0.
          1    1    3    3  502    0 -0.12273066360E+03  0.35764388686E+03  0.53042715043E+03  0.65140227779E+03  0.00000000000E+00 0. -1.
         -2    1    3    3    0  502 -0.34715599664E+02  0.28107195525E+02  0.43971952757E+02  0.62679501670E+02  0.00000000000E+00 0.  1.
         13    1    5    5    0    0  0.16564995369E+03 -0.63738037997E+02 -0.17527479957E+03  0.24944678793E+03  0.00000000000E+00 0.  1.
        -13    1    5    5    0    0  0.34487679623E+03 -0.64896451971E+02 -0.20604131388E+03  0.40694542273E+03  0.00000000000E+00 0. -1.
          4    1    6    6  503    0 -0.33414455281E+03 -0.25948557660E+03 -0.16081107740E+03  0.45259866245E+03  0.00000000000E+00 0. -1.
         -4    1    6    6    0  503 -0.18935933854E+02  0.23689841782E+01  0.59883696981E+01  0.20001056187E+02  0.00000000000E+00 0.  1.
<mgrwt>
<rscale>  0 0.18426765E+04</rscale>
<asrwt>0</asrwt>
<pdfrwt beam="1">  1        1 0.14471800E+00 0.18426765E+04</pdfrwt>
<pdfrwt beam="2">  1       -2 0.13883180E+00 0.18426765E+04</pdfrwt>
<totfact> 0.50999595E+00</totfact>
</mgrwt>
</event>
<event>
12    5  0.5246737E-008  0.1868074E+04  0.7818608E-02  0.8670913E-01
          1   -1    0    0  501    0  0.00000000000E+00  0.00000000000E+00  0.17580642346E+04  0.17580642346E+04  0.00000000000E+00 0. -1.
         -2   -1    0    0    0  501 -0.00000000000E+00 -0.00000000000E+00 -0.49624213413E+03  0.49624213413E+03  0.00000000000E+00 0.  1.
        -24    2    1    2    0    0  0.32940758528E+03 -0.48952210937E+03  0.64006979464E+01  0.59556877131E+03  0.80746143130E+02 0.  0.
        254    2    1    2    0    0 -0.32940758528E+03  0.48952210937E+03  0.12554214025E+04  0.16587375974E+04  0.90949780999E+03 0.  0.
         23    2    4    4    0    0  0.20331165120E+03  0.87318961512E+02  0.82522679064E+03  0.85932492816E+03  0.92086088008E+02 0.  0.
         23    2    4    4    0    0 -0.53271923649E+03  0.40220314785E+03  0.43019461189E+03  0.79941266927E+03  0.91847997375E+02 0.  0.
          1    1    3    3  502    0  0.19367958470E+03 -0.28608291272E+03  0.43517296219E+02  0.34820822728E+03  0.00000000000E+00 0. -1.
         -2    1    3    3    0  502  0.13572800058E+03 -0.20343919665E+03 -0.37116598273E+02  0.24736054403E+03  0.00000000000E+00 0.  1.
         13    1    5    5    0    0  0.20952406503E+03  0.83225890140E+02  0.81947476613E+03  0.84992104041E+03  0.00000000000E+00 0.  1.
        -13    1    5    5    0    0 -0.62124138205E+01  0.40930713717E+01  0.57520245151E+01  0.94038877467E+01  0.00000000000E+00 0. -1.
          4    1    6    6  503    0 -0.72783398936E+02  0.91968800062E+02  0.97499161626E+02  0.15251809684E+03  0.00000000000E+00 0. -1.
         -4    1    6    6    0  503 -0.45993583755E+03  0.31023434779E+03  0.33269545027E+03  0.64689457243E+03  0.00000000000E+00 0.  1.
<mgrwt>
<rscale>  0 0.18680745E+04</rscale>
<asrwt>0</asrwt>
<pdfrwt beam="1">  1        1 0.27047142E+00 0.18680745E+04</pdfrwt>
<pdfrwt beam="2">  1       -2 0.76344945E-01 0.18680745E+04</pdfrwt>
<totfact> 0.54999670E+00</totfact>
</mgrwt>
</event>
<event>
12    5  0.5246737E-008  0.2077258E+04  0.7818608E-02  0.8571328E-01
          1   -1    0    0  501    0  0.00000000000E+00  0.00000000000E+00  0.99834477469E+03  0.99834477469E+03  0.00000000000E+00 0. -1.
         -2   -1    0    0    0  501 -0.00000000000E+00 -0.00000000000E+00 -0.10805390263E+04  0.10805390263E+04  0.00000000000E+00 0.  1.
        -24    2    1    2    0    0 -0.71541842851E+03  0.31290224126E+03 -0.34944754702E+03  0.85912672354E+03  0.79080961906E+02 0.  0.
        254    2    1    2    0    0  0.71541842851E+03 -0.31290224126E+03  0.26725329543E+03  0.12197570774E+04  0.89813788673E+03 0.  0.
         23    2    4    4    0    0  0.26754772431E+03  0.26750386784E+03  0.28201238238E+03  0.48097992333E+03  0.93116049848E+02 0.  0.
         23    2    4    4    0    0  0.44787070421E+03 -0.58040610910E+03 -0.14759086954E+02  0.73877715409E+03  0.90080150967E+02 0.  0.
          3    1    3    3  502    0 -0.18967751369E+03  0.12159453827E+03 -0.94956977034E+02  0.24449870843E+03  0.00000000000E+00 0. -1.
         -2    1    3    3    0  502 -0.52574091482E+03  0.19130770299E+03 -0.25449056998E+03  0.61462801510E+03  0.00000000000E+00 0.  1.
         13    1    5    5    0    0  0.22338567925E+03  0.25829595655E+03  0.26684405321E+03  0.43338633066E+03  0.00000000000E+00 0. -1.
        -13    1    5    5    0    0  0.44162045058E+02  0.92079112873E+01  0.15168329174E+02  0.47593592677E+02  0.00000000000E+00 0.  1.
          1    1    6    6  503    0  0.43464876697E+03 -0.52496665232E+03 -0.16628383554E+02  0.68175218358E+03  0.00000000000E+00 0. -1.
         -1    1    6    6    0  503  0.13221937235E+02 -0.55439456783E+02  0.18692965996E+01  0.57024970516E+02  0.00000000000E+00 0.  1.
<mgrwt>
<rscale>  0 0.20772583E+04</rscale>
<asrwt>0</asrwt>
<pdfrwt beam="1">  1        1 0.15359150E+00 0.20772583E+04</pdfrwt>
<pdfrwt beam="2">  1       -2 0.16623677E+00 0.20772583E+04</pdfrwt>
<totfact> 0.27802197E+00</totfact>
</mgrwt>
</event>
<event>
12    5  0.5246737E-008  0.1663508E+04  0.7818608E-02  0.8782455E-01
          1   -1    0    0  501    0  0.00000000000E+00  0.00000000000E+00  0.20443752291E+04  0.20443752291E+04  0.00000000000E+00 0. -1.
         -2   -1    0    0    0  501 -0.00000000000E+00 -0.00000000000E+00 -0.33839917072E+03  0.33839917072E+03  0.00000000000E+00 0.  1.
        -24    2    1    2    0    0  0.43427976079E+03 -0.26047180435E+03  0.10129384212E+04  0.11351981332E+04  0.78651667989E+02 0.  0.
        254    2    1    2    0    0 -0.43427976079E+03  0.26047180435E+03  0.69303763722E+03  0.12475762667E+04  0.90537335014E+03 0.  0.
         23    2    4    4    0    0 -0.92549425350E+02  0.55850061021E+03  0.40577246890E+03  0.70285117414E+03  0.94128363044E+02 0.  0.
         23    2    4    4    0    0 -0.34173033544E+03 -0.29802880585E+03  0.28726516832E+03  0.54472509257E+03  0.92754289746E+02 0.  0.
          1    1    3    3  502    0  0.22137796333E+03 -0.15265292284E+03  0.61442347327E+03  0.67069167432E+03  0.00000000000E+00 0. -1.
         -2    1    3    3    0  502  0.21290179746E+03 -0.10781888151E+03  0.39851494794E+03  0.46450645884E+03  0.00000000000E+00 0.  1.
         13    1    5    5    0    0 -0.64322804896E+02  0.16970153092E+03  0.16060060976E+03  0.24233982067E+03  0.00000000000E+00 0.  1.
        -13    1    5    5    0    0 -0.28226620454E+02  0.38879907928E+03  0.24517185914E+03  0.46051135346E+03  0.00000000000E+00 0. -1.
          1    1    6    6  503    0 -0.22573591297E+03 -0.24887113474E+03  0.22334709087E+03  0.40345689623E+03  0.00000000000E+00 0. -1.
         -1    1    6    6    0  503 -0.11599442247E+03 -0.49157671115E+02  0.63918077448E+02  0.14126819634E+03  0.00000000000E+00 0.  1.
<mgrwt>
<rscale>  0 0.16635082E+04</rscale>
<asrwt>0</asrwt>
<pdfrwt beam="1">  1        1 0.31451926E+00 0.16635082E+04</pdfrwt>
<pdfrwt beam="2">  1       -2 0.52061412E-01 0.16635082E+04</pdfrwt>
<totfact> 0.81193588E+00</totfact>
</mgrwt>
</event>
<event>
12    5  0.5246737E-008  0.1670280E+04  0.7818608E-02  0.8778499E-01
         -2   -1    0    0    0  501 -0.00000000000E+00  0.00000000000E+00  0.10416867230E+04  0.10416867230E+04  0.00000000000E+00 0.  1.
          1   -1    0    0  501    0  0.00000000000E+00 -0.00000000000E+00 -0.66954763744E+03  0.66954763744E+03  0.00000000000E+00 0. -1.
        -24    2    1    2    0    0  0.40573585599E+03  0.17653362040E+03  0.51946025819E+03  0.68701890104E+03  0.79814200403E+02 0.  0.
        254    2    1    2    0    0 -0.40573585599E+03 -0.17653362040E+03 -0.14732117262E+03  0.10242154594E+04  0.91188161261E+03 0.  0.
         23    2    4    4    0    0  0.21729587795E+03 -0.16988725786E+03  0.15127626238E+03  0.32744771463E+03  0.90875295326E+02 0.  0.
         23    2    4    4    0    0 -0.62303173393E+03 -0.66463625421E+01 -0.29859743500E+03  0.69676774478E+03  0.90067454470E+02 0.  0.
          1    1    3    3  502    0  0.11187998694E+03  0.68497988434E+02  0.10759269517E+03  0.16966229384E+03  0.00000000000E+00 0. -1.
         -2    1    3    3    0  502  0.29385586905E+03  0.10803563197E+03  0.41186756303E+03  0.51735660721E+03  0.00000000000E+00 0.  1.
         13    1    5    5    0    0 -0.32933574296E+01  0.66454547054E+01  0.70544385370E+01  0.10235886599E+02  0.00000000000E+00 0. -1.
        -13    1    5    5    0    0  0.22058923538E+03 -0.17653271257E+03  0.14422182384E+03  0.31721182803E+03  0.00000000000E+00 0.  1.
          2    1    6    6  503    0 -0.61149569156E+03  0.71620389921E+01 -0.29079280700E+03  0.67715488051E+03  0.00000000000E+00 0.  1.
         -2    1    6    6    0  503 -0.11536042373E+02 -0.13808401534E+02 -0.78046279987E+01  0.19612864267E+02  0.00000000000E+00 0. -1.
<mgrwt>
<rscale>  0 0.16702801E+04</rscale>
<asrwt>0</asrwt>
<pdfrwt beam="1">  1        1 0.10300733E+00 0.16702801E+04</pdfrwt>
<pdfrwt beam="2">  1       -2 0.16025950E+00 0.16702801E+04</pdfrwt>
<totfact> 0.60993179E+00</totfact>
</mgrwt>
</event>
<event>
12    5  0.5246737E-008  0.1824754E+04  0.7818608E-02  0.8693245E-01
          1   -1    0    0  501    0  0.00000000000E+00  0.00000000000E+00  0.93894096438E+03  0.93894096438E+03  0.00000000000E+00 0. -1.
         -2   -1    0    0    0  501 -0.00000000000E+00 -0.00000000000E+00 -0.88656439585E+03  0.88656439585E+03  0.00000000000E+00 0.  1.
        -24    2    1    2    0    0 -0.54874151489E+03  0.38143512509E+03 -0.12280464427E+03  0.68398262591E+03  0.78366109203E+02 0.  0.
        254    2    1    2    0    0  0.54874151489E+03 -0.38143512509E+03  0.17518121281E+03  0.11415227343E+04  0.90872200966E+03 0.  0.
         23    2    4    4    0    0  0.40606979974E+03 -0.52731706605E+03  0.43354750795E+03  0.79996608036E+03  0.95006934798E+02 0.  0.
         23    2    4    4    0    0  0.14267171515E+03  0.14588194097E+03 -0.25836629515E+03  0.34155665396E+03  0.90945293397E+02 0.  0.
          3    1    3    3  502    0 -0.43262609075E+03  0.28877292016E+03 -0.63439331906E+02  0.52400351397E+03  0.00000000000E+00 0. -1.
         -4    1    3    3    0  502 -0.11611542414E+03  0.92662204929E+02 -0.59365312361E+02  0.15997911194E+03  0.00000000000E+00 0.  1.
         13    1    5    5    0    0  0.15013364771E+03 -0.25422459533E+03  0.22744143356E+03  0.37269271893E+03  0.00000000000E+00 0.  1.
        -13    1    5    5    0    0  0.25593615204E+03 -0.27309247073E+03  0.20610607439E+03  0.42727336143E+03  0.00000000000E+00 0. -1.
          3    1    6    6  503    0  0.17680056335E+02  0.75919070839E+02 -0.11471796625E+03  0.13869571547E+03  0.00000000000E+00 0. -1.
         -3    1    6    6    0  503  0.12499165881E+03  0.69962870127E+02 -0.14364832890E+03  0.20286093849E+03  0.00000000000E+00 0.  1.
<mgrwt>
<rscale>  0 0.18247538E+04</rscale>
<asrwt>0</asrwt>
<pdfrwt beam="1">  1        1 0.14445246E+00 0.18247538E+04</pdfrwt>
<pdfrwt beam="2">  1       -2 0.13639452E+00 0.18247538E+04</pdfrwt>
<totfact> 0.53642369E+00</totfact>
</mgrwt>
</event>
<event>
12    5  0.5246737E-008  0.4078424E+04  0.7818608E-02  0.7988910E-01
         -2   -1    0    0    0  501 -0.00000000000E+00  0.00000000000E+00  0.27970437257E+04  0.27970437257E+04  0.00000000000E+00 0.  1.
          1   -1    0    0  501    0  0.00000000000E+00 -0.00000000000E+00 -0.14867070809E+04  0.14867070809E+04  0.00000000000E+00 0. -1.
        -24    2    1    2    0    0 -0.16193072001E+04  0.60736651946E+03  0.15390851466E+04  0.23165396737E+04  0.80765548928E+02 0.  0.
        254    2    1    2    0    0  0.16193072001E+04 -0.60736651946E+03 -0.22874850177E+03  0.19672111330E+04  0.90914458003E+03 0.  0.
         23    2    4    4    0    0  0.62673204256E+03 -0.11327265331E+03  0.32826902507E+03  0.72310244699E+03  0.97431251989E+02 0.  0.
         23    2    4    4    0    0  0.99257515757E+03 -0.49409386614E+03 -0.55701752684E+03  0.12441086860E+04  0.90574308828E+02 0.  0.
          3    1    3    3  502    0 -0.12945764941E+03  0.69978366700E+02  0.11750741551E+03  0.18831953562E+03  0.00000000000E+00 0. -1.
         -2    1    3    3    0  502 -0.14898495507E+04  0.53738815276E+03  0.14215777311E+04  0.21282201380E+04  0.00000000000E+00 0.  1.
         13    1    5    5    0    0  0.65499992015E+01 -0.99753683731E+01 -0.31940506276E+01  0.12353640076E+02  0.00000000000E+00 0.  1.
        -13    1    5    5    0    0  0.62018204336E+03 -0.10329728494E+03  0.33146307569E+03  0.71074880691E+03  0.00000000000E+00 0. -1.
          4    1    6    6  503    0  0.98597225830E+03 -0.49622797061E+03 -0.55843538735E+03  0.12370261011E+04  0.00000000000E+00 0. -1.
         -4    1    6    6    0  503  0.66028992612E+01  0.21341044694E+01  0.14178605092E+01  0.70825849069E+01  0.00000000000E+00 0.  1.
<mgrwt>
<rscale>  0 0.40784236E+04</rscale>
<asrwt>0</asrwt>
<pdfrwt beam="1">  1        1 0.22872417E+00 0.40784236E+04</pdfrwt>
<pdfrwt beam="2">  1       -2 0.43031442E+00 0.40784236E+04</pdfrwt>
<totfact> 0.21373442E-02</totfact>
</mgrwt>
</event>
<event>
12    5  0.5246737E-008  0.1580537E+04  0.7818608E-02  0.8832595E-01
         -2   -1    0    0    0  501 -0.00000000000E+00  0.00000000000E+00  0.30098008625E+03  0.30098008625E+03  0.00000000000E+00 0.  1.
          1   -1    0    0  501    0  0.00000000000E+00 -0.00000000000E+00 -0.20749679646E+04  0.20749679646E+04  0.00000000000E+00 0. -1.
        -24    2    1    2    0    0  0.46965595142E+03  0.71372927204E+02 -0.26321633037E+03  0.54898724364E+03  0.80208164595E+02 0.  0.
        254    2    1    2    0    0 -0.46965595142E+03 -0.71372927204E+02 -0.15107715480E+04  0.18269608072E+04  0.91087008595E+03 0.  0.
         23    2    4    4    0    0  0.96412850560E+02 -0.35756811359E+03 -0.48092486208E+03  0.61400473834E+03  0.92534869773E+02 0.  0.
         23    2    4    4    0    0 -0.56606880198E+03  0.28619518638E+03 -0.10298466859E+04  0.12129560689E+04  0.91305286204E+02 0.  0.
          1    1    3    3  502    0  0.32181239308E+03  0.57234513692E+02 -0.13828320260E+03  0.35491019994E+03  0.00000000000E+00 0. -1.
         -2    1    3    3    0  502  0.14784355834E+03  0.14138413512E+02 -0.12493312777E+03  0.19407704371E+03  0.00000000000E+00 0.  1.
         13    1    5    5    0    0  0.17651257969E+02 -0.79041648163E+02 -0.17510573773E+03  0.19292788404E+03  0.00000000000E+00 0. -1.
        -13    1    5    5    0    0  0.78761592591E+02 -0.27852646542E+03 -0.30581912435E+03  0.42107685430E+03  0.00000000000E+00 0.  1.
          2    1    6    6  503    0 -0.77045514879E+02  0.22199146860E+02 -0.85421248844E+02  0.11715631967E+03  0.00000000000E+00 0. -1.
         -2    1    6    6    0  503 -0.48902328710E+03  0.26399603952E+03 -0.94442543709E+03  0.10957997492E+04  0.00000000000E+00 0.  1.
<mgrwt>
<rscale>  0 0.15805367E+04</rscale>
<asrwt>0</asrwt>
<pdfrwt beam="1">  1        1 0.31922584E+00 0.15805367E+04</pdfrwt>
<pdfrwt beam="2">  1       -2 0.46304629E-01 0.15805367E+04</pdfrwt>
<totfact> 0.98949426E+00</totfact>
</mgrwt>
</event>
<event>
12    5  0.5246737E-008  0.1432564E+04  0.7818608E-02  0.8930579E-01
          1   -1    0    0  501    0  0.00000000000E+00  0.00000000000E+00  0.94684900203E+03  0.94684900203E+03  0.00000000000E+00 0. -1.
         -2   -1    0    0    0  501 -0.00000000000E+00 -0.00000000000E+00 -0.54186039350E+03  0.54186039350E+03  0.00000000000E+00 0.  1.
        -24    2    1    2    0    0 -0.31568763485E+03  0.14887539202E+03  0.36288241228E+03  0.51104517097E+03  0.87526890040E+02 0.  0.
        254    2    1    2    0    0  0.31568763485E+03 -0.14887539202E+03  0.42106196251E+02  0.97766422456E+03  0.91226741642E+03 0.  0.
         23    2    4    4    0    0  0.11781258259E+03  0.10423299661E+03  0.42996385767E+03  0.46681206645E+03  0.91105786206E+02 0.  0.
         23    2    4    4    0    0  0.19787505226E+03 -0.25310838863E+03 -0.38785766142E+03  0.51085215811E+03  0.85545129756E+02 0.  0.
          1    1    3    3  502    0 -0.10968210203E+02 -0.64645345163E+01  0.34985320128E+02  0.37229886731E+02  0.00000000000E+00 0. -1.
         -2    1    3    3    0  502 -0.30471942465E+03  0.15533992654E+03  0.32789709215E+03  0.47381528424E+03  0.00000000000E+00 0.  1.
         13    1    5    5    0    0  0.12931990803E+03  0.10072057486E+03  0.42107137287E+03  0.45185105274E+03  0.00000000000E+00 0.  1.
        -13    1    5    5    0    0 -0.11507325436E+02  0.35124217477E+01  0.88924848006E+01  0.14961013708E+02  0.00000000000E+00 0. -1.
          4    1    6    6  503    0  0.10793097265E+02 -0.37252104423E+02 -0.90816237412E+02  0.98751198525E+02  0.00000000000E+00 0. -1.
         -4    1    6    6    0  503  0.18708195500E+03 -0.21585628420E+03 -0.29704142401E+03  0.41210095959E+03  0.00000000000E+00 0.  1.
<mgrwt>
<rscale>  0 0.14325641E+04</rscale>
<asrwt>0</asrwt>
<pdfrwt beam="1">  1        1 0.14566908E+00 0.14325641E+04</pdfrwt>
<pdfrwt beam="2">  1       -2 0.83363137E-01 0.14325641E+04</pdfrwt>
<totfact> 0.17900062E+01</totfact>
</mgrwt>
</event>
<event>
12    5  0.5246737E-008  0.2096757E+04  0.7818608E-02  0.8562673E-01
         -2   -1    0    0    0  501 -0.00000000000E+00  0.00000000000E+00  0.11249864368E+04  0.11249864368E+04  0.00000000000E+00 0.  1.
          1   -1    0    0  501    0  0.00000000000E+00 -0.00000000000E+00 -0.97698731401E+03  0.97698731401E+03  0.00000000000E+00 0. -1.
        -24    2    1    2    0    0 -0.10786813268E+02  0.56766737424E+03 -0.57140592079E+03  0.80932759626E+03  0.78382578678E+02 0.  0.
        254    2    1    2    0    0  0.10786813268E+02 -0.56766737424E+03  0.71940504362E+03  0.12926461546E+04  0.91160729541E+03 0.  0.
         23    2    4    4    0    0 -0.30750405560E+03 -0.64268620087E+03  0.38000692568E+03  0.81263096656E+03  0.91430450331E+02 0.  0.
         23    2    4    4    0    0  0.31829086887E+03  0.75018826636E+02  0.33939811794E+03  0.48001518802E+03  0.91030745968E+02 0.  0.
          3    1    3    3  502    0  0.16058365689E+02  0.46341871239E+03 -0.48779359443E+03  0.67302107312E+03  0.00000000000E+00 0. -1.
         -4    1    3    3    0  502 -0.26845178957E+02  0.10424866185E+03 -0.83612326362E+02  0.13630652314E+03  0.00000000000E+00 0.  1.
         13    1    5    5    0    0 -0.94623711590E+02 -0.11553704856E+03  0.90946333989E+02  0.17485334441E+03  0.00000000000E+00 0. -1.
        -13    1    5    5    0    0 -0.21288034401E+03 -0.52714915231E+03  0.28906059169E+03  0.63777762215E+03  0.00000000000E+00 0.  1.
          4    1    6    6  503    0  0.54416776711E+02  0.45496195933E+02  0.47208966765E+02  0.85204318992E+02  0.00000000000E+00 0. -1.
         -4    1    6    6    0  503  0.26387409216E+03  0.29522630702E+02  0.29218915118E+03  0.39481086903E+03  0.00000000000E+00 0.  1.
<mgrwt>
<rscale>  0 0.20967570E+04</rscale>
<asrwt>0</asrwt>
<pdfrwt beam="1">  1        1 0.15030574E+00 0.20967570E+04</pdfrwt>
<pdfrwt beam="2">  1       -2 0.17307484E+00 0.20967570E+04</pdfrwt>
<totfact> 0.25784656E+00</totfact>
</mgrwt>
</event>
<event>
12    5  0.5246737E-008  0.1805483E+04  0.7818608E-02  0.8703389E-01
         -2   -1    0    0    0  501 -0.00000000000E+00  0.00000000000E+00  0.32292202399E+03  0.32292202399E+03  0.00000000000E+00 0.  1.
          1   -1    0    0  501    0  0.00000000000E+00 -0.00000000000E+00 -0.25236499199E+04  0.25236499199E+04  0.00000000000E+00 0. -1.
        -24    2    1    2    0    0 -0.64218980201E+03  0.15529556565E+03 -0.66954363137E+03  0.94403156692E+03  0.79890365626E+02 0.  0.
        254    2    1    2    0    0  0.64218980201E+03 -0.15529556565E+03 -0.15311842645E+04  0.19025403769E+04  0.91575661586E+03 0.  0.
         23    2    4    4    0    0 -0.88707534992E+02 -0.21189254379E+03 -0.89157667502E+03  0.92519884280E+03  0.91194596250E+02 0.  0.
         23    2    4    4    0    0  0.73089733700E+03  0.56596978145E+02 -0.63960758946E+03  0.97734153413E+03  0.93190507374E+02 0.  0.
          3    1    3    3  502    0 -0.36696505981E+03  0.99015337058E+02 -0.43852735869E+03  0.58032201096E+03  0.00000000000E+00 0. -1.
         -4    1    3    3    0  502 -0.27522474220E+03  0.56280228589E+02 -0.23101627269E+03  0.36370955596E+03  0.00000000000E+00 0.  1.
         13    1    5    5    0    0 -0.67735530400E+02 -0.11678403164E+03 -0.35398388446E+03  0.37885512083E+03  0.00000000000E+00 0. -1.
        -13    1    5    5    0    0 -0.20972004592E+02 -0.95108512148E+02 -0.53759279057E+03  0.54634372196E+03  0.00000000000E+00 0.  1.
          3    1    6    6  503    0  0.56103433798E+03  0.67746876107E+02 -0.44886705261E+03  0.72168608032E+03  0.00000000000E+00 0. -1.
         -3    1    6    6    0  503  0.16986299902E+03 -0.11149897962E+02 -0.19074053685E+03  0.25565545380E+03  0.00000000000E+00 0.  1.
<mgrwt>
<rscale>  0 0.18054829E+04</rscale>
<asrwt>0</asrwt>
<pdfrwt beam="1">  1        1 0.38825385E+00 0.18054829E+04</pdfrwt>
<pdfrwt beam="2">  1       -2 0.49680310E-01 0.18054829E+04</pdfrwt>
<totfact> 0.41477191E+00</totfact>
</mgrwt>
</event>
<event>
12    5  0.5246737E-008  0.2316417E+04  0.7818608E-02  0.8471476E-01
         -2   -1    0    0    0  501 -0.00000000000E+00  0.00000000000E+00  0.15288162516E+04  0.15288162516E+04  0.00000000000E+00 0.  1.
          1   -1    0    0  501    0  0.00000000000E+00 -0.00000000000E+00 -0.87744174495E+03  0.87744174495E+03  0.00000000000E+00 0. -1.
        -24    2    1    2    0    0  0.78431937357E+03 -0.16460143625E+03  0.85901334012E+03  0.11778211492E+04  0.84310309828E+02 0.  0.
        254    2    1    2    0    0 -0.78431937357E+03  0.16460143625E+03 -0.20763883349E+03  0.12284368474E+04  0.90757517056E+03 0.  0.
         23    2    4    4    0    0 -0.67975643441E+03 -0.20095249113E+03 -0.36998797702E+03  0.80493735759E+03  0.92640880229E+02 0.  0.
         23    2    4    4    0    0 -0.10456293915E+03  0.36555392737E+03  0.16234914354E+03  0.42349948977E+03  0.91823152674E+02 0.  0.
          3    1    3    3  502    0  0.51143462102E+02 -0.20854271039E+02  0.90257131991E+02  0.10581542521E+03  0.00000000000E+00 0. -1.
         -2    1    3    3    0  502  0.73317591146E+03 -0.14374716521E+03  0.76875620812E+03  0.10720057240E+04  0.00000000000E+00 0.  1.
         13    1    5    5    0    0 -0.42186094382E+03 -0.89432576385E+02 -0.25761293539E+03  0.50232386577E+03  0.00000000000E+00 0. -1.
        -13    1    5    5    0    0 -0.25789549059E+03 -0.11151991474E+03 -0.11237504163E+03  0.30261349182E+03  0.00000000000E+00 0.  1.
          4    1    6    6  503    0  0.31517279316E+01  0.60014839315E+00  0.15177210893E+02  0.15512617366E+02  0.00000000000E+00 0. -1.
         -4    1    6    6    0  503 -0.10771466709E+03  0.36495377898E+03  0.14717193264E+03  0.40798687240E+03  0.00000000000E+00 0.  1.
<mgrwt>
<rscale>  0 0.23164172E+04</rscale>
<asrwt>0</asrwt>
<pdfrwt beam="1">  1        1 0.13499104E+00 0.23164172E+04</pdfrwt>
<pdfrwt beam="2">  1       -2 0.23520250E+00 0.23164172E+04</pdfrwt>
<totfact> 0.11922223E+00</totfact>
</mgrwt>
</event>
<event>
12    5  0.5246737E-008  0.1166617E+04  0.7818608E-02  0.9142589E-01
          1   -1    0    0  501    0  0.00000000000E+00  0.00000000000E+00  0.16593649340E+04  0.16593649340E+04  0.00000000000E+00 0. -1.
         -2   -1    0    0    0  501 -0.00000000000E+00 -0.00000000000E+00 -0.20504746560E+03  0.20504746560E+03  0.00000000000E+00 0.  1.
        -24    2    1    2    0    0 -0.13258591875E+03 -0.17102332168E+03  0.27760671137E+03  0.36702137026E+03  0.10397690906E+03 0.  0.
        254    2    1    2    0    0  0.13258591875E+03  0.17102332168E+03  0.11767107570E+04  0.14973910293E+04  0.90039085216E+03 0.  0.
         23    2    4    4    0    0  0.21513726364E+03 -0.41177058546E+02 -0.53530462179E+02  0.24263740183E+03  0.89598024709E+02 0.  0.
         23    2    4    4    0    0 -0.82551344889E+02  0.21220038023E+03  0.12302412192E+04  0.12547536275E+04  0.95233830204E+02 0.  0.
          3    1    3    3  502    0 -0.49681872116E+02 -0.13307507089E+02  0.11424674492E+03  0.12529045010E+03  0.00000000000E+00 0. -1.
         -4    1    3    3    0  502 -0.82904046633E+02 -0.15771581459E+03  0.16335996646E+03  0.24173092016E+03  0.00000000000E+00 0.  1.
         13    1    5    5    0    0  0.19231129489E+03 -0.34761316031E+01 -0.39227426131E+02  0.19630208505E+03  0.00000000000E+00 0.  1.
        -13    1    5    5    0    0  0.22825968749E+02 -0.37700926943E+02 -0.14303036047E+02  0.46335316788E+02  0.00000000000E+00 0. -1.
          1    1    6    6  503    0  0.13431184552E+02  0.81956161433E+02  0.34553626028E+03  0.35537658376E+03  0.00000000000E+00 0. -1.
         -1    1    6    6    0  503 -0.95982529441E+02  0.13024421879E+03  0.88470495892E+03  0.89937704375E+03  0.00000000000E+00 0.  1.
<mgrwt>
<rscale>  0 0.11666166E+04</rscale>
<asrwt>0</asrwt>
<pdfrwt beam="1">  1        1 0.25528690E+00 0.11666166E+04</pdfrwt>
<pdfrwt beam="2">  1       -2 0.31545765E-01 0.11666166E+04</pdfrwt>
<totfact> 0.41295350E+01</totfact>
</mgrwt>
</event>
<event>
12    5  0.5246737E-008  0.3259396E+04  0.7818608E-02  0.8173305E-01
          1   -1    0    0  501    0  0.00000000000E+00  0.00000000000E+00  0.15352382876E+04  0.15352382876E+04  0.00000000000E+00 0. -1.
         -2   -1    0    0    0  501 -0.00000000000E+00 -0.00000000000E+00 -0.17299694983E+04  0.17299694983E+04  0.00000000000E+00 0.  1.
        -24    2    1    2    0    0  0.51166406677E+03  0.42628362455E+03  0.12705539418E+04  0.14367885024E+04  0.80845754668E+02 0.  0.
        254    2    1    2    0    0 -0.51166406677E+03 -0.42628362455E+03 -0.14652851524E+04  0.18284192835E+04  0.86748985732E+03 0.  0.
         23    2    4    4    0    0  0.79647674672E+02 -0.37404393826E+02 -0.92423927781E+03  0.93290863377E+03  0.91419010993E+02 0.  0.
         23    2    4    4    0    0 -0.59131174144E+03 -0.38887923073E+03 -0.54104587459E+03  0.89551064969E+03  0.91280083564E+02 0.  0.
          1    1    3    3  502    0  0.23465343996E+03  0.20884425037E+03  0.68311091871E+03  0.75187677519E+03  0.00000000000E+00 0. -1.
         -2    1    3    3    0  502  0.27701062681E+03  0.21743937418E+03  0.58744302304E+03  0.68491172725E+03  0.00000000000E+00 0.  1.
         13    1    5    5    0    0  0.51650645264E+02 -0.58857300035E+02 -0.79805184526E+03  0.80188447961E+03  0.00000000000E+00 0.  1.
        -13    1    5    5    0    0  0.27997029408E+02  0.21452906209E+02 -0.12618743255E+03  0.13102415416E+03  0.00000000000E+00 0. -1.
          3    1    6    6  503    0 -0.46065652147E+02 -0.12787130184E+02 -0.16440367569E+02  0.50555323082E+02  0.00000000000E+00 0. -1.
         -3    1    6    6    0  503 -0.54524608929E+03 -0.37609210054E+03 -0.52460550702E+03  0.84495532661E+03  0.00000000000E+00 0.  1.
<mgrwt>
<rscale>  0 0.32593959E+04</rscale>
<asrwt>0</asrwt>
<pdfrwt beam="1">  1        1 0.23619051E+00 0.32593959E+04</pdfrwt>
<pdfrwt beam="2">  1       -2 0.26614915E+00 0.32593959E+04</pdfrwt>
<totfact> 0.23136832E-01</totfact>
</mgrwt>
</event>
<event>
12    5  0.5246737E-008  0.1302919E+04  0.7818608E-02  0.9027254E-01
          1   -1    0    0  501    0  0.00000000000E+00  0.00000000000E+00  0.12481178195E+04  0.12481178195E+04  0.00000000000E+00 0. -1.
         -2   -1    0    0    0  501 -0.00000000000E+00 -0.00000000000E+00 -0.34003144394E+03  0.34003144394E+03  0.00000000000E+00 0.  1.
        -24    2    1    2    0    0 -0.26653684194E+03 -0.20994922548E+03  0.23478224950E+03  0.42022641820E+03  0.79667888665E+02 0.  0.
        254    2    1    2    0    0  0.26653684194E+03  0.20994922548E+03  0.67330412609E+03  0.11679228453E+04  0.89195558236E+03 0.  0.
         23    2    4    4    0    0  0.10319418379E+03 -0.26807761532E+03  0.56935560404E+03  0.64433726517E+03  0.92141521780E+02 0.  0.
         23    2    4    4    0    0  0.16334265815E+03  0.47802684080E+03  0.10394852206E+03  0.52358558010E+03  0.90255636735E+02 0.  0.
          3    1    3    3  502    0 -0.15425452769E+03 -0.82578107953E+02  0.14988450781E+03  0.23038873433E+03  0.00000000000E+00 0. -1.
         -4    1    3    3    0  502 -0.11228231425E+03 -0.12737111752E+03  0.84897741689E+02  0.18983768387E+03  0.00000000000E+00 0.  1.
         13    1    5    5    0    0  0.99803670334E+02 -0.13333307715E+03  0.29954674398E+03  0.34273420299E+03  0.00000000000E+00 0.  1.
        -13    1    5    5    0    0  0.33905134580E+01 -0.13474453817E+03  0.26980886006E+03  0.30160306218E+03  0.00000000000E+00 0. -1.
          1    1    6    6  503    0  0.10926443877E+03  0.30674391924E+03  0.11046495385E+03  0.34385033896E+03  0.00000000000E+00 0. -1.
         -1    1    6    6    0  503  0.54078219376E+02  0.17128292156E+03 -0.65164317902E+01  0.17973524115E+03  0.00000000000E+00 0.  1.
<mgrwt>
<rscale>  0 0.13029187E+04</rscale>
<asrwt>0</asrwt>
<pdfrwt beam="1">  1        1 0.19201812E+00 0.13029187E+04</pdfrwt>
<pdfrwt beam="2">  1       -2 0.52312530E-01 0.13029187E+04</pdfrwt>
<totfact> 0.29290663E+01</totfact>
</mgrwt>
</event>
<event>
12    5  0.5246737E-008  0.1977111E+04  0.7818608E-02  0.8617397E-01
          1   -1    0    0  501    0  0.00000000000E+00  0.00000000000E+00  0.10613945357E+04  0.10613945357E+04  0.00000000000E+00 0. -1.
         -2   -1    0    0    0  501 -0.00000000000E+00 -0.00000000000E+00 -0.92071504982E+03  0.92071504982E+03  0.00000000000E+00 0.  1.
        -24    2    1    2    0    0 -0.43687019187E+03  0.63818710834E+03  0.16172094825E+03  0.79402029565E+03  0.78588898747E+02 0.  0.
        254    2    1    2    0    0  0.43687019187E+03 -0.63818710834E+03 -0.21041462358E+02  0.11880892899E+04  0.90165130056E+03 0.  0.
         23    2    4    4    0    0  0.26591571842E+03  0.18640358685E+03 -0.50950127034E+02  0.34060017745E+03  0.89191361366E+02 0.  0.
         23    2    4    4    0    0  0.17095447345E+03 -0.82459069519E+03  0.29908664677E+02  0.84748911243E+03  0.90377103712E+02 0.  0.
          1    1    3    3  502    0 -0.25534516128E+03  0.42864598275E+03  0.82705940170E+02  0.50574578837E+03  0.00000000000E+00 0. -1.
         -2    1    3    3    0  502 -0.18152503059E+03  0.20954112559E+03  0.79015008080E+02  0.28827450728E+03  0.00000000000E+00 0.  1.
         13    1    5    5    0    0  0.18678584512E+03  0.17406195886E+03 -0.51756422347E+02  0.26050958660E+03  0.00000000000E+00 0.  1.
        -13    1    5    5    0    0  0.79129873304E+02  0.12341627990E+02  0.80629531227E+00  0.80090590850E+02  0.00000000000E+00 0. -1.
          3    1    6    6  503    0  0.12627280509E+03 -0.42103646625E+03  0.39679153687E+02  0.44135129144E+03  0.00000000000E+00 0. -1.
         -3    1    6    6    0  503  0.44681668362E+02 -0.40355422894E+03 -0.97704890101E+01  0.40613782099E+03  0.00000000000E+00 0.  1.
<mgrwt>
<rscale>  0 0.19771109E+04</rscale>
<asrwt>0</asrwt>
<pdfrwt beam="1">  1        1 0.16329147E+00 0.19771109E+04</pdfrwt>
<pdfrwt beam="2">  1       -2 0.14164847E+00 0.19771109E+04</pdfrwt>
<totfact> 0.38508477E+00</totfact>
</mgrwt>
</event>
<event>
12    5  0.5246737E-008  0.2543880E+04  0.7818608E-02  0.8387518E-01
         -2   -1    0    0    0  501 -0.00000000000E+00  0.00000000000E+00  0.13387623593E+04  0.13387623593E+04  0.00000000000E+00 0.  1.
          1   -1    0    0  501    0  0.00000000000E+00 -0.00000000000E+00 -0.12084528301E+04  0.12084528301E+04  0.00000000000E+00 0. -1.
        -24    2    1    2    0    0  0.79890375978E+03  0.23324807836E+03  0.78595278040E+03  0.11474979597E+04  0.79861824322E+02 0.  0.
        254    2    1    2    0    0 -0.79890375978E+03 -0.23324807836E+03 -0.65564325121E+03  0.13997172298E+04  0.91470671090E+03 0.  0.
         23    2    4    4    0    0 -0.37695775270E+02  0.26247840577E+03 -0.84353679571E+01  0.28036486456E+03  0.90649969005E+02 0.  0.
         23    2    4    4    0    0 -0.76120798451E+03 -0.49572648413E+03 -0.64720788325E+03  0.11193523652E+04  0.94283246488E+02 0.  0.
          3    1    3    3  502    0  0.13244201922E+03  0.17889290068E+02  0.15670572972E+03  0.20595533710E+03  0.00000000000E+00 0. -1.
         -4    1    3    3    0  502  0.66646174056E+03  0.21535878829E+03  0.62924705068E+03  0.94154262257E+03  0.00000000000E+00 0.  1.
         13    1    5    5    0    0  0.11671571949E+02  0.30739602220E+02  0.24694085753E+02  0.41121121186E+02  0.00000000000E+00 0. -1.
        -13    1    5    5    0    0 -0.49367347219E+02  0.23173880355E+03 -0.33129453711E+02  0.23924374338E+03  0.00000000000E+00 0.  1.
          2    1    6    6  503    0 -0.42468868353E+03 -0.28569743875E+03 -0.42074318142E+03  0.66257703638E+03  0.00000000000E+00 0. -1.
         -2    1    6    6    0  503 -0.33651930098E+03 -0.21002904538E+03 -0.22646470183E+03  0.45677532881E+03  0.00000000000E+00 0.  1.
<mgrwt>
<rscale>  0 0.25438798E+04</rscale>
<asrwt>0</asrwt>
<pdfrwt beam="1">  1        1 0.18591582E+00 0.25438798E+04</pdfrwt>
<pdfrwt beam="2">  1       -2 0.20596344E+00 0.25438798E+04</pdfrwt>
<totfact> 0.99478673E-01</totfact>
</mgrwt>
</event>
<event>
12    5  0.5246737E-008  0.2072678E+04  0.7818608E-02  0.8573375E-01
          3   -1    0    0  501    0  0.00000000000E+00  0.00000000000E+00  0.24652475189E+04  0.24652475189E+04  0.00000000000E+00 0. -1.
         -4   -1    0    0    0  501 -0.00000000000E+00 -0.00000000000E+00 -0.43565536323E+03  0.43565536323E+03  0.00000000000E+00 0.  1.
        -24    2    1    2    0    0  0.30456976145E+03 -0.72106372653E+03  0.48086134567E+03  0.92197139130E+03  0.78153536760E+02 0.  0.
        254    2    1    2    0    0 -0.30456976145E+03  0.72106372653E+03  0.15487308100E+04  0.19789314909E+04  0.95126604391E+03 0.  0.
         23    2    4    4    0    0  0.13613065377E+03  0.71209879186E+03  0.12178678930E+04  0.14203065998E+04  0.91936871525E+02 0.  0.
         23    2    4    4    0    0 -0.44070041521E+03  0.89649346767E+01  0.33086291701E+03  0.55862489106E+03  0.91072899562E+02 0.  0.
          3    1    3    3  502    0  0.13315805794E+03 -0.27290735604E+03  0.22704643109E+03  0.37915639945E+03  0.00000000000E+00 0. -1.
         -4    1    3    3    0  502  0.17141170350E+03 -0.44815637049E+03  0.25381491458E+03  0.54281499185E+03  0.00000000000E+00 0.  1.
         13    1    5    5    0    0  0.39310013904E+02  0.72863927680E+02  0.11138574705E+03  0.13878477509E+03  0.00000000000E+00 0. -1.
        -13    1    5    5    0    0  0.96820639864E+02  0.63923486418E+03  0.11064821460E+04  0.12815218247E+04  0.00000000000E+00 0.  1.
          1    1    6    6  503    0  0.13955978914E+01  0.54275427634E+01 -0.11600035597E+01  0.57228945632E+01  0.00000000000E+00 0. -1.
         -1    1    6    6    0  503 -0.44209601311E+03  0.35373919133E+01  0.33202292057E+03  0.55290199650E+03  0.00000000000E+00 0.  1.
<mgrwt>
<rscale>  0 0.20726778E+04</rscale>
<asrwt>0</asrwt>
<pdfrwt beam="1">  1        3 0.37926884E+00 0.20726778E+04</pdfrwt>
<pdfrwt beam="2">  1       -4 0.67023903E-01 0.20726778E+04</pdfrwt>
<totfact> 0.62757149E-02</totfact>
</mgrwt>
</event>
<event>
12    5  0.5246737E-008  0.1585971E+04  0.7818608E-02  0.8829213E-01
          1   -1    0    0  501    0  0.00000000000E+00  0.00000000000E+00  0.14251097624E+04  0.14251097624E+04  0.00000000000E+00 0. -1.
         -4   -1    0    0    0  501 -0.00000000000E+00 -0.00000000000E+00 -0.44124735772E+03  0.44124735772E+03  0.00000000000E+00 0.  1.
        -24    2    1    2    0    0  0.16291928696E+03  0.22225394528E+03 -0.20308000723E+03  0.35186722826E+03  0.81422028520E+02 0.  0.
        254    2    1    2    0    0 -0.16291928696E+03 -0.22225394528E+03  0.11869424119E+04  0.15144898918E+04  0.89939303594E+03 0.  0.
         23    2    4    4    0    0 -0.28461163530E+03 -0.25475530634E+03  0.84927256836E+02  0.40171212707E+03  0.90862230978E+02 0.  0.
         23    2    4    4    0    0  0.12169234834E+03  0.32501361057E+02  0.11020151550E+04  0.11127777648E+04  0.89283737152E+02 0.  0.
          1    1    3    3  502    0  0.30150316906E+02  0.14825453742E+02 -0.55136944855E+02  0.64567161748E+02  0.00000000000E+00 0. -1.
         -2    1    3    3    0  502  0.13276897006E+03  0.20742849154E+03 -0.14794306237E+03  0.28730006651E+03  0.00000000000E+00 0.  1.
         13    1    5    5    0    0 -0.24101166917E+03 -0.24228897650E+03  0.52019538348E+02  0.34568281007E+03  0.00000000000E+00 0.  1.
        -13    1    5    5    0    0 -0.43599966137E+02 -0.12466329841E+02  0.32907718488E+02  0.56029316995E+02  0.00000000000E+00 0. -1.
          2    1    6    6  503    0 -0.11318603288E+02 -0.38446316777E+01  0.37238011003E+02  0.39109607983E+02  0.00000000000E+00 0. -1.
         -2    1    6    6    0  503  0.13301095163E+03  0.36345992735E+02  0.10647771440E+04  0.10736681568E+04  0.00000000000E+00 0.  1.
<mgrwt>
<rscale>  0 0.15859709E+04</rscale>
<asrwt>0</asrwt>
<pdfrwt beam="1">  1        1 0.21924765E+00 0.15859709E+04</pdfrwt>
<pdfrwt beam="2">  1       -4 0.67884210E-01 0.15859709E+04</pdfrwt>
<totfact> 0.69605692E+00</totfact>
</mgrwt>
</event>
<event>
12    5  0.5246737E-008  0.1732148E+04  0.7818608E-02  0.8743239E-01
         -2   -1    0    0    0  501 -0.00000000000E+00  0.00000000000E+00  0.28087799486E+03  0.28087799486E+03  0.00000000000E+00 0.  1.
          1   -1    0    0  501    0  0.00000000000E+00 -0.00000000000E+00 -0.26704969853E+04  0.26704969853E+04  0.00000000000E+00 0. -1.
        -24    2    1    2    0    0 -0.89225382509E+02 -0.60332461717E+03 -0.57957174383E+03  0.84514087765E+03  0.79987088129E+02 0.  0.
        254    2    1    2    0    0  0.89225382509E+02  0.60332461717E+03 -0.18100472466E+04  0.21062341025E+04  0.88768761231E+03 0.  0.
         23    2    4    4    0    0  0.38435605976E+03  0.65410802329E+03 -0.12700947080E+04  0.14821235683E+04  0.89234621127E+02 0.  0.
         23    2    4    4    0    0 -0.29513067726E+03 -0.50783406120E+02 -0.53995253864E+03  0.62411053424E+03  0.91017272905E+02 0.  0.
          1    1    3    3  502    0 -0.33060173778E+02 -0.17196879061E+03 -0.21705718032E+03  0.27889076637E+03  0.00000000000E+00 0. -1.
         -2    1    3    3    0  502 -0.56165208731E+02 -0.43135582656E+03 -0.36251456351E+03  0.56625011129E+03  0.00000000000E+00 0.  1.
         13    1    5    5    0    0  0.29793853441E+03  0.46493366279E+03 -0.98503130115E+03  0.11292552171E+04  0.00000000000E+00 0. -1.
        -13    1    5    5    0    0  0.86417525358E+02  0.18917436050E+03 -0.28506340684E+03  0.35286835120E+03  0.00000000000E+00 0.  1.
          2    1    6    6  503    0 -0.26038846898E+03 -0.69684248385E+02 -0.43262771948E+03  0.50973011772E+03  0.00000000000E+00 0. -1.
         -2    1    6    6    0  503 -0.34742208275E+02  0.18900842265E+02 -0.10732481916E+03  0.11438041652E+03  0.00000000000E+00 0.  1.
<mgrwt>
<rscale>  0 0.17321476E+04</rscale>
<asrwt>0</asrwt>
<pdfrwt beam="1">  1        1 0.41084570E+00 0.17321476E+04</pdfrwt>
<pdfrwt beam="2">  1       -2 0.43211998E-01 0.17321476E+04</pdfrwt>
<totfact> 0.43663446E+00</totfact>
</mgrwt>
</event>
<event>
12    5  0.5246737E-008  0.1945887E+04  0.7818608E-02  0.8632347E-01
         -2   -1    0    0    0  501 -0.00000000000E+00  0.00000000000E+00  0.77458149583E+03  0.77458149583E+03  0.00000000000E+00 0.  1.
          1   -1    0    0  501    0  0.00000000000E+00 -0.00000000000E+00 -0.12221034119E+04  0.12221034119E+04  0.00000000000E+00 0. -1.
        -24    2    1    2    0    0 -0.26854043406E+03  0.55673587999E+03  0.27858662689E+03  0.68586279452E+03  0.10357827683E+03 0.  0.
        254    2    1    2    0    0  0.26854043406E+03 -0.55673587999E+03 -0.72610854295E+03  0.13108221132E+04  0.89941769579E+03 0.  0.
         23    2    4    4    0    0 -0.16491062014E+03 -0.22847930817E+03  0.10393357802E+03  0.31431072322E+03  0.92686219022E+02 0.  0.
         23    2    4    4    0    0  0.43345105420E+03 -0.32825657182E+03 -0.83004212097E+03  0.99651138997E+03  0.91830465702E+02 0.  0.
          3    1    3    3  502    0 -0.24459725733E+03  0.49182925170E+03  0.20892471544E+03  0.58768475209E+03  0.00000000000E+00 0. -1.
         -4    1    3    3    0  502 -0.23943176732E+02  0.64906628288E+02  0.69661911448E+02  0.98178042425E+02  0.00000000000E+00 0.  1.
         13    1    5    5    0    0 -0.30323676300E+02 -0.20701053057E+02  0.48138007578E+02  0.60541941788E+02  0.00000000000E+00 0. -1.
        -13    1    5    5    0    0 -0.13458694384E+03 -0.20777825511E+03  0.55795570442E+02  0.25376878143E+03  0.00000000000E+00 0.  1.
          4    1    6    6  503    0  0.29693742330E+02 -0.29621439793E+02 -0.28743034469E+02  0.50845944376E+02  0.00000000000E+00 0. -1.
         -4    1    6    6    0  503  0.40375731187E+03 -0.29863513203E+03 -0.80129908650E+03  0.94566544559E+03  0.00000000000E+00 0.  1.
<mgrwt>
<rscale>  0 0.19458866E+04</rscale>
<asrwt>0</asrwt>
<pdfrwt beam="1">  1        1 0.18801591E+00 0.19458866E+04</pdfrwt>
<pdfrwt beam="2">  1       -2 0.11916638E+00 0.19458866E+04</pdfrwt>
<totfact> 0.45477705E+00</totfact>
</mgrwt>
</event>
<event>
12    5  0.5246737E-008  0.2180234E+04  0.7818608E-02  0.8526701E-01
          1   -1    0    0  501    0  0.00000000000E+00  0.00000000000E+00  0.37043394094E+04  0.37043394094E+04  0.00000000000E+00 0. -1.
         -2   -1    0    0    0  501 -0.00000000000E+00 -0.00000000000E+00 -0.32080068332E+03  0.32080068332E+03  0.00000000000E+00 0.  1.
        -24    2    1    2    0    0  0.82627093541E+03 -0.21515411358E+02  0.72862641422E+03  0.11043265223E+04  0.73851504423E+02 0.  0.
        254    2    1    2    0    0 -0.82627093541E+03  0.21515411358E+02  0.26549123118E+04  0.29208135704E+04  0.89409504968E+03 0.  0.
         23    2    4    4    0    0 -0.68351225836E+03  0.40299294112E+03  0.18170470390E+04  0.19848026009E+04  0.90493671822E+02 0.  0.
         23    2    4    4    0    0 -0.14275867705E+03 -0.38147752976E+03  0.83786527284E+03  0.93601096951E+03  0.90516153435E+02 0.  0.
          1    1    3    3  502    0  0.28145094395E+03  0.18993412369E+02  0.27921267334E+03  0.39690691669E+03  0.00000000000E+00 0. -1.
         -2    1    3    3    0  502  0.54481999146E+03 -0.40508823726E+02  0.44941374088E+03  0.70741960560E+03  0.00000000000E+00 0.  1.
         13    1    5    5    0    0 -0.46484327941E+03  0.30791353087E+03  0.11971659118E+04  0.13206423578E+04  0.00000000000E+00 0. -1.
        -13    1    5    5    0    0 -0.21866897894E+03  0.95079410248E+02  0.61988112721E+03  0.66416024307E+03  0.00000000000E+00 0.  1.
          2    1    6    6  503    0 -0.98953795033E+02 -0.33300413331E+03  0.64842910855E+03  0.73562484676E+03  0.00000000000E+00 0.  1.
         -2    1    6    6    0  503 -0.43804882020E+02 -0.48473396451E+02  0.18943616428E+03  0.20038612275E+03  0.00000000000E+00 0. -1.
<mgrwt>
<rscale>  0 0.21802336E+04</rscale>
<asrwt>0</asrwt>
<pdfrwt beam="1">  1        1 0.56989834E+00 0.21802336E+04</pdfrwt>
<pdfrwt beam="2">  1       -2 0.49353954E-01 0.21802336E+04</pdfrwt>
<totfact> 0.53582781E-01</totfact>
</mgrwt>
</event>
<event>
12    5  0.5246737E-008  0.1336351E+04  0.7818608E-02  0.9001225E-01
          1   -1    0    0  501    0  0.00000000000E+00  0.00000000000E+00  0.13430911869E+04  0.13430911869E+04  0.00000000000E+00 0. -1.
         -2   -1    0    0    0  501 -0.00000000000E+00 -0.00000000000E+00 -0.33241108029E+03  0.33241108029E+03  0.00000000000E+00 0.  1.
        -24    2    1    2    0    0  0.16543665259E+03  0.13294635796E+03 -0.86626642071E+02  0.24348172983E+03  0.82068005508E+02 0.  0.
        254    2    1    2    0    0 -0.16543665259E+03 -0.13294635796E+03  0.10973067487E+04  0.14320205374E+04  0.89529698906E+03 0.  0.
         23    2    4    4    0    0 -0.22687363227E+03 -0.36045423720E+03  0.10965670101E+04  0.11793425516E+04  0.83610671051E+02 0.  0.
         23    2    4    4    0    0  0.61436979676E+02  0.22750787923E+03  0.73973861367E+00  0.25267798576E+03  0.91166220117E+02 0.  0.
          1    1    3    3  502    0  0.13398578016E+03  0.14104610396E+03 -0.68247576558E+02  0.20616479921E+03  0.00000000000E+00 0. -1.
         -2    1    3    3    0  502  0.31450872427E+02 -0.80997459951E+01 -0.18379065513E+02  0.37316930618E+02  0.00000000000E+00 0.  1.
         13    1    5    5    0    0 -0.17134929195E+03 -0.28398642485E+03  0.93603388180E+03  0.99306006728E+03  0.00000000000E+00 0.  1.
        -13    1    5    5    0    0 -0.55524340312E+02 -0.76467812350E+02  0.16053312828E+03  0.18628248433E+03  0.00000000000E+00 0. -1.
          3    1    6    6  503    0  0.21876436651E+02  0.14318181193E+03 -0.41108991432E+02  0.15056413559E+03  0.00000000000E+00 0. -1.
         -3    1    6    6    0  503  0.39560543025E+02  0.84326067301E+02  0.41848730045E+02  0.10211385017E+03  0.00000000000E+00 0.  1.
<mgrwt>
<rscale>  0 0.13363508E+04</rscale>
<asrwt>0</asrwt>
<pdfrwt beam="1">  1        1 0.20662941E+00 0.13363508E+04</pdfrwt>
<pdfrwt beam="2">  1       -2 0.51140167E-01 0.13363508E+04</pdfrwt>
<totfact> 0.26175941E+01</totfact>
</mgrwt>
</event>
<event>
12    5  0.5246737E-008  0.1492353E+04  0.7818608E-02  0.8889554E-01
         -2   -1    0    0    0  501 -0.00000000000E+00  0.00000000000E+00  0.20297904218E+03  0.20297904218E+03  0.00000000000E+00 0.  1.
          1   -1    0    0  501    0  0.00000000000E+00 -0.00000000000E+00 -0.27430372703E+04  0.27430372703E+04  0.00000000000E+00 0. -1.
        -24    2    1    2    0    0 -0.36404626064E+03  0.19072287844E+03 -0.34909515327E+03  0.54723658039E+03  0.93249947102E+02 0.  0.
        254    2    1    2    0    0  0.36404626064E+03 -0.19072287844E+03 -0.21909630748E+04  0.23987797321E+04  0.88595717248E+03 0.  0.
         23    2    4    4    0    0  0.13744252146E+03 -0.41464015822E+03 -0.47712586682E+03  0.65318623286E+03  0.90477922721E+02 0.  0.
         23    2    4    4    0    0  0.22660373919E+03  0.22391727979E+03 -0.17138372080E+04  0.17455934992E+04  0.91490360735E+02 0.  0.
          1    1    3    3  502    0 -0.77299296271E+02  0.46176190477E+01 -0.44130546778E+02  0.89129169011E+02  0.00000000000E+00 0. -1.
         -2    1    3    3    0  502 -0.28674696437E+03  0.18610525939E+03 -0.30496460649E+03  0.45810741138E+03  0.00000000000E+00 0.  1.
         13    1    5    5    0    0  0.51099743267E+02 -0.11500414248E+03 -0.19839889328E+03  0.23494522214E+03  0.00000000000E+00 0.  1.
        -13    1    5    5    0    0  0.86342778189E+02 -0.29963601575E+03 -0.27872697354E+03  0.41824101073E+03  0.00000000000E+00 0. -1.
          2    1    6    6  503    0  0.63288076084E+02  0.12862412209E+02 -0.33730918683E+03  0.34343603442E+03  0.00000000000E+00 0. -1.
         -2    1    6    6    0  503  0.16331566310E+03  0.21105486758E+03 -0.13765280212E+04  0.14021574648E+04  0.00000000000E+00 0.  1.
<mgrwt>
<rscale>  0 0.14923526E+04</rscale>
<asrwt>0</asrwt>
<pdfrwt beam="1">  1        1 0.42200572E+00 0.14923526E+04</pdfrwt>
<pdfrwt beam="2">  1       -2 0.31227546E-01 0.14923526E+04</pdfrwt>
<totfact> 0.74284954E+00</totfact>
</mgrwt>
</event>
<event>
12    5  0.5246737E-008  0.2270198E+04  0.7818608E-02  0.8489765E-01
          1   -1    0    0  501    0  0.00000000000E+00  0.00000000000E+00  0.76740222360E+03  0.76740222360E+03  0.00000000000E+00 0. -1.
         -2   -1    0    0    0  501 -0.00000000000E+00 -0.00000000000E+00 -0.16789750619E+04  0.16789750619E+04  0.00000000000E+00 0.  1.
        -24    2    1    2    0    0 -0.89470801853E+02 -0.72292028157E+03 -0.10515562333E+04  0.12817405074E+04  0.80432945238E+02 0.  0.
        254    2    1    2    0    0  0.89470801853E+02  0.72292028157E+03  0.13998339501E+03  0.11646367781E+04  0.89786675852E+03 0.  0.
         23    2    4    4    0    0  0.18920635822E+03  0.88382128947E+03  0.23275901703E+03  0.93782903298E+03  0.91691970111E+02 0.  0.
         23    2    4    4    0    0 -0.99735556368E+02 -0.16090100790E+03 -0.92775622018E+02  0.22680774508E+03  0.83654776561E+02 0.  0.
          1    1    3    3  502    0 -0.20387196841E+02 -0.44503771891E+03 -0.60685620104E+03  0.75282711016E+03  0.00000000000E+00 0. -1.
         -2    1    3    3    0  502 -0.69083605011E+02 -0.27788256266E+03 -0.44470003224E+03  0.52891339725E+03  0.00000000000E+00 0.  1.
         13    1    5    5    0    0  0.65381055889E+02  0.30024404732E+03  0.34660557795E+02  0.30922891956E+03  0.00000000000E+00 0. -1.
        -13    1    5    5    0    0  0.12382530233E+03  0.58357724215E+03  0.19809845924E+03  0.62860011343E+03  0.00000000000E+00 0.  1.
          4    1    6    6  503    0 -0.79427501870E+01 -0.70934006920E+02 -0.57946108299E+01  0.71612136771E+02  0.00000000000E+00 0. -1.
         -4    1    6    6    0  503 -0.91792806181E+02 -0.89967000980E+02 -0.86981011188E+02  0.15519560831E+03  0.00000000000E+00 0.  1.
<mgrwt>
<rscale>  0 0.22701975E+04</rscale>
<asrwt>0</asrwt>
<pdfrwt beam="1">  1        1 0.11806188E+00 0.22701975E+04</pdfrwt>
<pdfrwt beam="2">  1       -2 0.25830385E+00 0.22701975E+04</pdfrwt>
<totfact> 0.10721558E+00</totfact>
</mgrwt>
</event>
<event>
12    5  0.5246737E-008  0.1216678E+04  0.7818608E-02  0.9098383E-01
         -2   -1    0    0    0  501 -0.00000000000E+00  0.00000000000E+00  0.15187268069E+03  0.15187268069E+03  0.00000000000E+00 0.  1.
          1   -1    0    0  501    0  0.00000000000E+00 -0.00000000000E+00 -0.24367522006E+04  0.24367522006E+04  0.00000000000E+00 0. -1.
        -24    2    1    2    0    0  0.10166450121E+02 -0.26114049570E+03 -0.71352959186E+03  0.76407803009E+03  0.79956503235E+02 0.  0.
        254    2    1    2    0    0 -0.10166450121E+02  0.26114049570E+03 -0.15713499280E+04  0.18245468512E+04  0.88968134781E+03 0.  0.
         23    2    4    4    0    0 -0.40140755438E+03  0.46700935566E+02 -0.10680117901E+04  0.11458036478E+04  0.94381214197E+02 0.  0.
         23    2    4    4    0    0  0.39124110426E+03  0.21443956013E+03 -0.50333813793E+03  0.67874320331E+03  0.91044650244E+02 0.  0.
          1    1    3    3  502    0 -0.34773002373E+02 -0.12680525476E+03 -0.35642703724E+03  0.37990652430E+03  0.00000000000E+00 0. -1.
         -2    1    3    3    0  502  0.44939452495E+02 -0.13433524094E+03 -0.35710255462E+03  0.38417150579E+03  0.00000000000E+00 0.  1.
         13    1    5    5    0    0 -0.17783933648E+03  0.87648125924E+00 -0.35322792485E+03  0.39547131971E+03  0.00000000000E+00 0.  1.
        -13    1    5    5    0    0 -0.22356821790E+03  0.45824454306E+02 -0.71478386522E+03  0.75033232813E+03  0.00000000000E+00 0. -1.
          3    1    6    6  503    0  0.60982152003E+02  0.76376322116E+01 -0.39977477066E+02  0.73316812269E+02  0.00000000000E+00 0. -1.
         -3    1    6    6    0  503  0.33025895225E+03  0.20680192792E+03 -0.46336066087E+03  0.60542639105E+03  0.00000000000E+00 0.  1.
<mgrwt>
<rscale>  0 0.12166776E+04</rscale>
<asrwt>0</asrwt>
<pdfrwt beam="1">  1        1 0.37488494E+00 0.12166776E+04</pdfrwt>
<pdfrwt beam="2">  1       -2 0.23365029E-01 0.12166776E+04</pdfrwt>
<totfact> 0.21196704E+01</totfact>
</mgrwt>
</event>
<event>
12    5  0.5246737E-008  0.2665363E+04  0.7818608E-02  0.8346332E-01
          1   -1    0    0  501    0  0.00000000000E+00  0.00000000000E+00  0.24181411089E+04  0.24181411089E+04  0.00000000000E+00 0. -1.
         -2   -1    0    0    0  501 -0.00000000000E+00 -0.00000000000E+00 -0.73446523078E+03  0.73446523078E+03  0.00000000000E+00 0.  1.
        -24    2    1    2    0    0 -0.10257652053E+04 -0.48263364728E+03  0.35030188610E+03  0.11893484425E+04  0.81907339620E+02 0.  0.
        254    2    1    2    0    0  0.10257652053E+04  0.48263364728E+03  0.13333739921E+04  0.19632578973E+04  0.88958747437E+03 0.  0.
         23    2    4    4    0    0 -0.44905440756E+02  0.17962180482E+03  0.58414342233E+03  0.61888447290E+03  0.86683110004E+02 0.  0.
         23    2    4    4    0    0  0.10706706461E+04  0.30301184246E+03  0.74923056973E+03  0.13443734244E+04  0.88553083056E+02 0.  0.
          1    1    3    3  502    0 -0.90169248027E+03 -0.44033488118E+03  0.28651856596E+03  0.10435693677E+04  0.00000000000E+00 0. -1.
         -2    1    3    3    0  502 -0.12407272504E+03 -0.42298766104E+02  0.63783320143E+02  0.14577907477E+03  0.00000000000E+00 0.  1.
         13    1    5    5    0    0 -0.61326422229E+02  0.16700755699E+03  0.55713374573E+03  0.58485080558E+03  0.00000000000E+00 0.  1.
        -13    1    5    5    0    0  0.16420981472E+02  0.12614247829E+02  0.27009676602E+02  0.34033667316E+02  0.00000000000E+00 0. -1.
          3    1    6    6  503    0  0.29336529940E+03  0.51630382916E+02  0.17059065539E+03  0.34326384464E+03  0.00000000000E+00 0. -1.
         -3    1    6    6    0  503  0.77730534667E+03  0.25138145954E+03  0.57863991434E+03  0.10011095797E+04  0.00000000000E+00 0.  1.
<mgrwt>
<rscale>  0 0.26653634E+04</rscale>
<asrwt>0</asrwt>
<pdfrwt beam="1">  1        1 0.37202170E+00 0.26653634E+04</pdfrwt>
<pdfrwt beam="2">  1       -2 0.11299465E+00 0.26653634E+04</pdfrwt>
<totfact> 0.73142583E-01</totfact>
</mgrwt>
</event>
<event>
12    5  0.5246737E-008  0.1686438E+04  0.7818608E-02  0.8769138E-01
         -2   -1    0    0    0  501 -0.00000000000E+00  0.00000000000E+00  0.19712264803E+03  0.19712264803E+03  0.00000000000E+00 0.  1.
          1   -1    0    0  501    0  0.00000000000E+00 -0.00000000000E+00 -0.36069824788E+04  0.36069824788E+04  0.00000000000E+00 0. -1.
        -24    2    1    2    0    0 -0.29802542314E+03 -0.14176039862E+03 -0.93854750051E+02  0.35189910381E+03  0.78160742691E+02 0.  0.
        254    2    1    2    0    0  0.29802542314E+03  0.14176039862E+03 -0.33160050807E+04  0.34522060230E+04  0.90162163160E+03 0.  0.
         23    2    4    4    0    0  0.24442060380E+03  0.38704084329E+03 -0.30094762515E+04  0.30454430938E+04  0.90742951006E+02 0.  0.
         23    2    4    4    0    0  0.53604819340E+02 -0.24528044468E+03 -0.30652882922E+03  0.40676292924E+03  0.91979259978E+02 0.  0.
          1    1    3    3  502    0 -0.10285512395E+03 -0.99021082398E+01 -0.35276840384E+02  0.10918646316E+03  0.00000000000E+00 0. -1.
         -2    1    3    3    0  502 -0.19517029919E+03 -0.13185829038E+03 -0.58577909667E+02  0.24271264065E+03  0.00000000000E+00 0.  1.
         13    1    5    5    0    0  0.14039594233E+03  0.23781445831E+03 -0.20879821604E+04  0.21061662421E+04  0.00000000000E+00 0. -1.
        -13    1    5    5    0    0  0.10402466148E+03  0.14922638499E+03 -0.92149409113E+03  0.93927685171E+03  0.00000000000E+00 0.  1.
          2    1    6    6  503    0  0.60866662022E+02 -0.77631472768E+02 -0.97358548105E+02  0.13860044372E+03  0.00000000000E+00 0. -1.
         -2    1    6    6    0  503 -0.72618426815E+01 -0.16764897191E+03 -0.20917028111E+03  0.26816248552E+03  0.00000000000E+00 0.  1.
<mgrwt>
<rscale>  0 0.16864376E+04</rscale>
<asrwt>0</asrwt>
<pdfrwt beam="1">  1        1 0.55492036E+00 0.16864376E+04</pdfrwt>
<pdfrwt beam="2">  1       -2 0.30326563E-01 0.16864376E+04</pdfrwt>
<totfact> 0.17428445E+00</totfact>
</mgrwt>
</event>
<event>
12    5  0.5246737E-008  0.1762683E+04  0.7818608E-02  0.8726400E-01
          1   -1    0    0  501    0  0.00000000000E+00  0.00000000000E+00  0.40047633400E+04  0.40047633400E+04  0.00000000000E+00 0. -1.
         -2   -1    0    0    0  501 -0.00000000000E+00 -0.00000000000E+00 -0.19395969710E+03  0.19395969710E+03  0.00000000000E+00 0.  1.
        -24    2    1    2    0    0  0.11917755874E+03 -0.63494972960E+03  0.16750472936E+04  0.17970442835E+04  0.78868696300E+02 0.  0.
        254    2    1    2    0    0 -0.11917755874E+03  0.63494972960E+03  0.21357563493E+04  0.24016787536E+04  0.88839248224E+03 0.  0.
         23    2    4    4    0    0  0.32980757057E+03  0.44641400106E+03  0.80660199768E+03  0.98341970697E+03  0.91918678502E+02 0.  0.
         23    2    4    4    0    0 -0.44898512930E+03  0.18853572854E+03  0.13291543516E+04  0.14182590466E+04  0.87601745205E+02 0.  0.
          3    1    3    3  502    0  0.45317172207E+02 -0.11512377688E+03  0.26641640294E+03  0.29374279541E+03  0.00000000000E+00 0. -1.
         -4    1    3    3    0  502  0.73860386530E+02 -0.51982595272E+03  0.14086308907E+04  0.15033014880E+04  0.00000000000E+00 0.  1.
         13    1    5    5    0    0  0.31747523936E+03  0.44839678476E+03  0.79499871111E+03  0.96637112687E+03  0.00000000000E+00 0.  1.
        -13    1    5    5    0    0  0.12332331204E+02 -0.19827837020E+01  0.11603286572E+02  0.17048580099E+02  0.00000000000E+00 0. -1.
          3    1    6    6  503    0 -0.10987872212E+03  0.69145172199E+01  0.29788069342E+03  0.31757526924E+03  0.00000000000E+00 0. -1.
         -3    1    6    6    0  503 -0.33910640718E+03  0.18162121132E+03  0.10312736582E+04  0.11006837774E+04  0.00000000000E+00 0.  1.
<mgrwt>
<rscale>  0 0.17626828E+04</rscale>
<asrwt>0</asrwt>
<pdfrwt beam="1">  1        1 0.61611737E+00 0.17626828E+04</pdfrwt>
<pdfrwt beam="2">  1       -2 0.29839956E-01 0.17626828E+04</pdfrwt>
<totfact> 0.82866778E-01</totfact>
</mgrwt>
</event>
<event>
12    5  0.5246737E-008  0.2553962E+04  0.7818608E-02  0.8384009E-01
          3   -1    0    0  501    0  0.00000000000E+00  0.00000000000E+00  0.13740769268E+04  0.13740769268E+04  0.00000000000E+00 0. -1.
         -4   -1    0    0    0  501 -0.00000000000E+00 -0.00000000000E+00 -0.11867464116E+04  0.11867464116E+04  0.00000000000E+00 0.  1.
        -24    2    1    2    0    0  0.10582224259E+03  0.29191560550E+03  0.11551854831E+04  0.11989775937E+04  0.81735562584E+02 0.  0.
        254    2    1    2    0    0 -0.10582224259E+03 -0.29191560550E+03 -0.96785496781E+03  0.13618457447E+04  0.90634845713E+03 0.  0.
         23    2    4    4    0    0  0.35089380655E+03 -0.29631392924E+02 -0.16856162539E+03  0.40013717510E+03  0.87705498233E+02 0.  0.
         23    2    4    4    0    0 -0.45671604914E+03 -0.26228421258E+03 -0.79929334243E+03  0.96170856955E+03  0.92903002112E+02 0.  0.
          1    1    3    3  502    0  0.11447129566E+03  0.25224315165E+03  0.10577725045E+04  0.10934408792E+04  0.00000000000E+00 0. -1.
         -2    1    3    3    0  502 -0.86490530629E+01  0.39672453846E+02  0.97412978586E+02  0.10553671451E+03  0.00000000000E+00 0.  1.
         13    1    5    5    0    0  0.22005982600E+03 -0.47311128945E+02 -0.71146495971E+02  0.23606459673E+03  0.00000000000E+00 0. -1.
        -13    1    5    5    0    0  0.13083398055E+03  0.17679736022E+02 -0.97415129418E+02  0.16407257837E+03  0.00000000000E+00 0.  1.
          3    1    6    6  503    0 -0.11612710292E+03 -0.25135441635E+02 -0.15462868304E+03  0.19500595908E+03  0.00000000000E+00 0. -1.
         -3    1    6    6    0  503 -0.34058894622E+03 -0.23714877094E+03 -0.64466465938E+03  0.76670261047E+03  0.00000000000E+00 0.  1.
<mgrwt>
<rscale>  0 0.25539623E+04</rscale>
<asrwt>0</asrwt>
<pdfrwt beam="1">  1        3 0.21139645E+00 0.25539623E+04</pdfrwt>
<pdfrwt beam="2">  1       -4 0.18257637E+00 0.25539623E+04</pdfrwt>
<totfact> 0.43701800E-02</totfact>
</mgrwt>
</event>
<event>
12    5  0.5246737E-008  0.1482855E+04  0.7818608E-02  0.8895935E-01
         -2   -1    0    0    0  501 -0.00000000000E+00  0.00000000000E+00  0.60369973313E+03  0.60369973313E+03  0.00000000000E+00 0.  1.
          1   -1    0    0  501    0  0.00000000000E+00 -0.00000000000E+00 -0.91057673525E+03  0.91057673525E+03  0.00000000000E+00 0. -1.
        -24    2    1    2    0    0  0.21454605623E+03  0.24592188351E+03  0.23695395131E+03  0.41119937203E+03  0.80188312641E+02 0.  0.
        254    2    1    2    0    0 -0.21454605623E+03 -0.24592188351E+03 -0.54383095343E+03  0.11030770964E+04  0.90250728062E+03 0.  0.
         23    2    4    4    0    0 -0.83404380811E+01 -0.15861132870E+03 -0.75866755433E+03  0.77998189888E+03  0.86995333743E+02 0.  0.
         23    2    4    4    0    0 -0.20620561815E+03 -0.87310554815E+02  0.21483660090E+03  0.32309519747E+03  0.89954719736E+02 0.  0.
          3    1    3    3  502    0  0.74848218708E+02  0.50721911208E+02  0.33116518192E+02  0.96289521224E+02  0.00000000000E+00 0. -1.
         -4    1    3    3    0  502  0.13969783752E+03  0.19519997230E+03  0.20383743311E+03  0.31490985081E+03  0.00000000000E+00 0.  1.
         13    1    5    5    0    0  0.18368756004E+02 -0.13229219364E+03 -0.46087803187E+03  0.47984080272E+03  0.00000000000E+00 0. -1.
        -13    1    5    5    0    0 -0.26709194085E+02 -0.26319135061E+02 -0.29778952246E+03  0.30014109616E+03  0.00000000000E+00 0.  1.
          1    1    6    6  503    0 -0.19539819537E+03 -0.98313373557E+02  0.21627557280E+03  0.30760542512E+03  0.00000000000E+00 0. -1.
         -1    1    6    6    0  503 -0.10807422780E+02  0.11002818742E+02 -0.14389718937E+01  0.15489772353E+02  0.00000000000E+00 0.  1.
<mgrwt>
<rscale>  0 0.14828553E+04</rscale>
<asrwt>0</asrwt>
<pdfrwt beam="1">  1        1 0.14008873E+00 0.14828553E+04</pdfrwt>
<pdfrwt beam="2">  1       -2 0.92876883E-01 0.14828553E+04</pdfrwt>
<totfact> 0.14878581E+01</totfact>
</mgrwt>
</event>
<event>
12    5  0.5599837E-008  0.1677058E+04  0.7818608E-02  0.8774558E-01
         -2   -1    0    0    0  501 -0.00000000000E+00  0.00000000000E+00  0.59754201029E+03  0.59754201029E+03  0.00000000000E+00 0.  1.
          1   -1    0    0  501    0  0.00000000000E+00 -0.00000000000E+00 -0.11767051377E+04  0.11767051377E+04  0.00000000000E+00 0. -1.
        -24    2    1    2    0    0 -0.37625332787E+03  0.23538036746E+02  0.27889484553E+03  0.47562376545E+03  0.79467134624E+02 0.  0.
        254    2    1    2    0    0  0.37625332787E+03 -0.23538036746E+02 -0.85805797293E+03  0.12986233825E+04  0.89890967223E+03 0.  0.
         23    2    4    4    0    0 -0.58860707552E+02  0.20073797084E+03  0.75688044511E+02  0.24036070023E+03  0.91017966929E+02 0.  0.
         23    2    4    4    0    0  0.43511403542E+03 -0.22427600758E+03 -0.93374601744E+03  0.10582626823E+04  0.91729647615E+02 0.  0.
          1    1    3    3  502    0 -0.42157410661E+02 -0.17958429202E+02  0.53668367947E+02  0.70569442191E+02  0.00000000000E+00 0. -1.
         -2    1    3    3    0  502 -0.33409591721E+03  0.41496465949E+02  0.22522647758E+03  0.40505432326E+03  0.00000000000E+00 0.  1.
         13    1    5    5    0    0 -0.21395450496E+02  0.95597876602E+02 -0.11626038983E+02  0.98650312190E+02  0.00000000000E+00 0.  1.
        -13    1    5    5    0    0 -0.37465257056E+02  0.10514009424E+03  0.87314083495E+02  0.14171038804E+03  0.00000000000E+00 0. -1.
          4    1    6    6  503    0  0.17618918607E+02  0.86599398038E+01 -0.29960299632E+02  0.35819553380E+02  0.00000000000E+00 0.  1.
         -4    1    6    6    0  503  0.41749511682E+03 -0.23293594739E+03 -0.90378571781E+03  0.10224431289E+04  0.00000000000E+00 0. -1.
<mgrwt>
<rscale>  0 0.16770578E+04</rscale>
<asrwt>0</asrwt>
<pdfrwt beam="1">  1        1 0.18103156E+00 0.16770578E+04</pdfrwt>
<pdfrwt beam="2">  1       -2 0.91929540E-01 0.16770578E+04</pdfrwt>
<totfact> 0.93520067E+00</totfact>
</mgrwt>
</event>
<event>
12    5  0.5246737E-008  0.1596751E+04  0.7818608E-02  0.8822546E-01
         -2   -1    0    0    0  501 -0.00000000000E+00  0.00000000000E+00  0.31326125246E+03  0.31326125246E+03  0.00000000000E+00 0.  1.
          1   -1    0    0  501    0  0.00000000000E+00 -0.00000000000E+00 -0.20347356254E+04  0.20347356254E+04  0.00000000000E+00 0. -1.
        -24    2    1    2    0    0  0.13477768557E+03  0.51557101078E+02  0.17362285474E+03  0.23953281152E+03  0.80049440391E+02 0.  0.
        254    2    1    2    0    0 -0.13477768557E+03 -0.51557101078E+02 -0.18950972277E+04  0.21084640664E+04  0.91290966556E+03 0.  0.
         23    2    4    4    0    0  0.30298713038E+03  0.15827355169E+03 -0.12284280745E+04  0.12783526365E+04  0.91094515445E+02 0.  0.
         23    2    4    4    0    0 -0.43776481595E+03 -0.20983065277E+03 -0.66666915319E+03  0.83011142982E+03  0.94711610549E+02 0.  0.
          1    1    3    3  502    0  0.11939053743E+02  0.13277673124E+02  0.75878710162E+02  0.77951371147E+02  0.00000000000E+00 0. -1.
         -2    1    3    3    0  502  0.12283863183E+03  0.38279427954E+02  0.97744144582E+02  0.16158144037E+03  0.00000000000E+00 0.  1.
         13    1    5    5    0    0  0.19858598091E+03  0.14406451544E+03 -0.77805456438E+03  0.81581853471E+03  0.00000000000E+00 0.  1.
        -13    1    5    5    0    0  0.10440114948E+03  0.14209036250E+02 -0.45037351014E+03  0.46253410184E+03  0.00000000000E+00 0. -1.
          4    1    6    6  503    0 -0.86233976156E+02 -0.17209115423E+02 -0.75736496142E+02  0.11605373387E+03  0.00000000000E+00 0. -1.
         -4    1    6    6    0  503 -0.35153083980E+03 -0.19262153735E+03 -0.59093265704E+03  0.71405769595E+03  0.00000000000E+00 0.  1.
<mgrwt>
<rscale>  0 0.15967515E+04</rscale>
<asrwt>0</asrwt>
<pdfrwt beam="1">  1        1 0.31303625E+00 0.15967515E+04</pdfrwt>
<pdfrwt beam="2">  1       -2 0.48194039E-01 0.15967515E+04</pdfrwt>
<totfact> 0.97052206E+00</totfact>
</mgrwt>
</event>
<event>
12    5  0.5246737E-008  0.1393771E+04  0.7818608E-02  0.8958340E-01
         -2   -1    0    0    0  501 -0.00000000000E+00  0.00000000000E+00  0.38247828556E+03  0.38247828556E+03  0.00000000000E+00 0.  1.
          1   -1    0    0  501    0  0.00000000000E+00 -0.00000000000E+00 -0.12697440165E+04  0.12697440165E+04  0.00000000000E+00 0. -1.
        -24    2    1    2    0    0 -0.35566703101E+03 -0.17797547068E+03 -0.22943984649E+03  0.46605580686E+03  0.79944148278E+02 0.  0.
        254    2    1    2    0    0  0.35566703101E+03  0.17797547068E+03 -0.65782588442E+03  0.11861664952E+04  0.90337243423E+03 0.  0.
         23    2    4    4    0    0  0.18179078599E+03  0.15816030213E+03  0.18753060535E+03  0.31826087737E+03  0.89775759954E+02 0.  0.
         23    2    4    4    0    0  0.17387624502E+03  0.19815168543E+02 -0.84535648977E+03  0.86790561780E+03  0.89481713901E+02 0.  0.
          1    1    3    3  502    0 -0.55282861056E+02 -0.46077276167E+02 -0.13291650258E+02  0.73184548042E+02  0.00000000000E+00 0. -1.
         -2    1    3    3    0  502 -0.30038416995E+03 -0.13189819451E+03 -0.21614819623E+03  0.39287125882E+03  0.00000000000E+00 0.  1.
         13    1    5    5    0    0  0.78770658360E+02  0.14576353808E+02  0.51273323199E+02  0.95111725779E+02  0.00000000000E+00 0. -1.
        -13    1    5    5    0    0  0.10302012763E+03  0.14358394833E+03  0.13625728215E+03  0.22314915159E+03  0.00000000000E+00 0.  1.
          3    1    6    6  503    0  0.48483694628E+02  0.47741325930E+02 -0.28406918934E+03  0.29210478801E+03  0.00000000000E+00 0. -1.
         -3    1    6    6    0  503  0.12539255039E+03 -0.27926157387E+02 -0.56128730043E+03  0.57580082979E+03  0.00000000000E+00 0.  1.
<mgrwt>
<rscale>  0 0.13937712E+04</rscale>
<asrwt>0</asrwt>
<pdfrwt beam="1">  1        1 0.19534523E+00 0.13937712E+04</pdfrwt>
<pdfrwt beam="2">  1       -2 0.58842813E-01 0.13937712E+04</pdfrwt>
<totfact> 0.21959690E+01</totfact>
</mgrwt>
</event>
<event>
12    5  0.5246737E-008  0.1514363E+04  0.7818608E-02  0.8874957E-01
          1   -1    0    0  501    0  0.00000000000E+00  0.00000000000E+00  0.23849245038E+04  0.23849245038E+04  0.00000000000E+00 0. -1.
         -2   -1    0    0    0  501 -0.00000000000E+00 -0.00000000000E+00 -0.24039505980E+03  0.24039505980E+03  0.00000000000E+00 0.  1.
        -24    2    1    2    0    0 -0.19528900325E+03  0.33081575000E+03  0.17460586362E+03  0.42990012246E+03  0.82158702783E+02 0.  0.
        254    2    1    2    0    0  0.19528900325E+03 -0.33081575000E+03  0.19699235804E+04  0.21954194411E+04  0.88977005720E+03 0.  0.
         23    2    4    4    0    0 -0.17267626390E+03  0.11995640712E+03  0.12477038745E+03  0.25858381457E+03  0.84209903518E+02 0.  0.
         23    2    4    4    0    0  0.36796526715E+03 -0.45077215712E+03  0.18451531929E+04  0.19368356265E+04  0.90266070361E+02 0.  0.
          3    1    3    3  502    0 -0.86262842285E+02  0.14786900477E+03  0.12291235851E+03  0.21074621801E+03  0.00000000000E+00 0. -1.
         -4    1    3    3    0  502 -0.10902616097E+03  0.18294674523E+03  0.51693505103E+02  0.21915390445E+03  0.00000000000E+00 0.  1.
         13    1    5    5    0    0 -0.11409182873E+02  0.23312874734E+02  0.49841530293E+02  0.56194641419E+02  0.00000000000E+00 0. -1.
        -13    1    5    5    0    0 -0.16126708103E+03  0.96643532384E+02  0.74928857158E+02  0.20238917315E+03  0.00000000000E+00 0.  1.
          3    1    6    6  503    0 -0.13034553431E+01 -0.92974624162E+01  0.10809021746E+02  0.14317009266E+02  0.00000000000E+00 0. -1.
         -3    1    6    6    0  503  0.36926872249E+03 -0.44147469470E+03  0.18343441712E+04  0.19225186173E+04  0.00000000000E+00 0.  1.
<mgrwt>
<rscale>  0 0.15143633E+04</rscale>
<asrwt>0</asrwt>
<pdfrwt beam="1">  1        1 0.36691145E+00 0.15143633E+04</pdfrwt>
<pdfrwt beam="2">  1       -2 0.36983857E-01 0.15143633E+04</pdfrwt>
<totfact> 0.95295189E+00</totfact>
</mgrwt>
</event>
<event>
12    5  0.5246737E-008  0.1368230E+04  0.7818608E-02  0.8977142E-01
          1   -1    0    0  501    0  0.00000000000E+00  0.00000000000E+00  0.72767404049E+03  0.72767404049E+03  0.00000000000E+00 0. -1.
         -2   -1    0    0    0  501 -0.00000000000E+00 -0.00000000000E+00 -0.64316321778E+03  0.64316321778E+03  0.00000000000E+00 0.  1.
        -24    2    1    2    0    0 -0.26601699945E+03 -0.25165604471E+03  0.14939377523E+03  0.40732599405E+03  0.97468746349E+02 0.  0.
        254    2    1    2    0    0  0.26601699945E+03  0.25165604471E+03 -0.64882952517E+02  0.96351126422E+03  0.88884664027E+03 0.  0.
         23    2    4    4    0    0 -0.29912435829E+03  0.20393128662E+03 -0.99804681868E+02  0.38605016513E+03  0.89500860833E+02 0.  0.
         23    2    4    4    0    0  0.56514135774E+03  0.47724758081E+02  0.34921729351E+02  0.57746109909E+03  0.10285614721E+03 0.  0.
          1    1    3    3  502    0 -0.26538644322E+03 -0.25297061406E+03  0.15753837896E+03  0.39905192227E+03  0.00000000000E+00 0. -1.
         -2    1    3    3    0  502 -0.63055623088E+00  0.13145693544E+01 -0.81446037335E+01  0.82740717742E+01  0.00000000000E+00 0.  1.
         13    1    5    5    0    0 -0.45948793482E+02  0.76994642652E+02 -0.26647242545E+02  0.93538987352E+02  0.00000000000E+00 0.  1.
        -13    1    5    5    0    0 -0.25317556481E+03  0.12693664397E+03 -0.73157439323E+02  0.29251117778E+03  0.00000000000E+00 0. -1.
          2    1    6    6  503    0  0.51069460830E+03  0.31164646256E+02  0.18660939975E+01  0.51164802397E+03  0.00000000000E+00 0. -1.
         -2    1    6    6    0  503  0.54446749436E+02  0.16560111825E+02  0.33055635353E+02  0.65813075118E+02  0.00000000000E+00 0.  1.
<mgrwt>
<rscale>  0 0.13682298E+04</rscale>
<asrwt>0</asrwt>
<pdfrwt beam="1">  1        1 0.11194985E+00 0.13682298E+04</pdfrwt>
<pdfrwt beam="2">  1       -2 0.98948187E-01 0.13682298E+04</pdfrwt>
<totfact> 0.18612286E+01</totfact>
</mgrwt>
</event>
<event>
12    5  0.5246737E-008  0.3945560E+04  0.7818608E-02  0.8015620E-01
          1   -1    0    0  501    0  0.00000000000E+00  0.00000000000E+00  0.22644528455E+04  0.22644528455E+04  0.00000000000E+00 0. -1.
         -2   -1    0    0    0  501 -0.00000000000E+00 -0.00000000000E+00 -0.17186762156E+04  0.17186762156E+04  0.00000000000E+00 0.  1.
        -24    2    1    2    0    0 -0.18605446040E+03  0.15772010709E+04  0.12541779966E+04  0.20252452985E+04  0.80477274532E+02 0.  0.
        254    2    1    2    0    0  0.18605446040E+03 -0.15772010709E+04 -0.70840136669E+03  0.19578837627E+04  0.89960927720E+03 0.  0.
         23    2    4    4    0    0 -0.19814724211E+03 -0.92239605165E+03 -0.72554046076E+03  0.11934383448E+04  0.88370339400E+02 0.  0.
         23    2    4    4    0    0  0.38420170251E+03 -0.65480501922E+03  0.17139094066E+02  0.76444541791E+03  0.87763813838E+02 0.  0.
          3    1    3    3  502    0 -0.18667860583E+03  0.13390109801E+04  0.10624416484E+04  0.17194713034E+04  0.00000000000E+00 0. -1.
         -2    1    3    3    0  502  0.62414543675E+00  0.23819009074E+03  0.19173634816E+03  0.30577399512E+03  0.00000000000E+00 0.  1.
         13    1    5    5    0    0 -0.15996961579E+03 -0.85507631647E+03 -0.65835412377E+03  0.10909518492E+04  0.00000000000E+00 0.  1.
        -13    1    5    5    0    0 -0.38177626321E+02 -0.67319735180E+02 -0.67186336981E+02  0.10248649556E+03  0.00000000000E+00 0. -1.
          1    1    6    6  503    0  0.64190739149E+01 -0.49260720082E+02  0.10057767762E+02  0.50685123511E+02  0.00000000000E+00 0. -1.
         -1    1    6    6    0  503  0.37778262860E+03 -0.60554429913E+03  0.70813263038E+01  0.71376029440E+03  0.00000000000E+00 0.  1.
<mgrwt>
<rscale>  0 0.39455602E+04</rscale>
<asrwt>0</asrwt>
<pdfrwt beam="1">  1        1 0.34837736E+00 0.39455602E+04</pdfrwt>
<pdfrwt beam="2">  1       -2 0.26441173E+00 0.39455602E+04</pdfrwt>
<totfact> 0.71362496E-02</totfact>
</mgrwt>
</event>
<event>
12    5  0.5246737E-008  0.1230372E+04  0.7818608E-02  0.9086680E-01
         -2   -1    0    0    0  501 -0.00000000000E+00  0.00000000000E+00  0.42645512308E+03  0.42645512308E+03  0.00000000000E+00 0.  1.
          1   -1    0    0  501    0  0.00000000000E+00 -0.00000000000E+00 -0.88744134962E+03  0.88744134962E+03  0.00000000000E+00 0. -1.
        -24    2    1    2    0    0  0.10955798952E+02 -0.12611093392E+03  0.15609384100E+03  0.21618955995E+03  0.79678362509E+02 0.  0.
        254    2    1    2    0    0 -0.10955798952E+02  0.12611093392E+03 -0.61708006754E+03  0.10977069127E+04  0.89897088904E+03 0.  0.
         23    2    4    4    0    0  0.19843872418E+03  0.12932951605E+03 -0.77774328287E+03  0.81804624365E+03  0.90614522705E+02 0.  0.
         23    2    4    4    0    0 -0.20939452314E+03 -0.32185821317E+01  0.16066321533E+03  0.27966066909E+03  0.92417506378E+02 0.  0.
          3    1    3    3  502    0 -0.29818483217E+02 -0.66037677107E+02  0.10432594084E+03  0.12701975701E+03  0.00000000000E+00 0. -1.
         -4    1    3    3    0  502  0.40774282168E+02 -0.60073256812E+02  0.51767900152E+02  0.89169802941E+02  0.00000000000E+00 0.  1.
         13    1    5    5    0    0  0.19746420947E+03  0.10703467680E+03 -0.74713710630E+03  0.78016818165E+03  0.00000000000E+00 0.  1.
        -13    1    5    5    0    0  0.97451471312E+00  0.22294839254E+02 -0.30606176572E+02  0.37878061997E+02  0.00000000000E+00 0. -1.
          3    1    6    6  503    0 -0.56401332672E+02  0.18751316769E+02  0.94266791603E+02  0.11144034371E+03  0.00000000000E+00 0. -1.
         -3    1    6    6    0  503 -0.15299319046E+03 -0.21969898901E+02  0.66396423727E+02  0.16822032538E+03  0.00000000000E+00 0.  1.
<mgrwt>
<rscale>  0 0.12303722E+04</rscale>
<asrwt>0</asrwt>
<pdfrwt beam="1">  1        1 0.13652944E+00 0.12303722E+04</pdfrwt>
<pdfrwt beam="2">  1       -2 0.65608481E-01 0.12303722E+04</pdfrwt>
<totfact> 0.34517392E+01</totfact>
</mgrwt>
</event>
<event>
12    5  0.5246737E-008  0.1507221E+04  0.7818608E-02  0.8879665E-01
          1   -1    0    0  501    0  0.00000000000E+00  0.00000000000E+00  0.58343928578E+03  0.58343928578E+03  0.00000000000E+00 0. -1.
         -2   -1    0    0    0  501 -0.00000000000E+00 -0.00000000000E+00 -0.97341600718E+03  0.97341600718E+03  0.00000000000E+00 0.  1.
        -24    2    1    2    0    0  0.42965933544E+03 -0.26756484640E+03 -0.33939166938E+03  0.61461740272E+03  0.79810744426E+02 0.  0.
        254    2    1    2    0    0 -0.42965933544E+03  0.26756484640E+03 -0.50585052019E+02  0.94223789024E+03  0.79313006673E+03 0.  0.
         23    2    4    4    0    0  0.45787719825E+02  0.15742860036E+03 -0.32456856905E+03  0.37512205835E+03  0.92149460927E+02 0.  0.
         23    2    4    4    0    0 -0.47544705527E+03  0.11013624604E+03  0.27398351703E+03  0.56711583188E+03  0.91506852833E+02 0.  0.
          3    1    3    3  502    0  0.36547897271E+02 -0.52244112302E+02 -0.50867848711E+02  0.81564294257E+02  0.00000000000E+00 0. -1.
         -4    1    3    3    0  502  0.39311143817E+03 -0.21532073410E+03 -0.28852382067E+03  0.53305310846E+03  0.00000000000E+00 0.  1.
         13    1    5    5    0    0  0.63856796826E+02  0.14370876387E+03 -0.23527652888E+03  0.28299283446E+03  0.00000000000E+00 0.  1.
        -13    1    5    5    0    0 -0.18069077002E+02  0.13719836489E+02 -0.89292040176E+02  0.92129223896E+02  0.00000000000E+00 0. -1.
          1    1    6    6  503    0 -0.12869967939E+03 -0.10896949777E+02  0.65906788891E+02  0.14500364068E+03  0.00000000000E+00 0. -1.
         -1    1    6    6    0  503 -0.34674737587E+03  0.12103319581E+03  0.20807672814E+03  0.42211219120E+03  0.00000000000E+00 0.  1.
<mgrwt>
<rscale>  0 0.15072215E+04</rscale>
<asrwt>0</asrwt>
<pdfrwt beam="1">  1        1 0.89759891E-01 0.15072215E+04</pdfrwt>
<pdfrwt beam="2">  1       -2 0.14975631E+00 0.15072215E+04</pdfrwt>
<totfact> 0.90713223E+00</totfact>
</mgrwt>
</event>
<event>
12    5  0.5246737E-008  0.1652766E+04  0.7818608E-02  0.8788772E-01
         -2   -1    0    0    0  501 -0.00000000000E+00  0.00000000000E+00  0.48959848245E+03  0.48959848245E+03  0.00000000000E+00 0.  1.
          1   -1    0    0  501    0  0.00000000000E+00 -0.00000000000E+00 -0.13948338377E+04  0.13948338377E+04  0.00000000000E+00 0. -1.
        -24    2    1    2    0    0  0.11228411125E+03 -0.55381216739E+03 -0.22837211914E+03  0.61446994888E+03  0.78127171253E+02 0.  0.
        254    2    1    2    0    0 -0.11228411125E+03  0.55381216739E+03 -0.67686323611E+03  0.12699623713E+04  0.91397207052E+03 0.  0.
         23    2    4    4    0    0 -0.96104702987E+02  0.25170436693E+03 -0.85912258815E+03  0.90499779184E+03  0.91313632586E+02 0.  0.
         23    2    4    4    0    0 -0.16179408260E+02  0.30210780046E+03  0.18225935204E+03  0.36496457945E+03  0.91922665846E+02 0.  0.
          3    1    3    3  502    0  0.80467229806E+02 -0.43780584827E+03 -0.21208777558E+03  0.49308230592E+03  0.00000000000E+00 0. -1.
         -4    1    3    3    0  502  0.31816881440E+02 -0.11600631911E+03 -0.16284343560E+02  0.12138764296E+03  0.00000000000E+00 0.  1.
         13    1    5    5    0    0 -0.10856575605E+03  0.17075576394E+03 -0.59471373247E+03  0.62819461785E+03  0.00000000000E+00 0. -1.
        -13    1    5    5    0    0  0.12461053061E+02  0.80948602987E+02 -0.26440885568E+03  0.27680317399E+03  0.00000000000E+00 0.  1.
          3    1    6    6  503    0  0.10537037584E+02  0.27088908795E+03  0.17646439594E+03  0.32346809760E+03  0.00000000000E+00 0. -1.
         -3    1    6    6    0  503 -0.26716445844E+02  0.31218712510E+02  0.57949560918E+01  0.41496481844E+02  0.00000000000E+00 0.  1.
<mgrwt>
<rscale>  0 0.16527656E+04</rscale>
<asrwt>0</asrwt>
<pdfrwt beam="1">  1        1 0.21458981E+00 0.16527656E+04</pdfrwt>
<pdfrwt beam="2">  1       -2 0.75322846E-01 0.16527656E+04</pdfrwt>
<totfact> 0.10271125E+01</totfact>
</mgrwt>
</event>
<event>
12    5  0.5246737E-008  0.1249625E+04  0.7818608E-02  0.9070496E-01
          1   -1    0    0  501    0  0.00000000000E+00  0.00000000000E+00  0.67182185847E+03  0.67182185847E+03  0.00000000000E+00 0. -1.
         -2   -1    0    0    0  501 -0.00000000000E+00 -0.00000000000E+00 -0.58109207338E+03  0.58109207338E+03  0.00000000000E+00 0.  1.
        -24    2    1    2    0    0 -0.19602468872E+03 -0.83791799911E+02  0.20688491235E+03  0.30914770414E+03  0.85581491558E+02 0.  0.
        254    2    1    2    0    0  0.19602468872E+03  0.83791799911E+02 -0.11615512726E+03  0.94376622771E+03  0.91200654310E+03 0.  0.
         23    2    4    4    0    0  0.50419001579E+03 -0.57937437567E+02  0.10977549288E+03  0.52627097046E+03  0.85709724177E+02 0.  0.
         23    2    4    4    0    0 -0.30816532707E+03  0.14172923748E+03 -0.22593062014E+03  0.41749525725E+03  0.90579242339E+02 0.  0.
          1    1    3    3  502    0 -0.54273423145E+02 -0.36198990542E+01  0.10154386170E+03  0.11519489563E+03  0.00000000000E+00 0. -1.
         -2    1    3    3    0  502 -0.14175126557E+03 -0.80171900857E+02  0.10534105065E+03  0.19395280851E+03  0.00000000000E+00 0.  1.
         13    1    5    5    0    0  0.25950537525E+03 -0.16369200543E+02  0.14511759059E+02  0.26042576997E+03  0.00000000000E+00 0. -1.
        -13    1    5    5    0    0  0.24468464053E+03 -0.41568237023E+02  0.95263733825E+02  0.26584520049E+03  0.00000000000E+00 0.  1.
          3    1    6    6  503    0 -0.27591031001E+03  0.97855044190E+02 -0.16607516143E+03  0.33657550132E+03  0.00000000000E+00 0. -1.
         -3    1    6    6    0  503 -0.32255017061E+02  0.43874193287E+02 -0.59855458715E+02  0.80919755933E+02  0.00000000000E+00 0.  1.
<mgrwt>
<rscale>  0 0.12496245E+04</rscale>
<asrwt>0</asrwt>
<pdfrwt beam="1">  1        1 0.10335721E+00 0.12496245E+04</pdfrwt>
<pdfrwt beam="2">  1       -2 0.89398781E-01 0.12496245E+04</pdfrwt>
<totfact> 0.26872519E+01</totfact>
</mgrwt>
</event>
<event>
12    5  0.5246737E-008  0.1250555E+04  0.7818608E-02  0.9069721E-01
         -2   -1    0    0    0  501 -0.00000000000E+00  0.00000000000E+00  0.41667696224E+03  0.41667696224E+03  0.00000000000E+00 0.  1.
          1   -1    0    0  501    0  0.00000000000E+00 -0.00000000000E+00 -0.93830958652E+03  0.93830958652E+03  0.00000000000E+00 0. -1.
        -24    2    1    2    0    0  0.34577062490E+02 -0.29268917587E+03 -0.10224483994E+03  0.32223201126E+03  0.80727534718E+02 0.  0.
        254    2    1    2    0    0 -0.34577062490E+02  0.29268917587E+03 -0.41938778433E+03  0.10327545375E+04  0.89656750675E+03 0.  0.
         23    2    4    4    0    0 -0.13406190672E+03  0.35967046589E+03  0.16638767568E+03  0.42794211907E+03  0.90078631169E+02 0.  0.
         23    2    4    4    0    0  0.99484844235E+02 -0.66981290017E+02 -0.58577546001E+03  0.60481241843E+03  0.91002442239E+02 0.  0.
          3    1    3    3  502    0  0.51638016426E+02 -0.23988217113E+03 -0.10447482901E+03  0.26669257706E+03  0.00000000000E+00 0. -1.
         -4    1    3    3    0  502 -0.17060953937E+02 -0.52807004745E+02  0.22299890653E+01  0.55539434194E+02  0.00000000000E+00 0.  1.
         13    1    5    5    0    0 -0.12740158509E+03  0.27267690646E+03  0.96217174317E+02  0.31597722044E+03  0.00000000000E+00 0. -1.
        -13    1    5    5    0    0 -0.66603216345E+01  0.86993559428E+02  0.70170501358E+02  0.11196489864E+03  0.00000000000E+00 0.  1.
          3    1    6    6  503    0  0.92527845456E+02 -0.10348712616E+02 -0.38386001481E+03  0.39498988469E+03  0.00000000000E+00 0. -1.
         -3    1    6    6    0  503  0.69569987787E+01 -0.56632577401E+02 -0.20191544520E+03  0.20982253374E+03  0.00000000000E+00 0.  1.
<mgrwt>
<rscale>  0 0.12505551E+04</rscale>
<asrwt>0</asrwt>
<pdfrwt beam="1">  1        1 0.14435532E+00 0.12505551E+04</pdfrwt>
<pdfrwt beam="2">  1       -2 0.64104148E-01 0.12505551E+04</pdfrwt>
<totfact> 0.32931725E+01</totfact>
</mgrwt>
</event>
<event>
12    5  0.5246737E-008  0.2524069E+04  0.7818608E-02  0.8394461E-01
         -2   -1    0    0    0  501 -0.00000000000E+00  0.00000000000E+00  0.18164694308E+04  0.18164694308E+04  0.00000000000E+00 0.  1.
          1   -1    0    0  501    0  0.00000000000E+00 -0.00000000000E+00 -0.87682785367E+03  0.87682785367E+03  0.00000000000E+00 0. -1.
        -24    2    1    2    0    0 -0.10659043284E+04 -0.26782461791E+03  0.38634479226E+03  0.11677818461E+04  0.81056020094E+02 0.  0.
        254    2    1    2    0    0  0.10659043284E+04  0.26782461791E+03  0.55329678491E+03  0.15255154384E+04  0.90176380356E+03 0.  0.
         23    2    4    4    0    0  0.39635384777E+03 -0.28273452963E+03  0.39658567431E+01  0.49519696030E+03  0.90383154293E+02 0.  0.
         23    2    4    4    0    0  0.66955048061E+03  0.55055914754E+03  0.54933092817E+03  0.10303184781E+04  0.91534019135E+02 0.  0.
          3    1    3    3  502    0 -0.51018048564E+03 -0.10823231511E+03  0.14559604133E+03  0.54147628684E+03  0.00000000000E+00 0. -1.
         -4    1    3    3    0  502 -0.55572384274E+03 -0.15959230280E+03  0.24074875092E+03  0.62630555927E+03  0.00000000000E+00 0.  1.
         13    1    5    5    0    0  0.39230577631E+03 -0.28535299812E+03  0.12640007502E+02  0.48527304217E+03  0.00000000000E+00 0. -1.
        -13    1    5    5    0    0  0.40480714567E+01  0.26184684834E+01 -0.86741507589E+01  0.99239181327E+01  0.00000000000E+00 0.  1.
          4    1    6    6  503    0  0.81451527637E+02  0.31735123945E+02  0.54684240332E+02  0.10311079278E+03  0.00000000000E+00 0.  1.
         -4    1    6    6    0  503  0.58809895297E+03  0.51882402360E+03  0.49464668784E+03  0.92720768533E+03  0.00000000000E+00 0. -1.
<mgrwt>
<rscale>  0 0.25240689E+04</rscale>
<asrwt>0</asrwt>
<pdfrwt beam="1">  1        1 0.13489659E+00 0.25240689E+04</pdfrwt>
<pdfrwt beam="2">  1       -2 0.27945684E+00 0.25240689E+04</pdfrwt>
<totfact> 0.62739211E-01</totfact>
</mgrwt>
</event>
<event>
12    5  0.5246737E-008  0.1457109E+04  0.7818608E-02  0.8913487E-01
         -4   -1    0    0    0  501 -0.00000000000E+00  0.00000000000E+00  0.72459536739E+03  0.72459536739E+03  0.00000000000E+00 0.  1.
          3   -1    0    0  501    0  0.00000000000E+00 -0.00000000000E+00 -0.73253528986E+03  0.73253528986E+03  0.00000000000E+00 0. -1.
        -24    2    1    2    0    0  0.25446661579E+03 -0.34775809821E+03 -0.12137673115E+03  0.45510746398E+03  0.81862931069E+02 0.  0.
        254    2    1    2    0    0 -0.25446661579E+03  0.34775809821E+03  0.11343680868E+03  0.10020231933E+04  0.89749296201E+03 0.  0.
         23    2    4    4    0    0 -0.25452899626E+03  0.18163244067E+03  0.48533344356E+03  0.58444743030E+03  0.90856446694E+02 0.  0.
         23    2    4    4    0    0  0.62380477834E-01  0.16612565754E+03 -0.37189663488E+03  0.41757576296E+03  0.92003656430E+02 0.  0.
          3    1    3    3  502    0  0.15834564307E+03 -0.23689979118E+03 -0.11779977225E+03  0.30833689381E+03  0.00000000000E+00 0. -1.
         -4    1    3    3    0  502  0.96120972712E+02 -0.11085830703E+03 -0.35769589000E+01  0.14677057017E+03  0.00000000000E+00 0.  1.
         13    1    5    5    0    0 -0.13459906850E+02  0.25947099673E+02  0.13497728154E+02  0.32196424323E+02  0.00000000000E+00 0.  1.
        -13    1    5    5    0    0 -0.24106908941E+03  0.15568534100E+03  0.47183571540E+03  0.55225100598E+03  0.00000000000E+00 0. -1.
          3    1    6    6  503    0 -0.19559192611E+01  0.14224369154E+03 -0.36631414445E+03  0.39296710527E+03  0.00000000000E+00 0. -1.
         -3    1    6    6    0  503  0.20182997389E+01  0.23881966002E+02 -0.55824904286E+01  0.24608657691E+02  0.00000000000E+00 0.  1.
<mgrwt>
<rscale>  0 0.14571090E+04</rscale>
<asrwt>0</asrwt>
<pdfrwt beam="1">  1        3 0.11269774E+00 0.14571090E+04</pdfrwt>
<pdfrwt beam="2">  1       -4 0.11147621E+00 0.14571090E+04</pdfrwt>
<totfact> 0.92844639E-01</totfact>
</mgrwt>
</event>
<event>
12    5  0.5246737E-008  0.1804402E+04  0.7818608E-02  0.8703962E-01
          1   -1    0    0  501    0  0.00000000000E+00  0.00000000000E+00  0.14453010255E+04  0.14453010255E+04  0.00000000000E+00 0. -1.
         -4   -1    0    0    0  501 -0.00000000000E+00 -0.00000000000E+00 -0.56318160581E+03  0.56318160581E+03  0.00000000000E+00 0.  1.
        -24    2    1    2    0    0 -0.85564247624E+02 -0.53915796650E+03 -0.11447292547E+03  0.56354675501E+03  0.80425997644E+02 0.  0.
        254    2    1    2    0    0  0.85564247624E+02  0.53915796650E+03  0.99659234515E+03  0.14449358763E+04  0.89254178102E+03 0.  0.
         23    2    4    4    0    0 -0.30611842113E+03 -0.59656929679E+02  0.27677269487E+03  0.42618427306E+03  0.88104897506E+02 0.  0.
         23    2    4    4    0    0  0.39168266875E+03  0.59881489618E+03  0.71981965028E+03  0.10187516032E+04  0.87863002881E+02 0.  0.
          1    1    3    3  502    0 -0.42629038644E+01 -0.81706383652E+02  0.10303112270E+02  0.82463686561E+02  0.00000000000E+00 0. -1.
         -2    1    3    3    0  502 -0.81301343760E+02 -0.45745158285E+03 -0.12477603774E+03  0.48108306844E+03  0.00000000000E+00 0.  1.
         13    1    5    5    0    0 -0.21099489304E+03 -0.36820111384E+02  0.24000035459E+03  0.32167489131E+03  0.00000000000E+00 0. -1.
        -13    1    5    5    0    0 -0.95123528082E+02 -0.22836818294E+02  0.36772340281E+02  0.10450938175E+03  0.00000000000E+00 0.  1.
          3    1    6    6  503    0  0.26519654653E+03  0.40790780726E+03  0.54547571088E+03  0.73093210265E+03  0.00000000000E+00 0. -1.
         -3    1    6    6    0  503  0.12648612222E+03  0.19090708892E+03  0.17434393940E+03  0.28781950059E+03  0.00000000000E+00 0.  1.
<mgrwt>
<rscale>  0 0.18044023E+04</rscale>
<asrwt>0</asrwt>
<pdfrwt beam="1">  1        1 0.22235400E+00 0.18044023E+04</pdfrwt>
<pdfrwt beam="2">  1       -4 0.86643325E-01 0.18044023E+04</pdfrwt>
<totfact> 0.38118191E+00</totfact>
</mgrwt>
</event>
<event>
12    5  0.5246737E-008  0.1434550E+04  0.7818608E-02  0.8929182E-01
         -2   -1    0    0    0  501 -0.00000000000E+00  0.00000000000E+00  0.47788285683E+03  0.47788285683E+03  0.00000000000E+00 0.  1.
          1   -1    0    0  501    0  0.00000000000E+00 -0.00000000000E+00 -0.10765888562E+04  0.10765888562E+04  0.00000000000E+00 0. -1.
        -24    2    1    2    0    0 -0.19597357472E+03 -0.22188964259E+03 -0.51930968622E+03  0.60314532871E+03  0.80380855062E+02 0.  0.
        254    2    1    2    0    0  0.19597357472E+03  0.22188964259E+03 -0.79396313142E+02  0.95132638431E+03  0.90059838966E+03 0.  0.
         23    2    4    4    0    0  0.44982476888E+03  0.20861233843E+03 -0.31522346612E+03  0.59385925815E+03  0.86264444951E+02 0.  0.
         23    2    4    4    0    0 -0.25385119416E+03  0.13277304165E+02  0.23582715297E+03  0.35746712616E+03  0.86899853981E+02 0.  0.
          1    1    3    3  502    0 -0.81664558435E+02 -0.14739971913E+03 -0.31918992209E+03  0.36094041567E+03  0.00000000000E+00 0. -1.
         -2    1    3    3    0  502 -0.11430901628E+03 -0.74489923465E+02 -0.20011976413E+03  0.24220491304E+03  0.00000000000E+00 0.  1.
         13    1    5    5    0    0  0.28288445160E+02  0.18075768882E+02  0.86829868988E+00  0.33581594555E+02  0.00000000000E+00 0. -1.
        -13    1    5    5    0    0  0.42153632372E+03  0.19053656954E+03 -0.31609176481E+03  0.56027766360E+03  0.00000000000E+00 0.  1.
          4    1    6    6  503    0 -0.14668939759E+03  0.41228333842E+02  0.10019313148E+03  0.18236287581E+03  0.00000000000E+00 0. -1.
         -4    1    6    6    0  503 -0.10716179656E+03 -0.27951029678E+02  0.13563402150E+03  0.17510425035E+03  0.00000000000E+00 0.  1.
<mgrwt>
<rscale>  0 0.14345499E+04</rscale>
<asrwt>0</asrwt>
<pdfrwt beam="1">  1        1 0.16562905E+00 0.14345499E+04</pdfrwt>
<pdfrwt beam="2">  1       -2 0.73520440E-01 0.14345499E+04</pdfrwt>
<totfact> 0.18793441E+01</totfact>
</mgrwt>
</event>
<event>
12    5  0.5246737E-008  0.2226620E+04  0.7818608E-02  0.8507429E-01
          1   -1    0    0  501    0  0.00000000000E+00  0.00000000000E+00  0.17289901877E+04  0.17289901877E+04  0.00000000000E+00 0. -1.
         -2   -1    0    0    0  501 -0.00000000000E+00 -0.00000000000E+00 -0.71686900977E+03  0.71686900977E+03  0.00000000000E+00 0.  1.
        -24    2    1    2    0    0 -0.23938776465E+03  0.25494094339E+03 -0.52441076678E+03  0.63529235763E+03  0.79299059627E+02 0.  0.
        254    2    1    2    0    0  0.23938776465E+03 -0.25494094339E+03  0.15365319447E+04  0.18105668398E+04  0.89158313014E+03 0.  0.
         23    2    4    4    0    0  0.42370170437E+03  0.11971194924E+03  0.11480080765E+04  0.12329552799E+04  0.91662935057E+02 0.  0.
         23    2    4    4    0    0 -0.18431393972E+03 -0.37465289263E+03  0.38852386824E+03  0.57761155989E+03  0.91366840792E+02 0.  0.
          3    1    3    3  502    0 -0.11852040169E+03  0.70091693703E+02 -0.19671750856E+03  0.24012019764E+03  0.00000000000E+00 0. -1.
         -4    1    3    3    0  502 -0.12086736296E+03  0.18484924969E+03 -0.32769325822E+03  0.39517215998E+03  0.00000000000E+00 0.  1.
         13    1    5    5    0    0  0.41891275886E+03  0.11093736523E+03  0.10717733319E+04  0.11560679363E+04  0.00000000000E+00 0.  1.
        -13    1    5    5    0    0  0.47889455050E+01  0.87745840095E+01  0.76234744585E+02  0.76887343598E+02  0.00000000000E+00 0. -1.
          3    1    6    6  503    0 -0.19822859620E+02 -0.61368302807E+02  0.21957187399E+02  0.68125857289E+02  0.00000000000E+00 0. -1.
         -3    1    6    6    0  503 -0.16449108010E+03 -0.31328458982E+03  0.36656668084E+03  0.50948570260E+03  0.00000000000E+00 0.  1.
<mgrwt>
<rscale>  0 0.22266203E+04</rscale>
<asrwt>0</asrwt>
<pdfrwt beam="1">  1        1 0.26599849E+00 0.22266203E+04</pdfrwt>
<pdfrwt beam="2">  1       -2 0.11028754E+00 0.22266203E+04</pdfrwt>
<totfact> 0.23749497E+00</totfact>
</mgrwt>
</event>
<event>
12    5  0.5246737E-008  0.3030242E+04  0.7818608E-02  0.8235147E-01
         -2   -1    0    0    0  501 -0.00000000000E+00  0.00000000000E+00  0.73764419466E+03  0.73764419466E+03  0.00000000000E+00 0.  1.
          1   -1    0    0  501    0  0.00000000000E+00 -0.00000000000E+00 -0.31120588699E+04  0.31120588699E+04  0.00000000000E+00 0. -1.
        -24    2    1    2    0    0  0.11657678298E+04 -0.75706597531E+03 -0.10011203937E+04  0.17148828308E+04  0.80109655144E+02 0.  0.
        254    2    1    2    0    0 -0.11657678298E+04  0.75706597531E+03 -0.13732942816E+04  0.21348202337E+04  0.85985854805E+03 0.  0.
         23    2    4    4    0    0 -0.16826128200E+03  0.53137940495E+03 -0.26859557793E+03  0.62656663226E+03  0.98824233636E+02 0.  0.
         23    2    4    4    0    0 -0.99750654780E+03  0.22568657036E+03 -0.11046987036E+04  0.15082536015E+04  0.92281957208E+02 0.  0.
          3    1    3    3  502    0  0.92477328476E+03 -0.59220192079E+03 -0.82920731313E+03  0.13760426997E+04  0.00000000000E+00 0. -1.
         -4    1    3    3    0  502  0.24099454503E+03 -0.16486405452E+03 -0.17191308057E+03  0.33884013115E+03  0.00000000000E+00 0.  1.
         13    1    5    5    0    0  0.32623172268E+01 -0.25223706605E+01 -0.61748562992E+01  0.74252217309E+01  0.00000000000E+00 0.  1.
        -13    1    5    5    0    0 -0.17152359922E+03  0.53390177561E+03 -0.26242072163E+03  0.61914141053E+03  0.00000000000E+00 0. -1.
          1    1    6    6  503    0 -0.85029705817E+03  0.18747196098E+03 -0.88947287305E+03  0.12447139491E+04  0.00000000000E+00 0. -1.
         -1    1    6    6    0  503 -0.14720948963E+03  0.38214609386E+02 -0.21522583057E+03  0.26353965234E+03  0.00000000000E+00 0.  1.
<mgrwt>
<rscale>  0 0.30302423E+04</rscale>
<asrwt>0</asrwt>
<pdfrwt beam="1">  1        1 0.47877829E+00 0.30302423E+04</pdfrwt>
<pdfrwt beam="2">  1       -2 0.11348372E+00 0.30302423E+04</pdfrwt>
<totfact> 0.22480143E-01</totfact>
</mgrwt>
</event>
<event>
12    5  0.5246737E-008  0.2645933E+04  0.7818608E-02  0.8352764E-01
         -2   -1    0    0    0  501 -0.00000000000E+00  0.00000000000E+00  0.10623852061E+04  0.10623852061E+04  0.00000000000E+00 0.  1.
          1   -1    0    0  501    0  0.00000000000E+00 -0.00000000000E+00 -0.16474635121E+04  0.16474635121E+04  0.00000000000E+00 0. -1.
        -24    2    1    2    0    0 -0.70036692946E+03  0.63981772827E+02 -0.12100720260E+04  0.14019634858E+04  0.81362179394E+02 0.  0.
        254    2    1    2    0    0  0.70036692946E+03 -0.63981772827E+02  0.62499372008E+03  0.13078852324E+04  0.90848177081E+03 0.  0.
         23    2    4    4    0    0  0.10836807307E+03  0.27132648288E+03 -0.87129946933E+02  0.31809636290E+03  0.90730198213E+02 0.  0.
         23    2    4    4    0    0  0.59199885639E+03 -0.33530825571E+03  0.71212366701E+03  0.98978886950E+03  0.98324039611E+02 0.  0.
          3    1    3    3  502    0 -0.59098222562E+03  0.49101387201E+02 -0.10729671798E+04  0.12259402539E+04  0.00000000000E+00 0. -1.
         -4    1    3    3    0  502 -0.10938470383E+03  0.14880385626E+02 -0.13710484622E+03  0.17602323190E+03  0.00000000000E+00 0.  1.
         13    1    5    5    0    0  0.71139650477E+02  0.21820610755E+03 -0.29632545871E+02  0.23141487207E+03  0.00000000000E+00 0. -1.
        -13    1    5    5    0    0  0.37228422589E+02  0.53120375332E+02 -0.57497401062E+02  0.86681490832E+02  0.00000000000E+00 0.  1.
          4    1    6    6  503    0  0.53858783390E+03 -0.29126787294E+03  0.59526056970E+03  0.85396075699E+03  0.00000000000E+00 0. -1.
         -4    1    6    6    0  503  0.53411022493E+02 -0.44040382767E+02  0.11686309731E+03  0.13582811252E+03  0.00000000000E+00 0.  1.
<mgrwt>
<rscale>  0 0.26459334E+04</rscale>
<asrwt>0</asrwt>
<pdfrwt beam="1">  1        1 0.25345592E+00 0.26459334E+04</pdfrwt>
<pdfrwt beam="2">  1       -2 0.16344388E+00 0.26459334E+04</pdfrwt>
<totfact> 0.94804286E-01</totfact>
</mgrwt>
</event>
<event>
12    5  0.5246737E-008  0.1792504E+04  0.7818608E-02  0.8710296E-01
         -2   -1    0    0    0  501 -0.00000000000E+00  0.00000000000E+00  0.34979092943E+03  0.34979092943E+03  0.00000000000E+00 0.  1.
          1   -1    0    0  501    0  0.00000000000E+00 -0.00000000000E+00 -0.22964226864E+04  0.22964226864E+04  0.00000000000E+00 0. -1.
        -24    2    1    2    0    0  0.57258089445E+03 -0.32896312750E+03 -0.59978387786E+03  0.89600568838E+03  0.83784685502E+02 0.  0.
        254    2    1    2    0    0 -0.57258089445E+03  0.32896312750E+03 -0.13468478791E+04  0.17502079274E+04  0.90175548785E+03 0.  0.
         23    2    4    4    0    0 -0.35208791543E+03  0.61179212824E+03 -0.66248254731E+03  0.97229040405E+03  0.90609027923E+02 0.  0.
         23    2    4    4    0    0 -0.22049297902E+03 -0.28282900074E+03 -0.68436533176E+03  0.77791752336E+03  0.90500654041E+02 0.  0.
          1    1    3    3  502    0  0.24620200098E+03 -0.15716815519E+03 -0.31848738474E+03  0.43214750785E+03  0.00000000000E+00 0. -1.
         -2    1    3    3    0  502  0.32637889347E+03 -0.17179497231E+03 -0.28129649311E+03  0.46385818053E+03  0.00000000000E+00 0.  1.
         13    1    5    5    0    0 -0.34951178897E+02  0.90276975633E+02 -0.55985212159E+02  0.11182960796E+03  0.00000000000E+00 0.  1.
        -13    1    5    5    0    0 -0.31713673653E+03  0.52151515261E+03 -0.60649733515E+03  0.86046079609E+03  0.00000000000E+00 0. -1.
          3    1    6    6  503    0 -0.18313403969E+03 -0.27583650033E+03 -0.59755501986E+03  0.68315141306E+03  0.00000000000E+00 0. -1.
         -3    1    6    6    0  503 -0.37358939328E+02 -0.69925004167E+01 -0.86810311894E+02  0.94766110298E+02  0.00000000000E+00 0.  1.
<mgrwt>
<rscale>  0 0.17925042E+04</rscale>
<asrwt>0</asrwt>
<pdfrwt beam="1">  1        1 0.35329581E+00 0.17925042E+04</pdfrwt>
<pdfrwt beam="2">  1       -2 0.53813988E-01 0.17925042E+04</pdfrwt>
<totfact> 0.50517856E+00</totfact>
</mgrwt>
</event>
<event>
12    5  0.5246737E-008  0.1423673E+04  0.7818608E-02  0.8936859E-01
         -2   -1    0    0    0  501 -0.00000000000E+00  0.00000000000E+00  0.56356293747E+03  0.56356293747E+03  0.00000000000E+00 0.  1.
          1   -1    0    0  501    0  0.00000000000E+00 -0.00000000000E+00 -0.89912028775E+03  0.89912028775E+03  0.00000000000E+00 0. -1.
        -24    2    1    2    0    0  0.36171937952E+03 -0.17469780800E+03 -0.13778670944E+02  0.40982868046E+03  0.80059115156E+02 0.  0.
        254    2    1    2    0    0 -0.36171937952E+03  0.17469780800E+03 -0.32177867934E+03  0.10528545448E+04  0.91847751214E+03 0.  0.
         23    2    4    4    0    0 -0.50287773506E+03 -0.86608456964E+02 -0.47679529510E+03  0.70493171247E+03  0.95957931254E+02 0.  0.
         23    2    4    4    0    0  0.14115835555E+03  0.26130626496E+03  0.15501661576E+03  0.34792283229E+03  0.93880246151E+02 0.  0.
          1    1    3    3  502    0  0.82257640863E+01 -0.23546109515E+02 -0.39272807780E+01  0.25248881211E+02  0.00000000000E+00 0. -1.
         -4    1    3    3    0  502  0.35349361543E+03 -0.15115169849E+03 -0.98513901660E+01  0.38457979925E+03  0.00000000000E+00 0.  1.
         13    1    5    5    0    0  0.26891996766E+00 -0.97049216855E+01 -0.13746926405E+02  0.16829611061E+02  0.00000000000E+00 0. -1.
        -13    1    5    5    0    0 -0.50314665503E+03 -0.76903535279E+02 -0.46304836870E+03  0.68810210141E+03  0.00000000000E+00 0.  1.
          2    1    6    6  503    0  0.66423401273E+02  0.16270699880E+03  0.42774547856E+02  0.18087370632E+03  0.00000000000E+00 0. -1.
         -2    1    6    6    0  503  0.74734954276E+02  0.98599266164E+02  0.11224206791E+03  0.16704912597E+03  0.00000000000E+00 0.  1.
<mgrwt>
<rscale>  0 0.14236725E+04</rscale>
<asrwt>0</asrwt>
<pdfrwt beam="1">  1        1 0.13832620E+00 0.14236725E+04</pdfrwt>
<pdfrwt beam="2">  1       -2 0.86701991E-01 0.14236725E+04</pdfrwt>
<totfact> 0.17904252E+01</totfact>
</mgrwt>
</event>
<event>
12    5  0.5246737E-008  0.2079599E+04  0.7818608E-02  0.8570284E-01
         -2   -1    0    0    0  501 -0.00000000000E+00  0.00000000000E+00  0.13131104673E+04  0.13131104673E+04  0.00000000000E+00 0.  1.
          1   -1    0    0  501    0  0.00000000000E+00 -0.00000000000E+00 -0.82337583898E+03  0.82337583898E+03  0.00000000000E+00 0. -1.
        -24    2    1    2    0    0 -0.67501821889E+03  0.37808969429E+03 -0.14251093423E+03  0.79051104150E+03  0.77439832154E+02 0.  0.
        254    2    1    2    0    0  0.67501821889E+03 -0.37808969429E+03  0.63224556254E+03  0.13459752648E+04  0.90183898188E+03 0.  0.
         23    2    4    4    0    0  0.61836166809E+03 -0.39478831389E+03  0.36283561498E+02  0.74022517284E+03  0.91585175173E+02 0.  0.
         23    2    4    4    0    0  0.56656550792E+02  0.16698619603E+02  0.59596200104E+03  0.60575009192E+03  0.90959653361E+02 0.  0.
          1    1    3    3  502    0 -0.65912911399E+03  0.35459003815E+03 -0.13069117225E+03  0.75977988034E+03  0.00000000000E+00 0. -1.
         -2    1    3    3    0  502 -0.15889104897E+02  0.23499656139E+02 -0.11819761984E+02  0.30731161163E+02  0.00000000000E+00 0.  1.
         13    1    5    5    0    0  0.44479714001E+03 -0.26609484734E+03 -0.13507737999E+02  0.51849148742E+03  0.00000000000E+00 0.  1.
        -13    1    5    5    0    0  0.17356452808E+03 -0.12869346655E+03  0.49791299497E+02  0.22173368541E+03  0.00000000000E+00 0. -1.
          2    1    6    6  503    0  0.69786987290E+02  0.11073909958E+02  0.58016617704E+03  0.58445328989E+03  0.00000000000E+00 0.  1.
         -2    1    6    6    0  503 -0.13130436498E+02  0.56247096458E+01  0.15795823994E+02  0.21296802034E+02  0.00000000000E+00 0. -1.
<mgrwt>
<rscale>  0 0.20795994E+04</rscale>
<asrwt>0</asrwt>
<pdfrwt beam="1">  1        1 0.12667321E+00 0.20795994E+04</pdfrwt>
<pdfrwt beam="2">  1       -2 0.20201700E+00 0.20795994E+04</pdfrwt>
<totfact> 0.21970159E+00</totfact>
</mgrwt>
</event>
<event>
12    5  0.5246737E-008  0.2108186E+04  0.7818608E-02  0.8557646E-01
          1   -1    0    0  501    0  0.00000000000E+00  0.00000000000E+00  0.16501446579E+04  0.16501446579E+04  0.00000000000E+00 0. -1.
         -4   -1    0    0    0  501 -0.00000000000E+00 -0.00000000000E+00 -0.67334194631E+03  0.67334194631E+03  0.00000000000E+00 0.  1.
        -24    2    1    2    0    0 -0.27775723850E+03  0.63633920154E+03 -0.20098723792E+03  0.72753175013E+03  0.82643297919E+02 0.  0.
        254    2    1    2    0    0  0.27775723850E+03 -0.63633920154E+03  0.11777899495E+04  0.15959548541E+04  0.82328978382E+03 0.  0.
         23    2    4    4    0    0  0.30075843506E+03 -0.79003238263E+03  0.11214742019E+04  0.14072666575E+04  0.89934742579E+02 0.  0.
         23    2    4    4    0    0 -0.23001196564E+02  0.15369318109E+03  0.56315747605E+02  0.18868819658E+03  0.91000676604E+02 0.  0.
          1    1    3    3  502    0 -0.42455880717E+01 -0.19406197138E+01 -0.25632224265E+01  0.53255170787E+01  0.00000000000E+00 0. -1.
         -2    1    3    3    0  502 -0.27351165043E+03  0.63827982125E+03 -0.19842401549E+03  0.72220623305E+03  0.00000000000E+00 0.  1.
         13    1    5    5    0    0  0.19477205967E+03 -0.47510826858E+03  0.61017348225E+03  0.79748084650E+03  0.00000000000E+00 0.  1.
        -13    1    5    5    0    0  0.10598637539E+03 -0.31492411405E+03  0.51130071962E+03  0.60978581097E+03  0.00000000000E+00 0. -1.
          4    1    6    6  503    0  0.23003181656E+02  0.22079042522E+02 -0.11178898698E+02  0.33787545947E+02  0.00000000000E+00 0. -1.
         -4    1    6    6    0  503 -0.46004378220E+02  0.13161413857E+03  0.67494646303E+02  0.15490065063E+03  0.00000000000E+00 0.  1.
<mgrwt>
<rscale>  0 0.21081856E+04</rscale>
<asrwt>0</asrwt>
<pdfrwt beam="1">  1        1 0.25386841E+00 0.21081856E+04</pdfrwt>
<pdfrwt beam="2">  1       -4 0.10359107E+00 0.21081856E+04</pdfrwt>
<totfact> 0.17612437E+00</totfact>
</mgrwt>
</event>
<event>
12    5  0.5246737E-008  0.1817485E+04  0.7818608E-02  0.8697056E-01
         -2   -1    0    0    0  501 -0.00000000000E+00  0.00000000000E+00  0.12319563688E+04  0.12319563688E+04  0.00000000000E+00 0.  1.
          1   -1    0    0  501    0  0.00000000000E+00 -0.00000000000E+00 -0.67032678143E+03  0.67032678143E+03  0.00000000000E+00 0. -1.
        -24    2    1    2    0    0 -0.38528799924E+03 -0.49285793880E+02 -0.35791870090E+03  0.53360746924E+03  0.75863053863E+02 0.  0.
        254    2    1    2    0    0  0.38528799924E+03  0.49285793880E+02  0.91954828832E+03  0.13686756810E+04  0.93639101527E+03 0.  0.
         23    2    4    4    0    0  0.39706402921E+03  0.30105847516E+03  0.11432494717E+03  0.51930787993E+03  0.91183506491E+02 0.  0.
         23    2    4    4    0    0 -0.11776029971E+02 -0.25177268128E+03  0.80522334115E+03  0.84936780110E+03  0.97533965866E+02 0.  0.
          1    1    3    3  502    0 -0.31254699751E+03 -0.65566673246E+02 -0.26874918298E+03  0.41738559827E+03  0.00000000000E+00 0. -1.
         -2    1    3    3    0  502 -0.72741001727E+02  0.16280879366E+02 -0.89169517924E+02  0.11622187097E+03  0.00000000000E+00 0.  1.
         13    1    5    5    0    0  0.16419849225E+03  0.85380438120E+02  0.74160018630E+02  0.19937570673E+03  0.00000000000E+00 0.  1.
        -13    1    5    5    0    0  0.23286553696E+03  0.21567803704E+03  0.40164928540E+02  0.31993217320E+03  0.00000000000E+00 0. -1.
          2    1    6    6  503    0 -0.44847872076E+02 -0.19112927084E+03  0.65953137445E+03  0.68813033917E+03  0.00000000000E+00 0.  1.
         -2    1    6    6    0  503  0.33071842105E+02 -0.60643410439E+02  0.14569196670E+03  0.16123746193E+03  0.00000000000E+00 0. -1.
<mgrwt>
<rscale>  0 0.18174855E+04</rscale>
<asrwt>0</asrwt>
<pdfrwt beam="1">  1        1 0.10312720E+00 0.18174855E+04</pdfrwt>
<pdfrwt beam="2">  1       -2 0.18953175E+00 0.18174855E+04</pdfrwt>
<totfact> 0.37442080E+00</totfact>
</mgrwt>
</event>
<event>
12    5  0.5246737E-008  0.1784505E+04  0.7818608E-02  0.8714583E-01
          1   -1    0    0  501    0  0.00000000000E+00  0.00000000000E+00  0.26509608925E+04  0.26509608925E+04  0.00000000000E+00 0. -1.
         -2   -1    0    0    0  501 -0.00000000000E+00 -0.00000000000E+00 -0.30031183155E+03  0.30031183155E+03  0.00000000000E+00 0.  1.
        -24    2    1    2    0    0 -0.11492777176E+03 -0.19240516956E+03  0.19101829026E+04  0.19251158992E+04  0.83930696253E+02 0.  0.
        254    2    1    2    0    0  0.11492777176E+03  0.19240516956E+03  0.44046615836E+03  0.10261568249E+04  0.89931043065E+03 0.  0.
         23    2    4    4    0    0 -0.94178445173E+02  0.51333884227E+03  0.27787458057E+03  0.59896929477E+03  0.95726626550E+02 0.  0.
         23    2    4    4    0    0  0.20910621693E+03 -0.32093367271E+03  0.16259157778E+03  0.42718753015E+03  0.96588469828E+02 0.  0.
          1    1    3    3  502    0 -0.28836801648E+02 -0.40355855219E+02  0.77277241967E+03  0.77436255642E+03  0.00000000000E+00 0. -1.
         -2    1    3    3    0  502 -0.86090970111E+02 -0.15204931434E+03  0.11374104830E+04  0.11507533428E+04  0.00000000000E+00 0.  1.
         13    1    5    5    0    0 -0.10904794915E+01  0.58438245092E+02  0.67262145135E+02  0.89108999563E+02  0.00000000000E+00 0. -1.
        -13    1    5    5    0    0 -0.93087965682E+02  0.45490059718E+03  0.21061243544E+03  0.50986029521E+03  0.00000000000E+00 0.  1.
          3    1    6    6  503    0  0.57334232481E+02 -0.28350584899E+02  0.13206974997E+02  0.65309984435E+02  0.00000000000E+00 0. -1.
         -3    1    6    6    0  503  0.15177198445E+03 -0.29258308781E+03  0.14938460279E+03  0.36187754571E+03  0.00000000000E+00 0.  1.
<mgrwt>
<rscale>  0 0.17845054E+04</rscale>
<asrwt>0</asrwt>
<pdfrwt beam="1">  1        1 0.40784012E+00 0.17845054E+04</pdfrwt>
<pdfrwt beam="2">  1       -2 0.46201822E-01 0.17845054E+04</pdfrwt>
<totfact> 0.39236086E+00</totfact>
</mgrwt>
</event>
<event>
12    5  0.5246737E-008  0.1414286E+04  0.7818608E-02  0.8943542E-01
         -2   -1    0    0    0  501 -0.00000000000E+00  0.00000000000E+00  0.33579109231E+03  0.33579109231E+03  0.00000000000E+00 0.  1.
          1   -1    0    0  501    0  0.00000000000E+00 -0.00000000000E+00 -0.14891731245E+04  0.14891731245E+04  0.00000000000E+00 0. -1.
        -24    2    1    2    0    0  0.56027186712E+02  0.35596920679E+03 -0.76750648508E+02  0.37696695855E+03  0.79751513792E+02 0.  0.
        254    2    1    2    0    0 -0.56027186712E+02 -0.35596920679E+03 -0.10766313837E+04  0.14479972583E+04  0.89872565437E+03 0.  0.
         23    2    4    4    0    0 -0.62957879010E+02 -0.10169407379E+03 -0.11566626584E+04  0.11661355096E+04  0.87739058111E+02 0.  0.
         23    2    4    4    0    0  0.69306922979E+01 -0.25427513301E+03  0.80031274636E+02  0.28186174872E+03  0.91308064859E+02 0.  0.
          3    1    3    3  502    0  0.21571558621E+01  0.54182214704E+01  0.10243808407E+02  0.11787538165E+02  0.00000000000E+00 0. -1.
         -4    1    3    3    0  502  0.53870030850E+02  0.35055098532E+03 -0.86994456916E+02  0.36517942038E+03  0.00000000000E+00 0.  1.
         13    1    5    5    0    0  0.41426536915E+01 -0.70226080460E+02 -0.43168149505E+03  0.43737601343E+03  0.00000000000E+00 0. -1.
        -13    1    5    5    0    0 -0.67100532701E+02 -0.31467993328E+02 -0.72498116330E+03  0.72875949616E+03  0.00000000000E+00 0.  1.
          1    1    6    6  503    0  0.25657026299E+02 -0.21862262012E+02 -0.41545436200E+01  0.33963240886E+02  0.00000000000E+00 0. -1.
         -1    1    6    6    0  503 -0.18726334001E+02 -0.23241287100E+03  0.84185818256E+02  0.24789850783E+03  0.00000000000E+00 0.  1.
<mgrwt>
<rscale>  0 0.14142858E+04</rscale>
<asrwt>0</asrwt>
<pdfrwt beam="1">  1        1 0.22910356E+00 0.14142858E+04</pdfrwt>
<pdfrwt beam="2">  1       -2 0.51660168E-01 0.14142858E+04</pdfrwt>
<totfact> 0.20130949E+01</totfact>
</mgrwt>
</event>
<event>
12    5  0.5246737E-008  0.1484809E+04  0.7818608E-02  0.8894618E-01
          1   -1    0    0  501    0  0.00000000000E+00  0.00000000000E+00  0.20614989652E+04  0.20614989652E+04  0.00000000000E+00 0. -1.
         -2   -1    0    0    0  501 -0.00000000000E+00 -0.00000000000E+00 -0.26736086315E+03  0.26736086315E+03  0.00000000000E+00 0.  1.
        -24    2    1    2    0    0 -0.24316369604E+03  0.40617916962E+03  0.37600225780E+03  0.60974527971E+03  0.79382034246E+02 0.  0.
        254    2    1    2    0    0  0.24316369604E+03 -0.40617916962E+03  0.14181358443E+04  0.17191145487E+04  0.84860795290E+03 0.  0.
         23    2    4    4    0    0 -0.17362074903E+03 -0.91790049003E+02  0.10542481188E+04  0.10763386282E+04  0.92174665881E+02 0.  0.
         23    2    4    4    0    0  0.41678444507E+03 -0.31438912062E+03  0.36388772546E+03  0.64277592043E+03  0.90536259730E+02 0.  0.
          3    1    3    3  502    0 -0.18599951757E+02  0.10474467374E+02  0.35624487601E+02  0.41530432083E+02  0.00000000000E+00 0. -1.
         -4    1    3    3    0  502 -0.22456374428E+03  0.39570470224E+03  0.34037777020E+03  0.56821484763E+03  0.00000000000E+00 0.  1.
         13    1    5    5    0    0 -0.45675903526E+01 -0.12204889527E+01 -0.60673978756E-01  0.47282297157E+01  0.00000000000E+00 0. -1.
        -13    1    5    5    0    0 -0.16905315868E+03 -0.90569560051E+02  0.10543087928E+04  0.10716103985E+04  0.00000000000E+00 0.  1.
          1    1    6    6  503    0  0.11933488313E+03 -0.58336318424E+02  0.13017127305E+03  0.18597983951E+03  0.00000000000E+00 0. -1.
         -1    1    6    6    0  503  0.29744956194E+03 -0.25605280219E+03  0.23371645241E+03  0.45679608091E+03  0.00000000000E+00 0.  1.
<mgrwt>
<rscale>  0 0.14848086E+04</rscale>
<asrwt>0</asrwt>
<pdfrwt beam="1">  1        1 0.31715368E+00 0.14848086E+04</pdfrwt>
<pdfrwt beam="2">  1       -2 0.41132442E-01 0.14848086E+04</pdfrwt>
<totfact> 0.12896125E+01</totfact>
</mgrwt>
</event>
<event>
12    5  0.5246737E-008  0.2301428E+04  0.7818608E-02  0.8477358E-01
         -2   -1    0    0    0  501 -0.00000000000E+00  0.00000000000E+00  0.41075012459E+03  0.41075012459E+03  0.00000000000E+00 0.  1.
          1   -1    0    0  501    0  0.00000000000E+00 -0.00000000000E+00 -0.32237191888E+04  0.32237191888E+04  0.00000000000E+00 0. -1.
        -24    2    1    2    0    0  0.57951089314E+03  0.23195757584E+03 -0.23709902013E+04  0.24530897020E+04  0.80108420508E+02 0.  0.
        254    2    1    2    0    0 -0.57951089314E+03 -0.23195757584E+03 -0.44197886292E+03  0.11813796114E+04  0.90037507671E+03 0.  0.
         23    2    4    4    0    0  0.13819903589E+03  0.18857261078E+03 -0.16012851782E+03  0.29799564435E+03  0.92204440103E+02 0.  0.
         23    2    4    4    0    0 -0.71770992902E+03 -0.42053018661E+03 -0.28185034510E+03  0.88338396707E+03  0.94733500816E+02 0.  0.
          3    1    3    3  502    0  0.30918655605E+03  0.81297520262E+02 -0.12323363065E+04  0.12731293671E+04  0.00000000000E+00 0. -1.
         -4    1    3    3    0  502  0.27032433709E+03  0.15066005558E+03 -0.11386538949E+04  0.11799603349E+04  0.00000000000E+00 0.  1.
         13    1    5    5    0    0  0.27788186239E+02  0.11575437046E+03 -0.77346995606E+02  0.14196413386E+03  0.00000000000E+00 0.  1.
        -13    1    5    5    0    0  0.11041084965E+03  0.72818240318E+02 -0.82781522215E+02  0.15603151048E+03  0.00000000000E+00 0. -1.
          4    1    6    6  503    0 -0.29933264374E+03 -0.22796039819E+03 -0.11326108456E+03  0.39293008033E+03  0.00000000000E+00 0. -1.
         -4    1    6    6    0  503 -0.41837728528E+03 -0.19256978843E+03 -0.16858926054E+03  0.49045388675E+03  0.00000000000E+00 0.  1.
<mgrwt>
<rscale>  0 0.23014283E+04</rscale>
<asrwt>0</asrwt>
<pdfrwt beam="1">  1        1 0.49595679E+00 0.23014283E+04</pdfrwt>
<pdfrwt beam="2">  1       -2 0.63192327E-01 0.23014283E+04</pdfrwt>
<totfact> 0.75254361E-01</totfact>
</mgrwt>
</event>
<event>
12    5  0.5246737E-008  0.3381657E+04  0.7818608E-02  0.8142423E-01
          1   -1    0    0  501    0  0.00000000000E+00  0.00000000000E+00  0.29032078159E+04  0.29032078159E+04  0.00000000000E+00 0. -1.
         -2   -1    0    0    0  501 -0.00000000000E+00 -0.00000000000E+00 -0.98473878630E+03  0.98473878630E+03  0.00000000000E+00 0.  1.
        -24    2    1    2    0    0 -0.11431746900E+04 -0.14024900245E+02  0.21253303514E+04  0.24146684585E+04  0.80929548986E+02 0.  0.
        254    2    1    2    0    0  0.11431746900E+04  0.14024900245E+02 -0.20686132185E+03  0.14732781437E+04  0.90593146122E+03 0.  0.
         23    2    4    4    0    0  0.47599086175E+03 -0.26120922233E+02 -0.53517321070E+03  0.72315145169E+03  0.96374548443E+02 0.  0.
         23    2    4    4    0    0  0.66718382829E+03  0.40145822478E+02  0.32831188885E+03  0.75012669200E+03  0.90307308068E+02 0.  0.
          3    1    3    3  502    0 -0.10464710899E+04  0.41318893136E+01  0.19724186089E+04  0.22328354134E+04  0.00000000000E+00 0. -1.
         -2    1    3    3    0  502 -0.96703600144E+02 -0.18156789559E+02  0.15291174251E+03  0.18183304509E+03  0.00000000000E+00 0.  1.
         13    1    5    5    0    0  0.19672651807E+03 -0.53233562753E+02 -0.19339451259E+03  0.28095653154E+03  0.00000000000E+00 0.  1.
        -13    1    5    5    0    0  0.27926434368E+03  0.27112640520E+02 -0.34177869811E+03  0.44219492015E+03  0.00000000000E+00 0. -1.
          1    1    6    6  503    0  0.55444866277E+03  0.29674503737E+02  0.30848751009E+03  0.63518378419E+03  0.00000000000E+00 0. -1.
         -1    1    6    6    0  503  0.11273516552E+03  0.10471318741E+02  0.19824378760E+02  0.11494290781E+03  0.00000000000E+00 0.  1.
<mgrwt>
<rscale>  0 0.33816572E+04</rscale>
<asrwt>0</asrwt>
<pdfrwt beam="1">  1        1 0.44664735E+00 0.33816572E+04</pdfrwt>
<pdfrwt beam="2">  1       -2 0.15149828E+00 0.33816572E+04</pdfrwt>
<totfact> 0.14865799E-01</totfact>
</mgrwt>
</event>
<event>
12    5  0.5246737E-008  0.1739122E+04  0.7818608E-02  0.8739361E-01
         -2   -1    0    0    0  501 -0.00000000000E+00  0.00000000000E+00  0.76643931404E+03  0.76643931404E+03  0.00000000000E+00 0.  1.
          1   -1    0    0  501    0  0.00000000000E+00 -0.00000000000E+00 -0.98655767798E+03  0.98655767798E+03  0.00000000000E+00 0. -1.
        -24    2    1    2    0    0 -0.13046424030E+03 -0.62074828376E+02  0.54438204074E+03  0.56751066480E+03  0.69586967652E+02 0.  0.
        254    2    1    2    0    0  0.13046424030E+03  0.62074828376E+02 -0.76450040467E+03  0.11854863272E+04  0.89445109478E+03 0.  0.
         23    2    4    4    0    0 -0.34093828159E+02 -0.68866975616E+02  0.17877001269E+03  0.21459600898E+03  0.90485800999E+02 0.  0.
         23    2    4    4    0    0  0.16455806846E+03  0.13094180399E+03 -0.94327041737E+03  0.97089031824E+03  0.92972124031E+02 0.  0.
          3    1    3    3  502    0  0.64141677967E+01 -0.45679862464E+01  0.69915074205E+02  0.70357129333E+02  0.00000000000E+00 0. -1.
         -4    1    3    3    0  502 -0.13687840810E+03 -0.57506842129E+02  0.47446696654E+03  0.49715353547E+03  0.00000000000E+00 0.  1.
         13    1    5    5    0    0  0.70238608449E+01 -0.15678920184E+02  0.13100576014E+03  0.13212748522E+03  0.00000000000E+00 0. -1.
        -13    1    5    5    0    0 -0.41117689004E+02 -0.53188055433E+02  0.47764252549E+02  0.82468523761E+02  0.00000000000E+00 0.  1.
          3    1    6    6  503    0  0.60607845074E+02  0.70233604174E+02 -0.59988637389E+03  0.60701707687E+03  0.00000000000E+00 0. -1.
         -3    1    6    6    0  503  0.10395022339E+03  0.60708199818E+02 -0.34338404348E+03  0.36387324137E+03  0.00000000000E+00 0.  1.
<mgrwt>
<rscale>  0 0.17391223E+04</rscale>
<asrwt>0</asrwt>
<pdfrwt beam="1">  1        1 0.15177810E+00 0.17391223E+04</pdfrwt>
<pdfrwt beam="2">  1       -2 0.11791374E+00 0.17391223E+04</pdfrwt>
<totfact> 0.71483590E+00</totfact>
</mgrwt>
</event>
<event>
12    5  0.5246737E-008  0.2639556E+04  0.7818608E-02  0.8354888E-01
         -2   -1    0    0    0  501 -0.00000000000E+00  0.00000000000E+00  0.17231592380E+04  0.17231592380E+04  0.00000000000E+00 0.  1.
          1   -1    0    0  501    0  0.00000000000E+00 -0.00000000000E+00 -0.10108258195E+04  0.10108258195E+04  0.00000000000E+00 0. -1.
        -24    2    1    2    0    0 -0.76840691871E+03 -0.61779519348E+03  0.95270382867E+03  0.13733429228E+04  0.79410985230E+02 0.  0.
        254    2    1    2    0    0  0.76840691871E+03  0.61779519348E+03 -0.24037041019E+03  0.13606421347E+04  0.90633823196E+03 0.  0.
         23    2    4    4    0    0  0.14958853085E+03  0.21216066792E+03  0.32448605031E+03  0.42531929447E+03  0.90644513476E+02 0.  0.
         23    2    4    4    0    0  0.61881838786E+03  0.40563452555E+03 -0.56485646050E+03  0.93532284019E+03  0.91051792612E+02 0.  0.
          1    1    3    3  502    0 -0.39734188541E+03 -0.31638245561E+03  0.54568596436E+03  0.74548749407E+03  0.00000000000E+00 0. -1.
         -2    1    3    3    0  502 -0.37106503330E+03 -0.30141273787E+03  0.40701786431E+03  0.62785542871E+03  0.00000000000E+00 0.  1.
         13    1    5    5    0    0  0.30202380905E+02  0.94516865776E+02  0.17279991783E+03  0.19926222253E+03  0.00000000000E+00 0. -1.
        -13    1    5    5    0    0  0.11938614995E+03  0.11764380215E+03  0.15168613249E+03  0.22605707194E+03  0.00000000000E+00 0.  1.
          1    1    6    6  503    0  0.49208216744E+03  0.31111313567E+03 -0.39656239046E+03  0.70441321128E+03  0.00000000000E+00 0. -1.
         -1    1    6    6    0  503  0.12673622042E+03  0.94521389885E+02 -0.16829407005E+03  0.23090962891E+03  0.00000000000E+00 0.  1.
<mgrwt>
<rscale>  0 0.26395559E+04</rscale>
<asrwt>0</asrwt>
<pdfrwt beam="1">  1        1 0.15551167E+00 0.26395559E+04</pdfrwt>
<pdfrwt beam="2">  1       -2 0.26510142E+00 0.26395559E+04</pdfrwt>
<totfact> 0.59326761E-01</totfact>
</mgrwt>
</event>
<event>
12    5  0.5246737E-008  0.1446063E+04  0.7818608E-02  0.8921135E-01
         -2   -1    0    0    0  501 -0.00000000000E+00  0.00000000000E+00  0.36322444264E+03  0.36322444264E+03  0.00000000000E+00 0.  1.
          1   -1    0    0  501    0  0.00000000000E+00 -0.00000000000E+00 -0.14392597701E+04  0.14392597701E+04  0.00000000000E+00 0. -1.
        -24    2    1    2    0    0  0.91926541992E+02 -0.18519952262E+01 -0.86441676795E+03  0.87229032192E+03  0.72250522370E+02 0.  0.
        254    2    1    2    0    0 -0.91926541992E+02  0.18519952262E+01 -0.21161855955E+03  0.93019389086E+03  0.90112393201E+03 0.  0.
         23    2    4    4    0    0  0.34902838226E+03  0.13202221677E+03  0.62151282304E+02  0.38732627267E+03  0.83115475481E+02 0.  0.
         23    2    4    4    0    0 -0.44095492426E+03 -0.13017022154E+03 -0.27376984185E+03  0.54286761818E+03  0.91486571482E+02 0.  0.
          3    1    3    3  502    0  0.13987572328E+02 -0.28937587115E+02 -0.32708398628E+03  0.32865935284E+03  0.00000000000E+00 0. -1.
         -4    1    3    3    0  502  0.77938969664E+02  0.27085591889E+02 -0.53733278167E+03  0.54363096908E+03  0.00000000000E+00 0.  1.
         13    1    5    5    0    0 -0.19376232895E+01 -0.11217322178E+01 -0.54711105195E+01  0.59114902941E+01  0.00000000000E+00 0.  1.
        -13    1    5    5    0    0  0.35096600555E+03  0.13314394899E+03  0.67622392823E+02  0.38141478238E+03  0.00000000000E+00 0. -1.
          2    1    6    6  503    0 -0.13864796852E+03 -0.10714073896E+02 -0.11818440959E+03  0.18249823348E+03  0.00000000000E+00 0. -1.
         -2    1    6    6    0  503 -0.30230695574E+03 -0.11945614765E+03 -0.15558543226E+03  0.36036938470E+03  0.00000000000E+00 0.  1.
<mgrwt>
<rscale>  0 0.14460627E+04</rscale>
<asrwt>0</asrwt>
<pdfrwt beam="1">  1        1 0.22142458E+00 0.14460627E+04</pdfrwt>
<pdfrwt beam="2">  1       -2 0.55880683E-01 0.14460627E+04</pdfrwt>
<totfact> 0.18486854E+01</totfact>
</mgrwt>
</event>
<event>
12    5  0.5246737E-008  0.2692883E+04  0.7818608E-02  0.8337318E-01
         -2   -1    0    0    0  501 -0.00000000000E+00  0.00000000000E+00  0.86513677205E+03  0.86513677205E+03  0.00000000000E+00 0.  1.
          1   -1    0    0  501    0  0.00000000000E+00 -0.00000000000E+00 -0.20955129364E+04  0.20955129364E+04  0.00000000000E+00 0. -1.
        -24    2    1    2    0    0 -0.22638353088E+03 -0.11520514817E+04 -0.73519055339E+03  0.13876227002E+04  0.80743351494E+02 0.  0.
        254    2    1    2    0    0  0.22638353088E+03  0.11520514817E+04 -0.49518561096E+03  0.15730270082E+04  0.92235191750E+03 0.  0.
         23    2    4    4    0    0  0.16201035278E+03  0.23225507866E+03  0.24617779664E+03  0.38634117216E+03  0.92012052345E+02 0.  0.
         23    2    4    4    0    0  0.64373178094E+02  0.91979640306E+03 -0.74136340760E+03  0.11866858361E+04  0.91838130584E+02 0.  0.
          3    1    3    3  502    0 -0.15203032661E+03 -0.72218783355E+03 -0.50614252891E+03  0.89490152906E+03  0.00000000000E+00 0. -1.
         -4    1    3    3    0  502 -0.74353204270E+02 -0.42986364816E+03 -0.22904802448E+03  0.49272117117E+03  0.00000000000E+00 0.  1.
         13    1    5    5    0    0  0.16852776707E+03  0.18737157343E+03  0.21548797704E+03  0.33157922591E+03  0.00000000000E+00 0.  1.
        -13    1    5    5    0    0 -0.65174142902E+01  0.44883505224E+02  0.30689819605E+02  0.54761946255E+02  0.00000000000E+00 0. -1.
          2    1    6    6  503    0  0.49899422794E+02  0.49472981743E+03 -0.45461634750E+03  0.67373850125E+03  0.00000000000E+00 0. -1.
         -2    1    6    6    0  503  0.14473755299E+02  0.42506658562E+03 -0.28674706010E+03  0.51294733480E+03  0.00000000000E+00 0.  1.
<mgrwt>
<rscale>  0 0.26928834E+04</rscale>
<asrwt>0</asrwt>
<pdfrwt beam="1">  1        1 0.32238660E+00 0.26928834E+04</pdfrwt>
<pdfrwt beam="2">  1       -2 0.13309797E+00 0.26928834E+04</pdfrwt>
<totfact> 0.80623439E-01</totfact>
</mgrwt>
</event>
<event>
12    5  0.5246737E-008  0.1580706E+04  0.7818608E-02  0.8832490E-01
          1   -1    0    0  501    0  0.00000000000E+00  0.00000000000E+00  0.15732599376E+04  0.15732599376E+04  0.00000000000E+00 0. -1.
         -2   -1    0    0    0  501 -0.00000000000E+00 -0.00000000000E+00 -0.39704678521E+03  0.39704678521E+03  0.00000000000E+00 0.  1.
        -24    2    1    2    0    0 -0.19356833653E+03 -0.36038192729E+03  0.80922055392E+03  0.91035812748E+03  0.81056652687E+02 0.  0.
        254    2    1    2    0    0  0.19356833653E+03  0.36038192729E+03  0.36699259849E+03  0.10599485954E+04  0.90634630414E+03 0.  0.
         23    2    4    4    0    0  0.18006924355E+03  0.59376054522E+03  0.13634802792E+02  0.62743180442E+03  0.92240142065E+02 0.  0.
         23    2    4    4    0    0  0.13499092974E+02 -0.23337861793E+03  0.35335779570E+03  0.43251679094E+03  0.86955378467E+02 0.  0.
          3    1    3    3  502    0 -0.18539059515E+03 -0.30688882230E+03  0.65191913146E+03  0.74400872037E+03  0.00000000000E+00 0. -1.
         -4    1    3    3    0  502 -0.81777413767E+01 -0.53493104997E+02  0.15730142246E+03  0.16634940711E+03  0.00000000000E+00 0.  1.
         13    1    5    5    0    0  0.12641831888E+03  0.25854754607E+03  0.75146978512E+01  0.28789736993E+03  0.00000000000E+00 0. -1.
        -13    1    5    5    0    0  0.53650924673E+02  0.33521299915E+03  0.61201049406E+01  0.33953443449E+03  0.00000000000E+00 0.  1.
          1    1    6    6  503    0 -0.12902669450E+02 -0.72247419716E+02  0.17992281928E+03  0.19431518065E+03  0.00000000000E+00 0. -1.
         -1    1    6    6    0  503  0.26401762424E+02 -0.16113119821E+03  0.17343497642E+03  0.23820161028E+03  0.00000000000E+00 0.  1.
<mgrwt>
<rscale>  0 0.15807059E+04</rscale>
<asrwt>0</asrwt>
<pdfrwt beam="1">  1        1 0.24203999E+00 0.15807059E+04</pdfrwt>
<pdfrwt beam="2">  1       -2 0.61084122E-01 0.15807059E+04</pdfrwt>
<totfact> 0.12242189E+01</totfact>
</mgrwt>
</event>
<event>
12    5  0.5246737E-008  0.1226120E+04  0.7818608E-02  0.9090296E-01
         -2   -1    0    0    0  501 -0.00000000000E+00  0.00000000000E+00  0.28365037237E+03  0.28365037237E+03  0.00000000000E+00 0.  1.
          1   -1    0    0  501    0  0.00000000000E+00 -0.00000000000E+00 -0.13250204210E+04  0.13250204210E+04  0.00000000000E+00 0. -1.
        -24    2    1    2    0    0 -0.20910201040E+03 -0.15345025237E+03 -0.35855131943E+03  0.44952603173E+03  0.79018819507E+02 0.  0.
        254    2    1    2    0    0  0.20910201040E+03  0.15345025237E+03 -0.68281872918E+03  0.11591447616E+04  0.90005807076E+03 0.  0.
         23    2    4    4    0    0 -0.83707144437E+02  0.30054800721E+03 -0.74740186767E+03  0.81505855223E+03  0.91514485705E+02 0.  0.
         23    2    4    4    0    0  0.29280915484E+03 -0.14709775485E+03  0.64583138490E+02  0.34408620938E+03  0.82761023877E+02 0.  0.
          3    1    3    3  502    0 -0.63560158765E+02 -0.45221950416E+02 -0.17442042784E+03  0.19106910852E+03  0.00000000000E+00 0. -1.
         -4    1    3    3    0  502 -0.14554185163E+03 -0.10822830195E+03 -0.18413089159E+03  0.25845692321E+03  0.00000000000E+00 0.  1.
         13    1    5    5    0    0 -0.57245339304E+02  0.19992478495E+03 -0.59693969338E+03  0.63212652692E+03  0.00000000000E+00 0. -1.
        -13    1    5    5    0    0 -0.26461805133E+02  0.10062322226E+03 -0.15046217429E+03  0.18293202531E+03  0.00000000000E+00 0.  1.
          1    1    6    6  503    0  0.10212363821E+03 -0.20156020190E+02  0.47371529838E+02  0.11436592356E+03  0.00000000000E+00 0. -1.
         -1    1    6    6    0  503  0.19068551662E+03 -0.12694173466E+03  0.17211608652E+02  0.22972028582E+03  0.00000000000E+00 0.  1.
<mgrwt>
<rscale>  0 0.12261200E+04</rscale>
<asrwt>0</asrwt>
<pdfrwt beam="1">  1        1 0.20384929E+00 0.12261200E+04</pdfrwt>
<pdfrwt beam="2">  1       -2 0.43638519E-01 0.12261200E+04</pdfrwt>
<totfact> 0.37453359E+01</totfact>
</mgrwt>
</event>
<event>
12    5  0.5246737E-008  0.2357341E+04  0.7818608E-02  0.8455649E-01
         -2   -1    0    0    0  501 -0.00000000000E+00  0.00000000000E+00  0.63627302976E+03  0.63627302976E+03  0.00000000000E+00 0.  1.
          1   -1    0    0  501    0  0.00000000000E+00 -0.00000000000E+00 -0.21834407945E+04  0.21834407945E+04  0.00000000000E+00 0. -1.
        -24    2    1    2    0    0  0.87501068808E+03  0.49327747697E+03 -0.50694782244E+03  0.11280426357E+04  0.80732396290E+02 0.  0.
        254    2    1    2    0    0 -0.87501068808E+03 -0.49327747697E+03 -0.10402199423E+04  0.16916711885E+04  0.87791087712E+03 0.  0.
         23    2    4    4    0    0 -0.83153013273E+03 -0.66022086093E+03 -0.10488594469E+04  0.14953725612E+04  0.93268486361E+02 0.  0.
         23    2    4    4    0    0 -0.43480555348E+02  0.16694338396E+03  0.86395046081E+01  0.19629862733E+03  0.93262307013E+02 0.  0.
          1    1    3    3  502    0  0.20961010249E+03  0.10457287846E+03 -0.83062512788E+02  0.24853825260E+03  0.00000000000E+00 0. -1.
         -2    1    3    3    0  502  0.66540058559E+03  0.38870459851E+03 -0.42388530965E+03  0.87950438313E+03  0.00000000000E+00 0.  1.
         13    1    5    5    0    0 -0.29105007997E+03 -0.19177140612E+03 -0.30070162432E+03  0.46033453935E+03  0.00000000000E+00 0.  1.
        -13    1    5    5    0    0 -0.54048005277E+03 -0.46844945481E+03 -0.74815782259E+03  0.10350380218E+04  0.00000000000E+00 0. -1.
          4    1    6    6  503    0 -0.67481537486E+02  0.97502975600E+02  0.24627905903E+02  0.12110789364E+03  0.00000000000E+00 0. -1.
         -4    1    6    6    0  503  0.24000982138E+02  0.69440408359E+02 -0.15988401295E+02  0.75190733688E+02  0.00000000000E+00 0.  1.
<mgrwt>
<rscale>  0 0.23573413E+04</rscale>
<asrwt>0</asrwt>
<pdfrwt beam="1">  1        1 0.33591397E+00 0.23573413E+04</pdfrwt>
<pdfrwt beam="2">  1       -2 0.97888158E-01 0.23573413E+04</pdfrwt>
<totfact> 0.15350853E+00</totfact>
</mgrwt>
</event>
<event>
12    5  0.5246737E-008  0.2290157E+04  0.7818608E-02  0.8481812E-01
         -4   -1    0    0    0  501 -0.00000000000E+00  0.00000000000E+00  0.85185183235E+03  0.85185183235E+03  0.00000000000E+00 0.  1.
          3   -1    0    0  501    0  0.00000000000E+00 -0.00000000000E+00 -0.15392405479E+04  0.15392405479E+04  0.00000000000E+00 0. -1.
        -24    2    1    2    0    0 -0.59071720160E+03 -0.58455290759E+03 -0.77984655193E+03  0.11423768257E+04  0.78836878139E+02 0.  0.
        254    2    1    2    0    0  0.59071720160E+03  0.58455290759E+03  0.92457836428E+02  0.12487155545E+04  0.92741208234E+03 0.  0.
         23    2    4    4    0    0  0.64682230449E+03  0.58819215145E+01  0.88377084652E+02  0.65992439539E+03  0.96312034300E+02 0.  0.
         23    2    4    4    0    0 -0.56105102898E+02  0.57867098607E+03  0.40807517767E+01  0.58879115910E+03  0.93007977083E+02 0.  0.
          3    1    3    3  502    0 -0.45916865751E+03 -0.44255191298E+03 -0.64071243900E+03  0.90399141656E+03  0.00000000000E+00 0. -1.
         -2    1    3    3    0  502 -0.13154854408E+03 -0.14200099461E+03 -0.13913411294E+03  0.23838540917E+03  0.00000000000E+00 0.  1.
         13    1    5    5    0    0  0.21664754175E+03 -0.11695069226E+02  0.73705950965E+02  0.22914078467E+03  0.00000000000E+00 0. -1.
        -13    1    5    5    0    0  0.43017476274E+03  0.17576990740E+02  0.14671133686E+02  0.43078361072E+03  0.00000000000E+00 0.  1.
          3    1    6    6  503    0 -0.46833921527E+02  0.22223175093E+03 -0.36138018306E+02  0.22997026698E+03  0.00000000000E+00 0. -1.
         -3    1    6    6    0  503 -0.92711813708E+01  0.35643923514E+03  0.40218770083E+02  0.35882089212E+03  0.00000000000E+00 0.  1.
<mgrwt>
<rscale>  0 0.22901571E+04</rscale>
<asrwt>0</asrwt>
<pdfrwt beam="1">  1        3 0.23680623E+00 0.22901571E+04</pdfrwt>
<pdfrwt beam="2">  1       -4 0.13105413E+00 0.22901571E+04</pdfrwt>
<totfact> 0.77488936E-02</totfact>
</mgrwt>
</event>
<event>
12    5  0.5246737E-008  0.3159049E+04  0.7818608E-02  0.8199717E-01
          1   -1    0    0  501    0  0.00000000000E+00  0.00000000000E+00  0.15339545340E+04  0.15339545340E+04  0.00000000000E+00 0. -1.
         -4   -1    0    0    0  501 -0.00000000000E+00 -0.00000000000E+00 -0.16264479884E+04  0.16264479884E+04  0.00000000000E+00 0.  1.
        -24    2    1    2    0    0 -0.52723087243E+02  0.95722008294E+03  0.10385099773E+04  0.14156974317E+04  0.81524438470E+02 0.  0.
        254    2    1    2    0    0  0.52723087243E+02 -0.95722008294E+03 -0.11310034317E+04  0.17447050907E+04  0.91966139409E+03 0.  0.
         23    2    4    4    0    0  0.12856869471E+03 -0.85166287211E+03 -0.32796313783E+03  0.92607000429E+03  0.90478041995E+02 0.  0.
         23    2    4    4    0    0 -0.75845607468E+02 -0.10555721083E+03 -0.80304029391E+03  0.81863508641E+03  0.91623196425E+02 0.  0.
          1    1    3    3  502    0 -0.26979553180E+02  0.58856033374E+03  0.57951903207E+03  0.82642209026E+03  0.00000000000E+00 0. -1.
         -4    1    3    3    0  502 -0.25743534063E+02  0.36865974920E+03  0.45899094525E+03  0.58927534146E+03  0.00000000000E+00 0.  1.
         13    1    5    5    0    0  0.50120143797E+02 -0.12454365431E+03 -0.40025136072E+02  0.14008983604E+03  0.00000000000E+00 0. -1.
        -13    1    5    5    0    0  0.78448550915E+02 -0.72711921779E+03 -0.28793800176E+03  0.78598016825E+03  0.00000000000E+00 0.  1.
          3    1    6    6  503    0 -0.68608905195E+02 -0.12228748786E+03 -0.68600250402E+03  0.70018629455E+03  0.00000000000E+00 0. -1.
         -3    1    6    6    0  503 -0.72367022738E+01  0.16730277028E+02 -0.11703778990E+03  0.11844879186E+03  0.00000000000E+00 0.  1.
<mgrwt>
<rscale>  0 0.31590488E+04</rscale>
<asrwt>0</asrwt>
<pdfrwt beam="1">  1        1 0.23599301E+00 0.31590488E+04</pdfrwt>
<pdfrwt beam="2">  1       -4 0.25022277E+00 0.31590488E+04</pdfrwt>
<totfact> 0.15838646E-01</totfact>
</mgrwt>
</event>
<event>
12    5  0.5246737E-008  0.2211332E+04  0.7818608E-02  0.8513726E-01
          1   -1    0    0  501    0  0.00000000000E+00  0.00000000000E+00  0.18371389406E+04  0.18371389406E+04  0.00000000000E+00 0. -1.
         -2   -1    0    0    0  501 -0.00000000000E+00 -0.00000000000E+00 -0.66543533462E+03  0.66543533462E+03  0.00000000000E+00 0.  1.
        -24    2    1    2    0    0 -0.79432785957E+03  0.45017711829E+03  0.53040438589E+03  0.10588071266E+04  0.78278557111E+02 0.  0.
        254    2    1    2    0    0  0.79432785957E+03 -0.45017711829E+03  0.64129922014E+03  0.14437671486E+04  0.91628745677E+03 0.  0.
         23    2    4    4    0    0  0.66322821630E+03  0.13651805047E+03  0.38193701793E+03  0.78274183770E+03  0.91104631216E+02 0.  0.
         23    2    4    4    0    0  0.13109964327E+03 -0.58669516876E+03  0.25936220220E+03  0.66102531094E+03  0.91035005654E+02 0.  0.
          1    1    3    3  502    0 -0.64404982291E+03  0.34180295300E+03  0.45015722121E+03  0.85689611791E+03  0.00000000000E+00 0. -1.
         -2    1    3    3    0  502 -0.15027803666E+03  0.10837416529E+03  0.80247164680E+02  0.20191100872E+03  0.00000000000E+00 0.  1.
         13    1    5    5    0    0  0.28931245075E+03  0.10460787933E+03  0.18391280528E+03  0.35842491894E+03  0.00000000000E+00 0. -1.
        -13    1    5    5    0    0  0.37391576555E+03  0.31910171143E+02  0.19802421266E+03  0.42431691876E+03  0.00000000000E+00 0.  1.
          2    1    6    6  503    0  0.32249900980E+02 -0.36066158022E+02  0.16076770617E+02  0.50983197439E+02  0.00000000000E+00 0. -1.
         -2    1    6    6    0  503  0.98849742291E+02 -0.55062901074E+03  0.24328543159E+03  0.61004211350E+03  0.00000000000E+00 0.  1.
<mgrwt>
<rscale>  0 0.22113319E+04</rscale>
<asrwt>0</asrwt>
<pdfrwt beam="1">  1        1 0.28263676E+00 0.22113319E+04</pdfrwt>
<pdfrwt beam="2">  1       -2 0.10237467E+00 0.22113319E+04</pdfrwt>
<totfact> 0.24017914E+00</totfact>
</mgrwt>
</event>
<event>
12    5  0.5246737E-008  0.2169437E+04  0.7818608E-02  0.8531258E-01
         -2   -1    0    0    0  501 -0.00000000000E+00  0.00000000000E+00  0.49889167036E+03  0.49889167036E+03  0.00000000000E+00 0.  1.
          1   -1    0    0  501    0  0.00000000000E+00 -0.00000000000E+00 -0.23584571604E+04  0.23584571604E+04  0.00000000000E+00 0. -1.
        -24    2    1    2    0    0  0.88734885730E+03  0.76401208503E+02 -0.67234511660E+03  0.11189017574E+04  0.81658114064E+02 0.  0.
        254    2    1    2    0    0 -0.88734885730E+03 -0.76401208503E+02 -0.11872203734E+04  0.17384470734E+04  0.90525182834E+03 0.  0.
         23    2    4    4    0    0 -0.52029469613E+03 -0.48210344656E+03 -0.64824843167E+03  0.96521210244E+03  0.90983897131E+02 0.  0.
         23    2    4    4    0    0 -0.36705416117E+03  0.40570223805E+03 -0.53897194175E+03  0.77323497095E+03  0.89880493505E+02 0.  0.
          3    1    3    3  502    0  0.38559726817E+03  0.39258435309E+02 -0.24283810050E+03  0.45738038984E+03  0.00000000000E+00 0. -1.
         -4    1    3    3    0  502  0.50175158913E+03  0.37142773194E+02 -0.42950701610E+03  0.66152136751E+03  0.00000000000E+00 0.  1.
         13    1    5    5    0    0 -0.20665121730E+03 -0.13263897928E+03 -0.22217177335E+03  0.33114667643E+03  0.00000000000E+00 0. -1.
        -13    1    5    5    0    0 -0.31364347883E+03 -0.34946446728E+03 -0.42607665832E+03  0.63406542602E+03  0.00000000000E+00 0.  1.
          2    1    6    6  503    0 -0.55835855108E+02  0.98926926261E+02 -0.76476165460E+02  0.13694080231E+03  0.00000000000E+00 0. -1.
         -2    1    6    6    0  503 -0.31121830606E+03  0.30677531179E+03 -0.46249577629E+03  0.63629416864E+03  0.00000000000E+00 0.  1.
<mgrwt>
<rscale>  0 0.21694374E+04</rscale>
<asrwt>0</asrwt>
<pdfrwt beam="1">  1        1 0.36283956E+00 0.21694374E+04</pdfrwt>
<pdfrwt beam="2">  1       -2 0.76752566E-01 0.21694374E+04</pdfrwt>
<totfact> 0.20673094E+00</totfact>
</mgrwt>
</event>
<event>
12    5  0.5246737E-008  0.1657542E+04  0.7818608E-02  0.8785957E-01
         -2   -1    0    0    0  501 -0.00000000000E+00  0.00000000000E+00  0.20538620549E+04  0.20538620549E+04  0.00000000000E+00 0.  1.
          1   -1    0    0  501    0  0.00000000000E+00 -0.00000000000E+00 -0.33442423442E+03  0.33442423442E+03  0.00000000000E+00 0. -1.
        -24    2    1    2    0    0 -0.24411326792E+03  0.33955237366E+03  0.38304569283E+02  0.42830444299E+03  0.84204238787E+02 0.  0.
        254    2    1    2    0    0  0.24411326792E+03 -0.33955237366E+03  0.16811332512E+04  0.19599818464E+04  0.91675118086E+03 0.  0.
         23    2    4    4    0    0  0.55850605780E+03 -0.35985533541E+03  0.10037278059E+04  0.12071856303E+04  0.91666561575E+02 0.  0.
         23    2    4    4    0    0 -0.31439278988E+03  0.20302961749E+02  0.67740544531E+03  0.75279621610E+03  0.92568726076E+02 0.  0.
          1    1    3    3  502    0 -0.24341934482E+03  0.33139286582E+03  0.49799357630E+02  0.41419100059E+03  0.00000000000E+00 0. -1.
         -2    1    3    3    0  502 -0.69392310350E+00  0.81595078371E+01 -0.11494788347E+02  0.14113442407E+02  0.00000000000E+00 0.  1.
         13    1    5    5    0    0  0.44834457161E+02 -0.48016003291E+02  0.63741681437E+02  0.91535059259E+02  0.00000000000E+00 0.  1.
        -13    1    5    5    0    0  0.51367160064E+03 -0.31183933211E+03  0.93998612449E+03  0.11156505710E+04  0.00000000000E+00 0. -1.
          3    1    6    6  503    0  0.12489234699E+01 -0.94468850590E+01  0.94586909398E+01  0.13426476881E+02  0.00000000000E+00 0. -1.
         -3    1    6    6    0  503 -0.31564171335E+03  0.29749846808E+02  0.66794675437E+03  0.73936973921E+03  0.00000000000E+00 0.  1.
<mgrwt>
<rscale>  0 0.16575418E+04</rscale>
<asrwt>0</asrwt>
<pdfrwt beam="1">  1        1 0.51449884E-01 0.16575418E+04</pdfrwt>
<pdfrwt beam="2">  1       -2 0.31597877E+00 0.16575418E+04</pdfrwt>
<totfact> 0.16143488E+00</totfact>
</mgrwt>
</event>
<event>
12    5  0.5246737E-008  0.2041978E+04  0.7818608E-02  0.8587242E-01
         -2   -1    0    0    0  501 -0.00000000000E+00  0.00000000000E+00  0.28663611080E+04  0.28663611080E+04  0.00000000000E+00 0.  1.
          1   -1    0    0  501    0  0.00000000000E+00 -0.00000000000E+00 -0.36367320773E+03  0.36367320773E+03  0.00000000000E+00 0. -1.
        -24    2    1    2    0    0 -0.16727991678E+03  0.55363690056E+03  0.84805053620E+02  0.58987719496E+03  0.79163247775E+02 0.  0.
        254    2    1    2    0    0  0.16727991678E+03 -0.55363690056E+03  0.24178828467E+04  0.26401571208E+04  0.88869329579E+03 0.  0.
         23    2    4    4    0    0  0.49513957425E+03 -0.50696106197E+03  0.15492102877E+04  0.17060699289E+04  0.91920456928E+02 0.  0.
         23    2    4    4    0    0 -0.32785965747E+03 -0.46675838587E+02  0.86867255898E+03  0.93408719190E+03  0.90864065742E+02 0.  0.
          3    1    3    3  502    0 -0.16625101099E+03  0.45037977691E+03  0.78116761181E+02  0.48639857163E+03  0.00000000000E+00 0. -1.
         -4    1    3    3    0  502 -0.10289057902E+01  0.10325712364E+03  0.66882924392E+01  0.10347862333E+03  0.00000000000E+00 0.  1.
         13    1    5    5    0    0  0.32107614719E+03 -0.26555997594E+03  0.92794242547E+03  0.10171967057E+04  0.00000000000E+00 0. -1.
        -13    1    5    5    0    0  0.17406342706E+03 -0.24140108603E+03  0.62126786221E+03  0.68887322316E+03  0.00000000000E+00 0.  1.
          4    1    6    6  503    0 -0.11950293651E+03 -0.59262835760E+02  0.30012309242E+03  0.32843097622E+03  0.00000000000E+00 0. -1.
         -4    1    6    6    0  503 -0.20835672096E+03  0.12586997173E+02  0.56854946655E+03  0.60565621567E+03  0.00000000000E+00 0.  1.
<mgrwt>
<rscale>  0 0.20419782E+04</rscale>
<asrwt>0</asrwt>
<pdfrwt beam="1">  1        1 0.55949726E-01 0.20419782E+04</pdfrwt>
<pdfrwt beam="2">  1       -2 0.44097862E+00 0.20419782E+04</pdfrwt>
<totfact> 0.21963254E-01</totfact>
</mgrwt>
</event>
<event>
12    5  0.5246737E-008  0.2460003E+04  0.7818608E-02  0.8417375E-01
          1   -1    0    0  501    0  0.00000000000E+00  0.00000000000E+00  0.11973818159E+04  0.11973818159E+04  0.00000000000E+00 0. -1.
         -2   -1    0    0    0  501 -0.00000000000E+00 -0.00000000000E+00 -0.12635093715E+04  0.12635093715E+04  0.00000000000E+00 0.  1.
        -24    2    1    2    0    0 -0.14046880859E+03 -0.10466196843E+04  0.88963216032E+02  0.10627995195E+04  0.80524002858E+02 0.  0.
        254    2    1    2    0    0  0.14046880859E+03  0.10466196843E+04 -0.15509077161E+03  0.13980916679E+04  0.90302985256E+03 0.  0.
         23    2    4    4    0    0  0.15218110991E+03 -0.29414644463E+01 -0.28511039302E+03  0.33645316375E+03  0.93514986823E+02 0.  0.
         23    2    4    4    0    0 -0.11712301324E+02  0.10495611487E+04  0.13001962141E+03  0.10616385041E+04  0.91953404221E+02 0.  0.
          1    1    3    3  502    0 -0.54597904660E+02 -0.55204012666E+03  0.82083718127E+02  0.56077354558E+03  0.00000000000E+00 0. -1.
         -2    1    3    3    0  502 -0.85870903926E+02 -0.49457955763E+03  0.68794979051E+01  0.50202597389E+03  0.00000000000E+00 0.  1.
         13    1    5    5    0    0  0.73134667925E+02  0.27577133633E+02 -0.20678681978E+03  0.22106552600E+03  0.00000000000E+00 0. -1.
        -13    1    5    5    0    0  0.79046441984E+02 -0.30518598079E+02 -0.78323573242E+02  0.11538763775E+03  0.00000000000E+00 0.  1.
          1    1    6    6  503    0 -0.88343556124E+01  0.99408961698E+03  0.14362531963E+03  0.10044503198E+04  0.00000000000E+00 0. -1.
         -1    1    6    6    0  503 -0.28779457119E+01  0.55471531764E+02 -0.13605698218E+02  0.57188184372E+02  0.00000000000E+00 0.  1.
<mgrwt>
<rscale>  0 0.24600026E+04</rscale>
<asrwt>0</asrwt>
<pdfrwt beam="1">  1        1 0.18421259E+00 0.24600026E+04</pdfrwt>
<pdfrwt beam="2">  1       -2 0.19438606E+00 0.24600026E+04</pdfrwt>
<totfact> 0.12162415E+00</totfact>
</mgrwt>
</event>
<event>
12    5  0.5246737E-008  0.1536993E+04  0.7818608E-02  0.8860219E-01
         -2   -1    0    0    0  501 -0.00000000000E+00  0.00000000000E+00  0.34980917296E+03  0.34980917296E+03  0.00000000000E+00 0.  1.
          1   -1    0    0  501    0  0.00000000000E+00 -0.00000000000E+00 -0.16883117729E+04  0.16883117729E+04  0.00000000000E+00 0. -1.
        -24    2    1    2    0    0  0.48961102967E+03 -0.29145616627E+02 -0.29371044500E+03  0.57722304776E+03  0.79700652545E+02 0.  0.
        254    2    1    2    0    0 -0.48961102967E+03  0.29145616627E+02 -0.10447921550E+04  0.14608978981E+04  0.89558003234E+03 0.  0.
         23    2    4    4    0    0  0.86299732643E+02 -0.16461312240E+02 -0.82731660305E+03  0.83684842872E+03  0.90243627619E+02 0.  0.
         23    2    4    4    0    0 -0.57591076231E+03  0.45606928868E+02 -0.21747555193E+03  0.62404946941E+03  0.91591082924E+02 0.  0.
          3    1    3    3  502    0  0.29553484510E+03  0.14701661406E+02 -0.20102704268E+03  0.35772734786E+03  0.00000000000E+00 0. -1.
         -4    1    3    3    0  502  0.19407618457E+03 -0.43847278034E+02 -0.92683402314E+02  0.21949569990E+03  0.00000000000E+00 0.  1.
         13    1    5    5    0    0  0.99436202611E+02 -0.20265652337E+02 -0.79881809104E+03  0.80523822415E+03  0.00000000000E+00 0.  1.
        -13    1    5    5    0    0 -0.13136469968E+02  0.38043400962E+01 -0.28498512002E+02  0.31610204573E+02  0.00000000000E+00 0. -1.
          3    1    6    6  503    0 -0.33409217554E+03 -0.15350701199E+02 -0.14345424243E+03  0.36391255194E+03  0.00000000000E+00 0. -1.
         -3    1    6    6    0  503 -0.24181858677E+03  0.60957630066E+02 -0.74021309504E+02  0.26013691747E+03  0.00000000000E+00 0.  1.
<mgrwt>
<rscale>  0 0.15369931E+04</rscale>
<asrwt>0</asrwt>
<pdfrwt beam="1">  1        1 0.25974028E+00 0.15369931E+04</pdfrwt>
<pdfrwt beam="2">  1       -2 0.53816795E-01 0.15369931E+04</pdfrwt>
<totfact> 0.13366466E+01</totfact>
</mgrwt>
</event>
<event>
12    5  0.5246737E-008  0.1595954E+04  0.7818608E-02  0.8823038E-01
          3   -1    0    0  501    0  0.00000000000E+00  0.00000000000E+00  0.42783656931E+03  0.42783656931E+03  0.00000000000E+00 0. -1.
         -4   -1    0    0    0  501 -0.00000000000E+00 -0.00000000000E+00 -0.14883418449E+04  0.14883418449E+04  0.00000000000E+00 0.  1.
        -24    2    1    2    0    0  0.40297246703E+03 -0.29109246710E+03 -0.43231755523E+03  0.66365193246E+03  0.80086111796E+02 0.  0.
        254    2    1    2    0    0 -0.40297246703E+03  0.29109246710E+03 -0.62818772032E+03  0.12525264817E+04  0.96285052933E+03 0.  0.
         23    2    4    4    0    0  0.10743587605E+03 -0.27824015530E+03 -0.15427473346E+03  0.34841782625E+03  0.92920593945E+02 0.  0.
         23    2    4    4    0    0 -0.51040834308E+03  0.56933262240E+03 -0.47391298686E+03  0.90410865546E+03  0.90347275300E+02 0.  0.
          3    1    3    3  502    0  0.75784238420E+01  0.32331018035E+01 -0.17786829365E+02  0.19602468060E+02  0.00000000000E+00 0. -1.
         -4    1    3    3    0  502  0.39539404319E+03 -0.29432556890E+03 -0.41453072587E+03  0.64404946440E+03  0.00000000000E+00 0.  1.
         13    1    5    5    0    0  0.44700447777E+02 -0.65051360762E+02 -0.18706356699E+01  0.78951306805E+02  0.00000000000E+00 0. -1.
        -13    1    5    5    0    0  0.62735428274E+02 -0.21318879454E+03 -0.15240409779E+03  0.26946651944E+03  0.00000000000E+00 0.  1.
          2    1    6    6  503    0 -0.56137304740E+02  0.11228974798E+03 -0.78775772787E+02  0.14820933460E+03  0.00000000000E+00 0. -1.
         -2    1    6    6    0  503 -0.45427103834E+03  0.45704287442E+03 -0.39513721407E+03  0.75589932086E+03  0.00000000000E+00 0.  1.
<mgrwt>
<rscale>  0 0.15959537E+04</rscale>
<asrwt>0</asrwt>
<pdfrwt beam="1">  1        3 0.65821010E-01 0.15959537E+04</pdfrwt>
<pdfrwt beam="2">  1       -4 0.22897567E+00 0.15959537E+04</pdfrwt>
<totfact> 0.41866437E-01</totfact>
</mgrwt>
</event>
<event>
12    5  0.5246737E-008  0.1367813E+04  0.7818608E-02  0.8977452E-01
          1   -1    0    0  501    0  0.00000000000E+00  0.00000000000E+00  0.43690988938E+03  0.43690988938E+03  0.00000000000E+00 0. -1.
         -2   -1    0    0    0  501 -0.00000000000E+00 -0.00000000000E+00 -0.10705368338E+04  0.10705368338E+04  0.00000000000E+00 0.  1.
        -24    2    1    2    0    0 -0.32841460679E+03  0.13174313434E+03  0.28111024606E+01  0.36282525040E+03  0.80136462538E+02 0.  0.
        254    2    1    2    0    0  0.32841460679E+03 -0.13174313434E+03 -0.63643804685E+03  0.11446214728E+04  0.88311523654E+03 0.  0.
         23    2    4    4    0    0 -0.46419207822E+02 -0.32391305513E+03 -0.62746703469E+03  0.71356659524E+03  0.91586003680E+02 0.  0.
         23    2    4    4    0    0  0.37483381461E+03  0.19216992079E+03 -0.89710121528E+01  0.43105487752E+03  0.91094244256E+02 0.  0.
          1    1    3    3  502    0 -0.15330406899E+03  0.67372945673E+02  0.40973754623E+02  0.17239518539E+03  0.00000000000E+00 0. -1.
         -2    1    3    3    0  502 -0.17511053780E+03  0.64370188664E+02 -0.38162652163E+02  0.19043006501E+03  0.00000000000E+00 0.  1.
         13    1    5    5    0    0  0.62309916557E+01 -0.13885403374E+02 -0.86588950463E+02  0.87916301253E+02  0.00000000000E+00 0. -1.
        -13    1    5    5    0    0 -0.52650199478E+02 -0.31002765176E+03 -0.54087808423E+03  0.62565029398E+03  0.00000000000E+00 0.  1.
          4    1    6    6  503    0  0.52590045442E+02  0.52345954207E+02 -0.27901175099E+02  0.79273497295E+02  0.00000000000E+00 0. -1.
         -4    1    6    6    0  503  0.32224376917E+03  0.13982396659E+03  0.18930162946E+02  0.35178138022E+03  0.00000000000E+00 0.  1.
<mgrwt>
<rscale>  0 0.13678130E+04</rscale>
<asrwt>0</asrwt>
<pdfrwt beam="1">  1        1 0.67216908E-01 0.13678130E+04</pdfrwt>
<pdfrwt beam="2">  1       -2 0.16469797E+00 0.13678130E+04</pdfrwt>
<totfact> 0.10583879E+01</totfact>
</mgrwt>
</event>
<event>
12    5  0.5246737E-008  0.5490121E+04  0.7818608E-02  0.7757050E-01
          1   -1    0    0  501    0  0.00000000000E+00  0.00000000000E+00  0.39521181877E+04  0.39521181877E+04  0.00000000000E+00 0. -1.
         -4   -1    0    0    0  501 -0.00000000000E+00 -0.00000000000E+00 -0.19066626599E+04  0.19066626599E+04  0.00000000000E+00 0.  1.
        -24    2    1    2    0    0  0.24842151072E+04 -0.90032480538E+03  0.57402133745E+03  0.27050951567E+04  0.78293404131E+02 0.  0.
        254    2    1    2    0    0 -0.24842151072E+04  0.90032480538E+03  0.14714341903E+04  0.31536856909E+04  0.89370319828E+03 0.  0.
         23    2    4    4    0    0 -0.13244627207E+04  0.48180574760E+02  0.52298768702E+03  0.14276192346E+04  0.89764647630E+02 0.  0.
         23    2    4    4    0    0 -0.11597523865E+04  0.85214423062E+03  0.94844650332E+03  0.17260664563E+04  0.92624263268E+02 0.  0.
          1    1    3    3  502    0  0.24064604578E+04 -0.86823334600E+03  0.54193812939E+03  0.26150674970E+04  0.00000000000E+00 0. -1.
         -2    1    3    3    0  502  0.77754649391E+02 -0.32091459386E+02  0.32083208060E+02  0.90027659677E+02  0.00000000000E+00 0.  1.
         13    1    5    5    0    0 -0.11308569913E+03 -0.21011597632E+02  0.46068051735E+02  0.12390370444E+03  0.00000000000E+00 0.  1.
        -13    1    5    5    0    0 -0.12113770216E+04  0.69192172392E+02  0.47691963528E+03  0.13037155302E+04  0.00000000000E+00 0. -1.
          2    1    6    6  503    0 -0.11459792330E+04  0.83757713563E+03  0.94618309032E+03  0.17058916440E+04  0.00000000000E+00 0. -1.
         -2    1    6    6    0  503 -0.13773153504E+02  0.14567094995E+02  0.22634129991E+01  0.20174812327E+02  0.00000000000E+00 0.  1.
<mgrwt>
<rscale>  0 0.54901206E+04</rscale>
<asrwt>0</asrwt>
<pdfrwt beam="1">  1        1 0.60801818E+00 0.54901206E+04</pdfrwt>
<pdfrwt beam="2">  1       -4 0.29333272E+00 0.54901206E+04</pdfrwt>
<totfact> 0.12074989E-03</totfact>
</mgrwt>
</event>
<event>
12    5  0.5246737E-008  0.1405777E+04  0.7818608E-02  0.8949648E-01
         -2   -1    0    0    0  501 -0.00000000000E+00  0.00000000000E+00  0.20511179646E+04  0.20511179646E+04  0.00000000000E+00 0.  1.
          1   -1    0    0  501    0  0.00000000000E+00 -0.00000000000E+00 -0.24086961497E+03  0.24086961497E+03  0.00000000000E+00 0. -1.
        -24    2    1    2    0    0 -0.12741512525E+03 -0.33325774342E+03  0.21535125083E+03  0.42466721668E+03  0.81674634926E+02 0.  0.
        254    2    1    2    0    0  0.12741512525E+03  0.33325774342E+03  0.15948970988E+04  0.18673203629E+04  0.90326809100E+03 0.  0.
         23    2    4    4    0    0 -0.93668635144E+02 -0.12607600135E+03  0.12060806235E+04  0.12196757320E+04  0.91156181957E+02 0.  0.
         23    2    4    4    0    0  0.22108376040E+03  0.45933374477E+03  0.38881647529E+03  0.64764463090E+03  0.91650413395E+02 0.  0.
          1    1    3    3  502    0 -0.76287203526E+02 -0.28602877703E+03  0.16658673244E+03  0.33968123018E+03  0.00000000000E+00 0. -1.
         -2    1    3    3    0  502 -0.51127921727E+02 -0.47228966386E+02  0.48764518391E+02  0.84985986491E+02  0.00000000000E+00 0.  1.
         13    1    5    5    0    0  0.17286965759E+02 -0.30547459403E+02  0.21869085940E+03  0.22148968022E+03  0.00000000000E+00 0.  1.
        -13    1    5    5    0    0 -0.11095560090E+03 -0.95528541946E+02  0.98738976406E+03  0.99818605173E+03  0.00000000000E+00 0. -1.
          4    1    6    6  503    0  0.35673512584E+02  0.16343806342E+03  0.10349280448E+03  0.19671136382E+03  0.00000000000E+00 0.  1.
         -4    1    6    6    0  503  0.18541024781E+03  0.29589568135E+03  0.28532367081E+03  0.45093326708E+03  0.00000000000E+00 0. -1.
<mgrwt>
<rscale>  0 0.14057766E+04</rscale>
<asrwt>0</asrwt>
<pdfrwt beam="1">  1        1 0.37056865E-01 0.14057766E+04</pdfrwt>
<pdfrwt beam="2">  1       -2 0.31555660E+00 0.14057766E+04</pdfrwt>
<totfact> 0.25473211E+00</totfact>
</mgrwt>
</event>
<event>
12    5  0.5246737E-008  0.1715837E+04  0.7818608E-02  0.8752383E-01
          1   -1    0    0  501    0  0.00000000000E+00  0.00000000000E+00  0.11502191637E+04  0.11502191637E+04  0.00000000000E+00 0. -1.
         -2   -1    0    0    0  501 -0.00000000000E+00 -0.00000000000E+00 -0.63989912858E+03  0.63989912858E+03  0.00000000000E+00 0.  1.
        -24    2    1    2    0    0  0.52180294115E+03  0.15452464374E+03  0.49189422716E+03  0.73850549469E+03  0.85289272830E+02 0.  0.
        254    2    1    2    0    0 -0.52180294115E+03 -0.15452464374E+03  0.18425807980E+02  0.10516127976E+04  0.89966315406E+03 0.  0.
         23    2    4    4    0    0  0.72904072169E+02  0.23885181575E+03  0.17035544856E+03  0.31634221812E+03  0.93199927494E+02 0.  0.
         23    2    4    4    0    0 -0.59470701332E+03 -0.39337645949E+03 -0.15192964058E+03  0.73527057949E+03  0.95492087678E+02 0.  0.
          1    1    3    3  502    0  0.48236433028E+03  0.12050308287E+03  0.42769384518E+03  0.65583409892E+03  0.00000000000E+00 0. -1.
         -2    1    3    3    0  502  0.39438610872E+02  0.34021560877E+02  0.64200381980E+02  0.82671395769E+02  0.00000000000E+00 0.  1.
         13    1    5    5    0    0  0.43597021533E+02  0.13999544677E+03  0.15275947214E+03  0.21174248920E+03  0.00000000000E+00 0. -1.
        -13    1    5    5    0    0  0.29307050636E+02  0.98856368974E+02  0.17595976420E+02  0.10459972892E+03  0.00000000000E+00 0.  1.
          1    1    6    6  503    0 -0.25532040401E+03 -0.13992344595E+03 -0.10319040685E+03  0.30889373496E+03  0.00000000000E+00 0. -1.
         -1    1    6    6    0  503 -0.33938660931E+03 -0.25345301354E+03 -0.48739233729E+02  0.42637684454E+03  0.00000000000E+00 0.  1.
<mgrwt>
<rscale>  0 0.17158371E+04</rscale>
<asrwt>0</asrwt>
<pdfrwt beam="1">  1        1 0.17695679E+00 0.17158371E+04</pdfrwt>
<pdfrwt beam="2">  1       -2 0.98446020E-01 0.17158371E+04</pdfrwt>
<totfact> 0.83074087E+00</totfact>
</mgrwt>
</event>
<event>
12    5  0.5246737E-008  0.1561887E+04  0.7818608E-02  0.8844311E-01
          1   -1    0    0  501    0  0.00000000000E+00  0.00000000000E+00  0.56846973583E+03  0.56846973583E+03  0.00000000000E+00 0. -1.
         -2   -1    0    0    0  501 -0.00000000000E+00 -0.00000000000E+00 -0.10728324761E+04  0.10728324761E+04  0.00000000000E+00 0.  1.
        -24    2    1    2    0    0 -0.81695001118E+02 -0.46655042225E+03 -0.36053451000E+03  0.60105664943E+03  0.83310222742E+02 0.  0.
        254    2    1    2    0    0  0.81695001118E+02  0.46655042225E+03 -0.14382823029E+03  0.10402455625E+04  0.91492125389E+03 0.  0.
         23    2    4    4    0    0 -0.13183112034E+03  0.61608161010E+03 -0.31992159375E+03  0.71283926005E+03  0.94095642413E+02 0.  0.
         23    2    4    4    0    0  0.21352612145E+03 -0.14953118785E+03  0.17609336345E+03  0.32740630248E+03  0.90736065434E+02 0.  0.
          3    1    3    3  502    0 -0.21598401343E+00 -0.14073004103E+03 -0.70985202601E+02  0.15761944704E+03  0.00000000000E+00 0. -1.
         -4    1    3    3    0  502 -0.81479017105E+02 -0.32582038122E+03 -0.28954930740E+03  0.44343720239E+03  0.00000000000E+00 0.  1.
         13    1    5    5    0    0 -0.13093526465E+03  0.61140340729E+03 -0.32597481376E+03  0.70513668830E+03  0.00000000000E+00 0. -1.
        -13    1    5    5    0    0 -0.89585568564E+00  0.46782028119E+01  0.60532200165E+01  0.77025717476E+01  0.00000000000E+00 0.  1.
          2    1    6    6  503    0  0.16439190940E+03 -0.65626439562E+02  0.13109125865E+03  0.22026449451E+03  0.00000000000E+00 0. -1.
         -2    1    6    6    0  503  0.49134212051E+02 -0.83904748292E+02  0.45002104805E+02  0.10714180798E+03  0.00000000000E+00 0.  1.
<mgrwt>
<rscale>  0 0.15618871E+04</rscale>
<asrwt>0</asrwt>
<pdfrwt beam="1">  1        1 0.87456882E-01 0.15618871E+04</pdfrwt>
<pdfrwt beam="2">  1       -2 0.16505115E+00 0.15618871E+04</pdfrwt>
<totfact> 0.72045272E+00</totfact>
</mgrwt>
</event>
<event>
12    5  0.5246737E-008  0.1944934E+04  0.7818608E-02  0.8632808E-01
          1   -1    0    0  501    0  0.00000000000E+00  0.00000000000E+00  0.20986859631E+04  0.20986859631E+04  0.00000000000E+00 0. -1.
         -4   -1    0    0    0  501 -0.00000000000E+00 -0.00000000000E+00 -0.45061139719E+03  0.45061139719E+03  0.00000000000E+00 0.  1.
        -24    2    1    2    0    0  0.52404416375E+03 -0.14631949859E+03 -0.52668715471E+02  0.55242613087E+03  0.79805734486E+02 0.  0.
        254    2    1    2    0    0 -0.52404416375E+03  0.14631949859E+03  0.17007432814E+04  0.19968712295E+04  0.89383181668E+03 0.  0.
         23    2    4    4    0    0 -0.49899912446E+03 -0.52331255575E+02  0.32499014757E+03  0.60358600012E+03  0.83419284330E+02 0.  0.
         23    2    4    4    0    0 -0.25045039284E+02  0.19865075417E+03  0.13757531339E+04  0.13932852293E+04  0.91965585186E+02 0.  0.
          3    1    3    3  502    0  0.10220586077E+01  0.38943074709E+01  0.35452363171E+01  0.53646001733E+01  0.00000000000E+00 0. -1.
         -4    1    3    3    0  502  0.52302210514E+03 -0.15021380606E+03 -0.56213951788E+02  0.54706153070E+03  0.00000000000E+00 0.  1.
         13    1    5    5    0    0 -0.12115179610E+03  0.96980183241E+01  0.46560879459E+02  0.13015269784E+03  0.00000000000E+00 0.  1.
        -13    1    5    5    0    0 -0.37784732836E+03 -0.62029273899E+02  0.27842926811E+03  0.47343330228E+03  0.00000000000E+00 0. -1.
          3    1    6    6  503    0  0.64124320526E+01  0.18369886400E+03  0.12129229117E+04  0.12267715279E+04  0.00000000000E+00 0. -1.
         -3    1    6    6    0  503 -0.31457471336E+02  0.14951890168E+02  0.16283022213E+03  0.16651370142E+03  0.00000000000E+00 0.  1.
<mgrwt>
<rscale>  0 0.19449337E+04</rscale>
<asrwt>0</asrwt>
<pdfrwt beam="1">  1        1 0.32287476E+00 0.19449337E+04</pdfrwt>
<pdfrwt beam="2">  1       -4 0.69324831E-01 0.19449337E+04</pdfrwt>
<totfact> 0.22468477E+00</totfact>
</mgrwt>
</event>
<event>
12    5  0.5246737E-008  0.1581007E+04  0.7818608E-02  0.8832302E-01
         -2   -1    0    0    0  501 -0.00000000000E+00  0.00000000000E+00  0.10121950884E+04  0.10121950884E+04  0.00000000000E+00 0.  1.
          1   -1    0    0  501    0  0.00000000000E+00 -0.00000000000E+00 -0.61736661698E+03  0.61736661698E+03  0.00000000000E+00 0. -1.
        -24    2    1    2    0    0  0.10972129241E+03 -0.27316054748E+03 -0.32173615209E+03  0.44302263845E+03  0.78099039137E+02 0.  0.
        254    2    1    2    0    0 -0.10972129241E+03  0.27316054748E+03  0.71656462356E+03  0.11865390670E+04  0.89875171822E+03 0.  0.
         23    2    4    4    0    0 -0.43192245333E+03  0.39007224534E+03  0.48454368330E+03  0.76283712028E+03  0.91785231744E+02 0.  0.
         23    2    4    4    0    0  0.32220116092E+03 -0.11691169787E+03  0.23202094026E+03  0.42370194669E+03  0.90596300772E+02 0.  0.
          3    1    3    3  502    0  0.67569331043E+02 -0.20096890063E+03 -0.27501133195E+03  0.34725400821E+03  0.00000000000E+00 0. -1.
         -4    1    3    3    0  502  0.42151961363E+02 -0.72191646851E+02 -0.46724820146E+02  0.95768630247E+02  0.00000000000E+00 0.  1.
         13    1    5    5    0    0 -0.19277405811E+03  0.11595685610E+03  0.19969984454E+03  0.30081199754E+03  0.00000000000E+00 0. -1.
        -13    1    5    5    0    0 -0.23914839522E+03  0.27411538924E+03  0.28484383876E+03  0.46202512273E+03  0.00000000000E+00 0.  1.
          3    1    6    6  503    0  0.28781338252E+03 -0.77388530343E+02  0.17229189470E+03  0.34425285005E+03  0.00000000000E+00 0. -1.
         -3    1    6    6    0  503  0.34387778406E+02 -0.39523167522E+02  0.59729045556E+02  0.79449096645E+02  0.00000000000E+00 0.  1.
<mgrwt>
<rscale>  0 0.15810066E+04</rscale>
<asrwt>0</asrwt>
<pdfrwt beam="1">  1        1 0.94979480E-01 0.15810066E+04</pdfrwt>
<pdfrwt beam="2">  1       -2 0.15572232E+00 0.15810066E+04</pdfrwt>
<totfact> 0.74869689E+00</totfact>
</mgrwt>
</event>
<event>
12    5  0.5246737E-008  0.2313182E+04  0.7818608E-02  0.8472742E-01
          1   -1    0    0  501    0  0.00000000000E+00  0.00000000000E+00  0.83917547739E+03  0.83917547739E+03  0.00000000000E+00 0. -1.
         -2   -1    0    0    0  501 -0.00000000000E+00 -0.00000000000E+00 -0.15940679992E+04  0.15940679992E+04  0.00000000000E+00 0.  1.
        -24    2    1    2    0    0  0.13556695382E+03  0.90983249317E+03  0.31435979447E+02  0.92353295450E+03  0.75837541158E+02 0.  0.
        254    2    1    2    0    0 -0.13556695382E+03 -0.90983249317E+03 -0.78632850125E+03  0.15097105221E+04  0.90262937244E+03 0.  0.
         23    2    4    4    0    0  0.11323351852E+03 -0.77447649107E+03 -0.89567403159E+03  0.11930503115E+04  0.92203090634E+02 0.  0.
         23    2    4    4    0    0 -0.24880047235E+03 -0.13535600210E+03  0.10934553033E+03  0.31666021060E+03  0.89968447953E+02 0.  0.
          1    1    3    3  502    0  0.64201919401E+01  0.43857968244E+01  0.34178313996E+01  0.84932708545E+01  0.00000000000E+00 0. -1.
         -2    1    3    3    0  502  0.12914676188E+03  0.90544669634E+03  0.28018148048E+02  0.91503968365E+03  0.00000000000E+00 0.  1.
         13    1    5    5    0    0 -0.16771675249E+00 -0.30360420066E+03 -0.35767829758E+03  0.46915807927E+03  0.00000000000E+00 0. -1.
        -13    1    5    5    0    0  0.11340123528E+03 -0.47087229041E+03 -0.53799573401E+03  0.72389223221E+03  0.00000000000E+00 0.  1.
          4    1    6    6  503    0 -0.15113273561E+03 -0.32154380839E+02  0.47103049529E+02  0.16153546129E+03  0.00000000000E+00 0.  1.
         -4    1    6    6    0  503 -0.97667736740E+02 -0.10320162126E+03  0.62242480806E+02  0.15512474931E+03  0.00000000000E+00 0. -1.
<mgrwt>
<rscale>  0 0.23131820E+04</rscale>
<asrwt>0</asrwt>
<pdfrwt beam="1">  1        1 0.12910392E+00 0.23131820E+04</pdfrwt>
<pdfrwt beam="2">  1       -2 0.24524123E+00 0.23131820E+04</pdfrwt>
<totfact> 0.11128710E+00</totfact>
</mgrwt>
</event>
<event>
12    5  0.5246737E-008  0.2052031E+04  0.7818608E-02  0.8582674E-01
         -2   -1    0    0    0  501 -0.00000000000E+00  0.00000000000E+00  0.30656172657E+03  0.30656172657E+03  0.00000000000E+00 0.  1.
          1   -1    0    0  501    0  0.00000000000E+00 -0.00000000000E+00 -0.34339163170E+04  0.34339163170E+04  0.00000000000E+00 0. -1.
        -24    2    1    2    0    0 -0.88973011526E+02  0.81872472669E+03 -0.11722541939E+04  0.14347703388E+04  0.78483469484E+02 0.  0.
        254    2    1    2    0    0  0.88973011526E+02 -0.81872472669E+03 -0.19551003965E+04  0.23057077048E+04  0.90313015930E+03 0.  0.
         23    2    4    4    0    0  0.24546923443E+03 -0.76082406583E+03 -0.80202493456E+03  0.11360505779E+04  0.90876375884E+02 0.  0.
         23    2    4    4    0    0 -0.15649622291E+03 -0.57900660857E+02 -0.11530754619E+04  0.11696571269E+04  0.10330159357E+03 0.  0.
          1    1    3    3  502    0 -0.95292365910E+01  0.36040923891E+03 -0.46803390087E+03  0.59079722258E+03  0.00000000000E+00 0. -1.
         -2    1    3    3    0  502 -0.79443774935E+02  0.45831548778E+03 -0.70422029304E+03  0.84397311618E+03  0.00000000000E+00 0.  1.
         13    1    5    5    0    0 -0.29426025316E+00  0.19754447087E+01  0.31949780171E+00  0.20226343562E+01  0.00000000000E+00 0. -1.
        -13    1    5    5    0    0  0.24576349469E+03 -0.76279951054E+03 -0.80234443236E+03  0.11340279435E+04  0.00000000000E+00 0.  1.
          3    1    6    6  503    0 -0.72201373615E+01 -0.37942492090E+02 -0.13199743123E+03  0.13753212330E+03  0.00000000000E+00 0. -1.
         -3    1    6    6    0  503 -0.14927608555E+03 -0.19958168767E+02 -0.10210780307E+04  0.10321250036E+04  0.00000000000E+00 0.  1.
<mgrwt>
<rscale>  0 0.20520305E+04</rscale>
<asrwt>0</asrwt>
<pdfrwt beam="1">  1        1 0.52829482E+00 0.20520305E+04</pdfrwt>
<pdfrwt beam="2">  1       -2 0.47163342E-01 0.20520305E+04</pdfrwt>
<totfact> 0.97704599E-01</totfact>
</mgrwt>
</event>
<event>
12    5  0.5246737E-008  0.2245555E+04  0.7818608E-02  0.8499703E-01
          1   -1    0    0  501    0  0.00000000000E+00  0.00000000000E+00  0.22103469514E+04  0.22103469514E+04  0.00000000000E+00 0. -1.
         -2   -1    0    0    0  501 -0.00000000000E+00 -0.00000000000E+00 -0.57033099414E+03  0.57033099414E+03  0.00000000000E+00 0.  1.
        -24    2    1    2    0    0  0.35584447943E+03 -0.74056120617E+03  0.12508089313E+04  0.14983396171E+04  0.73772838683E+02 0.  0.
        254    2    1    2    0    0 -0.35584447943E+03  0.74056120617E+03  0.38920702590E+03  0.12823383284E+04  0.90435241249E+03 0.  0.
         23    2    4    4    0    0 -0.10781105484E+03 -0.10640843585E+03  0.35239926472E+03  0.39434387287E+03  0.91519776701E+02 0.  0.
         23    2    4    4    0    0 -0.24803342459E+03  0.84696964202E+03  0.36807761182E+02  0.88799445558E+03  0.91110853634E+02 0.  0.
          1    1    3    3  502    0  0.29477658562E+03 -0.63236570531E+03  0.11043802039E+04  0.13063059579E+04  0.00000000000E+00 0. -1.
         -2    1    3    3    0  502  0.61067893804E+02 -0.10819550086E+03  0.14642872738E+03  0.19203365919E+03  0.00000000000E+00 0.  1.
         13    1    5    5    0    0 -0.44182476922E+02 -0.95583358545E+02  0.16120653952E+03  0.19255081948E+03  0.00000000000E+00 0. -1.
        -13    1    5    5    0    0 -0.63628577916E+02 -0.10825077302E+02  0.19119272520E+03  0.20179305339E+03  0.00000000000E+00 0.  1.
          3    1    6    6  503    0 -0.66255723146E+02  0.36068007982E+03  0.39476889569E+02  0.36883379135E+03  0.00000000000E+00 0. -1.
         -3    1    6    6    0  503 -0.18177770144E+03  0.48628956219E+03 -0.26691283876E+01  0.51916066423E+03  0.00000000000E+00 0.  1.
<mgrwt>
<rscale>  0 0.22455551E+04</rscale>
<asrwt>0</asrwt>
<pdfrwt beam="1">  1        1 0.34005337E+00 0.22455551E+04</pdfrwt>
<pdfrwt beam="2">  1       -2 0.87743231E-01 0.22455551E+04</pdfrwt>
<totfact> 0.19161030E+00</totfact>
</mgrwt>
</event>
<event>
12    5  0.5246737E-008  0.3198340E+04  0.7818608E-02  0.8189256E-01
         -2   -1    0    0    0  501 -0.00000000000E+00  0.00000000000E+00  0.10482100178E+04  0.10482100178E+04  0.00000000000E+00 0.  1.
          1   -1    0    0  501    0  0.00000000000E+00 -0.00000000000E+00 -0.24397257803E+04  0.24397257803E+04  0.00000000000E+00 0. -1.
        -24    2    1    2    0    0 -0.74479153201E+03 -0.79836897039E+03 -0.17127722835E+04  0.20328561649E+04  0.82509714378E+02 0.  0.
        254    2    1    2    0    0  0.74479153201E+03  0.79836897039E+03  0.32125652102E+03  0.14550796332E+04  0.90661102331E+03 0.  0.
         23    2    4    4    0    0  0.10239680208E+03  0.70499058047E+03  0.35038666797E+03  0.79909671182E+03  0.91037981758E+02 0.  0.
         23    2    4    4    0    0  0.64239472993E+03  0.93378389919E+02 -0.29130146941E+02  0.65598292137E+03  0.89858304672E+02 0.  0.
          3    1    3    3  502    0 -0.63150072365E+03 -0.67187718812E+03 -0.14983803682E+04  0.17593623412E+04  0.00000000000E+00 0. -1.
         -4    1    3    3    0  502 -0.11329080836E+03 -0.12649178227E+03 -0.21439191530E+03  0.27349382368E+03  0.00000000000E+00 0.  1.
         13    1    5    5    0    0  0.50838670293E+02  0.19746702855E+03  0.13966969107E+03  0.24715464868E+03  0.00000000000E+00 0.  1.
        -13    1    5    5    0    0  0.51558131787E+02  0.50752355193E+03  0.21071697690E+03  0.55194206314E+03  0.00000000000E+00 0. -1.
          1    1    6    6  503    0  0.52439212743E+03  0.87152694560E+02 -0.56826438832E+02  0.53461382289E+03  0.00000000000E+00 0. -1.
         -1    1    6    6    0  503  0.11800260250E+03  0.62256953583E+01  0.27696291891E+02  0.12136909847E+03  0.00000000000E+00 0.  1.
<mgrwt>
<rscale>  0 0.31983402E+04</rscale>
<asrwt>0</asrwt>
<pdfrwt beam="1">  1        1 0.37534242E+00 0.31983402E+04</pdfrwt>
<pdfrwt beam="2">  1       -2 0.16126308E+00 0.31983402E+04</pdfrwt>
<totfact> 0.27065125E-01</totfact>
</mgrwt>
</event>
<event>
12    5  0.5246737E-008  0.1569641E+04  0.7818608E-02  0.8839419E-01
         -2   -1    0    0    0  501 -0.00000000000E+00  0.00000000000E+00  0.89516618041E+03  0.89516618041E+03  0.00000000000E+00 0.  1.
          1   -1    0    0  501    0  0.00000000000E+00 -0.00000000000E+00 -0.68807692402E+03  0.68807692402E+03  0.00000000000E+00 0. -1.
        -24    2    1    2    0    0 -0.45570609709E+03 -0.25584623213E+03  0.89394784497E+02  0.53609636388E+03  0.79262490818E+02 0.  0.
        254    2    1    2    0    0  0.45570609709E+03  0.25584623213E+03  0.11769447190E+03  0.10471467405E+04  0.89974383360E+03 0.  0.
         23    2    4    4    0    0  0.35519259922E+03 -0.24740651271E+03  0.25157280216E+03  0.50940949497E+03  0.94007413047E+02 0.  0.
         23    2    4    4    0    0  0.10051349787E+03  0.50325274485E+03 -0.13387833026E+03  0.53773724558E+03  0.88722316891E+02 0.  0.
          3    1    3    3  502    0 -0.35536978625E+03 -0.23504571679E+03  0.75045403881E+02  0.43262684453E+03  0.00000000000E+00 0. -1.
         -4    1    3    3    0  502 -0.10033631084E+03 -0.20800515341E+02  0.14349380616E+02  0.10346951936E+03  0.00000000000E+00 0.  1.
         13    1    5    5    0    0  0.20781678910E+02 -0.20857086596E+02 -0.64040796430E+01  0.30131519637E+02  0.00000000000E+00 0. -1.
        -13    1    5    5    0    0  0.33441092031E+03 -0.22654942612E+03  0.25797688180E+03  0.47927797533E+03  0.00000000000E+00 0.  1.
          2    1    6    6  503    0  0.46568912601E+02  0.10716070147E+03 -0.22114313190E+01  0.11686303945E+03  0.00000000000E+00 0. -1.
         -2    1    6    6    0  503  0.53944585272E+02  0.39609204338E+03 -0.13166689894E+03  0.42087420613E+03  0.00000000000E+00 0.  1.
<mgrwt>
<rscale>  0 0.15696410E+04</rscale>
<asrwt>0</asrwt>
<pdfrwt beam="1">  1        1 0.10585799E+00 0.15696410E+04</pdfrwt>
<pdfrwt beam="2">  1       -2 0.13771788E+00 0.15696410E+04</pdfrwt>
<totfact> 0.88234725E+00</totfact>
</mgrwt>
</event>
<event>
12    5  0.5246737E-008  0.2159312E+04  0.7818608E-02  0.8535557E-01
         -2   -1    0    0    0  501 -0.00000000000E+00  0.00000000000E+00  0.55517990952E+03  0.55517990952E+03  0.00000000000E+00 0.  1.
          1   -1    0    0  501    0  0.00000000000E+00 -0.00000000000E+00 -0.20996027295E+04  0.20996027295E+04  0.00000000000E+00 0. -1.
        -24    2    1    2    0    0  0.59596045617E+03 -0.66076918903E+03 -0.59538159641E+03  0.10737832152E+04  0.82136236544E+02 0.  0.
        254    2    1    2    0    0 -0.59596045617E+03  0.66076918903E+03 -0.94904122353E+03  0.15809994238E+04  0.89838474367E+03 0.  0.
         23    2    4    4    0    0 -0.78855685202E+03  0.45645323294E+03 -0.50128989512E+03  0.10438318147E+04  0.90121227619E+02 0.  0.
         23    2    4    4    0    0  0.19259639585E+03  0.20431595609E+03 -0.44775132842E+03  0.53716760914E+03  0.96069800652E+02 0.  0.
          3    1    3    3  502    0  0.46989182609E+03 -0.48884670969E+03 -0.41890832257E+03  0.79702798979E+03  0.00000000000E+00 0. -1.
         -2    1    3    3    0  502  0.12606863007E+03 -0.17192247935E+03 -0.17647327384E+03  0.27675522538E+03  0.00000000000E+00 0.  1.
         13    1    5    5    0    0 -0.64377034736E+03  0.39306989298E+03 -0.44661608885E+03  0.87659005911E+03  0.00000000000E+00 0. -1.
        -13    1    5    5    0    0 -0.14478650465E+03  0.63383339963E+02 -0.54673806267E+02  0.16724175557E+03  0.00000000000E+00 0.  1.
          1    1    6    6  503    0  0.18313654358E+03  0.20244478664E+03 -0.37533058751E+03  0.46410767625E+03  0.00000000000E+00 0. -1.
         -1    1    6    6    0  503  0.94598522699E+01  0.18711694529E+01 -0.72420740904E+02  0.73059932885E+02  0.00000000000E+00 0.  1.
<mgrwt>
<rscale>  0 0.21593122E+04</rscale>
<asrwt>0</asrwt>
<pdfrwt beam="1">  1        1 0.32301581E+00 0.21593122E+04</pdfrwt>
<pdfrwt beam="2">  1       -2 0.85412292E-01 0.21593122E+04</pdfrwt>
<totfact> 0.24423416E+00</totfact>
</mgrwt>
</event>
<event>
12    5  0.5246737E-008  0.1827969E+04  0.7818608E-02  0.8691566E-01
          1   -1    0    0  501    0  0.00000000000E+00  0.00000000000E+00  0.16339144330E+04  0.16339144330E+04  0.00000000000E+00 0. -1.
         -2   -1    0    0    0  501 -0.00000000000E+00 -0.00000000000E+00 -0.51126762885E+03  0.51126762885E+03  0.00000000000E+00 0.  1.
        -24    2    1    2    0    0 -0.15908056673E+03  0.44546475095E+03  0.10209918857E+04  0.11281151885E+04  0.80461026380E+02 0.  0.
        254    2    1    2    0    0  0.15908056673E+03 -0.44546475095E+03  0.10165491852E+03  0.10170668734E+04  0.89462049581E+03 0.  0.
         23    2    4    4    0    0  0.12585689900E+03 -0.32767809894E+03  0.48366025717E+03  0.60411310127E+03  0.88388343148E+02 0.  0.
         23    2    4    4    0    0  0.33223667732E+02 -0.11778665201E+03 -0.38200533866E+03  0.41295377216E+03  0.98108265167E+02 0.  0.
          3    1    3    3  502    0 -0.10412189685E+03  0.33153842099E+03  0.66506364422E+03  0.75037906745E+03  0.00000000000E+00 0. -1.
         -4    1    3    3    0  502 -0.54958669879E+02  0.11392632996E+03  0.35592824145E+03  0.37773612101E+03  0.00000000000E+00 0.  1.
         13    1    5    5    0    0  0.11755373072E+03 -0.30049606841E+03  0.47531369912E+03  0.57449097409E+03  0.00000000000E+00 0. -1.
        -13    1    5    5    0    0  0.83031682774E+01 -0.27182030539E+02  0.83465580524E+01  0.29622127185E+02  0.00000000000E+00 0.  1.
          4    1    6    6  503    0 -0.48981251888E+01 -0.11861630929E+03 -0.29045658528E+03  0.31378152972E+03  0.00000000000E+00 0. -1.
         -4    1    6    6    0  503  0.38121792921E+02  0.82965728643E+00 -0.91548753375E+02  0.99172242443E+02  0.00000000000E+00 0.  1.
<mgrwt>
<rscale>  0 0.18279689E+04</rscale>
<asrwt>0</asrwt>
<pdfrwt beam="1">  1        1 0.25137145E+00 0.18279689E+04</pdfrwt>
<pdfrwt beam="2">  1       -2 0.78656559E-01 0.18279689E+04</pdfrwt>
<totfact> 0.62749133E+00</totfact>
</mgrwt>
</event>
<event>
12    5  0.5246737E-008  0.1210388E+04  0.7818608E-02  0.9103813E-01
         -2   -1    0    0    0  501 -0.00000000000E+00  0.00000000000E+00  0.16388361810E+03  0.16388361810E+03  0.00000000000E+00 0.  1.
          1   -1    0    0  501    0  0.00000000000E+00 -0.00000000000E+00 -0.22348754562E+04  0.22348754562E+04  0.00000000000E+00 0. -1.
        -24    2    1    2    0    0 -0.11119131901E+03  0.23183551517E+03 -0.49156320098E+03  0.56241285395E+03  0.92534437971E+02 0.  0.
        254    2    1    2    0    0  0.11119131901E+03 -0.23183551517E+03 -0.15794286371E+04  0.18363462203E+04  0.90081152619E+03 0.  0.
         23    2    4    4    0    0  0.48121974711E+03  0.10297893835E+01 -0.85173373943E+03  0.98264698466E+03  0.92580927341E+02 0.  0.
         23    2    4    4    0    0 -0.37002842810E+03 -0.23286530456E+03 -0.72769489767E+03  0.85369923567E+03  0.90084589240E+02 0.  0.
          1    1    3    3  502    0 -0.94890936627E+02  0.15788079961E+03 -0.25894865507E+03  0.31778143857E+03  0.00000000000E+00 0. -1.
         -2    1    3    3    0  502 -0.16300382382E+02  0.73954715567E+02 -0.23261454591E+03  0.24463141538E+03  0.00000000000E+00 0.  1.
         13    1    5    5    0    0  0.75644695999E+02 -0.32587302184E+02 -0.12432094892E+03  0.14912997900E+03  0.00000000000E+00 0. -1.
        -13    1    5    5    0    0  0.40557505111E+03  0.33617091567E+02 -0.72741279051E+03  0.83351700566E+03  0.00000000000E+00 0.  1.
          1    1    6    6  503    0  0.37803318579E+01  0.18629787639E+01 -0.30358790373E+01  0.51940504771E+01  0.00000000000E+00 0. -1.
         -1    1    6    6    0  503 -0.37380875996E+03 -0.23472828332E+03 -0.72465901864E+03  0.84850518520E+03  0.00000000000E+00 0.  1.
<mgrwt>
<rscale>  0 0.12103875E+04</rscale>
<asrwt>0</asrwt>
<pdfrwt beam="1">  1        1 0.34382700E+00 0.12103875E+04</pdfrwt>
<pdfrwt beam="2">  1       -2 0.25212864E-01 0.12103875E+04</pdfrwt>
<totfact> 0.25385645E+01</totfact>
</mgrwt>
</event>
<event>
12    5  0.5246737E-008  0.1931867E+04  0.7818608E-02  0.8639155E-01
          1   -1    0    0  501    0  0.00000000000E+00  0.00000000000E+00  0.23656758316E+04  0.23656758316E+04  0.00000000000E+00 0. -1.
         -2   -1    0    0    0  501 -0.00000000000E+00 -0.00000000000E+00 -0.39440199572E+03  0.39440199572E+03  0.00000000000E+00 0.  1.
        -24    2    1    2    0    0  0.22483578617E+03 -0.39868425404E+03  0.15880671999E+04  0.16547958258E+04  0.83015231570E+02 0.  0.
        254    2    1    2    0    0 -0.22483578617E+03  0.39868425404E+03  0.38320663599E+03  0.11052820015E+04  0.93021541150E+03 0.  0.
         23    2    4    4    0    0 -0.46226469943E+03  0.23916368949E+03 -0.98878512820E+02  0.53742446632E+03  0.90333681416E+02 0.  0.
         23    2    4    4    0    0  0.23742891325E+03  0.15952056455E+03  0.48208514881E+03  0.56785753517E+03  0.90756763826E+02 0.  0.
          3    1    3    3  502    0  0.16509023115E+03 -0.34009231207E+03  0.12148392071E+04  0.12723017976E+04  0.00000000000E+00 0. -1.
         -4    1    3    3    0  502  0.59745555020E+02 -0.58591941965E+02  0.37322799279E+03  0.38249402820E+03  0.00000000000E+00 0.  1.
         13    1    5    5    0    0 -0.37695667511E+03  0.20052647420E+03 -0.44891781491E+02  0.42932793271E+03  0.00000000000E+00 0. -1.
        -13    1    5    5    0    0 -0.85308024322E+02  0.38637215288E+02 -0.53986731329E+02  0.10809653361E+03  0.00000000000E+00 0.  1.
          3    1    6    6  503    0  0.16159870238E+03  0.14370492055E+03  0.29852535532E+03  0.36862261539E+03  0.00000000000E+00 0. -1.
         -3    1    6    6    0  503  0.75830210872E+02  0.15815643998E+02  0.18355979348E+03  0.19923491978E+03  0.00000000000E+00 0.  1.
<mgrwt>
<rscale>  0 0.19318667E+04</rscale>
<asrwt>0</asrwt>
<pdfrwt beam="1">  1        1 0.36395012E+00 0.19318667E+04</pdfrwt>
<pdfrwt beam="2">  1       -2 0.60677232E-01 0.19318667E+04</pdfrwt>
<totfact> 0.34786251E+00</totfact>
</mgrwt>
</event>
<event>
12    5  0.5246737E-008  0.1070986E+04  0.7818608E-02  0.9233942E-01
          1   -1    0    0  501    0  0.00000000000E+00  0.00000000000E+00  0.47172691788E+03  0.47172691788E+03  0.00000000000E+00 0. -1.
         -2   -1    0    0    0  501 -0.00000000000E+00 -0.00000000000E+00 -0.60787814852E+03  0.60787814852E+03  0.00000000000E+00 0.  1.
        -24    2    1    2    0    0 -0.50299138207E+02  0.13775246590E+03  0.81109674511E+01  0.16751710633E+03  0.80563316418E+02 0.  0.
        254    2    1    2    0    0  0.50299138207E+02 -0.13775246590E+03 -0.14426219810E+03  0.91208796008E+03  0.88858714820E+03 0.  0.
         23    2    4    4    0    0  0.99248398123E+02  0.36299982658E+03 -0.99035476884E+02  0.39903750273E+03  0.88339030304E+02 0.  0.
         23    2    4    4    0    0 -0.48949259916E+02 -0.50075229249E+03 -0.45226721211E+02  0.51305045735E+03  0.89590328692E+02 0.  0.
          3    1    3    3  502    0  0.62295791142E+01 -0.78095973757E+01  0.53660075314E+01  0.11339819396E+02  0.00000000000E+00 0. -1.
         -4    1    3    3    0  502 -0.56528717321E+02  0.14556206328E+03  0.27449599197E+01  0.15617728693E+03  0.00000000000E+00 0.  1.
         13    1    5    5    0    0  0.11192667860E+03  0.28273109911E+03 -0.65086275243E+02  0.31096732788E+03  0.00000000000E+00 0.  1.
        -13    1    5    5    0    0 -0.12678280472E+02  0.80268727469E+02 -0.33949201641E+02  0.88070174845E+02  0.00000000000E+00 0. -1.
          2    1    6    6  503    0  0.11921963704E+01 -0.26053461727E+02 -0.23676296923E+02  0.35224582838E+02  0.00000000000E+00 0. -1.
         -2    1    6    6    0  503 -0.50141456287E+02 -0.47469883076E+03 -0.21550424289E+02  0.47782587451E+03  0.00000000000E+00 0.  1.
<mgrwt>
<rscale>  0 0.10709855E+04</rscale>
<asrwt>0</asrwt>
<pdfrwt beam="1">  1        1 0.72573372E-01 0.10709855E+04</pdfrwt>
<pdfrwt beam="2">  1       -2 0.93519715E-01 0.10709855E+04</pdfrwt>
<totfact> 0.40534654E+01</totfact>
</mgrwt>
</event>
<event>
12    5  0.5246737E-008  0.1444586E+04  0.7818608E-02  0.8922162E-01
         -2   -1    0    0    0  501 -0.00000000000E+00  0.00000000000E+00  0.18339687943E+03  0.18339687943E+03  0.00000000000E+00 0.  1.
          1   -1    0    0  501    0  0.00000000000E+00 -0.00000000000E+00 -0.28446905552E+04  0.28446905552E+04  0.00000000000E+00 0. -1.
        -24    2    1    2    0    0  0.38261569566E+03 -0.44651200208E+02 -0.12527955440E+04  0.13124830384E+04  0.68749915445E+02 0.  0.
        254    2    1    2    0    0 -0.38261569566E+03  0.44651200208E+02 -0.14084981318E+04  0.17156043962E+04  0.90057923406E+03 0.  0.
         23    2    4    4    0    0  0.10421195306E+03  0.22028638167E+03 -0.58607623531E+02  0.26703610563E+03  0.92126039000E+02 0.  0.
         23    2    4    4    0    0 -0.48682764873E+03 -0.17563518146E+03 -0.13498905083E+04  0.14485682906E+04  0.91086945811E+02 0.  0.
          3    1    3    3  502    0  0.36316779505E+03 -0.53255481234E+02 -0.12135642906E+04  0.12678585414E+04  0.00000000000E+00 0. -1.
         -4    1    3    3    0  502  0.19447900619E+02  0.86042810255E+01 -0.39231253384E+02  0.44624497000E+02  0.00000000000E+00 0.  1.
         13    1    5    5    0    0  0.59697693770E+02  0.20429892648E+03 -0.53497782533E+02  0.21946270467E+03  0.00000000000E+00 0. -1.
        -13    1    5    5    0    0  0.44514259294E+02  0.15987455185E+02 -0.51098409987E+01  0.47573400959E+02  0.00000000000E+00 0.  1.
          3    1    6    6  503    0 -0.23071664729E+03 -0.13118594819E+03 -0.69931859705E+03  0.74798825159E+03  0.00000000000E+00 0. -1.
         -3    1    6    6    0  503 -0.25611100144E+03 -0.44449233270E+02 -0.65057191121E+03  0.70058003900E+03  0.00000000000E+00 0.  1.
<mgrwt>
<rscale>  0 0.14445863E+04</rscale>
<asrwt>0</asrwt>
<pdfrwt beam="1">  1        1 0.43764465E+00 0.14445863E+04</pdfrwt>
<pdfrwt beam="2">  1       -2 0.28214907E-01 0.14445863E+04</pdfrwt>
<totfact> 0.76357824E+00</totfact>
</mgrwt>
</event>
<event>
12    5  0.5246737E-008  0.1710323E+04  0.7818608E-02  0.8755499E-01
          3   -1    0    0  501    0  0.00000000000E+00  0.00000000000E+00  0.16904004348E+04  0.16904004348E+04  0.00000000000E+00 0. -1.
         -2   -1    0    0    0  501 -0.00000000000E+00 -0.00000000000E+00 -0.43261994985E+03  0.43261994985E+03  0.00000000000E+00 0.  1.
        -24    2    1    2    0    0  0.55692847155E+03  0.76264524764E+02  0.13770598581E+03  0.58419790966E+03  0.79615695433E+02 0.  0.
        254    2    1    2    0    0 -0.55692847155E+03 -0.76264524764E+02  0.11200744991E+04  0.15388224750E+04  0.89298495272E+03 0.  0.
         23    2    4    4    0    0 -0.29411907268E+03 -0.26274026826E+03  0.38452716933E+02  0.40679498113E+03  0.92005802843E+02 0.  0.
         23    2    4    4    0    0 -0.26280939887E+03  0.18647574349E+03  0.10816217822E+04  0.11320274939E+04  0.87969222431E+02 0.  0.
          3    1    3    3  502    0  0.52649081257E+03  0.59921648947E+02  0.11321360016E+03  0.54184914782E+03  0.00000000000E+00 0. -1.
         -4    1    3    3    0  502  0.30437658977E+02  0.16342875817E+02  0.24492385651E+02  0.42348761834E+02  0.00000000000E+00 0.  1.
         13    1    5    5    0    0 -0.12971002805E+03 -0.14325819858E+03  0.60152263880E+02  0.20240034014E+03  0.00000000000E+00 0. -1.
        -13    1    5    5    0    0 -0.16440904463E+03 -0.11948206968E+03 -0.21699546947E+02  0.20439464099E+03  0.00000000000E+00 0.  1.
          3    1    6    6  503    0 -0.14693434581E+02  0.47196712163E+02  0.15198098179E+03  0.15981753810E+03  0.00000000000E+00 0. -1.
         -3    1    6    6    0  503 -0.24811596429E+03  0.13927903133E+03  0.92964080041E+03  0.97220995576E+03  0.00000000000E+00 0.  1.
<mgrwt>
<rscale>  0 0.17103227E+04</rscale>
<asrwt>0</asrwt>
<pdfrwt beam="1">  1        3 0.26006160E+00 0.17103227E+04</pdfrwt>
<pdfrwt beam="2">  1       -2 0.66556917E-01 0.17103227E+04</pdfrwt>
<totfact> 0.52301804E-01</totfact>
</mgrwt>
</event>
<event>
12    5  0.5246737E-008  0.1205059E+04  0.7818608E-02  0.9108440E-01
          3   -1    0    0  501    0  0.00000000000E+00  0.00000000000E+00  0.11865494511E+04  0.11865494511E+04  0.00000000000E+00 0. -1.
         -4   -1    0    0    0  501 -0.00000000000E+00 -0.00000000000E+00 -0.30596413997E+03  0.30596413997E+03  0.00000000000E+00 0.  1.
        -24    2    1    2    0    0 -0.10763640734E+02  0.27115872473E+03  0.26573506812E+03  0.38844026676E+03  0.81411328815E+02 0.  0.
        254    2    1    2    0    0  0.10763640734E+02 -0.27115872473E+03  0.61485024299E+03  0.11040733243E+04  0.87595329449E+03 0.  0.
         23    2    4    4    0    0 -0.27131353726E+02 -0.27451980272E+03 -0.15418957215E+03  0.32865172339E+03  0.90223603838E+02 0.  0.
         23    2    4    4    0    0  0.37894994460E+02  0.33610779958E+01  0.76903981514E+03  0.77542160089E+03  0.91701114487E+02 0.  0.
          3    1    3    3  502    0 -0.24570214571E+02  0.12313153831E+03  0.17102263671E+03  0.21216459045E+03  0.00000000000E+00 0. -1.
         -4    1    3    3    0  502  0.13806573836E+02  0.14802718641E+03  0.94712431405E+02  0.17627567632E+03  0.00000000000E+00 0.  1.
         13    1    5    5    0    0 -0.18900546505E+02 -0.57035615757E+01 -0.25535136663E+01  0.19906825585E+02  0.00000000000E+00 0. -1.
        -13    1    5    5    0    0 -0.82308072207E+01 -0.26881624115E+03 -0.15163605848E+03  0.30874489781E+03  0.00000000000E+00 0.  1.
          2    1    6    6  503    0  0.16300012329E+02 -0.39946525677E+02  0.21588176407E+03  0.22015074693E+03  0.00000000000E+00 0. -1.
         -2    1    6    6    0  503  0.21594982131E+02  0.43307603673E+02  0.55315805107E+03  0.55527085396E+03  0.00000000000E+00 0.  1.
<mgrwt>
<rscale>  0 0.12050586E+04</rscale>
<asrwt>0</asrwt>
<pdfrwt beam="1">  1        3 0.18254607E+00 0.12050586E+04</pdfrwt>
<pdfrwt beam="2">  1       -4 0.47071407E-01 0.12050586E+04</pdfrwt>
<totfact> 0.18883232E+00</totfact>
</mgrwt>
</event>
<event>
12    5  0.5246737E-008  0.1316773E+04  0.7818608E-02  0.9016369E-01
         -2   -1    0    0    0  501 -0.00000000000E+00  0.00000000000E+00  0.37906200559E+03  0.37906200559E+03  0.00000000000E+00 0.  1.
          1   -1    0    0  501    0  0.00000000000E+00 -0.00000000000E+00 -0.11435398520E+04  0.11435398520E+04  0.00000000000E+00 0. -1.
        -24    2    1    2    0    0 -0.27898523497E+03  0.34738799601E+02 -0.39884084220E+03  0.49509526426E+03  0.83700404767E+02 0.  0.
        254    2    1    2    0    0  0.27898523497E+03 -0.34738799601E+02 -0.36563700420E+03  0.10275065933E+04  0.91817200728E+03 0.  0.
         23    2    4    4    0    0  0.42420959152E+03 -0.37667058742E+03 -0.18270524379E+03  0.60283727111E+03  0.90537618562E+02 0.  0.
         23    2    4    4    0    0 -0.14522435654E+03  0.34193178782E+03 -0.18293176041E+03  0.42466932221E+03  0.94194177142E+02 0.  0.
          1    1    3    3  502    0 -0.17388106397E+03 -0.19507494991E+02 -0.24381531894E+03  0.30010177694E+03  0.00000000000E+00 0. -1.
         -2    1    3    3    0  502 -0.10510417100E+03  0.54246294592E+02 -0.15502552326E+03  0.19499348733E+03  0.00000000000E+00 0.  1.
         13    1    5    5    0    0  0.24638383417E+03 -0.27552278641E+03 -0.10848197371E+03  0.38520921354E+03  0.00000000000E+00 0.  1.
        -13    1    5    5    0    0  0.17782575734E+03 -0.10114780101E+03 -0.74223270081E+02  0.21762805758E+03  0.00000000000E+00 0. -1.
          1    1    6    6  503    0 -0.97670431158E+02  0.13035405898E+03 -0.10708019411E+03  0.19493040242E+03  0.00000000000E+00 0. -1.
         -1    1    6    6    0  503 -0.47553925385E+02  0.21157772883E+03 -0.75851566300E+02  0.22973891979E+03  0.00000000000E+00 0.  1.
<mgrwt>
<rscale>  0 0.13167726E+04</rscale>
<asrwt>0</asrwt>
<pdfrwt beam="1">  1        1 0.17592921E+00 0.13167726E+04</pdfrwt>
<pdfrwt beam="2">  1       -2 0.58317231E-01 0.13167726E+04</pdfrwt>
<totfact> 0.27835851E+01</totfact>
</mgrwt>
</event>
<event>
12    5  0.5246737E-008  0.1945180E+04  0.7818608E-02  0.8632688E-01
         -2   -1    0    0    0  501 -0.00000000000E+00  0.00000000000E+00  0.62965990342E+03  0.62965990342E+03  0.00000000000E+00 0.  1.
          1   -1    0    0  501    0  0.00000000000E+00 -0.00000000000E+00 -0.15022896613E+04  0.15022896613E+04  0.00000000000E+00 0. -1.
        -24    2    1    2    0    0  0.24681830397E+03  0.66660607046E+03 -0.60015617419E+03  0.93387512150E+03  0.81562128399E+02 0.  0.
        254    2    1    2    0    0 -0.24681830397E+03 -0.66660607046E+03 -0.27247358366E+03  0.11980744432E+04  0.92512571541E+03 0.  0.
         23    2    4    4    0    0  0.14782377740E+03 -0.35728986817E+03 -0.50097360628E+03  0.63962602431E+03  0.92946101187E+02 0.  0.
         23    2    4    4    0    0 -0.39464208136E+03 -0.30931620229E+03  0.22850002262E+03  0.55844841890E+03  0.90738585211E+02 0.  0.
          1    1    3    3  502    0  0.32685680789E+02  0.57452493749E+02 -0.86073840546E+02  0.10852579782E+03  0.00000000000E+00 0. -1.
         -2    1    3    3    0  502  0.21413262318E+03  0.60915357671E+03 -0.51408233365E+03  0.82534932368E+03  0.00000000000E+00 0.  1.
         13    1    5    5    0    0  0.51023533925E+02 -0.38879475299E+02 -0.95852222005E+02  0.11533717127E+03  0.00000000000E+00 0. -1.
        -13    1    5    5    0    0  0.96800243473E+02 -0.31841039287E+03 -0.40512138427E+03  0.52428885304E+03  0.00000000000E+00 0.  1.
          1    1    6    6  503    0 -0.84108717839E+01  0.55307002024E+01 -0.43148693975E+00  0.10075593773E+02  0.00000000000E+00 0. -1.
         -1    1    6    6    0  503 -0.38623120958E+03 -0.31484690250E+03  0.22893150956E+03  0.54837282512E+03  0.00000000000E+00 0.  1.
<mgrwt>
<rscale>  0 0.19451803E+04</rscale>
<asrwt>0</asrwt>
<pdfrwt beam="1">  1        1 0.23112148E+00 0.19451803E+04</pdfrwt>
<pdfrwt beam="2">  1       -2 0.96870756E-01 0.19451803E+04</pdfrwt>
<totfact> 0.47470988E+00</totfact>
</mgrwt>
</event>
<event>
12    5  0.5246737E-008  0.2368044E+04  0.7818608E-02  0.8451565E-01
          1   -1    0    0  501    0  0.00000000000E+00  0.00000000000E+00  0.14571114111E+04  0.14571114111E+04  0.00000000000E+00 0. -1.
         -2   -1    0    0    0  501 -0.00000000000E+00 -0.00000000000E+00 -0.96211470873E+03  0.96211470873E+03  0.00000000000E+00 0.  1.
        -24    2    1    2    0    0  0.71076023989E+03  0.57484251703E+03  0.65872967423E+03  0.11305426652E+04  0.92616932067E+02 0.  0.
        254    2    1    2    0    0 -0.71076023989E+03 -0.57484251703E+03 -0.16373297189E+03  0.12886834546E+04  0.89346097963E+03 0.  0.
         23    2    4    4    0    0 -0.67632482278E+02 -0.56219224429E+03 -0.26311406079E+03  0.63148972916E+03  0.94424556393E+02 0.  0.
         23    2    4    4    0    0 -0.64312775762E+03 -0.12650272735E+02  0.99381088900E+02  0.65719372546E+03  0.90849600626E+02 0.  0.
          1    1    3    3  502    0  0.43235014695E+03  0.30950002016E+03  0.34089543352E+03  0.63160637159E+03  0.00000000000E+00 0. -1.
         -2    1    3    3    0  502  0.27841009295E+03  0.26534249687E+03  0.31783424071E+03  0.49893629360E+03  0.00000000000E+00 0.  1.
         13    1    5    5    0    0 -0.91086696051E+02 -0.41533691481E+03 -0.18878091467E+03  0.46523088112E+03  0.00000000000E+00 0. -1.
        -13    1    5    5    0    0  0.23454213772E+02 -0.14685532948E+03 -0.74333146124E+02  0.16625884804E+03  0.00000000000E+00 0.  1.
          1    1    6    6  503    0 -0.34109559392E+03  0.15398051975E+02  0.92639057975E+02  0.35378708181E+03  0.00000000000E+00 0. -1.
         -1    1    6    6    0  503 -0.30203216370E+03 -0.28048324710E+02  0.67420309247E+01  0.30340664365E+03  0.00000000000E+00 0.  1.
<mgrwt>
<rscale>  0 0.23680442E+04</rscale>
<asrwt>0</asrwt>
<pdfrwt beam="1">  1        1 0.22417099E+00 0.23680442E+04</pdfrwt>
<pdfrwt beam="2">  1       -2 0.14801765E+00 0.23680442E+04</pdfrwt>
<totfact> 0.17156749E+00</totfact>
</mgrwt>
</event>
<event>
12    5  0.5246737E-008  0.1311634E+04  0.7818608E-02  0.9020390E-01
         -2   -1    0    0    0  501 -0.00000000000E+00  0.00000000000E+00  0.50774649276E+03  0.50774649276E+03  0.00000000000E+00 0.  1.
          1   -1    0    0  501    0  0.00000000000E+00 -0.00000000000E+00 -0.84706867618E+03  0.84706867618E+03  0.00000000000E+00 0. -1.
        -24    2    1    2    0    0 -0.22169787476E+03 -0.16088319182E+03  0.11024533614E+03  0.30536099638E+03  0.77832865104E+02 0.  0.
        254    2    1    2    0    0  0.22169787476E+03  0.16088319182E+03 -0.44956751956E+03  0.10494541726E+04  0.90785998732E+03 0.  0.
         23    2    4    4    0    0  0.43506919585E+03  0.84834602572E+02 -0.60836598946E+03  0.75782418341E+03  0.87784969412E+02 0.  0.
         23    2    4    4    0    0 -0.21337132110E+03  0.76048589245E+02  0.15879846990E+03  0.29162998914E+03  0.92305947438E+02 0.  0.
          1    1    3    3  502    0 -0.35781361887E+02 -0.50987560500E+02  0.53377716046E+02  0.82031809406E+02  0.00000000000E+00 0. -1.
         -2    1    3    3    0  502 -0.18591651287E+03 -0.10989563132E+03  0.56867620095E+02  0.22332918698E+03  0.00000000000E+00 0.  1.
         13    1    5    5    0    0  0.28890379782E+03  0.14400752419E+02 -0.40410578222E+03  0.49696505841E+03  0.00000000000E+00 0. -1.
        -13    1    5    5    0    0  0.14616539804E+03  0.70433850153E+02 -0.20426020725E+03  0.26085912500E+03  0.00000000000E+00 0.  1.
          1    1    6    6  503    0 -0.22145850672E+03  0.80082991287E+02  0.15423106030E+03  0.28150377556E+03  0.00000000000E+00 0. -1.
         -1    1    6    6    0  503  0.80871856227E+01 -0.40344020422E+01  0.45674096034E+01  0.10126213588E+02  0.00000000000E+00 0.  1.
<mgrwt>
<rscale>  0 0.13116343E+04</rscale>
<asrwt>0</asrwt>
<pdfrwt beam="1">  1        1 0.13031826E+00 0.13116343E+04</pdfrwt>
<pdfrwt beam="2">  1       -2 0.78114845E-01 0.13116343E+04</pdfrwt>
<totfact> 0.25271602E+01</totfact>
</mgrwt>
</event>
<event>
12    5  0.5246737E-008  0.2270017E+04  0.7818608E-02  0.8489838E-01
          1   -1    0    0  501    0  0.00000000000E+00  0.00000000000E+00  0.65892924499E+03  0.65892924499E+03  0.00000000000E+00 0. -1.
         -2   -1    0    0    0  501 -0.00000000000E+00 -0.00000000000E+00 -0.19550563266E+04  0.19550563266E+04  0.00000000000E+00 0.  1.
        -24    2    1    2    0    0  0.42226123228E+03  0.32610842340E+03  0.36742139244E+03  0.65256252643E+03  0.78664599261E+02 0.  0.
        254    2    1    2    0    0 -0.42226123228E+03 -0.32610842340E+03 -0.16635484741E+04  0.19614230452E+04  0.89170375378E+03 0.  0.
         23    2    4    4    0    0  0.51896043276E+02 -0.11491107879E+03 -0.13263628016E+04  0.13356839047E+04  0.94421696171E+02 0.  0.
         23    2    4    4    0    0 -0.47415727555E+03 -0.21119734461E+03 -0.33718567253E+03  0.62573914045E+03  0.91792449619E+02 0.  0.
          1    1    3    3  502    0  0.34960984952E+03  0.28367256066E+03  0.33962674549E+03  0.56395345092E+03  0.00000000000E+00 0. -1.
         -2    1    3    3    0  502  0.72651382758E+02  0.42435862741E+02  0.27794646951E+02  0.88609075508E+02  0.00000000000E+00 0.  1.
         13    1    5    5    0    0  0.72333499554E+02 -0.11630712154E+03 -0.11669189299E+04  0.11749294748E+04  0.00000000000E+00 0. -1.
        -13    1    5    5    0    0 -0.20437456278E+02  0.13960427442E+01 -0.15944387165E+03  0.16075442999E+03  0.00000000000E+00 0.  1.
          4    1    6    6  503    0 -0.29321287640E+03 -0.92542105811E+02 -0.16327124721E+03  0.34813119998E+03  0.00000000000E+00 0. -1.
         -4    1    6    6    0  503 -0.18094439915E+03 -0.11865523879E+03 -0.17391442532E+03  0.27760794047E+03  0.00000000000E+00 0.  1.
<mgrwt>
<rscale>  0 0.22700166E+04</rscale>
<asrwt>0</asrwt>
<pdfrwt beam="1">  1        1 0.10137373E+00 0.22700166E+04</pdfrwt>
<pdfrwt beam="2">  1       -2 0.30077790E+00 0.22700166E+04</pdfrwt>
<totfact> 0.74532757E-01</totfact>
</mgrwt>
</event>
<event>
12    5  0.5246737E-008  0.3473059E+04  0.7818608E-02  0.8120204E-01
         -2   -1    0    0    0  501 -0.00000000000E+00  0.00000000000E+00  0.13419581370E+04  0.13419581370E+04  0.00000000000E+00 0.  1.
          1   -1    0    0  501    0  0.00000000000E+00 -0.00000000000E+00 -0.22471151939E+04  0.22471151939E+04  0.00000000000E+00 0. -1.
        -24    2    1    2    0    0 -0.11105453907E+04 -0.11741047266E+04 -0.45658340597E+03  0.16812789423E+04  0.79984382238E+02 0.  0.
        254    2    1    2    0    0  0.11105453907E+04  0.11741047266E+04 -0.44857365086E+03  0.19077943886E+04  0.90919092332E+03 0.  0.
         23    2    4    4    0    0 -0.97194466251E+02  0.32956280191E+03 -0.21496233372E+03  0.41296392293E+03  0.79195909301E+02 0.  0.
         23    2    4    4    0    0  0.12077398570E+04  0.84454192467E+03 -0.23361131715E+03  0.14948304657E+04  0.89762179729E+02 0.  0.
          1    1    3    3  502    0 -0.89138013790E+02 -0.12847189444E+03 -0.45805640153E+02  0.16293793246E+03  0.00000000000E+00 0. -1.
         -2    1    3    3    0  502 -0.10214073769E+04 -0.10456328321E+04 -0.41077776582E+03  0.15183410099E+04  0.00000000000E+00 0.  1.
         13    1    5    5    0    0 -0.69692328604E+02  0.18743224575E+03 -0.16677514190E+03  0.26038781724E+03  0.00000000000E+00 0. -1.
        -13    1    5    5    0    0 -0.27502137647E+02  0.14213055617E+03 -0.48187191812E+02  0.15257610569E+03  0.00000000000E+00 0.  1.
          1    1    6    6  503    0  0.11656867469E+04  0.80009404284E+03 -0.21056436668E+03  0.14294451448E+04  0.00000000000E+00 0. -1.
         -1    1    6    6    0  503  0.42053110056E+02  0.44447881831E+02 -0.23046950468E+02  0.65385320910E+02  0.00000000000E+00 0.  1.
<mgrwt>
<rscale>  0 0.34730589E+04</rscale>
<asrwt>0</asrwt>
<pdfrwt beam="1">  1        1 0.34571003E+00 0.34730589E+04</pdfrwt>
<pdfrwt beam="2">  1       -2 0.20645510E+00 0.34730589E+04</pdfrwt>
<totfact> 0.17562462E-01</totfact>
</mgrwt>
</event>
<event>
12    5  0.5246737E-008  0.1449316E+04  0.7818608E-02  0.8918875E-01
         -2   -1    0    0    0  501 -0.00000000000E+00  0.00000000000E+00  0.74389380949E+03  0.74389380949E+03  0.00000000000E+00 0.  1.
          1   -1    0    0  501    0  0.00000000000E+00 -0.00000000000E+00 -0.70591950336E+03  0.70591950336E+03  0.00000000000E+00 0. -1.
        -24    2    1    2    0    0 -0.37402144567E+03 -0.12353855634E+03 -0.21862817366E+03  0.45745827657E+03  0.79473138629E+02 0.  0.
        254    2    1    2    0    0  0.37402144567E+03  0.12353855634E+03  0.25660247979E+03  0.99235503627E+03  0.87393928202E+03 0.  0.
         23    2    4    4    0    0  0.37468726099E+03 -0.31429360027E+03  0.51780585486E+02  0.50036347496E+03  0.92257071940E+02 0.  0.
         23    2    4    4    0    0 -0.66581531856E+00  0.43783215661E+03  0.20482189431E+03  0.49199156132E+03  0.91685589662E+02 0.  0.
          3    1    3    3  502    0 -0.33087309703E+03 -0.11574080273E+03 -0.21953003430E+03  0.41360171145E+03  0.00000000000E+00 0. -1.
         -4    1    3    3    0  502 -0.43148348643E+02 -0.77977536015E+01  0.90186063785E+00  0.43856565124E+02  0.00000000000E+00 0.  1.
         13    1    5    5    0    0  0.62281978259E+02 -0.32345083969E+02 -0.21084088785E+02  0.73278837823E+02  0.00000000000E+00 0.  1.
        -13    1    5    5    0    0  0.31240528273E+03 -0.28194851630E+03  0.72864674271E+02  0.42708463714E+03  0.00000000000E+00 0. -1.
          4    1    6    6  503    0  0.28158432940E+02  0.37218591036E+03  0.18981509006E+03  0.41874218516E+03  0.00000000000E+00 0. -1.
         -4    1    6    6    0  503 -0.28824248259E+02  0.65646246249E+02  0.15006804242E+02  0.73249376160E+02  0.00000000000E+00 0.  1.
<mgrwt>
<rscale>  0 0.14493159E+04</rscale>
<asrwt>0</asrwt>
<pdfrwt beam="1">  1        1 0.10860300E+00 0.14493159E+04</pdfrwt>
<pdfrwt beam="2">  1       -2 0.11444520E+00 0.14493159E+04</pdfrwt>
<totfact> 0.13646713E+01</totfact>
</mgrwt>
</event>
<event>
12    5  0.5246737E-008  0.1572966E+04  0.7818608E-02  0.8837330E-01
         -2   -1    0    0    0  501 -0.00000000000E+00  0.00000000000E+00  0.53731286602E+03  0.53731286602E+03  0.00000000000E+00 0.  1.
          1   -1    0    0  501    0  0.00000000000E+00 -0.00000000000E+00 -0.11512021948E+04  0.11512021948E+04  0.00000000000E+00 0. -1.
        -24    2    1    2    0    0 -0.23897507457E+03 -0.31245883437E+03  0.16236915422E+03  0.43314593385E+03  0.80697263464E+02 0.  0.
        254    2    1    2    0    0  0.23897507457E+03  0.31245883437E+03 -0.77625848301E+03  0.12553691270E+04  0.90478439592E+03 0.  0.
         23    2    4    4    0    0 -0.15144128374E+03  0.16676073808E+03 -0.79218932970E+03  0.82821289880E+03  0.87344521639E+02 0.  0.
         23    2    4    4    0    0  0.39041635830E+03  0.14569809629E+03  0.15930846694E+02  0.42715622818E+03  0.92497477294E+02 0.  0.
          3    1    3    3  502    0 -0.36391357453E+02 -0.10368543389E+03  0.32700018655E+02  0.11464855568E+03  0.00000000000E+00 0. -1.
         -4    1    3    3    0  502 -0.20258371711E+03 -0.20877340047E+03  0.12966913557E+03  0.31849737817E+03  0.00000000000E+00 0.  1.
         13    1    5    5    0    0 -0.11679159300E+03  0.12435830151E+03 -0.44225075932E+03  0.47401581985E+03  0.00000000000E+00 0. -1.
        -13    1    5    5    0    0 -0.34649690738E+02  0.42402436570E+02 -0.34993857038E+03  0.35419707895E+03  0.00000000000E+00 0.  1.
          4    1    6    6  503    0  0.35675722507E+03  0.11760714131E+03 -0.10820143507E+02  0.37579812777E+03  0.00000000000E+00 0. -1.
         -4    1    6    6    0  503  0.33659133233E+02  0.28090954979E+02  0.26750990201E+02  0.51358100416E+02  0.00000000000E+00 0.  1.
<mgrwt>
<rscale>  0 0.15729663E+04</rscale>
<asrwt>0</asrwt>
<pdfrwt beam="1">  1        1 0.17710803E+00 0.15729663E+04</pdfrwt>
<pdfrwt beam="2">  1       -2 0.82663519E-01 0.15729663E+04</pdfrwt>
<totfact> 0.12567760E+01</totfact>
</mgrwt>
</event>
<event>
12    5  0.5246737E-008  0.1836869E+04  0.7818608E-02  0.8686935E-01
          1   -1    0    0  501    0  0.00000000000E+00  0.00000000000E+00  0.26417309601E+04  0.26417309601E+04  0.00000000000E+00 0. -1.
         -2   -1    0    0    0  501 -0.00000000000E+00 -0.00000000000E+00 -0.31930635278E+03  0.31930635278E+03  0.00000000000E+00 0.  1.
        -24    2    1    2    0    0  0.49175801724E+02 -0.17115169384E+02  0.20055560797E+04  0.20077475079E+04  0.77997938939E+02 0.  0.
        254    2    1    2    0    0 -0.49175801724E+02  0.17115169384E+02  0.31686852764E+03  0.95328980492E+03  0.89757707182E+03 0.  0.
         23    2    4    4    0    0 -0.18679300169E+01  0.10135304457E+03  0.61346952668E+03  0.62847921012E+03  0.91462170251E+02 0.  0.
         23    2    4    4    0    0 -0.47307871707E+02 -0.84237875182E+02 -0.29660099904E+03  0.32481059480E+03  0.90530191212E+02 0.  0.
          3    1    3    3  502    0  0.52732163104E+02 -0.20075492370E+02  0.19985798765E+04  0.19993762100E+04  0.00000000000E+00 0. -1.
         -4    1    3    3    0  502 -0.35563613796E+01  0.29603229861E+01  0.69762031649E+01  0.83712979305E+01  0.00000000000E+00 0.  1.
         13    1    5    5    0    0 -0.34233383776E+02  0.36236967581E+02  0.39711727373E+03  0.40023389597E+03  0.00000000000E+00 0.  1.
        -13    1    5    5    0    0  0.32365453759E+02  0.65116076985E+02  0.21635225295E+03  0.22824531416E+03  0.00000000000E+00 0. -1.
          4    1    6    6  503    0 -0.23615804959E+02  0.15879588315E+02 -0.48648212703E+02  0.56360590558E+02  0.00000000000E+00 0. -1.
         -4    1    6    6    0  503 -0.23692066748E+02 -0.10011746350E+03 -0.24795278634E+03  0.26845000424E+03  0.00000000000E+00 0.  1.
<mgrwt>
<rscale>  0 0.18368685E+04</rscale>
<asrwt>0</asrwt>
<pdfrwt beam="1">  1        1 0.40642013E+00 0.18368685E+04</pdfrwt>
<pdfrwt beam="2">  1       -2 0.49124056E-01 0.18368685E+04</pdfrwt>
<totfact> 0.35011103E+00</totfact>
</mgrwt>
</event>
<event>
12    5  0.5246737E-008  0.1838227E+04  0.7818608E-02  0.8686231E-01
         -2   -1    0    0    0  501 -0.00000000000E+00  0.00000000000E+00  0.39135245263E+03  0.39135245263E+03  0.00000000000E+00 0.  1.
          1   -1    0    0  501    0  0.00000000000E+00 -0.00000000000E+00 -0.21585906551E+04  0.21585906551E+04  0.00000000000E+00 0. -1.
        -24    2    1    2    0    0  0.58296488158E+03 -0.38030005085E+03 -0.67840466863E+03  0.97527769011E+03  0.80358550118E+02 0.  0.
        254    2    1    2    0    0 -0.58296488158E+03  0.38030005085E+03 -0.10888335338E+04  0.15746654176E+04  0.89974248050E+03 0.  0.
         23    2    4    4    0    0 -0.78452887673E+03  0.41606327789E+03 -0.98808037058E+03  0.13314730160E+04  0.89013279534E+02 0.  0.
         23    2    4    4    0    0  0.20156399515E+03 -0.35763227045E+02 -0.10075316326E+03  0.24319240164E+03  0.84168234858E+02 0.  0.
          1    1    3    3  502    0  0.33648297512E+03 -0.20677671877E+03 -0.43759387217E+03  0.58946229814E+03  0.00000000000E+00 0. -1.
         -2    1    3    3    0  502  0.24648190646E+03 -0.17352333208E+03 -0.24081079646E+03  0.38581539197E+03  0.00000000000E+00 0.  1.
         13    1    5    5    0    0 -0.57454833734E+03  0.34692200846E+03 -0.72969019730E+03  0.99141739743E+03  0.00000000000E+00 0.  1.
        -13    1    5    5    0    0 -0.20998053939E+03  0.69141269431E+02 -0.25839017328E+03  0.34005561855E+03  0.00000000000E+00 0. -1.
          3    1    6    6  503    0  0.17632480777E+03 -0.56761873948E+01 -0.10222456405E+03  0.20389339968E+03  0.00000000000E+00 0. -1.
         -3    1    6    6    0  503  0.25239187377E+02 -0.30087039650E+02  0.14714007924E+01  0.39299001955E+02  0.00000000000E+00 0.  1.
<mgrwt>
<rscale>  0 0.18382271E+04</rscale>
<asrwt>0</asrwt>
<pdfrwt beam="1">  1        1 0.33209087E+00 0.18382271E+04</pdfrwt>
<pdfrwt beam="2">  1       -2 0.60208070E-01 0.18382271E+04</pdfrwt>
<totfact> 0.49382481E+00</totfact>
</mgrwt>
</event>
<event>
12    5  0.5246737E-008  0.1206683E+04  0.7818608E-02  0.9107027E-01
         -2   -1    0    0    0  501 -0.00000000000E+00  0.00000000000E+00  0.40742227591E+03  0.40742227591E+03  0.00000000000E+00 0.  1.
          1   -1    0    0  501    0  0.00000000000E+00 -0.00000000000E+00 -0.89347321780E+03  0.89347321780E+03  0.00000000000E+00 0. -1.
        -24    2    1    2    0    0 -0.17402129591E+02  0.19777247240E+03 -0.22697717136E+03  0.31171654083E+03  0.78941627513E+02 0.  0.
        254    2    1    2    0    0  0.17402129591E+02 -0.19777247240E+03 -0.25907377053E+03  0.98917895289E+03  0.93377673847E+03 0.  0.
         23    2    4    4    0    0 -0.14715002919E+03  0.21339761854E+03  0.20367172945E+03  0.34228826213E+03  0.92127120447E+02 0.  0.
         23    2    4    4    0    0  0.16455215878E+03 -0.41117009094E+03 -0.46274549998E+03  0.64689069076E+03  0.90531273004E+02 0.  0.
          1    1    3    3  502    0 -0.14103275815E+02  0.20501748315E+03 -0.22084375154E+03  0.30166709032E+03  0.00000000000E+00 0. -1.
         -2    1    3    3    0  502 -0.32988537757E+01 -0.72450107471E+01 -0.61334198235E+01  0.10049450517E+02  0.00000000000E+00 0.  1.
         13    1    5    5    0    0  0.70286630969E+01  0.11614949547E+02 -0.40959409640E+01  0.14180475672E+02  0.00000000000E+00 0. -1.
        -13    1    5    5    0    0 -0.15417869229E+03  0.20178266899E+03  0.20776767042E+03  0.32810778645E+03  0.00000000000E+00 0.  1.
          1    1    6    6  503    0 -0.84577499930E+00 -0.44414621503E+02 -0.80445023122E+02  0.91895460626E+02  0.00000000000E+00 0. -1.
         -1    1    6    6    0  503  0.16539793378E+03 -0.36675546944E+03 -0.38230047686E+03  0.55499523013E+03  0.00000000000E+00 0.  1.
<mgrwt>
<rscale>  0 0.12066829E+04</rscale>
<asrwt>0</asrwt>
<pdfrwt beam="1">  1        1 0.13745742E+00 0.12066829E+04</pdfrwt>
<pdfrwt beam="2">  1       -2 0.62680351E-01 0.12066829E+04</pdfrwt>
<totfact> 0.37701564E+01</totfact>
</mgrwt>
</event>
<event>
12    5  0.5246737E-008  0.1909720E+04  0.7818608E-02  0.8650033E-01
          1   -1    0    0  501    0  0.00000000000E+00  0.00000000000E+00  0.12222999573E+04  0.12222999573E+04  0.00000000000E+00 0. -1.
         -2   -1    0    0    0  501 -0.00000000000E+00 -0.00000000000E+00 -0.74593612831E+03  0.74593612831E+03  0.00000000000E+00 0.  1.
        -24    2    1    2    0    0  0.19974777782E+03 -0.55172077319E+02 -0.53919853044E+03  0.58318374176E+03  0.80156650170E+02 0.  0.
        254    2    1    2    0    0 -0.19974777782E+03  0.55172077319E+02  0.10155623595E+04  0.13850523439E+04  0.91872735699E+03 0.  0.
         23    2    4    4    0    0  0.14243080110E+03 -0.28477290603E+02 -0.10848530341E+03  0.20376415299E+03  0.93023006860E+02 0.  0.
         23    2    4    4    0    0 -0.34217857892E+03  0.83649367922E+02  0.11240476629E+04  0.11812881909E+04  0.88742576579E+02 0.  0.
          3    1    3    3  502    0  0.61416946497E+02  0.20138902870E+02 -0.15119848033E+03  0.16443417279E+03  0.00000000000E+00 0. -1.
         -4    1    3    3    0  502  0.13833083132E+03 -0.75310980188E+02 -0.38800005010E+03  0.41874956897E+03  0.00000000000E+00 0.  1.
         13    1    5    5    0    0 -0.11130614548E+02 -0.10576710498E+02 -0.83724809397E+00  0.15377202917E+02  0.00000000000E+00 0.  1.
        -13    1    5    5    0    0  0.15356141565E+03 -0.17900580106E+02 -0.10764805532E+03  0.18838695007E+03  0.00000000000E+00 0. -1.
          1    1    6    6  503    0 -0.33392171930E+03  0.69863742936E+02  0.11044829936E+04  0.11559703025E+04  0.00000000000E+00 0. -1.
         -1    1    6    6    0  503 -0.82568596174E+01  0.13785624986E+02  0.19564669299E+02  0.25317888376E+02  0.00000000000E+00 0.  1.
<mgrwt>
<rscale>  0 0.19097201E+04</rscale>
<asrwt>0</asrwt>
<pdfrwt beam="1">  1        1 0.18804615E+00 0.19097201E+04</pdfrwt>
<pdfrwt beam="2">  1       -2 0.11475940E+00 0.19097201E+04</pdfrwt>
<totfact> 0.50024802E+00</totfact>
</mgrwt>
</event>
<event>
12    5  0.5246737E-008  0.5143289E+04  0.7818608E-02  0.7806776E-01
         -2   -1    0    0    0  501 -0.00000000000E+00  0.00000000000E+00  0.20141594772E+04  0.20141594772E+04  0.00000000000E+00 0.  1.
          1   -1    0    0  501    0  0.00000000000E+00 -0.00000000000E+00 -0.32834317242E+04  0.32834317242E+04  0.00000000000E+00 0. -1.
        -24    2    1    2    0    0  0.80346860958E+03  0.11912919491E+04 -0.27102535119E+04  0.30685908916E+04  0.77702296236E+02 0.  0.
        254    2    1    2    0    0 -0.80346860958E+03 -0.11912919491E+04  0.14409812650E+04  0.22290003098E+04  0.90954772298E+03 0.  0.
         23    2    4    4    0    0 -0.35226328937E+03 -0.10201075040E+04  0.13481444319E+04  0.17293466282E+04  0.91856445394E+02 0.  0.
         23    2    4    4    0    0 -0.45120532022E+03 -0.17118444516E+03  0.92836833079E+02  0.49965368158E+03  0.90248372197E+02 0.  0.
          3    1    3    3  502    0  0.42265177843E+03  0.68946670278E+03 -0.14895066905E+04  0.16948831940E+04  0.00000000000E+00 0. -1.
         -4    1    3    3    0  502  0.38081683116E+03  0.50182524634E+03 -0.12207468214E+04  0.13737076977E+04  0.00000000000E+00 0.  1.
         13    1    5    5    0    0 -0.44642214307E+02 -0.86189880008E+02  0.88381424962E+02  0.13127413680E+03  0.00000000000E+00 0. -1.
        -13    1    5    5    0    0 -0.30762107506E+03 -0.93391762394E+03  0.12597630069E+04  0.15980724914E+04  0.00000000000E+00 0.  1.
          3    1    6    6  503    0 -0.30383477628E+02  0.97769064983E+01 -0.15277412070E+01  0.31954304978E+02  0.00000000000E+00 0. -1.
         -3    1    6    6    0  503 -0.42082184259E+03 -0.18096135166E+03  0.94364574286E+02  0.46769937661E+03  0.00000000000E+00 0.  1.
<mgrwt>
<rscale>  0 0.51432889E+04</rscale>
<asrwt>0</asrwt>
<pdfrwt beam="1">  1        1 0.50514334E+00 0.51432889E+04</pdfrwt>
<pdfrwt beam="2">  1       -2 0.30987069E+00 0.51432889E+04</pdfrwt>
<totfact> 0.63816896E-03</totfact>
</mgrwt>
</event>
<event>
12    5  0.5246737E-008  0.2321665E+04  0.7818608E-02  0.8469428E-01
          1   -1    0    0  501    0  0.00000000000E+00  0.00000000000E+00  0.12506759613E+04  0.12506759613E+04  0.00000000000E+00 0. -1.
         -2   -1    0    0    0  501 -0.00000000000E+00 -0.00000000000E+00 -0.10774429812E+04  0.10774429812E+04  0.00000000000E+00 0.  1.
        -24    2    1    2    0    0  0.32101589843E+03 -0.29483296773E+03 -0.80090540200E+03  0.91549451185E+03  0.81872170910E+02 0.  0.
        254    2    1    2    0    0 -0.32101589843E+03  0.29483296773E+03  0.97413838219E+03  0.14126244307E+04  0.92551850794E+03 0.  0.
         23    2    4    4    0    0 -0.25515555022E+03  0.62136644949E+03  0.63699694540E+03  0.93015904073E+03  0.90719971620E+02 0.  0.
         23    2    4    4    0    0 -0.65860348206E+02 -0.32653348176E+03  0.33714143679E+03  0.48246538993E+03  0.90259647151E+02 0.  0.
          1    1    3    3  502    0  0.72925361415E+02 -0.11840289196E+03 -0.25087528724E+03  0.28683752005E+03  0.00000000000E+00 0. -1.
         -2    1    3    3    0  502  0.24809053701E+03 -0.17643007576E+03 -0.55003011476E+03  0.62865699180E+03  0.00000000000E+00 0.  1.
         13    1    5    5    0    0 -0.25645965378E+03  0.60412275680E+03  0.63416799437E+03  0.91263623880E+03  0.00000000000E+00 0. -1.
        -13    1    5    5    0    0  0.13041035553E+01  0.17243692685E+02  0.28289510364E+01  0.17522801930E+02  0.00000000000E+00 0.  1.
          1    1    6    6  503    0 -0.72900401639E+02 -0.16854218543E+03  0.14750773602E+03  0.23554080117E+03  0.00000000000E+00 0. -1.
         -1    1    6    6    0  503  0.70400534333E+01 -0.15799129633E+03  0.18963370077E+03  0.24692458876E+03  0.00000000000E+00 0.  1.
<mgrwt>
<rscale>  0 0.23216650E+04</rscale>
<asrwt>0</asrwt>
<pdfrwt beam="1">  1        1 0.19241169E+00 0.23216650E+04</pdfrwt>
<pdfrwt beam="2">  1       -2 0.16576046E+00 0.23216650E+04</pdfrwt>
<totfact> 0.17763756E+00</totfact>
</mgrwt>
</event>
<event>
12    5  0.5246737E-008  0.1379974E+04  0.7818608E-02  0.8968444E-01
          1   -1    0    0  501    0  0.00000000000E+00  0.00000000000E+00  0.19940003763E+04  0.19940003763E+04  0.00000000000E+00 0. -1.
         -2   -1    0    0    0  501 -0.00000000000E+00 -0.00000000000E+00 -0.23875713099E+03  0.23875713099E+03  0.00000000000E+00 0.  1.
        -24    2    1    2    0    0 -0.25636668426E+03  0.11867935228E+03  0.94733948955E+03  0.99178762606E+03  0.79886928118E+02 0.  0.
        254    2    1    2    0    0  0.25636668426E+03 -0.11867935228E+03  0.80790375577E+03  0.12409698812E+04  0.89860397400E+03 0.  0.
         23    2    4    4    0    0 -0.32944829248E+03 -0.50850847407E+02  0.28466222089E+03  0.44733126067E+03  0.89166645529E+02 0.  0.
         23    2    4    4    0    0  0.58581497674E+03 -0.67828504871E+02  0.52324153487E+03  0.79363862056E+03  0.91107975396E+02 0.  0.
          1    1    3    3  502    0 -0.25577849412E+03  0.11699808943E+03  0.86811393035E+03  0.91254204673E+03  0.00000000000E+00 0. -1.
         -2    1    3    3    0  502 -0.58819014554E+00  0.16812628458E+01  0.79225559199E+02  0.79245579327E+02  0.00000000000E+00 0.  1.
         13    1    5    5    0    0 -0.27220599348E+03 -0.94192122541E+01  0.24472801876E+03  0.36616475474E+03  0.00000000000E+00 0.  1.
        -13    1    5    5    0    0 -0.57242298996E+02 -0.41431635153E+02  0.39934202129E+02  0.81166505934E+02  0.00000000000E+00 0. -1.
          3    1    6    6  503    0  0.23613737722E+03 -0.41132813959E+02  0.15680194125E+03  0.28642558908E+03  0.00000000000E+00 0. -1.
         -3    1    6    6    0  503  0.34967759952E+03 -0.26695690912E+02  0.36643959363E+03  0.50721303147E+03  0.00000000000E+00 0.  1.
<mgrwt>
<rscale>  0 0.13799736E+04</rscale>
<asrwt>0</asrwt>
<pdfrwt beam="1">  1        1 0.30676928E+00 0.13799736E+04</pdfrwt>
<pdfrwt beam="2">  1       -2 0.36731868E-01 0.13799736E+04</pdfrwt>
<totfact> 0.18020644E+01</totfact>
</mgrwt>
</event>
<event>
12    5  0.5246737E-008  0.1518130E+04  0.7818608E-02  0.8872486E-01
         -2   -1    0    0    0  501 -0.00000000000E+00  0.00000000000E+00  0.38634563927E+03  0.38634563927E+03  0.00000000000E+00 0.  1.
          1   -1    0    0  501    0  0.00000000000E+00 -0.00000000000E+00 -0.14913573826E+04  0.14913573826E+04  0.00000000000E+00 0. -1.
        -24    2    1    2    0    0 -0.95858155322E+02 -0.45857289530E+03 -0.30070790336E+03  0.56274788621E+03  0.82353227310E+02 0.  0.
        254    2    1    2    0    0  0.95858155322E+02  0.45857289530E+03 -0.80430383992E+03  0.13149551356E+04  0.92882961596E+03 0.  0.
         23    2    4    4    0    0  0.33382123195E+03  0.36402376378E+02 -0.73863617498E+03  0.81643535420E+03  0.90672711990E+02 0.  0.
         23    2    4    4    0    0 -0.23796307663E+03  0.42217051892E+03 -0.65667664949E+02  0.49851978140E+03  0.96723096205E+02 0.  0.
          3    1    3    3  502    0 -0.47770799424E+02 -0.17170331899E+03 -0.16052117261E+03  0.23985646934E+03  0.00000000000E+00 0. -1.
         -4    1    3    3    0  502 -0.48087355898E+02 -0.28686957632E+03 -0.14018673075E+03  0.32289141688E+03  0.00000000000E+00 0.  1.
         13    1    5    5    0    0  0.29680371490E+03  0.61467072347E+02 -0.64658282533E+03  0.71410083053E+03  0.00000000000E+00 0. -1.
        -13    1    5    5    0    0  0.37017517053E+02 -0.25064695970E+02 -0.92053349647E+02  0.10233452367E+03  0.00000000000E+00 0.  1.
          2    1    6    6  503    0 -0.22820377256E+03  0.34205684366E+03 -0.36922545084E+02  0.41284757531E+03  0.00000000000E+00 0. -1.
         -2    1    6    6    0  503 -0.97593040737E+01  0.80113675264E+02 -0.28745119865E+02  0.85672206090E+02  0.00000000000E+00 0.  1.
<mgrwt>
<rscale>  0 0.15181297E+04</rscale>
<asrwt>0</asrwt>
<pdfrwt beam="1">  1        1 0.22943959E+00 0.15181297E+04</pdfrwt>
<pdfrwt beam="2">  1       -2 0.59437792E-01 0.15181297E+04</pdfrwt>
<totfact> 0.14852174E+01</totfact>
</mgrwt>
</event>
<event>
12    5  0.5246737E-008  0.1358787E+04  0.7818608E-02  0.8984203E-01
         -2   -1    0    0    0  501 -0.00000000000E+00  0.00000000000E+00  0.25486795444E+03  0.25486795444E+03  0.00000000000E+00 0.  1.
          1   -1    0    0  501    0  0.00000000000E+00 -0.00000000000E+00 -0.18110368294E+04  0.18110368294E+04  0.00000000000E+00 0. -1.
        -24    2    1    2    0    0  0.27338774511E+03  0.88573485977E+02 -0.81807629359E+03  0.87071630900E+03  0.79447762916E+02 0.  0.
        254    2    1    2    0    0 -0.27338774511E+03 -0.88573485977E+02 -0.73809258135E+03  0.11951884748E+04  0.89504676419E+03 0.  0.
         23    2    4    4    0    0 -0.12842734750E+02 -0.28918827588E+03 -0.79397558153E+03  0.84991685630E+03  0.90369484960E+02 0.  0.
         23    2    4    4    0    0 -0.26054501036E+03  0.20061478991E+03  0.55883000178E+02  0.34527161852E+03  0.89216503472E+02 0.  0.
          1    1    3    3  502    0  0.22294074853E+03  0.39584460455E+02 -0.58614940477E+03  0.62836345500E+03  0.00000000000E+00 0. -1.
         -2    1    3    3    0  502  0.50446996576E+02  0.48989025521E+02 -0.23192688882E+03  0.24235285401E+03  0.00000000000E+00 0.  1.
         13    1    5    5    0    0  0.11859514993E+02 -0.24259207006E+03 -0.71343700728E+03  0.75364708180E+03  0.00000000000E+00 0.  1.
        -13    1    5    5    0    0 -0.24702249743E+02 -0.46596205826E+02 -0.80538574250E+02  0.96269774499E+02  0.00000000000E+00 0. -1.
          1    1    6    6  503    0 -0.11232066507E+03  0.71228014769E+02  0.65559857247E+02  0.14828168050E+03  0.00000000000E+00 0. -1.
         -1    1    6    6    0  503 -0.14822434529E+03  0.12938677514E+03 -0.96768570697E+01  0.19698993802E+03  0.00000000000E+00 0.  1.
<mgrwt>
<rscale>  0 0.13587866E+04</rscale>
<asrwt>0</asrwt>
<pdfrwt beam="1">  1        1 0.27862105E+00 0.13587866E+04</pdfrwt>
<pdfrwt beam="2">  1       -2 0.39210455E-01 0.13587866E+04</pdfrwt>
<totfact> 0.21151471E+01</totfact>
</mgrwt>
</event>
<event>
12    5  0.5246737E-008  0.1468478E+04  0.7818608E-02  0.8905690E-01
          1   -1    0    0  501    0  0.00000000000E+00  0.00000000000E+00  0.27346167204E+03  0.27346167204E+03  0.00000000000E+00 0. -1.
         -2   -1    0    0    0  501 -0.00000000000E+00 -0.00000000000E+00 -0.19714167440E+04  0.19714167440E+04  0.00000000000E+00 0.  1.
        -24    2    1    2    0    0  0.10813257457E+03  0.32881152861E+03 -0.88510014321E+02  0.36612065857E+03  0.80003993433E+02 0.  0.
        254    2    1    2    0    0 -0.10813257457E+03 -0.32881152861E+03 -0.16094450576E+04  0.18787577575E+04  0.90532184479E+03 0.  0.
         23    2    4    4    0    0 -0.48570261626E+03 -0.30203731350E+03 -0.97750574821E+03  0.11362399492E+04  0.91597839178E+02 0.  0.
         23    2    4    4    0    0  0.37757004169E+03 -0.26774215106E+02 -0.63193930942E+03  0.74251780828E+03  0.93324218958E+02 0.  0.
          3    1    3    3  502    0  0.62165401508E+02  0.24202757633E+03 -0.29675909986E+02  0.25163971166E+03  0.00000000000E+00 0. -1.
         -4    1    3    3    0  502  0.45967173065E+02  0.86783952274E+02 -0.58834104335E+02  0.11448094691E+03  0.00000000000E+00 0.  1.
         13    1    5    5    0    0 -0.26804917529E+02 -0.35470076404E+02 -0.11795359746E+03  0.12605427830E+03  0.00000000000E+00 0. -1.
        -13    1    5    5    0    0 -0.45889769873E+03 -0.26656723710E+03 -0.85955215074E+03  0.10101856709E+04  0.00000000000E+00 0.  1.
          3    1    6    6  503    0  0.15703631360E+03  0.27398158307E+02 -0.30944925272E+03  0.34809467516E+03  0.00000000000E+00 0. -1.
         -3    1    6    6    0  503  0.22053372809E+03 -0.54172373414E+02 -0.32249005670E+03  0.39442313312E+03  0.00000000000E+00 0.  1.
<mgrwt>
<rscale>  0 0.14684780E+04</rscale>
<asrwt>0</asrwt>
<pdfrwt beam="1">  1        1 0.42071026E-01 0.14684780E+04</pdfrwt>
<pdfrwt beam="2">  1       -2 0.30329489E+00 0.14684780E+04</pdfrwt>
<totfact> 0.25524303E+00</totfact>
</mgrwt>
</event>
<event>
12    5  0.5246737E-008  0.1353377E+04  0.7818608E-02  0.8988276E-01
          1   -1    0    0  501    0  0.00000000000E+00  0.00000000000E+00  0.19238115454E+04  0.19238115454E+04  0.00000000000E+00 0. -1.
         -2   -1    0    0    0  501 -0.00000000000E+00 -0.00000000000E+00 -0.23802083728E+03  0.23802083728E+03  0.00000000000E+00 0.  1.
        -24    2    1    2    0    0 -0.15149468908E+03  0.56295316735E+02 -0.40679936939E+02  0.18200732937E+03  0.73157413632E+02 0.  0.
        254    2    1    2    0    0  0.15149468908E+03 -0.56295316735E+02  0.17264706450E+04  0.19798250533E+04  0.95545096679E+03 0.  0.
         23    2    4    4    0    0 -0.19827677921E+03  0.34102237527E+03  0.98294867417E+03  0.10625667005E+04  0.85146669722E+02 0.  0.
         23    2    4    4    0    0  0.34977146829E+03 -0.39731769201E+03  0.74352197086E+03  0.91725835277E+03  0.91304633858E+02 0.  0.
          3    1    3    3  502    0 -0.30107174824E+02  0.42416626431E+02  0.33851683066E+01  0.52125536334E+02  0.00000000000E+00 0. -1.
         -4    1    3    3    0  502 -0.12138751426E+03  0.13878690304E+02 -0.44065105245E+02  0.12988179304E+03  0.00000000000E+00 0.  1.
         13    1    5    5    0    0 -0.59041520932E+02  0.10120514599E+03  0.40373141781E+03  0.42038962939E+03  0.00000000000E+00 0. -1.
        -13    1    5    5    0    0 -0.13923525827E+03  0.23981722928E+03  0.57921725636E+03  0.64217707112E+03  0.00000000000E+00 0.  1.
          2    1    6    6  503    0  0.19211515148E+02 -0.89019152560E+01  0.89661432042E+01  0.22993871650E+02  0.00000000000E+00 0. -1.
         -2    1    6    6    0  503  0.33055995314E+03 -0.38841577675E+03  0.73455582766E+03  0.89426448112E+03  0.00000000000E+00 0.  1.
<mgrwt>
<rscale>  0 0.13533769E+04</rscale>
<asrwt>0</asrwt>
<pdfrwt beam="1">  1        1 0.29597100E+00 0.13533769E+04</pdfrwt>
<pdfrwt beam="2">  1       -2 0.36618592E-01 0.13533769E+04</pdfrwt>
<totfact> 0.20267187E+01</totfact>
</mgrwt>
</event>
<event>
12    5  0.5246737E-008  0.1655621E+04  0.7818608E-02  0.8787088E-01
         -2   -1    0    0    0  501 -0.00000000000E+00  0.00000000000E+00  0.57204342803E+03  0.57204342803E+03  0.00000000000E+00 0.  1.
          1   -1    0    0  501    0  0.00000000000E+00 -0.00000000000E+00 -0.11979332242E+04  0.11979332242E+04  0.00000000000E+00 0. -1.
        -24    2    1    2    0    0 -0.31751409514E+03  0.26476556907E+03  0.20874290727E+03  0.47025511764E+03  0.81549170119E+02 0.  0.
        254    2    1    2    0    0  0.31751409514E+03 -0.26476556907E+03 -0.83463270346E+03  0.12997215346E+04  0.90650334289E+03 0.  0.
         23    2    4    4    0    0  0.49638526509E+01  0.28890922205E+03 -0.91263163265E+02  0.31738166716E+03  0.94387389327E+02 0.  0.
         23    2    4    4    0    0  0.31255024249E+03 -0.55367479112E+03 -0.74336954020E+03  0.98233986746E+03  0.90276871328E+02 0.  0.
          1    1    3    3  502    0 -0.10146654992E+03  0.13667299961E+03  0.84313403567E+02  0.18995715200E+03  0.00000000000E+00 0. -1.
         -2    1    3    3    0  502 -0.21604754522E+03  0.12809256946E+03  0.12442950370E+03  0.28029796564E+03  0.00000000000E+00 0.  1.
         13    1    5    5    0    0  0.25898283898E+02  0.18799426814E+03 -0.17364552302E+02  0.19056257146E+03  0.00000000000E+00 0.  1.
        -13    1    5    5    0    0 -0.20934431247E+02  0.10091495390E+03 -0.73898610963E+02  0.12681909570E+03  0.00000000000E+00 0. -1.
          2    1    6    6  503    0  0.74859606575E+02 -0.19488933364E+03 -0.28875814130E+03  0.35632439887E+03  0.00000000000E+00 0.  1.
         -2    1    6    6    0  503  0.23769063592E+03 -0.35878545748E+03 -0.45461139890E+03  0.62601546859E+03  0.00000000000E+00 0. -1.
<mgrwt>
<rscale>  0 0.16556205E+04</rscale>
<asrwt>0</asrwt>
<pdfrwt beam="1">  1        1 0.18429742E+00 0.16556205E+04</pdfrwt>
<pdfrwt beam="2">  1       -2 0.88006682E-01 0.16556205E+04</pdfrwt>
<totfact> 0.99961778E+00</totfact>
</mgrwt>
</event>
<event>
12    5  0.5246737E-008  0.1726762E+04  0.7818608E-02  0.8746246E-01
         -2   -1    0    0    0  501 -0.00000000000E+00  0.00000000000E+00  0.60386897632E+03  0.60386897632E+03  0.00000000000E+00 0.  1.
          1   -1    0    0  501    0  0.00000000000E+00 -0.00000000000E+00 -0.12344184590E+04  0.12344184590E+04  0.00000000000E+00 0. -1.
        -24    2    1    2    0    0  0.19030209261E+03 -0.29284768454E+03 -0.77932770071E+03  0.85816413063E+03  0.84376283493E+02 0.  0.
        254    2    1    2    0    0 -0.19030209261E+03  0.29284768454E+03  0.14877821804E+03  0.98012330469E+03  0.90362164729E+03 0.  0.
         23    2    4    4    0    0  0.66649183556E+02  0.56903740957E+03  0.70117003477E+02  0.58432192544E+03  0.90939711979E+02 0.  0.
         23    2    4    4    0    0 -0.25695127616E+03 -0.27618972503E+03  0.78661214559E+02  0.39580137925E+03  0.90368261065E+02 0.  0.
          1    1    3    3  502    0  0.18766814681E+03 -0.24627951466E+03 -0.71031293007E+03  0.77486604732E+03  0.00000000000E+00 0. -1.
         -2    1    3    3    0  502  0.26339458009E+01 -0.46568169884E+02 -0.69014770647E+02  0.83298083317E+02  0.00000000000E+00 0.  1.
         13    1    5    5    0    0  0.68075918679E+02  0.50735618922E+03  0.34459761458E+02  0.51306150567E+03  0.00000000000E+00 0. -1.
        -13    1    5    5    0    0 -0.14267351234E+01  0.61681220349E+02  0.35657242019E+02  0.71260419766E+02  0.00000000000E+00 0.  1.
          4    1    6    6  503    0 -0.15678284294E+03 -0.14624051536E+03  0.13003925663E+01  0.21440344958E+03  0.00000000000E+00 0. -1.
         -4    1    6    6    0  503 -0.10016843323E+03 -0.12994920967E+03  0.77360821993E+02  0.18139792967E+03  0.00000000000E+00 0.  1.
<mgrwt>
<rscale>  0 0.17267623E+04</rscale>
<asrwt>0</asrwt>
<pdfrwt beam="1">  1        1 0.18991053E+00 0.17267623E+04</pdfrwt>
<pdfrwt beam="2">  1       -2 0.92902919E-01 0.17267623E+04</pdfrwt>
<totfact> 0.82473984E+00</totfact>
</mgrwt>
</event>
<event>
12    5  0.5246737E-008  0.1585609E+04  0.7818608E-02  0.8829438E-01
         -2   -1    0    0    0  501 -0.00000000000E+00  0.00000000000E+00  0.27491534543E+04  0.27491534543E+04  0.00000000000E+00 0.  1.
          1   -1    0    0  501    0  0.00000000000E+00 -0.00000000000E+00 -0.22863000668E+03  0.22863000668E+03  0.00000000000E+00 0. -1.
        -24    2    1    2    0    0  0.17378153968E+03 -0.26210928921E+03  0.45467880064E+02  0.32595704933E+03  0.72659251766E+02 0.  0.
        254    2    1    2    0    0 -0.17378153968E+03  0.26210928921E+03  0.24750555676E+04  0.26518264116E+04  0.89854435171E+03 0.  0.
         23    2    4    4    0    0 -0.25057762204E+03  0.29376078941E+03  0.36491315845E+03  0.53792744579E+03  0.84378774948E+02 0.  0.
         23    2    4    4    0    0  0.76796082352E+02 -0.31651500206E+02  0.21101424091E+04  0.21138989658E+04  0.94701612510E+02 0.  0.
          3    1    3    3  502    0  0.10473763425E+03 -0.16502703785E+03 -0.74552577643E+01  0.19560029682E+03  0.00000000000E+00 0. -1.
         -4    1    3    3    0  502  0.69043905436E+02 -0.97082251359E+02  0.52923137828E+02  0.13035675251E+03  0.00000000000E+00 0.  1.
         13    1    5    5    0    0 -0.18375691010E+03  0.21453272434E+03  0.21190811472E+03  0.35312312429E+03  0.00000000000E+00 0.  1.
        -13    1    5    5    0    0 -0.66820711934E+02  0.79228065074E+02  0.15300504373E+03  0.18480432150E+03  0.00000000000E+00 0. -1.
          1    1    6    6  503    0  0.15400145007E+02  0.10146771544E+02  0.13522696009E+04  0.13523953545E+04  0.00000000000E+00 0. -1.
         -1    1    6    6    0  503  0.61395937345E+02 -0.41798271750E+02  0.75787280820E+03  0.76150361132E+03  0.00000000000E+00 0.  1.
<mgrwt>
<rscale>  0 0.15856090E+04</rscale>
<asrwt>0</asrwt>
<pdfrwt beam="1">  1        1 0.35173849E-01 0.15856090E+04</pdfrwt>
<pdfrwt beam="2">  1       -2 0.42294666E+00 0.15856090E+04</pdfrwt>
<totfact> 0.55360360E-01</totfact>
</mgrwt>
</event>
<event>
12    5  0.5246737E-008  0.2138446E+04  0.7818608E-02  0.8544494E-01
          1   -1    0    0  501    0  0.00000000000E+00  0.00000000000E+00  0.69397227520E+03  0.69397227520E+03  0.00000000000E+00 0. -1.
         -2   -1    0    0    0  501 -0.00000000000E+00 -0.00000000000E+00 -0.16473830930E+04  0.16473830930E+04  0.00000000000E+00 0.  1.
        -24    2    1    2    0    0  0.25785650212E+03  0.14039966038E+01  0.52738992034E+03  0.59242865731E+03  0.79621850240E+02 0.  0.
        254    2    1    2    0    0 -0.25785650212E+03 -0.14039966038E+01 -0.14808007381E+04  0.17489267109E+04  0.89413749900E+03 0.  0.
         23    2    4    4    0    0 -0.25256493211E+03 -0.20795870557E+03 -0.14848570946E+04  0.15233290425E+04  0.93246513730E+02 0.  0.
         23    2    4    4    0    0 -0.52915700041E+01  0.20655470897E+03  0.40563564644E+01  0.22559766835E+03  0.90471019819E+02 0.  0.
          1    1    3    3  502    0  0.20436139323E+03  0.25361364091E+01  0.47695306225E+03  0.51889713299E+03  0.00000000000E+00 0. -1.
         -2    1    3    3    0  502  0.53495108886E+02 -0.11321398053E+01  0.50436858083E+02  0.73531524318E+02  0.00000000000E+00 0.  1.
         13    1    5    5    0    0 -0.21396862585E+03 -0.21202310259E+03 -0.13296125545E+04  0.13633069771E+04  0.00000000000E+00 0. -1.
        -13    1    5    5    0    0 -0.38596306264E+02  0.40643970212E+01 -0.15524454008E+03  0.16002206537E+03  0.00000000000E+00 0.  1.
          1    1    6    6  503    0 -0.23444401715E+02  0.16292968340E+03  0.36082115164E+02  0.16851599550E+03  0.00000000000E+00 0. -1.
         -1    1    6    6    0  503  0.18152831711E+02  0.43625025563E+02 -0.32025758700E+02  0.57081672845E+02  0.00000000000E+00 0.  1.
<mgrwt>
<rscale>  0 0.21384463E+04</rscale>
<asrwt>0</asrwt>
<pdfrwt beam="1">  1        1 0.10676497E+00 0.21384463E+04</pdfrwt>
<pdfrwt beam="2">  1       -2 0.25344355E+00 0.21384463E+04</pdfrwt>
<totfact> 0.13565962E+00</totfact>
</mgrwt>
</event>
<event>
12    5  0.5246737E-008  0.1871416E+04  0.7818608E-02  0.8669217E-01
         -2   -1    0    0    0  501 -0.00000000000E+00  0.00000000000E+00  0.16102892338E+04  0.16102892338E+04  0.00000000000E+00 0.  1.
          1   -1    0    0  501    0  0.00000000000E+00 -0.00000000000E+00 -0.54372206435E+03  0.54372206435E+03  0.00000000000E+00 0. -1.
        -24    2    1    2    0    0 -0.66470013696E+03  0.27426751190E+03  0.30779440699E+03  0.78623645045E+03  0.79883783661E+02 0.  0.
        254    2    1    2    0    0  0.66470013696E+03 -0.27426751190E+03  0.75877276245E+03  0.13677748477E+04  0.88205611431E+03 0.  0.
         23    2    4    4    0    0  0.75426816504E+03  0.58091362200E+02  0.63401510166E+03  0.99121697898E+03  0.90779288040E+02 0.  0.
         23    2    4    4    0    0 -0.89568028080E+02 -0.33235887410E+03  0.12475766079E+03  0.37655786871E+03  0.88014213158E+02 0.  0.
          1    1    3    3  502    0 -0.30430876522E+03  0.12395624857E+03  0.18402854531E+03  0.37661051717E+03  0.00000000000E+00 0. -1.
         -2    1    3    3    0  502 -0.36039137173E+03  0.15031126333E+03  0.12376586168E+03  0.40962593329E+03  0.00000000000E+00 0.  1.
         13    1    5    5    0    0  0.47345829702E+03  0.25022636388E+02  0.34090588797E+03  0.58395694688E+03  0.00000000000E+00 0. -1.
        -13    1    5    5    0    0  0.28080986801E+03  0.33068725812E+02  0.29310921369E+03  0.40726003210E+03  0.00000000000E+00 0.  1.
          4    1    6    6  503    0 -0.68645473984E+02 -0.12406425400E+03  0.78856027345E+02  0.16224183575E+03  0.00000000000E+00 0. -1.
         -4    1    6    6    0  503 -0.20922554095E+02 -0.20829462010E+03  0.45901633445E+02  0.21431603296E+03  0.00000000000E+00 0.  1.
<mgrwt>
<rscale>  0 0.18714163E+04</rscale>
<asrwt>0</asrwt>
<pdfrwt beam="1">  1        1 0.83649549E-01 0.18714163E+04</pdfrwt>
<pdfrwt beam="2">  1       -2 0.24773680E+00 0.18714163E+04</pdfrwt>
<totfact> 0.21474333E+00</totfact>
</mgrwt>
</event>
<event>
12    5  0.5246737E-008  0.1747389E+04  0.7818608E-02  0.8734789E-01
         -2   -1    0    0    0  501 -0.00000000000E+00  0.00000000000E+00  0.15198903150E+04  0.15198903150E+04  0.00000000000E+00 0.  1.
          1   -1    0    0  501    0  0.00000000000E+00 -0.00000000000E+00 -0.50223497802E+03  0.50223497802E+03  0.00000000000E+00 0. -1.
        -24    2    1    2    0    0 -0.48022578962E+03  0.25910433210E+03 -0.54972321605E+02  0.55437095469E+03  0.80952673367E+02 0.  0.
        254    2    1    2    0    0  0.48022578962E+03 -0.25910433210E+03  0.10726276586E+04  0.14677543384E+04  0.84025046255E+03 0.  0.
         23    2    4    4    0    0 -0.18081072266E+03 -0.95018219170E+02  0.58077596698E+03  0.62242729112E+03  0.91618936367E+02 0.  0.
         23    2    4    4    0    0  0.66103651229E+03 -0.16408611293E+03  0.49185169163E+03  0.84532704724E+03  0.93628025735E+02 0.  0.
          3    1    3    3  502    0 -0.32900606681E+03  0.21887317186E+03 -0.39391816961E+02  0.39711732851E+03  0.00000000000E+00 0. -1.
         -4    1    3    3    0  502 -0.15121972281E+03  0.40231160246E+02 -0.15580504644E+02  0.15725362618E+03  0.00000000000E+00 0.  1.
         13    1    5    5    0    0 -0.95036374670E+02 -0.39600277807E+02  0.41618030471E+03  0.42872618364E+03  0.00000000000E+00 0. -1.
        -13    1    5    5    0    0 -0.85774347995E+02 -0.55417941363E+02  0.16459566228E+03  0.19370110748E+03  0.00000000000E+00 0.  1.
          1    1    6    6  503    0  0.53705201366E+03 -0.11366903889E+03  0.43276560381E+03  0.69902187635E+03  0.00000000000E+00 0. -1.
         -1    1    6    6    0  503  0.12398449863E+03 -0.50417074044E+02  0.59086087826E+02  0.14630517089E+03  0.00000000000E+00 0.  1.
<mgrwt>
<rscale>  0 0.17473890E+04</rscale>
<asrwt>0</asrwt>
<pdfrwt beam="1">  1        1 0.77266920E-01 0.17473890E+04</pdfrwt>
<pdfrwt beam="2">  1       -2 0.23382928E+00 0.17473890E+04</pdfrwt>
<totfact> 0.29547329E+00</totfact>
</mgrwt>
</event>
<event>
12    5  0.5246737E-008  0.1691659E+04  0.7818608E-02  0.8766136E-01
          1   -1    0    0  501    0  0.00000000000E+00  0.00000000000E+00  0.55333860208E+03  0.55333860208E+03  0.00000000000E+00 0. -1.
         -2   -1    0    0    0  501 -0.00000000000E+00 -0.00000000000E+00 -0.12929285373E+04  0.12929285373E+04  0.00000000000E+00 0.  1.
        -24    2    1    2    0    0  0.39558540672E+03 -0.88789383281E+00  0.23557254115E+03  0.46719703552E+03  0.79309807028E+02 0.  0.
        254    2    1    2    0    0 -0.39558540672E+03  0.88789383281E+00 -0.97516247641E+03  0.13790701039E+04  0.89129338250E+03 0.  0.
         23    2    4    4    0    0 -0.64062510032E+03  0.56784499814E+02 -0.45529087449E+03  0.79336896482E+03  0.92301329228E+02 0.  0.
         23    2    4    4    0    0  0.24503969360E+03 -0.55896605981E+02 -0.51987160192E+03  0.58570113907E+03  0.98032952761E+02 0.  0.
          3    1    3    3  502    0  0.99978502523E+02  0.23931261872E+02  0.90565186774E+02  0.13700532587E+03  0.00000000000E+00 0. -1.
         -4    1    3    3    0  502  0.29560690420E+03 -0.24819155705E+02  0.14500735437E+03  0.33019170965E+03  0.00000000000E+00 0.  1.
         13    1    5    5    0    0 -0.14735370736E+02  0.11256147309E+02 -0.30077240209E+02  0.35333728667E+02  0.00000000000E+00 0.  1.
        -13    1    5    5    0    0 -0.62588972958E+03  0.45528352505E+02 -0.42521363428E+03  0.75803523616E+03  0.00000000000E+00 0. -1.
          4    1    6    6  503    0  0.23764805782E+03 -0.43730425311E+02 -0.41782370406E+03  0.48266509834E+03  0.00000000000E+00 0. -1.
         -4    1    6    6    0  503  0.73916357795E+01 -0.12166180671E+02 -0.10204789786E+03  0.10303604073E+03  0.00000000000E+00 0.  1.
<mgrwt>
<rscale>  0 0.16916587E+04</rscale>
<asrwt>0</asrwt>
<pdfrwt beam="1">  1        1 0.85129016E-01 0.16916587E+04</pdfrwt>
<pdfrwt beam="2">  1       -2 0.19891208E+00 0.16916587E+04</pdfrwt>
<totfact> 0.43296865E+00</totfact>
</mgrwt>
</event>
<event>
12    5  0.5246737E-008  0.1099127E+04  0.7818608E-02  0.9206043E-01
          1   -1    0    0  501    0  0.00000000000E+00  0.00000000000E+00  0.45778373532E+03  0.45778373532E+03  0.00000000000E+00 0. -1.
         -2   -1    0    0    0  501 -0.00000000000E+00 -0.00000000000E+00 -0.65974413438E+03  0.65974413438E+03  0.00000000000E+00 0.  1.
        -24    2    1    2    0    0 -0.14452941480E+03 -0.55268766393E+02  0.94270123973E+02  0.19778522914E+03  0.79301653885E+02 0.  0.
        254    2    1    2    0    0  0.14452941480E+03  0.55268766393E+02 -0.29623052304E+03  0.91974264056E+03  0.85687257734E+03 0.  0.
         23    2    4    4    0    0  0.48141197358E+02 -0.29848250400E+03  0.13553052526E+03  0.34500258415E+03  0.96171096030E+02 0.  0.
         23    2    4    4    0    0  0.96388217445E+02  0.35375127040E+03 -0.43176104830E+03  0.57474005641E+03  0.97354403309E+02 0.  0.
          1    1    3    3  502    0 -0.15440821893E+03 -0.48738255969E+02  0.85983256918E+02  0.18333149249E+03  0.00000000000E+00 0. -1.
         -2    1    3    3    0  502  0.98788041295E+01 -0.65305104239E+01  0.82868670548E+01  0.14453736645E+02  0.00000000000E+00 0.  1.
         13    1    5    5    0    0 -0.76938313640E+01 -0.22272107136E+03  0.10208564145E+03  0.24512312999E+03  0.00000000000E+00 0. -1.
        -13    1    5    5    0    0  0.55835028722E+02 -0.75761432647E+02  0.33444883814E+02  0.99879454156E+02  0.00000000000E+00 0.  1.
          1    1    6    6  503    0 -0.10676561087E+02  0.13370007068E+03 -0.16731116024E+03  0.21443582302E+03  0.00000000000E+00 0. -1.
         -1    1    6    6    0  503  0.10706477853E+03  0.22005119972E+03 -0.26444988806E+03  0.36030423339E+03  0.00000000000E+00 0.  1.
<mgrwt>
<rscale>  0 0.10991272E+04</rscale>
<asrwt>0</asrwt>
<pdfrwt beam="1">  1        1 0.70428267E-01 0.10991272E+04</pdfrwt>
<pdfrwt beam="2">  1       -2 0.10149910E+00 0.10991272E+04</pdfrwt>
<totfact> 0.34747859E+01</totfact>
</mgrwt>
</event>
<event>
12    5  0.5246737E-008  0.2075007E+04  0.7818608E-02  0.8572334E-01
         -2   -1    0    0    0  501 -0.00000000000E+00  0.00000000000E+00  0.44908887626E+03  0.44908887626E+03  0.00000000000E+00 0.  1.
          1   -1    0    0  501    0  0.00000000000E+00 -0.00000000000E+00 -0.23968827275E+04  0.23968827275E+04  0.00000000000E+00 0. -1.
        -24    2    1    2    0    0  0.39971618560E+03  0.73228439336E+03 -0.61767172742E+03  0.10410487628E+04  0.79061380682E+02 0.  0.
        254    2    1    2    0    0 -0.39971618560E+03 -0.73228439336E+03 -0.13301221238E+04  0.18049228410E+04  0.89022926020E+03 0.  0.
         23    2    4    4    0    0 -0.57948920186E+03 -0.16628050042E+03 -0.55807202423E+03  0.82661664802E+03  0.91617458327E+02 0.  0.
         23    2    4    4    0    0  0.17977301626E+03 -0.56600389294E+03 -0.77205009961E+03  0.97830619294E+03  0.91339513012E+02 0.  0.
          1    1    3    3  502    0  0.30023640492E+03  0.60922218206E+03 -0.48546764797E+03  0.83484873072E+03  0.00000000000E+00 0. -1.
         -2    1    3    3    0  502  0.99479780680E+02  0.12306221129E+03 -0.13220407944E+03  0.20620003209E+03  0.00000000000E+00 0.  1.
         13    1    5    5    0    0 -0.21810558254E+03 -0.52716185593E+02 -0.26781776131E+03  0.34939289436E+03  0.00000000000E+00 0.  1.
        -13    1    5    5    0    0 -0.36138361932E+03 -0.11356431482E+03 -0.29025426292E+03  0.47722375366E+03  0.00000000000E+00 0. -1.
          1    1    6    6  503    0  0.13554663111E+03 -0.50322331866E+03 -0.70243189383E+03  0.87465259568E+03  0.00000000000E+00 0. -1.
         -1    1    6    6    0  503  0.44226385147E+02 -0.62780574276E+02 -0.69618205781E+02  0.10365359726E+03  0.00000000000E+00 0.  1.
<mgrwt>
<rscale>  0 0.20750069E+04</rscale>
<asrwt>0</asrwt>
<pdfrwt beam="1">  1        1 0.36875119E+00 0.20750069E+04</pdfrwt>
<pdfrwt beam="2">  1       -2 0.69090596E-01 0.20750069E+04</pdfrwt>
<totfact> 0.24732086E+00</totfact>
</mgrwt>
</event>
<event>
12    5  0.5246737E-008  0.1154892E+04  0.7818608E-02  0.9153282E-01
         -2   -1    0    0    0  501 -0.00000000000E+00  0.00000000000E+00  0.53472657570E+03  0.53472657570E+03  0.00000000000E+00 0.  1.
          1   -1    0    0  501    0  0.00000000000E+00 -0.00000000000E+00 -0.62357879400E+03  0.62357879400E+03  0.00000000000E+00 0. -1.
        -24    2    1    2    0    0 -0.74356433478E+02  0.14248796018E+03  0.13053771834E+03  0.22209452535E+03  0.80337938020E+02 0.  0.
        254    2    1    2    0    0  0.74356433478E+02 -0.14248796018E+03 -0.21938993664E+03  0.93621084435E+03  0.89583877053E+03 0.  0.
         23    2    4    4    0    0 -0.23913765074E+03 -0.14795709140E+03  0.23443655277E+03  0.37746180526E+03  0.91862942814E+02 0.  0.
         23    2    4    4    0    0  0.31349408422E+03  0.54691312137E+01 -0.45382648941E+03  0.55874903909E+03  0.89070499915E+02 0.  0.
          3    1    3    3  502    0  0.64124625726E+01  0.67327606309E+02  0.35016289592E+02  0.76159482563E+02  0.00000000000E+00 0. -1.
         -4    1    3    3    0  502 -0.80768896050E+02  0.75160353876E+02  0.95521428751E+02  0.14593504279E+03  0.00000000000E+00 0.  1.
         13    1    5    5    0    0  0.60348989993E+01 -0.15899091809E+02  0.94411271960E+01  0.19450861395E+02  0.00000000000E+00 0.  1.
        -13    1    5    5    0    0 -0.24517254974E+03 -0.13205799959E+03  0.22499542557E+03  0.35801094387E+03  0.00000000000E+00 0. -1.
          3    1    6    6  503    0  0.31072483077E+03  0.63661891361E+01 -0.40828732571E+03  0.51311693517E+03  0.00000000000E+00 0. -1.
         -3    1    6    6    0  503  0.27692534467E+01 -0.89705792234E+00 -0.45539163698E+02  0.45632103917E+02  0.00000000000E+00 0.  1.
<mgrwt>
<rscale>  0 0.11548925E+04</rscale>
<asrwt>0</asrwt>
<pdfrwt beam="1">  1        1 0.95935199E-01 0.11548925E+04</pdfrwt>
<pdfrwt beam="2">  1       -2 0.82265627E-01 0.11548925E+04</pdfrwt>
<totfact> 0.36531799E+01</totfact>
</mgrwt>
</event>
<event>
12    5  0.5246737E-008  0.2145232E+04  0.7818608E-02  0.8541576E-01
         -2   -1    0    0    0  501 -0.00000000000E+00  0.00000000000E+00  0.90829136532E+03  0.90829136532E+03  0.00000000000E+00 0.  1.
          1   -1    0    0  501    0  0.00000000000E+00 -0.00000000000E+00 -0.12666702131E+04  0.12666702131E+04  0.00000000000E+00 0. -1.
        -24    2    1    2    0    0 -0.63011515930E+03  0.18640458725E+03  0.44550971797E+03  0.79762407984E+03  0.77029084132E+02 0.  0.
        254    2    1    2    0    0  0.63011515930E+03 -0.18640458725E+03 -0.80388856577E+03  0.13773374986E+04  0.90500274848E+03 0.  0.
         23    2    4    4    0    0 -0.19093129891E+03  0.11242670756E+03 -0.17726842280E+03  0.29791900948E+03  0.90758564389E+02 0.  0.
         23    2    4    4    0    0  0.82104645821E+03 -0.29883129481E+03 -0.62662014297E+03  0.10794184891E+04  0.95257765076E+02 0.  0.
          1    1    3    3  502    0 -0.24765749089E+03  0.11149523449E+03  0.17147224338E+03  0.32119799246E+03  0.00000000000E+00 0. -1.
         -2    1    3    3    0  502 -0.38245766841E+03  0.74909352753E+02  0.27403747459E+03  0.47642608738E+03  0.00000000000E+00 0.  1.
         13    1    5    5    0    0 -0.16050886289E+03  0.12787058361E+03 -0.15503339395E+03  0.25719512916E+03  0.00000000000E+00 0.  1.
        -13    1    5    5    0    0 -0.30422436013E+02 -0.15443876052E+02 -0.22235028847E+02  0.40723880320E+02  0.00000000000E+00 0. -1.
          3    1    6    6  503    0  0.14319045624E+02  0.72235616932E+01 -0.12932570762E+02  0.20602579878E+02  0.00000000000E+00 0. -1.
         -3    1    6    6    0  503  0.80672741258E+03 -0.30605485650E+03 -0.61368757221E+03  0.10588159093E+04  0.00000000000E+00 0.  1.
<mgrwt>
<rscale>  0 0.21452325E+04</rscale>
<asrwt>0</asrwt>
<pdfrwt beam="1">  1        1 0.19487234E+00 0.21452325E+04</pdfrwt>
<pdfrwt beam="2">  1       -2 0.13973713E+00 0.21452325E+04</pdfrwt>
<totfact> 0.27728853E+00</totfact>
</mgrwt>
</event>
<event>
12    5  0.5246737E-008  0.1604493E+04  0.7818608E-02  0.8817793E-01
         -2   -1    0    0    0  501 -0.00000000000E+00  0.00000000000E+00  0.42725566159E+03  0.42725566159E+03  0.00000000000E+00 0.  1.
          1   -1    0    0  501    0  0.00000000000E+00 -0.00000000000E+00 -0.15063564605E+04  0.15063564605E+04  0.00000000000E+00 0. -1.
        -24    2    1    2    0    0  0.30582234002E+03 -0.39902528950E+03 -0.60943895875E+03  0.79402285752E+03  0.79422720338E+02 0.  0.
        254    2    1    2    0    0 -0.30582234002E+03  0.39902528950E+03 -0.46966184019E+03  0.11395892646E+04  0.90847837759E+03 0.  0.
         23    2    4    4    0    0 -0.63799541281E+02  0.42176652946E+03 -0.67808235775E+03  0.80636866819E+03  0.92072570863E+02 0.  0.
         23    2    4    4    0    0 -0.24202279874E+03 -0.22741239958E+02  0.20842051756E+03  0.33322059642E+03  0.92220684404E+02 0.  0.
          3    1    3    3  502    0  0.18807614556E+03 -0.22921065521E+03 -0.41690818818E+03  0.51158830945E+03  0.00000000000E+00 0. -1.
         -4    1    3    3    0  502  0.11774619446E+03 -0.16981463430E+03 -0.19253077057E+03  0.28243454807E+03  0.00000000000E+00 0.  1.
         13    1    5    5    0    0 -0.51177909749E+02  0.35797896668E+03 -0.50217460179E+03  0.61882747977E+03  0.00000000000E+00 0. -1.
        -13    1    5    5    0    0 -0.12621631532E+02  0.63787562780E+02 -0.17590775596E+03  0.18754118842E+03  0.00000000000E+00 0.  1.
          1    1    6    6  503    0 -0.18999166965E+03 -0.52809333506E+02  0.13822280277E+03  0.24081362803E+03  0.00000000000E+00 0. -1.
         -1    1    6    6    0  503 -0.52031129091E+02  0.30068093548E+02  0.70197714787E+02  0.92406968382E+02  0.00000000000E+00 0.  1.
<mgrwt>
<rscale>  0 0.16044928E+04</rscale>
<asrwt>0</asrwt>
<pdfrwt beam="1">  1        1 0.23174715E+00 0.16044928E+04</pdfrwt>
<pdfrwt beam="2">  1       -2 0.65731640E-01 0.16044928E+04</pdfrwt>
<totfact> 0.11615106E+01</totfact>
</mgrwt>
</event>
<event>
12    5  0.5246737E-008  0.1761349E+04  0.7818608E-02  0.8727128E-01
          1   -1    0    0  501    0  0.00000000000E+00  0.00000000000E+00  0.44106694515E+03  0.44106694515E+03  0.00000000000E+00 0. -1.
         -2   -1    0    0    0  501 -0.00000000000E+00 -0.00000000000E+00 -0.17584359106E+04  0.17584359106E+04  0.00000000000E+00 0.  1.
        -24    2    1    2    0    0  0.17847473524E+03  0.40809852212E+03  0.91280569587E+02  0.46169366630E+03  0.80195163487E+02 0.  0.
        254    2    1    2    0    0 -0.17847473524E+03 -0.40809852212E+03 -0.14086495350E+04  0.17378091894E+04  0.91503531708E+03 0.  0.
         23    2    4    4    0    0 -0.13476944139E+03 -0.47988920266E+03 -0.23651865523E+03  0.55921785425E+03  0.91252863420E+02 0.  0.
         23    2    4    4    0    0 -0.43705293852E+02  0.71790680541E+02 -0.11721308798E+04  0.11785913352E+04  0.90125920184E+02 0.  0.
          1    1    3    3  502    0  0.17686003519E+03  0.39643755027E+03  0.73363069104E+02  0.44025486167E+03  0.00000000000E+00 0. -1.
         -2    1    3    3    0  502  0.16147000476E+01  0.11660971846E+02  0.17917500483E+02  0.21438804636E+02  0.00000000000E+00 0.  1.
         13    1    5    5    0    0 -0.13459539664E+03 -0.33778565481E+03 -0.18580242479E+03  0.40833516925E+03  0.00000000000E+00 0.  1.
        -13    1    5    5    0    0 -0.17404475484E+00 -0.14210354785E+03 -0.50716230440E+02  0.15088268500E+03  0.00000000000E+00 0. -1.
          3    1    6    6  503    0 -0.29387832385E+02  0.30253051760E+02 -0.15871367967E+03  0.16422217861E+03  0.00000000000E+00 0. -1.
         -3    1    6    6    0  503 -0.14317461467E+02  0.41537628781E+02 -0.10134172001E+04  0.10143691566E+04  0.00000000000E+00 0.  1.
<mgrwt>
<rscale>  0 0.17613494E+04</rscale>
<asrwt>0</asrwt>
<pdfrwt beam="1">  1        1 0.67856454E-01 0.17613494E+04</pdfrwt>
<pdfrwt beam="2">  1       -2 0.27052860E+00 0.17613494E+04</pdfrwt>
<totfact> 0.20975355E+00</totfact>
</mgrwt>
</event>
<event>
12    5  0.5246737E-008  0.2019047E+04  0.7818608E-02  0.8597767E-01
         -2   -1    0    0    0  501 -0.00000000000E+00  0.00000000000E+00  0.72684179081E+03  0.72684179081E+03  0.00000000000E+00 0.  1.
          1   -1    0    0  501    0  0.00000000000E+00 -0.00000000000E+00 -0.14021452614E+04  0.14021452614E+04  0.00000000000E+00 0. -1.
        -24    2    1    2    0    0 -0.31483233818E+03  0.43263559521E+03 -0.90602152762E+03  0.10552553826E+04  0.79974711579E+02 0.  0.
        254    2    1    2    0    0  0.31483233818E+03 -0.43263559521E+03  0.23071805704E+03  0.10737316696E+04  0.90187355940E+03 0.  0.
         23    2    4    4    0    0  0.53002425205E+03 -0.52945720174E+03  0.29835594419E+03  0.81159365047E+03  0.91746105122E+02 0.  0.
         23    2    4    4    0    0 -0.21519191387E+03  0.96821606527E+02 -0.67637887155E+02  0.26213801918E+03  0.91975399069E+02 0.  0.
          1    1    3    3  502    0 -0.26566230398E+03  0.38100747090E+03 -0.82933008617E+03  0.95054276309E+03  0.00000000000E+00 0. -1.
         -4    1    3    3    0  502 -0.49170034202E+02  0.51628124315E+02 -0.76691441449E+02  0.10471261947E+03  0.00000000000E+00 0.  1.
         13    1    5    5    0    0  0.44316387315E+03 -0.40984379544E+03  0.20860630749E+03  0.63865698670E+03  0.00000000000E+00 0.  1.
        -13    1    5    5    0    0  0.86860378902E+02 -0.11961340630E+03  0.89749636696E+02  0.17293666377E+03  0.00000000000E+00 0. -1.
          1    1    6    6  503    0  0.71965712601E+01  0.14327699573E+02 -0.32709635216E+01  0.16363765316E+02  0.00000000000E+00 0. -1.
         -1    1    6    6    0  503 -0.22238848513E+03  0.82493906954E+02 -0.64366923633E+02  0.24577425386E+03  0.00000000000E+00 0.  1.
<mgrwt>
<rscale>  0 0.20190471E+04</rscale>
<asrwt>0</asrwt>
<pdfrwt beam="1">  1        1 0.21571465E+00 0.20190471E+04</pdfrwt>
<pdfrwt beam="2">  1       -2 0.11182182E+00 0.20190471E+04</pdfrwt>
<totfact> 0.39287303E+00</totfact>
</mgrwt>
</event>
<event>
12    5  0.5246737E-008  0.1435045E+04  0.7818608E-02  0.8928835E-01
          1   -1    0    0  501    0  0.00000000000E+00  0.00000000000E+00  0.13031267629E+04  0.13031267629E+04  0.00000000000E+00 0. -1.
         -2   -1    0    0    0  501 -0.00000000000E+00 -0.00000000000E+00 -0.39507933779E+03  0.39507933779E+03  0.00000000000E+00 0.  1.
        -24    2    1    2    0    0 -0.27424282320E+03  0.16826778630E+03 -0.68237711861E+02  0.33854916930E+03  0.80224564385E+02 0.  0.
        254    2    1    2    0    0  0.27424282320E+03 -0.16826778630E+03  0.97628513698E+03  0.13596569314E+04  0.88995007076E+03 0.  0.
         23    2    4    4    0    0  0.45925295767E+03 -0.20437302647E+03  0.18813637588E+03  0.54423062587E+03  0.90055900035E+02 0.  0.
         23    2    4    4    0    0 -0.18501013447E+03  0.36105240169E+02  0.78814876110E+03  0.81542630553E+03  0.90604922057E+02 0.  0.
          3    1    3    3  502    0 -0.83037376362E+02  0.20076071429E+02  0.56238078750E+01  0.85614728477E+02  0.00000000000E+00 0. -1.
         -4    1    3    3    0  502 -0.19120544684E+03  0.14819171487E+03 -0.73861519736E+02  0.25293444082E+03  0.00000000000E+00 0.  1.
         13    1    5    5    0    0  0.16410459562E+01  0.35957971079E+01 -0.44456007773E+01  0.59486263072E+01  0.00000000000E+00 0. -1.
        -13    1    5    5    0    0  0.45761191171E+03 -0.20796882358E+03  0.19258197666E+03  0.53828199956E+03  0.00000000000E+00 0.  1.
          1    1    6    6  503    0 -0.84689329947E+02 -0.52936144130E+01  0.19854590509E+03  0.21591846004E+03  0.00000000000E+00 0. -1.
         -1    1    6    6    0  503 -0.10032080452E+03  0.41398854582E+02  0.58960285602E+03  0.59950784549E+03  0.00000000000E+00 0.  1.
<mgrwt>
<rscale>  0 0.14350449E+04</rscale>
<asrwt>0</asrwt>
<pdfrwt beam="1">  1        1 0.20048104E+00 0.14350449E+04</pdfrwt>
<pdfrwt beam="2">  1       -2 0.60781437E-01 0.14350449E+04</pdfrwt>
<totfact> 0.19342164E+01</totfact>
</mgrwt>
</event>
<event>
12    5  0.5246737E-008  0.1897972E+04  0.7818608E-02  0.8655867E-01
         -2   -1    0    0    0  501 -0.00000000000E+00  0.00000000000E+00  0.27388806677E+03  0.27388806677E+03  0.00000000000E+00 0.  1.
          1   -1    0    0  501    0  0.00000000000E+00 -0.00000000000E+00 -0.32881099171E+04  0.32881099171E+04  0.00000000000E+00 0. -1.
        -24    2    1    2    0    0  0.25343966781E+03 -0.18974095128E+03 -0.23920406414E+04  0.24142454614E+04  0.80556963445E+02 0.  0.
        254    2    1    2    0    0 -0.25343966781E+03  0.18974095128E+03 -0.62218120896E+03  0.11477525224E+04  0.91103957221E+03 0.  0.
         23    2    4    4    0    0 -0.58581880009E+02 -0.10421894225E+03  0.19848217903E+03  0.24977957532E+03  0.93280417390E+02 0.  0.
         23    2    4    4    0    0 -0.19485778780E+03  0.29395989353E+03 -0.82066338799E+03  0.89797294710E+03  0.92114281564E+02 0.  0.
          3    1    3    3  502    0  0.19672272482E+03 -0.17097005473E+03 -0.21034500820E+04  0.21195359958E+04  0.00000000000E+00 0. -1.
         -4    1    3    3    0  502  0.56716942995E+02 -0.18770896544E+02 -0.28859055933E+03  0.29470946560E+03  0.00000000000E+00 0.  1.
         13    1    5    5    0    0  0.82682675028E+00  0.16774268167E+02  0.19956545701E+02  0.26083010396E+02  0.00000000000E+00 0. -1.
        -13    1    5    5    0    0 -0.59408706759E+02 -0.12099321042E+03  0.17852563333E+03  0.22369656493E+03  0.00000000000E+00 0.  1.
          2    1    6    6  503    0 -0.24132194987E+02  0.11288554791E+03 -0.24618706814E+03  0.27190730457E+03  0.00000000000E+00 0. -1.
         -2    1    6    6    0  503 -0.17072559281E+03  0.18107434561E+03 -0.57447631985E+03  0.62606564252E+03  0.00000000000E+00 0.  1.
<mgrwt>
<rscale>  0 0.18979716E+04</rscale>
<asrwt>0</asrwt>
<pdfrwt beam="1">  1        1 0.50586306E+00 0.18979716E+04</pdfrwt>
<pdfrwt beam="2">  1       -2 0.42136626E-01 0.18979716E+04</pdfrwt>
<totfact> 0.16065987E+00</totfact>
</mgrwt>
</event>
